 *******************************************************************************
 ** Site#: 4824         For non-commercial use only    Version 21.013L 64BITS **
 *******************************************************************************
 ** Cite this program as: MOPAC2016, Version: 21.013L, James J. P. Stewart,   **
 ** Stewart Computational Chemistry, web: HTTP://OpenMOPAC.net. Days left:  84**
 *******************************************************************************
 **                                                                           **
 **                                MOPAC2016                                  **
 **                                                                           **
 *******************************************************************************

                              INDO CALCULATION RESULTS

 *******************************************************************************
 *  CALCULATION DONE:                                Thu Oct 21 11:24:58 2021  *
 *  INDO       - The INDO Hamiltonian to be used
 *  CIS        - C.I. USES 1 ELECTRON EXCITATIONS ONLY
 *  EPS=  8.93 - USE ANDREAS KLAMT'S COSMO IMPLICIT SOLVATION MODEL
 *  n**2 =  1.420 for COSMO-CI
 *  T=         - A TIME OF 172800.0 SECONDS REQUESTED
 *  DUMP=N     - RESTART FILE WRITTEN EVERY 7200.0 SECONDS REQUESTED
 *******************************************************************************
INDO CIS EPS=8.93 N**2=1.42
 Dye17
 Calculo de Estados Excitados
   ATOM   CHEMICAL          X               Y               Z
  NUMBER   SYMBOL      (ANGSTROMS)     (ANGSTROMS)     (ANGSTROMS)
 
     1       C          0.00000000  *   0.00000000  *   0.00000000  *
     2       C          1.51987514  *   0.00000000  *   0.00000000  *
     3       C          2.05484410  *   1.42881106  *   0.00000000  *
     4       C          3.59052039  *   1.41480447  *  -0.00263957  *
     5       N          4.13930463  *   2.76772100  *  -0.00812407  *
     6       C          4.39612204  *   3.55816391  *   1.13211128  *
     7       C          4.40367657  *   3.20188251  *   2.47826716  *
     8       C          4.74094148  *   4.18339972  *   3.39536028  *
     9       C          5.06257334  *   5.48890933  *   2.99069880  *
    10       C          5.05210268  *   5.84675337  *   1.64593141  *
    11       C          4.71348438  *   4.87945424  *   0.71557141  *
    12       C          4.59754493  *   4.90917937  *  -0.72032913  *
    13       C          4.20827731  *   3.60233995  *  -1.13334111  *
    14       C          3.98137974  *   3.30427546  *  -2.47669015  *
    15       C          4.18092004  *   4.31717629  *  -3.39814308  *
    16       C          4.59021464  *   5.59886051  *  -2.99962062  *
    17       C          4.78362412  *   5.90945528  *  -1.65429953  *
    18       C          4.79679920  *   6.64239674  *  -3.98681516  *
    19       C          5.46782761  *   6.44828986  *  -5.13745162  *
    20       C          5.60885290  *   7.55552733  *  -6.09235751  *
    21       O          5.18561017  *   8.69456693  *  -5.95365549  *
    22       O          6.27648593  *   7.22842727  *  -7.21699424  *
    23       C          6.08534809  *   5.21583217  *  -5.46908313  *
    24       N          6.59355092  *   4.21622545  *  -5.75145301  *
    25       C          5.41756429  *   6.45735558  *   4.00094715  *
    26       C          6.24095975  *   6.23789594  *   5.06526724  *
    27       C          6.38043810  *   7.40369424  *   5.88893593  *
    28       C          5.65669112  *   8.45705387  *   5.41391744  *
    29       S          4.79612017  *   8.05700655  *   3.98353879  *
    30       C          5.57289133  *   9.76654758  *   6.01436675  *
    31       C          5.44595510  *   9.87332196  *   7.40278333  *
    32       C          5.37407322  *  11.11612501  *   8.00426263  *
    33       C          5.43164874  *  12.26560126  *   7.20217052  *
    34       C          5.55883445  *  12.17508777  *   5.81906391  *
    35       C          5.62920597  *  10.91606343  *   5.23286662  *
    36       O          5.35116299  *  13.42576118  *   7.91475616  *
    37       C          5.39923119  *  14.63102569  *   7.19515779  *
    38       H          4.37958779  *   7.63205183  *  -3.74524213  *
    39       H         -0.41737120  *   0.50468372  *  -0.88330537  *
    40       H         -0.40781122  *  -1.02130632  *   0.00126112  *
    41       H         -0.41740285  *   0.50696076  *   0.88198833  *
    42       H          1.90218925  *  -0.56044536  *   0.87954909  *
    43       H          1.90218078  *  -0.56084886  *  -0.87932158  *
    44       H          1.67213449  *   1.98969959  *  -0.87908985  *
    45       H          1.67312133  *   1.98921897  *   0.87939437  *
    46       H          3.98849443  *   0.86387886  *   0.88066317  *
    47       H          3.98420158  *   0.86465036  *  -0.88959670  *
    48       H          4.15265526  *   2.19236398  *   2.80891765  *
    49       H          4.74939957  *   3.93637594  *   4.46229167  *
    50       H          5.30908304  *   6.85804439  *   1.32020316  *
    51       H          3.66012078  *   2.31121020  *  -2.79751628  *
    52       H          3.98896548  *   4.11289136  *  -4.45726298  *
    53       H          5.08602727  *   6.91166455  *  -1.33716242  *
    54       H          6.34778431  *   7.98817187  *  -7.81291943  *
    55       H          6.75477953  *   5.30376071  *   5.27811255  *
    56       H          7.00786953  *   7.42392799  *   6.77651734  *
    57       H          5.39590901  *   8.96963743  *   8.01867023  *
    58       H          5.27287870  *  11.20604848  *   9.08986766  *
    59       H          5.60769077  *  13.05561479  *   5.17536084  *
    60       H          5.73698275  *  10.83725548  *   4.14617492  *
    61       H          4.55915871  *  14.75291092  *   6.49155212  *
    62       H          5.31670241  *  15.40067869  *   7.97829236  *
    63       H          6.34882868  *  14.77882350  *   6.65473082  *
 


          CARTESIAN COORDINATES 

    NO.       ATOM           X           Y           Z

     1         C          0.0000      0.0000      0.0000
     2         C          1.5199      0.0000      0.0000
     3         C          2.0548      1.4288      0.0000
     4         C          3.5905      1.4148     -0.0026
     5         N          4.1393      2.7677     -0.0081
     6         C          4.3961      3.5582      1.1321
     7         C          4.4037      3.2019      2.4783
     8         C          4.7409      4.1834      3.3954
     9         C          5.0626      5.4889      2.9907
    10         C          5.0521      5.8468      1.6459
    11         C          4.7135      4.8795      0.7156
    12         C          4.5975      4.9092     -0.7203
    13         C          4.2083      3.6023     -1.1333
    14         C          3.9814      3.3043     -2.4767
    15         C          4.1809      4.3172     -3.3981
    16         C          4.5902      5.5989     -2.9996
    17         C          4.7836      5.9095     -1.6543
    18         C          4.7968      6.6424     -3.9868
    19         C          5.4678      6.4483     -5.1375
    20         C          5.6089      7.5555     -6.0924
    21         O          5.1856      8.6946     -5.9537
    22         O          6.2765      7.2284     -7.2170
    23         C          6.0853      5.2158     -5.4691
    24         N          6.5936      4.2162     -5.7515
    25         C          5.4176      6.4574      4.0009
    26         C          6.2410      6.2379      5.0653
    27         C          6.3804      7.4037      5.8889
    28         C          5.6567      8.4571      5.4139
    29         S          4.7961      8.0570      3.9835
    30         C          5.5729      9.7665      6.0144
    31         C          5.4460      9.8733      7.4028
    32         C          5.3741     11.1161      8.0043
    33         C          5.4316     12.2656      7.2022
    34         C          5.5588     12.1751      5.8191
    35         C          5.6292     10.9161      5.2329
    36         O          5.3512     13.4258      7.9148
    37         C          5.3992     14.6310      7.1952
    38         H          4.3796      7.6321     -3.7452
    39         H         -0.4174      0.5047     -0.8833
    40         H         -0.4078     -1.0213      0.0013
    41         H         -0.4174      0.5070      0.8820
    42         H          1.9022     -0.5604      0.8795
    43         H          1.9022     -0.5608     -0.8793
    44         H          1.6721      1.9897     -0.8791
    45         H          1.6731      1.9892      0.8794
    46         H          3.9885      0.8639      0.8807
    47         H          3.9842      0.8647     -0.8896
    48         H          4.1527      2.1924      2.8089
    49         H          4.7494      3.9364      4.4623
    50         H          5.3091      6.8580      1.3202
    51         H          3.6601      2.3112     -2.7975
    52         H          3.9890      4.1129     -4.4573
    53         H          5.0860      6.9117     -1.3372
    54         H          6.3478      7.9882     -7.8129
    55         H          6.7548      5.3038      5.2781
    56         H          7.0079      7.4239      6.7765
    57         H          5.3959      8.9696      8.0187
    58         H          5.2729     11.2060      9.0899
    59         H          5.6077     13.0556      5.1754
    60         H          5.7370     10.8373      4.1462
    61         H          4.5592     14.7529      6.4916
    62         H          5.3167     15.4007      7.9783
    63         H          6.3488     14.7788      6.6547

           Empirical Formula: C31 H26 N2 O3 S  =    63 atoms



      MOLECULAR POINT GROUP   :   C1  


      RHF CALCULATION, NO. OF DOUBLY OCCUPIED LEVELS = 92

 WARNING: INDO only performs single-point calculations

 Summary of symmetry occupancy in each shell:

 SHELL     
    1   92
    v   82
 TOTAL 174




    ROOT NO.    1           2           3           4           5           6

           -48.61089   -46.80222   -46.75848   -43.97165   -43.47115   -42.90421
  
  
  S  C   1   0.02052    -0.00209    -0.00026    -0.00934    -0.03275    -0.08131
 PX  C   1   0.00888    -0.00087    -0.00011    -0.00357    -0.01229    -0.02978
 PY  C   1   0.00329    -0.00030    -0.00004    -0.00108    -0.00347    -0.00819
 PZ  C   1  -0.00004    -0.00001     0.00000     0.00020    -0.00019     0.00009
  
  S  C   2   0.04713    -0.00445    -0.00056    -0.01678    -0.05777    -0.13729
 PX  C   2   0.00935    -0.00074    -0.00009    -0.00148    -0.00469    -0.00814
 PY  C   2   0.01619    -0.00142    -0.00018    -0.00459    -0.01495    -0.03398
 PZ  C   2  -0.00017    -0.00003     0.00001     0.00077    -0.00075     0.00035
  
  S  C   3   0.11175    -0.00928    -0.00115    -0.02634    -0.08543    -0.18773
 PX  C   3   0.04339    -0.00331    -0.00040    -0.00614    -0.01986    -0.03567
 PY  C   3   0.01493    -0.00083    -0.00010     0.00013     0.00316     0.01229
 PZ  C   3  -0.00103    -0.00015     0.00003     0.00352    -0.00332     0.00165
  
  S  C   4   0.20672    -0.01602    -0.00195    -0.03315    -0.11248    -0.21984
 PX  C   4   0.01642    -0.00097    -0.00010     0.00196     0.00283     0.01607
 PY  C   4   0.09433    -0.00680    -0.00082    -0.01039    -0.03337    -0.05517
 PZ  C   4  -0.00102    -0.00048     0.00006     0.00957    -0.00935     0.00416
  
  S  N   5   0.47681    -0.03276    -0.00392    -0.04432    -0.14910    -0.24212
 PX  N   5   0.00158     0.00036     0.00008     0.00644     0.01055     0.03139
 PY  N   5   0.09854    -0.00508    -0.00060     0.00035     0.00573     0.02969
 PZ  N   5  -0.00116    -0.00183     0.00018     0.03142    -0.03154     0.01196
  
  S  C   6   0.36480    -0.02714    -0.00127     0.12093    -0.14464     0.03846
 PX  C   6  -0.00794     0.00056     0.00033     0.02005     0.00390     0.03850
 PY  C   6   0.00911    -0.00012     0.00065     0.04999     0.01034     0.10029
 PZ  C   6  -0.12831     0.00696     0.00176     0.07644     0.00375     0.11315
  
  S  C   7   0.14836    -0.01358     0.00095     0.16824    -0.10479     0.13579
 PX  C   7   0.00407    -0.00050     0.00028     0.02075    -0.00375     0.02668
 PY  C   7   0.03468    -0.00336     0.00080     0.07672    -0.02412     0.08899
 PZ  C   7  -0.06247     0.00483     0.00057    -0.00528     0.02949     0.01886
  
  S  C   8   0.09608    -0.00987     0.00355     0.23072    -0.06846     0.22242
 PX  C   8  -0.00138     0.00008     0.00047     0.00996     0.00439     0.00809
 PY  C   8   0.00785    -0.00090     0.00146     0.04888     0.00355     0.04577
 PZ  C   8  -0.04564     0.00430    -0.00006    -0.06304     0.03710    -0.06832
  
  S  C   9   0.09842    -0.01007     0.00666     0.29270    -0.04300     0.27118
 PX  C   9  -0.00909     0.00082     0.00065    -0.00334     0.01219    -0.01109
 PY  C   9  -0.02596     0.00249     0.00119    -0.02260     0.03239    -0.03766
 PZ  C   9  -0.02998     0.00242     0.00172    -0.00989     0.03093    -0.03523
  
  S  C  10   0.12671    -0.01017     0.00287     0.20450    -0.04847     0.22687
 PX  C  10  -0.01642     0.00126     0.00012    -0.01138     0.00825    -0.01453
 PY  C  10  -0.05708     0.00485    -0.00010    -0.06073     0.03316    -0.06718
 PZ  C  10  -0.01212    -0.00060     0.00155     0.05953    -0.01024     0.04378
  
  S  C  11   0.30087    -0.01880    -0.00031     0.12266    -0.05906     0.15170
 PX  C  11  -0.03095     0.00191     0.00036     0.00881     0.00560     0.01641
 PY  C  11  -0.10240     0.00751     0.00089     0.00086     0.03616     0.03396
 PZ  C  11  -0.04367    -0.00115     0.00139     0.10028    -0.04979     0.08196
  
  S  C  12   0.30449    -0.00159    -0.00194    -0.09614     0.15270     0.08476
 PX  C  12  -0.02446     0.00099     0.00024     0.01057    -0.00440     0.00932
 PY  C  12  -0.10471     0.00765     0.00091     0.01311     0.02378     0.04210
 PZ  C  12   0.04114    -0.01314    -0.00005     0.07875    -0.12339    -0.02785
  
  S  C  13   0.37275    -0.00900    -0.00301    -0.13470     0.10553    -0.04787
 PX  C  13   0.01243     0.00042    -0.00004    -0.00248     0.01332     0.01827
 PY  C  13   0.00272     0.00676     0.00015    -0.02502     0.08752     0.08451
 PZ  C  13   0.12734    -0.01602    -0.00096     0.04097    -0.11982    -0.07725
  
  S  C  14   0.15493     0.01118    -0.00128    -0.14312     0.19802     0.03633
 PX  C  14   0.01541     0.00222    -0.00011    -0.01708     0.02967     0.01361
 PY  C  14   0.03316     0.00844    -0.00019    -0.05354     0.10193     0.05294
 PZ  C  14   0.06368    -0.00541    -0.00060    -0.01570    -0.00709    -0.03088
  
  S  C  15   0.10290     0.03651    -0.00047    -0.16330     0.28782     0.12185
 PX  C  15   0.00696     0.00589     0.00003    -0.01352     0.02706     0.01475
 PY  C  15   0.00714     0.01338     0.00014    -0.02395     0.05399     0.03421
 PZ  C  15   0.04714    -0.00025    -0.00046    -0.05165     0.08076     0.02700
  
  S  C  16   0.10664     0.05825    -0.00013    -0.18372     0.34556     0.16801
 PX  C  16  -0.00467     0.00414     0.00012     0.00457    -0.00510     0.00041
 PY  C  16  -0.02771     0.00516     0.00037     0.03089    -0.04598    -0.01286
 PZ  C  16   0.03001    -0.01478    -0.00050    -0.02037     0.02883     0.00940
  
  S  C  17   0.13232     0.02464    -0.00066    -0.13675     0.25862     0.13642
 PX  C  17  -0.01485    -0.00115     0.00012     0.01594    -0.02559    -0.00957
 PY  C  17  -0.05949    -0.00211     0.00048     0.04872    -0.07764    -0.03081
 PZ  C  17   0.01095    -0.01326    -0.00013     0.03802    -0.06726    -0.02379
  
  S  C  18   0.03952     0.12072     0.00158    -0.09878     0.20505     0.11258
 PX  C  18   0.00003     0.02216     0.00037    -0.00151     0.00529     0.00426
 PY  C  18  -0.01365     0.00182     0.00019     0.03437    -0.06699    -0.03373
 PZ  C  18   0.00820    -0.04390    -0.00083    -0.01600     0.02765     0.01202
  
  S  C  19   0.02486     0.23067     0.00361    -0.05448     0.12125     0.07100
 PX  C  19  -0.00267     0.01077     0.00022     0.01054    -0.02145    -0.01157
 PY  C  19  -0.00230     0.05850     0.00103     0.01667    -0.03223    -0.01614
 PZ  C  19   0.00578    -0.05644    -0.00104    -0.02821     0.05690     0.03044
  
  S  C  20   0.01805     0.51176     0.00851     0.02434    -0.03795    -0.01461
 PX  C  20   0.00005     0.03506     0.00060     0.00864    -0.01853    -0.01096
 PY  C  20   0.00013     0.07091     0.00121     0.01419    -0.02804    -0.01450
 PZ  C  20  -0.00029    -0.11316    -0.00194    -0.02546     0.05326     0.03031
  
  S  O  21   0.01277     0.41042     0.00685     0.02573    -0.04248    -0.01730
 PX  O  21   0.00183     0.06935     0.00116     0.00629    -0.01163    -0.00572
 PY  O  21  -0.00505    -0.15556    -0.00259    -0.00848     0.01335     0.00501
 PZ  O  21  -0.00054    -0.04191    -0.00071    -0.00718     0.01469     0.00817
  
  S  O  22   0.01498     0.56929     0.00954     0.05671    -0.10948    -0.05775
 PX  O  22  -0.00231    -0.08318    -0.00139    -0.00716     0.01332     0.00669
 PY  O  22   0.00254     0.11224     0.00189     0.01363    -0.02695    -0.01447
 PZ  O  22   0.00304     0.09728     0.00162     0.00601    -0.01021    -0.00456
  
  S  C  23   0.01641     0.11525     0.00175    -0.04480     0.09788     0.05620
 PX  C  23  -0.00414    -0.01568    -0.00022     0.00987    -0.02002    -0.01053
 PY  C  23   0.00274     0.05162     0.00085    -0.00106     0.00348     0.00260
 PZ  C  23   0.00435    -0.00614    -0.00016    -0.01364     0.02727     0.01427
  
  S  N  24   0.00696     0.04045     0.00059    -0.02447     0.05404     0.03145
 PX  N  24  -0.00243    -0.01000    -0.00014     0.00774    -0.01651    -0.00923
 PY  N  24   0.00295     0.02299     0.00035    -0.00957     0.02147     0.01269
 PZ  N  24   0.00187     0.00282     0.00002    -0.00626     0.01305     0.00714
  
  S  C  25   0.03293    -0.00430     0.01720     0.28571     0.07777     0.14397
 PX  C  25  -0.00237     0.00015     0.00219     0.01746     0.01723    -0.00583
 PY  C  25  -0.01015     0.00101     0.00383    -0.00178     0.03213    -0.04062
 PZ  C  25  -0.00860     0.00067     0.00528     0.02749     0.04139    -0.02834
  
  S  C  26   0.01583    -0.00253     0.01890     0.24269     0.10303     0.07523
 PX  C  26  -0.00428     0.00063    -0.00348    -0.05155    -0.01788    -0.02123
 PY  C  26   0.00002    -0.00026     0.00800     0.06634     0.04643    -0.00438
 PZ  C  26  -0.00558     0.00069    -0.00055    -0.03542    -0.00101    -0.03060
  
  S  C  27   0.00756    -0.00179     0.03325     0.23282     0.14422    -0.00495
 PX  C  27  -0.00185     0.00043    -0.00762    -0.05501    -0.03343     0.00016
 PY  C  27  -0.00084    -0.00006     0.01018     0.01180     0.02235    -0.03205
 PZ  C  27  -0.00304     0.00055    -0.00450    -0.07020    -0.03389    -0.01877
  
  S  C  28   0.00669    -0.00212     0.06013     0.25845     0.18980    -0.07325
 PX  C  28   0.00032    -0.00008     0.00100     0.01403     0.00852     0.00098
 PY  C  28  -0.00270     0.00017     0.01603    -0.04078     0.00106    -0.06001
 PZ  C  28  -0.00097    -0.00004     0.01080     0.00083     0.01505    -0.03237
  
  S  S  29   0.01096    -0.00185     0.02263     0.18332     0.09379     0.02596
 PX  S  29   0.00278    -0.00056     0.00807     0.06777     0.03798     0.00609
 PY  S  29  -0.00620     0.00077     0.00099    -0.05801    -0.01067    -0.04357
 PZ  S  29   0.00002    -0.00032     0.01114     0.06181     0.04649    -0.01516
  
  S  C  30   0.00246    -0.00280     0.14414     0.22182     0.23707    -0.23988
 PX  C  30   0.00009     0.00002    -0.00194     0.00244     0.00051     0.00262
 PY  C  30  -0.00067    -0.00059     0.04439    -0.00034     0.02370    -0.05983
 PZ  C  30  -0.00020    -0.00032     0.02196     0.00711     0.01698    -0.03104
  
  S  C  31   0.00137    -0.00258     0.14323     0.16042     0.18723    -0.21301
 PX  C  31   0.00007    -0.00005     0.00249     0.00604     0.00594    -0.00518
 PY  C  31  -0.00006    -0.00086     0.05406     0.01864     0.03382    -0.05539
 PZ  C  31  -0.00052     0.00063    -0.03258    -0.05389    -0.05864     0.06061
  
  S  C  32   0.00079    -0.00365     0.21882     0.08514     0.11496    -0.15146
 PX  C  32   0.00003    -0.00009     0.00543     0.00504     0.00629    -0.00773
 PY  C  32  -0.00005    -0.00102     0.06580    -0.03746    -0.04079     0.04357
 PZ  C  32  -0.00033     0.00117    -0.06906    -0.04743    -0.06117     0.07760
  
  S  C  33   0.00092    -0.00698     0.42906     0.00587     0.02867    -0.05789
 PX  C  33   0.00001     0.00009    -0.00596     0.00528     0.00624    -0.00741
 PY  C  33  -0.00008    -0.00187     0.12112    -0.09992    -0.11865     0.14148
 PZ  C  33  -0.00004    -0.00073     0.04734    -0.04232    -0.05039     0.06019
  
  S  C  34   0.00079    -0.00397     0.23938     0.07431     0.10326    -0.13909
 PX  C  34  -0.00001     0.00014    -0.00895     0.00096     0.00063    -0.00015
 PY  C  34  -0.00026     0.00007     0.00028    -0.06378    -0.07756     0.09367
 PZ  C  34   0.00018    -0.00160     0.09873    -0.00016     0.00533    -0.01258
  
  S  C  35   0.00125    -0.00260     0.14604     0.15002     0.17849    -0.20794
 PX  C  35  -0.00001     0.00010    -0.00584    -0.00393    -0.00536     0.00715
 PY  C  35  -0.00036    -0.00012     0.01215    -0.02806    -0.02344     0.01354
 PZ  C  35   0.00032    -0.00108     0.06302     0.05005     0.06421    -0.08108
  
  S  O  36   0.00077    -0.01001     0.62610    -0.17161    -0.18473     0.20039
 PX  O  36   0.00002    -0.00023     0.01431    -0.00360    -0.00380     0.00402
 PY  O  36  -0.00006     0.00037    -0.02258    -0.00914    -0.01346     0.01939
 PZ  O  36  -0.00019     0.00248    -0.15510     0.04138     0.04423    -0.04755
  
  S  C  37   0.00036    -0.00487     0.30479    -0.09035    -0.09905     0.10992
 PX  C  37  -0.00000     0.00005    -0.00325     0.00141     0.00164    -0.00193
 PY  C  37  -0.00021     0.00276    -0.17251     0.04799     0.05178    -0.05632
 PZ  C  37   0.00006    -0.00100     0.06288    -0.02307    -0.02617     0.03012
  
  S  H  38   0.01354     0.05254     0.00073    -0.03189     0.06736     0.03794
  
  S  H  39   0.00916    -0.00091    -0.00012    -0.00417    -0.01392    -0.03490
  
  S  H  40   0.00630    -0.00067    -0.00008    -0.00316    -0.01126    -0.02832
  
  S  H  41   0.00910    -0.00092    -0.00011    -0.00391    -0.01419    -0.03480
  
  S  H  42   0.02013    -0.00192    -0.00023    -0.00651    -0.02469    -0.05700
  
  S  H  43   0.02030    -0.00187    -0.00024    -0.00748    -0.02374    -0.05743
  
  S  H  44   0.05238    -0.00393    -0.00054    -0.01456    -0.03231    -0.07928
  
  S  H  45   0.05070    -0.00424    -0.00049    -0.00854    -0.03824    -0.07696
  
  S  H  46   0.07516    -0.00618    -0.00067    -0.00630    -0.04829    -0.08146
  
  S  H  47   0.07547    -0.00550    -0.00074    -0.01782    -0.03684    -0.08605
  
  S  H  48   0.04820    -0.00443     0.00012     0.04219    -0.03633     0.02074
  
  S  H  49   0.02335    -0.00259     0.00173     0.07774    -0.01386     0.06942
  
  S  H  50   0.03534    -0.00228     0.00126     0.06094    -0.00313     0.07121
  
  S  H  51   0.05087     0.00184    -0.00045    -0.04059     0.04410    -0.00801
  
  S  H  52   0.02588     0.01894     0.00003    -0.05128     0.09455     0.04265
  
  S  H  53   0.03671     0.00939    -0.00007    -0.03467     0.07571     0.04844
  
  S  H  54   0.00608     0.23984     0.00402     0.02540    -0.04948    -0.02630
  
  S  H  55   0.00667    -0.00096     0.00486     0.07523     0.02521     0.03207
  
  S  H  56   0.00187    -0.00053     0.01308     0.06967     0.04808    -0.01195
  
  S  H  57   0.00061    -0.00073     0.03758     0.05697     0.06123    -0.06246
  
  S  H  58   0.00021    -0.00122     0.07407     0.01547     0.02275    -0.03188
  
  S  H  59   0.00023    -0.00149     0.09138     0.00853     0.01510    -0.02345
  
  S  H  60   0.00053    -0.00072     0.03833     0.04969     0.05538    -0.05959
  
  S  H  61   0.00014    -0.00177     0.11088    -0.03080    -0.03340     0.03662
  
  S  H  62   0.00011    -0.00156     0.09772    -0.03155    -0.03518     0.03981
  
  S  H  63   0.00014    -0.00177     0.11086    -0.03080    -0.03340     0.03662




    ROOT NO.    7           8           9          10          11          12

           -41.49958   -40.53932   -39.58050   -39.01975   -36.73690   -36.26313
  
  
  S  C   1   0.13904     0.24978    -0.08622    -0.14309     0.26278    -0.09179
 PX  C   1   0.04747     0.08034    -0.02580    -0.04075     0.05639    -0.01814
 PY  C   1   0.01169     0.01791    -0.00511    -0.00736     0.00426    -0.00064
 PZ  C   1  -0.00016     0.00016     0.00009     0.00023     0.00011    -0.00066
  
  S  C   2   0.21023     0.34665    -0.10838    -0.16876     0.22499    -0.07277
 PX  C   2   0.00057    -0.01516     0.01094     0.02358    -0.08128     0.03064
 PY  C   2   0.04465     0.06358    -0.01628    -0.02156    -0.00023     0.00293
 PZ  C   2  -0.00062     0.00060     0.00034     0.00084     0.00032    -0.00225
  
  S  C   3   0.22845     0.30793    -0.07416    -0.09517     0.00293     0.00764
 PX  C   3   0.01595    -0.01642     0.01897     0.04151    -0.11823     0.04032
 PY  C   3  -0.03725    -0.08004     0.02971     0.04961    -0.07686     0.02491
 PZ  C   3  -0.00270     0.00256     0.00139     0.00342     0.00145    -0.00860
  
  S  C   4   0.18921     0.15722     0.00024     0.04137    -0.24829     0.08240
 PX  C   4  -0.04275    -0.08280     0.02953     0.04718    -0.04318     0.00749
 PY  C   4   0.01249    -0.04592     0.03199     0.06065    -0.09274     0.02222
 PZ  C   4  -0.00703     0.00783     0.00362     0.00939     0.00095    -0.02128
  
  S  N   5   0.07332    -0.12091     0.09618     0.17605    -0.17104     0.01013
 PX  N   5  -0.03813    -0.03793     0.00491    -0.00066     0.06467    -0.03018
 PY  N   5  -0.07177    -0.10728     0.01910     0.00674     0.17228    -0.07556
 PZ  N   5  -0.02125     0.02437     0.01114     0.02942     0.00063    -0.05622
  
  S  C   6  -0.12137     0.00028     0.04490     0.09213     0.01515    -0.09846
 PX  C   6  -0.02650     0.00917    -0.00764    -0.01494     0.03057    -0.00750
 PY  C   6  -0.07505     0.01170    -0.02118    -0.04829     0.13176    -0.03526
 PZ  C   6  -0.03191     0.14399    -0.04311    -0.04904    -0.09581     0.05025
  
  S  C   7  -0.10628     0.15403    -0.01106     0.02233    -0.15144     0.01439
 PX  C   7  -0.01555     0.01412    -0.00477    -0.00636    -0.00128     0.00450
 PY  C   7  -0.05760     0.05590    -0.01476    -0.01708    -0.00266     0.00680
 PZ  C   7   0.01330     0.01055    -0.01562    -0.02953    -0.01144     0.03652
  
  S  C   8  -0.08072     0.17819    -0.03962    -0.03161    -0.16202     0.09604
 PX  C   8   0.01027    -0.00232    -0.00157    -0.00391    -0.00085     0.01035
 PY  C   8   0.01293     0.01263    -0.00906    -0.01622    -0.00340     0.03195
 PZ  C   8   0.06514    -0.06345     0.01009     0.00515     0.01159     0.00937
  
  S  C   9  -0.02627     0.15927    -0.04822    -0.05771    -0.11137     0.12306
 PX  C   9   0.02872    -0.01913     0.00282     0.00141     0.00093     0.00598
 PY  C   9   0.06712    -0.05419     0.00777     0.00189     0.02668     0.00227
 PZ  C   9   0.08460    -0.04437     0.00850     0.01071    -0.05027     0.03884
  
  S  C  10  -0.11347     0.12177    -0.04140    -0.06513     0.07973    -0.00494
 PX  C  10   0.01931    -0.00823     0.00142     0.00193    -0.01445     0.01100
 PY  C  10   0.06520    -0.04344     0.00770     0.00703    -0.02390     0.02023
 PZ  C  10   0.01915     0.04778    -0.00955    -0.00205    -0.09732     0.06739
  
  S  C  11  -0.17395    -0.01639    -0.00327    -0.02920     0.26654    -0.13774
 PX  C  11   0.00097     0.02162    -0.00840    -0.01211    -0.00882     0.01000
 PY  C  11   0.01761     0.04842    -0.02840    -0.04921    -0.00579     0.02962
 PZ  C  11  -0.03516     0.12052    -0.01526     0.00386    -0.09857     0.03351
  
  S  C  12  -0.07194    -0.13569    -0.04367    -0.14109     0.26448    -0.05345
 PX  C  12  -0.00385     0.01471    -0.00081     0.00038     0.00670    -0.01461
 PY  C  12   0.00435     0.06767    -0.02091    -0.03208    -0.01243    -0.01910
 PZ  C  12  -0.04685    -0.02541     0.04702     0.08316     0.10016    -0.09405
  
  S  C  13   0.01787    -0.15871    -0.01757    -0.06909     0.01554     0.12439
 PX  C  13  -0.01893    -0.01942    -0.00095    -0.00853     0.04723    -0.02380
 PY  C  13  -0.04492    -0.02253    -0.03451    -0.08195     0.12946    -0.03382
 PZ  C  13  -0.02696    -0.07513     0.06958     0.11374     0.09146    -0.13380
  
  S  C  14   0.05207    -0.01989    -0.08181    -0.14138    -0.14018     0.26460
 PX  C  14  -0.00145    -0.00675    -0.00896    -0.01583     0.00150     0.01387
 PY  C  14  -0.00318    -0.00484    -0.03523    -0.06371    -0.00012     0.03969
 PZ  C  14   0.00910    -0.03847     0.00414    -0.01173     0.00510     0.01529
  
  S  C  15   0.04067     0.06929    -0.07401    -0.06985    -0.14218     0.13157
 PX  C  15   0.00172     0.01395     0.00030     0.01647     0.00083    -0.01788
 PY  C  15   0.00168     0.03910     0.01257     0.03872    -0.00891    -0.10007
 PZ  C  15   0.00600    -0.02670    -0.04199    -0.10656    -0.01930     0.07620
  
  S  C  16   0.03545     0.12747    -0.02634    -0.01338    -0.12681    -0.12186
 PX  C  16  -0.00052     0.01178     0.01304     0.03006     0.00822    -0.03581
 PY  C  16  -0.00381     0.02714     0.05012     0.06803     0.00589    -0.12830
 PZ  C  16  -0.00996    -0.05841    -0.05190    -0.13370     0.04706     0.07253
  
  S  C  17  -0.00941     0.01008    -0.06333    -0.15039     0.06405    -0.07236
 PX  C  17  -0.00113     0.00507     0.00999     0.02170     0.00145    -0.01380
 PY  C  17   0.00398     0.03042     0.03580     0.07189    -0.03187    -0.05118
 PZ  C  17  -0.02553    -0.05107    -0.00150    -0.01912     0.10474     0.01862
  
  S  C  18   0.03495     0.19880     0.15891     0.20695    -0.11725    -0.31514
 PX  C  18   0.00273     0.02195     0.02559     0.04863     0.00429    -0.03016
 PY  C  18  -0.00977    -0.03779     0.03634    -0.05135     0.03526     0.03715
 PZ  C  18  -0.00161    -0.02306    -0.06914    -0.07105    -0.01680     0.02079
  
  S  C  19   0.02877     0.17844     0.12305     0.32214    -0.02695    -0.22743
 PX  C  19  -0.00357    -0.02148    -0.06244     0.01951     0.03252     0.05035
 PY  C  19  -0.00549    -0.01967     0.08412    -0.09479    -0.01682    -0.02764
 PZ  C  19   0.00926     0.05164     0.06956     0.02259    -0.04291    -0.08039
  
  S  C  20  -0.00102     0.01588     0.14282    -0.02356     0.01470    -0.00456
 PX  C  20  -0.00460    -0.04245    -0.20667     0.03880    -0.02281    -0.03662
 PY  C  20  -0.00486    -0.00939     0.26074    -0.19655     0.04444     0.16153
 PZ  C  20   0.01191     0.08938     0.24884     0.04420     0.01993    -0.02575
  
  S  O  21  -0.00215     0.03606     0.54612    -0.25155     0.08657     0.21689
 PX  O  21  -0.00164    -0.00612     0.03329    -0.03296     0.00679     0.02516
 PY  O  21   0.00025    -0.01440    -0.16501     0.06558    -0.02038    -0.04358
 PZ  O  21   0.00304     0.02080     0.03514     0.02504    -0.00050    -0.02279
  
  S  O  22  -0.01999    -0.14858    -0.50731     0.00376    -0.07028    -0.07759
 PX  O  22   0.00200     0.01263     0.03214     0.00266     0.00242     0.00237
 PY  O  22  -0.00530    -0.03493    -0.05268    -0.05032    -0.01140     0.01506
 PZ  O  22  -0.00077    -0.00393    -0.03277     0.02618     0.00269    -0.01370
  
  S  C  23   0.02516     0.14776    -0.04676     0.46189     0.21079     0.22085
 PX  C  23  -0.00318    -0.01397    -0.02039     0.02128     0.07941     0.13590
 PY  C  23   0.00009     0.00011     0.01106    -0.05336    -0.13599    -0.25988
 PZ  C  23   0.00435     0.02147     0.03310    -0.00797    -0.05117    -0.08406
  
  S  N  24   0.01604     0.09825    -0.05534     0.39072     0.30598     0.43945
 PX  N  24  -0.00427    -0.02416     0.00988    -0.08133    -0.05138    -0.07321
 PY  N  24   0.00640     0.03946    -0.02600     0.15637     0.10828     0.14412
 PZ  N  24   0.00302     0.01673    -0.00030     0.04601     0.02655     0.03880
  
  S  C  25   0.25678    -0.05202    -0.00306    -0.01082    -0.06624     0.08797
 PX  C  25   0.04626    -0.02958     0.00643     0.00712     0.00796    -0.00839
 PY  C  25   0.06204    -0.06135     0.01538     0.01702     0.04897    -0.04822
 PZ  C  25   0.10210    -0.07324     0.01740     0.02055     0.02374    -0.03059
  
  S  C  26   0.30029    -0.11955     0.01743     0.01550    -0.01662     0.02371
 PX  C  26  -0.05495     0.01631    -0.00120    -0.00024     0.01095    -0.01355
 PY  C  26   0.10906    -0.06476     0.01348     0.01427     0.03133    -0.03111
 PZ  C  26  -0.02025    -0.00918     0.00499     0.00703     0.02711    -0.03262
  
  S  C  27   0.28499    -0.15286     0.03036     0.03248     0.05713    -0.06433
 PX  C  27  -0.06571     0.03419    -0.00654    -0.00680    -0.01153     0.01235
 PY  C  27  -0.01999     0.00004     0.00162     0.00263     0.02008    -0.02616
 PZ  C  27  -0.10555     0.04923    -0.00849    -0.00821    -0.00606     0.00332
  
  S  C  28   0.21749    -0.13291     0.02847     0.03150     0.07649    -0.09111
 PX  C  28   0.02341    -0.01330     0.00284     0.00319     0.00652    -0.00778
 PY  C  28  -0.13934     0.06047    -0.01000    -0.00941    -0.00314    -0.00260
 PZ  C  28  -0.03974     0.01219    -0.00095     0.00001     0.00848    -0.01413
  
  S  S  29   0.19329    -0.08462     0.01298     0.01083     0.01809    -0.01055
 PX  S  29   0.08361    -0.04107     0.00734     0.00715     0.01143    -0.01018
 PY  S  29  -0.07563     0.01957    -0.00022     0.00231     0.01482    -0.02462
 PZ  S  29   0.07932    -0.04880     0.01084     0.01250     0.02164    -0.02709
  
  S  C  30  -0.10628     0.01210     0.00248     0.00518     0.03533    -0.04947
 PX  C  30   0.00883    -0.00472     0.00100     0.00113     0.00310    -0.00385
 PY  C  30  -0.11459     0.05559    -0.01117    -0.01231    -0.03236     0.04015
 PZ  C  30  -0.04700     0.02117    -0.00400    -0.00424    -0.01049     0.01252
  
  S  C  31  -0.15267     0.04587    -0.00575    -0.00462     0.00080    -0.00445
 PX  C  31  -0.00001    -0.00119     0.00040     0.00052     0.00213    -0.00286
 PY  C  31  -0.07928     0.03651    -0.00727    -0.00806    -0.02343     0.03014
 PZ  C  31   0.02852    -0.00355    -0.00064    -0.00143    -0.01075     0.01537
  
  S  C  32  -0.15519     0.06171    -0.01100    -0.01158    -0.03072     0.03921
 PX  C  32  -0.00689     0.00250    -0.00040    -0.00040    -0.00078     0.00091
 PY  C  32   0.02700    -0.00693     0.00060     0.00023    -0.00376     0.00618
 PZ  C  32   0.07415    -0.02821     0.00480     0.00490     0.01079    -0.01307
  
  S  C  33  -0.08982     0.04123    -0.00818    -0.00909    -0.02861     0.03784
 PX  C  33  -0.00648     0.00240    -0.00040    -0.00041    -0.00089     0.00107
 PY  C  33   0.12531    -0.04690     0.00798     0.00821     0.01944    -0.02415
 PZ  C  33   0.05335    -0.01991     0.00337     0.00345     0.00732    -0.00873
  
  S  C  34  -0.14795     0.05998    -0.01089    -0.01159    -0.03045     0.03879
 PX  C  34   0.00093    -0.00057     0.00013     0.00016     0.00061    -0.00083
 PY  C  34   0.08222    -0.02989     0.00487     0.00486     0.00916    -0.01065
 PZ  C  34  -0.02169     0.01028    -0.00208    -0.00233    -0.00764     0.01013
  
  S  C  35  -0.16139     0.05268    -0.00755    -0.00691    -0.00631     0.00531
 PX  C  35   0.00745    -0.00296     0.00052     0.00055     0.00130    -0.00160
 PY  C  35  -0.02153     0.01673    -0.00430    -0.00528    -0.02055     0.02755
 PZ  C  35  -0.07651     0.02876    -0.00481    -0.00484    -0.00991     0.01167
  
  S  O  36   0.14864    -0.05105     0.00816     0.00816     0.01804    -0.02231
 PX  O  36   0.00276    -0.00089     0.00013     0.00012     0.00018    -0.00019
 PY  O  36   0.02450    -0.01125     0.00233     0.00269     0.01062    -0.01489
 PZ  O  36  -0.03431     0.01150    -0.00179    -0.00175    -0.00354     0.00429
  
  S  C  37   0.08714    -0.03165     0.00540     0.00565     0.01622    -0.02160
 PX  C  37  -0.00175     0.00069    -0.00013    -0.00014    -0.00042     0.00057
 PY  C  37  -0.04203     0.01449    -0.00232    -0.00232    -0.00518     0.00641
 PZ  C  37   0.02591    -0.00987     0.00176     0.00187     0.00552    -0.00731
  
  S  H  38   0.01103     0.06957     0.08726     0.05133    -0.03949    -0.12032
  
  S  H  39   0.05942     0.10623    -0.03677    -0.06109     0.11259    -0.03898
  
  S  H  40   0.05025     0.09276    -0.03294    -0.05562     0.11050    -0.03934
  
  S  H  41   0.05923     0.10648    -0.03665    -0.06081     0.11275    -0.03983
  
  S  H  42   0.08642     0.14254    -0.04382    -0.06761     0.08816    -0.02968
  
  S  H  43   0.08717     0.14178    -0.04424    -0.06865     0.08782    -0.02693
  
  S  H  44   0.09591     0.12315    -0.03153    -0.04194     0.00138     0.01014
  
  S  H  45   0.09180     0.12717    -0.02927    -0.03656     0.00366    -0.00245
  
  S  H  46   0.07283     0.07657    -0.00191     0.01559    -0.09937     0.02385
  
  S  H  47   0.08082     0.06751    -0.00610     0.00484    -0.09910     0.04687
  
  S  H  48  -0.01743     0.05175    -0.00053     0.01532    -0.07745     0.00989
  
  S  H  49  -0.00411     0.05126    -0.01281    -0.01068    -0.07221     0.04810
  
  S  H  50  -0.02312     0.02950    -0.01505    -0.02872     0.04148    -0.00275
  
  S  H  51   0.02960     0.00370    -0.02316    -0.03481    -0.07226     0.10659
  
  S  H  52   0.01704     0.04633    -0.01561     0.02752    -0.05238     0.04034
  
  S  H  53  -0.00717     0.01372    -0.01166    -0.03858     0.03243    -0.06017
  
  S  H  54  -0.00934    -0.06691    -0.18645    -0.03191    -0.02857    -0.01181
  
  S  H  55   0.08320    -0.02563     0.00248     0.00166    -0.01834     0.01996
  
  S  H  56   0.07474    -0.04377     0.00933     0.01043     0.02222    -0.02680
  
  S  H  57  -0.02873     0.00376     0.00053     0.00123     0.00828    -0.01178
  
  S  H  58  -0.03598     0.01506    -0.00282    -0.00305    -0.00934     0.01232
  
  S  H  59  -0.02985     0.01305    -0.00252    -0.00278    -0.00819     0.01069
  
  S  H  60  -0.03612     0.00907    -0.00083    -0.00046     0.00335    -0.00503
  
  S  H  61   0.02825    -0.01010     0.00170     0.00177     0.00513    -0.00689
  
  S  H  62   0.03320    -0.01250     0.00222     0.00237     0.00744    -0.01009
  
  S  H  63   0.02826    -0.01011     0.00170     0.00177     0.00513    -0.00689




    ROOT NO.   13          14          15          16          17          18

           -34.95352   -33.73572   -33.47860   -33.19416   -31.81121   -31.14761
  
  
  S  C   1  -0.02760     0.06048    -0.26740     0.01444    -0.18522    -0.12965
 PX  C   1  -0.00390     0.00531    -0.01968     0.00100     0.00462     0.00918
 PY  C   1   0.00034    -0.00225     0.01081    -0.00109     0.01395     0.01153
 PZ  C   1   0.00060     0.00045     0.00043     0.00205    -0.00039    -0.00025
  
  S  C   2  -0.01607     0.02455    -0.09628     0.00609    -0.01934     0.00032
 PX  C   2   0.01152    -0.02808     0.12806    -0.00615     0.09820     0.07050
 PY  C   2   0.00280    -0.01115     0.05217    -0.00365     0.05101     0.03918
 PZ  C   2   0.00210     0.00152     0.00134     0.00668    -0.00117    -0.00078
  
  S  C   3   0.00586    -0.03714     0.16815    -0.01135     0.14109     0.10488
 PX  C   3   0.01022    -0.02758     0.11738    -0.00442     0.04950     0.02578
 PY  C   3   0.00286    -0.00835     0.02690    -0.00415    -0.00678    -0.01112
 PZ  C   3   0.00746     0.00516     0.00479     0.02240    -0.00347    -0.00299
  
  S  C   4   0.02129    -0.06422     0.27682    -0.00383     0.09905     0.04509
 PX  C   4  -0.00026     0.01005    -0.04643     0.00931    -0.07275    -0.06047
 PY  C   4  -0.00723    -0.00487     0.00089    -0.00014    -0.06375    -0.05368
 PZ  C   4   0.02280     0.01457     0.01013     0.05836    -0.00525    -0.01043
  
  S  N   5  -0.05730    -0.01146    -0.01122     0.00688    -0.17079    -0.12042
 PX  N   5  -0.00632     0.01809    -0.06594     0.01279    -0.02683    -0.01543
 PY  N   5  -0.04768     0.03230    -0.16063    -0.00132    -0.06443    -0.01263
 PZ  N   5   0.06039     0.03490     0.02316     0.13213     0.00505    -0.05985
  
  S  C   6   0.14861     0.08775    -0.10731     0.16316     0.04145    -0.11714
 PX  C   6   0.00798     0.00079    -0.00763    -0.01563     0.02951    -0.00210
 PY  C   6  -0.01342    -0.01576    -0.00033    -0.08454     0.10302    -0.00670
 PZ  C   6   0.15443     0.03722     0.00334     0.06458     0.10605     0.06031
  
  S  C   7   0.29463     0.13386    -0.13806     0.25780     0.04185     0.13041
 PX  C   7   0.00948     0.00332    -0.01268    -0.00438    -0.00081     0.01267
 PY  C   7   0.04505     0.01175    -0.03294    -0.01297     0.02110     0.01510
 PZ  C   7  -0.02464    -0.00655    -0.01746    -0.02167    -0.05385     0.12159
  
  S  C   8   0.09579     0.05813    -0.13030     0.09182    -0.15909     0.24738
 PX  C   8  -0.04671    -0.01646     0.00949    -0.02892    -0.03389    -0.00533
 PY  C   8  -0.12899    -0.05732     0.03983    -0.11109    -0.08882    -0.04228
 PZ  C   8  -0.10199    -0.02174     0.00912    -0.01445    -0.08920     0.04078
  
  S  C   9  -0.19253    -0.09461     0.04559    -0.18225    -0.20866    -0.01123
 PX  C   9  -0.04971    -0.01101     0.00797    -0.00700    -0.02565    -0.00591
 PY  C   9  -0.13164    -0.05515     0.06933    -0.07199    -0.02291    -0.09765
 PZ  C   9  -0.08654     0.01876    -0.07594     0.07685    -0.17382     0.13784
  
  S  C  10  -0.09295    -0.12248     0.22394    -0.24989     0.15623    -0.20695
 PX  C  10  -0.02190    -0.00511    -0.00132    -0.00272    -0.03236     0.00489
 PY  C  10  -0.06449    -0.01639     0.01270    -0.00056    -0.07620     0.01592
 PZ  C  10  -0.04878    -0.01843    -0.03966    -0.05056    -0.13076    -0.01890
  
  S  C  11  -0.01091    -0.02975     0.10484    -0.07048     0.21887    -0.08725
 PX  C  11  -0.00269    -0.01454     0.03729    -0.02428     0.02393    -0.01087
 PY  C  11  -0.03376    -0.05652     0.14777    -0.07761     0.07191     0.00594
 PZ  C  11   0.08305    -0.00032     0.00246    -0.04809     0.08023    -0.13392
  
  S  C  12  -0.07262    -0.02104     0.11964     0.04916     0.02301     0.25635
 PX  C  12   0.00164    -0.00600     0.04319     0.01335     0.01297    -0.00095
 PY  C  12   0.02297    -0.02079     0.17523     0.06739     0.03663     0.03433
 PZ  C  12  -0.04171    -0.00981    -0.01568    -0.05476     0.06190    -0.10619
  
  S  C  13  -0.06219    -0.00734    -0.16816    -0.15052    -0.03621     0.12493
 PX  C  13  -0.00730     0.00570    -0.00045     0.02561    -0.01383     0.01973
 PY  C  13   0.00862     0.01652     0.02061     0.07332     0.02117     0.10570
 PZ  C  13  -0.08102    -0.00311     0.02352     0.05896    -0.12053    -0.04863
  
  S  C  14   0.07001     0.00797    -0.23100    -0.23421     0.17003    -0.02046
 PX  C  14   0.00478     0.00344    -0.01190     0.00140    -0.00301     0.01003
 PY  C  14   0.03065     0.01544    -0.03392     0.01549     0.01357     0.00072
 PZ  C  14  -0.03599    -0.01421     0.01060    -0.02190    -0.04769     0.11340
  
  S  C  15   0.10033     0.03269    -0.16373    -0.07935     0.10694    -0.25530
 PX  C  15  -0.00175     0.00086     0.01897     0.02568    -0.02446    -0.00830
 PY  C  15  -0.01146     0.00178     0.08096     0.10150    -0.09497    -0.05989
 PZ  C  15   0.02595     0.00472    -0.02064    -0.01176     0.01991     0.07951
  
  S  C  16   0.04025     0.01538     0.11633     0.17581    -0.14198    -0.21139
 PX  C  16  -0.01501    -0.00496     0.02758     0.01467    -0.01924     0.02429
 PY  C  16  -0.04256    -0.01385     0.09972     0.06717    -0.08717     0.00293
 PZ  C  16   0.01626    -0.00401     0.09854     0.07810    -0.02878     0.16575
  
  S  C  17  -0.00199    -0.01987     0.30927     0.23061    -0.10877     0.17067
 PX  C  17  -0.00645    -0.00304     0.00506    -0.00548     0.00185    -0.00989
 PY  C  17  -0.00955    -0.00495     0.01843     0.00428    -0.02477    -0.08860
 PZ  C  17  -0.03217    -0.01816     0.01635    -0.05894     0.08872     0.13511
  
  S  C  18  -0.06455    -0.00807     0.01337     0.01032    -0.07048    -0.09527
 PX  C  18  -0.01945    -0.00448    -0.03019    -0.04468     0.03466     0.06939
 PY  C  18  -0.00868    -0.00603    -0.00189    -0.02553     0.02608     0.11175
 PZ  C  18   0.03392     0.00660     0.10865     0.13348    -0.10996    -0.14039
  
  S  C  19  -0.09664    -0.01845    -0.13264    -0.18517     0.12752     0.24376
 PX  C  19   0.00462    -0.00096     0.00151    -0.00571     0.01743     0.05884
 PY  C  19  -0.00941    -0.00339    -0.00403    -0.01578     0.01275     0.06808
 PZ  C  19  -0.00735     0.00153     0.01462     0.02834    -0.04870    -0.12135
  
  S  C  20  -0.01856    -0.00551    -0.04202    -0.06361     0.06143     0.14235
 PX  C  20  -0.00325    -0.00026     0.00293     0.00294    -0.00305     0.00005
 PY  C  20   0.05498     0.01119     0.06800     0.10190    -0.07693    -0.17606
 PZ  C  20  -0.02781    -0.00676    -0.04436    -0.06648     0.05167     0.11455
  
  S  O  21   0.05133     0.00869     0.04172     0.06315    -0.03452    -0.08562
 PX  O  21   0.00808     0.00156     0.00834     0.01265    -0.00810    -0.01877
 PY  O  21  -0.00669    -0.00060    -0.00061    -0.00054    -0.00408    -0.01027
 PZ  O  21  -0.01195    -0.00280    -0.01544    -0.02425     0.01817     0.04498
  
  S  O  22   0.00532     0.00288     0.02606     0.03875    -0.03914    -0.08189
 PX  O  22   0.00074     0.00033     0.00366     0.00563    -0.00803    -0.01969
 PY  O  22   0.01589     0.00414     0.02663     0.04139    -0.03760    -0.08919
 PZ  O  22  -0.01133    -0.00329    -0.02283    -0.03607     0.03850     0.09524
  
  S  C  23   0.00187    -0.00420     0.00030    -0.01815     0.02643     0.07843
 PX  C  23   0.02568     0.00208     0.05237     0.05596    -0.03768    -0.01893
 PY  C  23  -0.05977    -0.00893    -0.09255    -0.11664     0.08329     0.13731
 PZ  C  23  -0.01263     0.00009    -0.02499    -0.02122     0.00803    -0.02763
  
  S  N  24   0.06126     0.00458     0.10377     0.10972    -0.06821    -0.05455
 PX  N  24  -0.01007    -0.00112    -0.01111    -0.01308     0.00664     0.01554
 PY  N  24   0.01573     0.00027     0.02823     0.02587    -0.01293     0.00697
 PZ  N  24   0.00623     0.00104     0.00684     0.00975    -0.00708    -0.02058
  
  S  C  25  -0.30523    -0.04946    -0.01085    -0.00348    -0.15748     0.00107
 PX  C  25  -0.00610     0.02540    -0.02024     0.05353     0.04179     0.01759
 PY  C  25   0.06948     0.01549     0.01051     0.04093     0.14666    -0.07522
 PZ  C  25   0.03602     0.06116    -0.05296     0.12614     0.10203     0.03883
  
  S  C  26  -0.16609     0.06729    -0.06969     0.15884     0.05150     0.06407
 PX  C  26   0.04893     0.00829     0.00795    -0.00721     0.03308    -0.00421
 PY  C  26   0.03833     0.02952    -0.00003     0.04345     0.11992    -0.04585
 PZ  C  26   0.09189     0.03409     0.00390     0.01768     0.09506    -0.01121
  
  S  C  27   0.13243     0.10636    -0.00577     0.06403     0.17231    -0.00296
 PX  C  27  -0.02484    -0.00574    -0.00234    -0.00143    -0.01603     0.01236
 PY  C  27   0.12671    -0.01677     0.03918    -0.09566    -0.04537    -0.01727
 PZ  C  27   0.03744    -0.00119     0.02189    -0.06237    -0.05877     0.01532
  
  S  C  28   0.30595    -0.03263     0.04229    -0.09901     0.01694    -0.03354
 PX  C  28   0.01772     0.02709     0.00015     0.00990     0.03139     0.00496
 PY  C  28   0.09830    -0.09030     0.02706    -0.11607    -0.14685     0.02470
 PZ  C  28   0.08529     0.04310     0.03010    -0.07163    -0.05151     0.02947
  
  S  S  29  -0.01587    -0.07333     0.01646    -0.01779     0.01351    -0.08594
 PX  S  29   0.00518    -0.01018    -0.00253     0.01643     0.03297    -0.02282
 PY  S  29   0.11893    -0.01536    -0.00440    -0.01349     0.00351     0.02496
 PZ  S  29   0.07391    -0.00205    -0.01180     0.02209     0.04141    -0.00480
  
  S  C  30   0.26674    -0.10996     0.05243    -0.18514    -0.18313     0.03395
 PX  C  30   0.01437    -0.00872    -0.00099     0.00005     0.00636    -0.00068
 PY  C  30  -0.15099    -0.07204    -0.05129     0.09999     0.03008     0.00413
 PZ  C  30  -0.05098     0.17787     0.04001    -0.04270    -0.03522     0.02470
  
  S  C  31   0.04670     0.28950     0.10845    -0.18383    -0.16080     0.05184
 PX  C  31   0.01371    -0.00877     0.00060    -0.00507    -0.00340     0.00154
 PY  C  31  -0.13428     0.07313    -0.01204     0.05908     0.04488    -0.00899
 PZ  C  31  -0.08933     0.10653     0.00303     0.03576     0.04874    -0.01113
  
  S  C  32  -0.18948     0.41556     0.07044    -0.02408     0.03721    -0.01560
 PX  C  32  -0.00309     0.00042    -0.00056     0.00135     0.00006     0.00087
 PY  C  32  -0.04533    -0.02094    -0.02603     0.06758     0.09652    -0.03956
 PZ  C  32   0.04866     0.00236     0.01147    -0.02701    -0.01127    -0.00263
  
  S  C  33  -0.19100     0.13028    -0.02306     0.11882     0.16611    -0.05509
 PX  C  33  -0.00317    -0.01853    -0.00615     0.00867     0.00251     0.00154
 PY  C  33   0.10056    -0.07785     0.00127    -0.03060    -0.01558    -0.00498
 PZ  C  33   0.02185     0.21618     0.06768    -0.09091    -0.02362    -0.01573
  
  S  C  34  -0.15938    -0.30391    -0.13622     0.24197     0.16672    -0.02324
 PX  C  34   0.00466    -0.01000    -0.00145    -0.00022    -0.00249     0.00107
 PY  C  34   0.03075     0.05369     0.01884    -0.02590     0.00237    -0.00279
 PZ  C  34  -0.05396     0.10390     0.01339     0.00646     0.02969    -0.01017
  
  S  C  35   0.02555    -0.38906    -0.09578     0.09790     0.00637    -0.00010
 PX  C  35   0.00606     0.00108     0.00144    -0.00311    -0.00040     0.00003
 PY  C  35  -0.13493    -0.04017    -0.05521     0.13067     0.10829    -0.01158
 PZ  C  35  -0.03963     0.00990    -0.00447     0.01220    -0.00390     0.00765
  
  S  O  36   0.08909     0.04924     0.03777    -0.07831    -0.04335    -0.00494
 PX  O  36   0.00033    -0.00110    -0.00049     0.00104     0.00200    -0.00079
 PY  O  36   0.09235    -0.15407    -0.01040    -0.04197    -0.12130     0.05847
 PZ  O  36  -0.01743     0.03567     0.00692    -0.00494    -0.00295    -0.00012
  
  S  C  37   0.11854    -0.17161    -0.00896    -0.05308    -0.14117     0.06993
 PX  C  37  -0.00293    -0.00043    -0.00118     0.00312     0.00370    -0.00101
 PY  C  37  -0.02642     0.01450    -0.00210     0.01022     0.00237     0.00412
 PZ  C  37   0.03667     0.00223     0.01330    -0.03599    -0.04113     0.01062
  
  S  H  38  -0.02641    -0.00525     0.02755     0.01970    -0.04229    -0.02041
  
  S  H  39  -0.01240     0.02632    -0.11855     0.00491    -0.08389    -0.05961
  
  S  H  40  -0.01241     0.02874    -0.12834     0.00721    -0.09639    -0.06981
  
  S  H  41  -0.01165     0.02689    -0.11798     0.00750    -0.08437    -0.05991
  
  S  H  42  -0.00440     0.00979    -0.03239     0.00685    -0.00409     0.00286
  
  S  H  43  -0.00705     0.00788    -0.03401    -0.00144    -0.00266     0.00374
  
  S  H  44  -0.00239    -0.01671     0.05495    -0.02146     0.05608     0.04156
  
  S  H  45   0.00740    -0.00998     0.06227     0.00867     0.05098     0.03799
  
  S  H  46   0.02818    -0.01662     0.12035     0.03342     0.04851     0.02176
  
  S  H  47   0.00238    -0.03301     0.10961    -0.03176     0.05570     0.02971
  
  S  H  48   0.11679     0.05679    -0.04623     0.12983     0.00360     0.07552
  
  S  H  49   0.00490     0.02475    -0.06494     0.05335    -0.11507     0.15084
  
  S  H  50  -0.07288    -0.06638     0.12599    -0.11120     0.05451    -0.08771
  
  S  H  51   0.02411    -0.00359    -0.08945    -0.11931     0.08729    -0.02811
  
  S  H  52   0.03587     0.01296    -0.07940    -0.04645     0.05497    -0.15796
  
  S  H  53  -0.01310    -0.01703     0.16565     0.10072    -0.04846     0.05620
  
  S  H  54   0.01353     0.00408     0.02936     0.04513    -0.04414    -0.10255
  
  S  H  55  -0.07665     0.02600    -0.03360     0.05961    -0.01475     0.05523
  
  S  H  56   0.07585     0.05362     0.00785     0.00029     0.05135     0.01005
  
  S  H  57   0.05759     0.14231     0.05906    -0.10418    -0.08055     0.02596
  
  S  H  58  -0.06757     0.20179     0.03932    -0.02365     0.01578    -0.01078
  
  S  H  59  -0.04446    -0.16296    -0.06291     0.10345     0.06880    -0.00696
  
  S  H  60   0.03940    -0.19300    -0.04174     0.03580     0.00191    -0.00494
  
  S  H  61   0.03992    -0.08433    -0.01054    -0.00911    -0.05025     0.02945
  
  S  H  62   0.05778    -0.07400    -0.00037    -0.03356    -0.08039     0.03855
  
  S  H  63   0.03996    -0.08434    -0.01054    -0.00913    -0.05027     0.02947




    ROOT NO.   19          20          21          22          23          24

           -30.17943   -29.30102   -28.78658   -27.77138   -26.87547   -26.20691
  
  
  S  C   1  -0.06677     0.32414    -0.03072    -0.06956    -0.07950     0.10025
 PX  C   1   0.00974    -0.07247     0.00897     0.02633     0.04050    -0.06054
 PY  C   1   0.00728    -0.04213     0.00269     0.01418     0.01429    -0.02349
 PZ  C   1   0.00025    -0.00040     0.00545    -0.00579     0.00336    -0.00084
  
  S  C   2   0.01056    -0.09584     0.01539     0.03208     0.05529    -0.07362
 PX  C   2   0.03679    -0.17563     0.01839     0.03125     0.03441    -0.03383
 PY  C   2   0.02228    -0.11587     0.00812     0.03026     0.02812    -0.03987
 PZ  C   2   0.00076    -0.00108     0.01533    -0.01550     0.00853    -0.00219
  
  S  C   3   0.05672    -0.28187     0.01689     0.06545     0.06301    -0.08050
 PX  C   3   0.00533     0.01692    -0.00266    -0.02949    -0.03724     0.07262
 PY  C   3  -0.01045     0.06577    -0.01485    -0.01056    -0.02305     0.02121
 PZ  C   3   0.00252    -0.00346     0.04233    -0.04073     0.02076    -0.00491
  
  S  C   4   0.00522     0.08050    -0.00271    -0.08528    -0.08233     0.15831
 PX  C   4  -0.03519     0.19332    -0.00774    -0.05774    -0.04423     0.06023
 PY  C   4  -0.03030     0.14928    -0.02445    -0.02649    -0.00975     0.00310
 PZ  C   4   0.00747    -0.00589     0.10519    -0.09630     0.04294    -0.01720
  
  S  N   5  -0.04454     0.16157    -0.03456    -0.05706     0.03509     0.01668
 PX  N   5   0.00416    -0.03861     0.02318    -0.00334     0.02541    -0.02651
 PY  N   5   0.02027    -0.21438     0.00459     0.07863     0.09595    -0.10522
 PZ  N   5   0.02993    -0.01418     0.23877    -0.22626     0.07446    -0.05960
  
  S  C   6   0.04515    -0.03111     0.19636    -0.08928     0.06430    -0.21357
 PX  C   6   0.00895    -0.01504    -0.02766     0.02619    -0.02053    -0.00020
 PY  C   6   0.04034    -0.11450    -0.11776     0.10311    -0.06186     0.02251
 PZ  C   6  -0.01028     0.10866     0.02479     0.06331    -0.04265    -0.07839
  
  S  C   7  -0.02929     0.07691     0.12805     0.07140    -0.03696    -0.01060
 PX  C   7  -0.00172    -0.01032    -0.03633     0.02208    -0.00780     0.01429
 PY  C   7   0.00151    -0.03443    -0.09316     0.07230    -0.00086    -0.00687
 PZ  C   7  -0.03282    -0.04297    -0.12908     0.09519    -0.05741     0.22082
  
  S  C   8  -0.06405    -0.09430    -0.16369     0.08045    -0.03646     0.25569
 PX  C   8   0.00401    -0.02072    -0.02125    -0.04170     0.00733    -0.01268
 PY  C   8   0.00005    -0.04947    -0.05224    -0.08437     0.07567    -0.05541
 PZ  C   8  -0.00402    -0.05557    -0.00765    -0.06768    -0.03004     0.11621
  
  S  C   9  -0.05578    -0.03024    -0.04450    -0.05456     0.17096    -0.03640
 PX  C   9   0.00855    -0.00677     0.02399    -0.04829    -0.01238    -0.02809
 PY  C   9  -0.00605     0.04742     0.15626    -0.03451     0.06542    -0.08060
 PZ  C   9  -0.01662    -0.12983     0.03419    -0.06442    -0.04193     0.11369
  
  S  C  10   0.01994     0.18063    -0.04246    -0.02664     0.00308    -0.03909
 PX  C  10  -0.00847     0.00402     0.01402    -0.01494     0.01922    -0.00744
 PY  C  10  -0.02840     0.02570     0.07163    -0.02395     0.04191     0.02789
 PZ  C  10  -0.04584    -0.01172     0.02237     0.02112     0.19281    -0.13388
  
  S  C  11   0.08743    -0.06244    -0.02759    -0.03147    -0.16358     0.10586
 PX  C  11  -0.00117     0.04908    -0.01820    -0.00686    -0.02467     0.01518
 PY  C  11  -0.01036     0.14889    -0.05088    -0.02397    -0.09712     0.11941
 PZ  C  11   0.01384     0.09867    -0.03929     0.04024     0.03775    -0.18939
  
  S  C  12  -0.02318    -0.03301     0.04329    -0.04334    -0.04681     0.17697
 PX  C  12   0.00171     0.03085     0.00523    -0.02584    -0.03438     0.03696
 PY  C  12  -0.01197     0.14847     0.03268    -0.08777    -0.08778     0.08069
 PZ  C  12   0.06125    -0.11840    -0.03504    -0.00980    -0.12204     0.14767
  
  S  C  13  -0.05239     0.00645    -0.15711     0.22892     0.02751    -0.09696
 PX  C  13   0.00109    -0.03073     0.03107    -0.02885     0.02206     0.02054
 PY  C  13   0.01098    -0.10544     0.13358    -0.09614     0.07271     0.02000
 PZ  C  13   0.00595    -0.11013    -0.02337    -0.02156     0.03465     0.10676
  
  S  C  14   0.01543     0.07086    -0.04207     0.08668    -0.11049    -0.09430
 PX  C  14  -0.00354     0.00067     0.01348    -0.00940     0.02438    -0.00835
 PY  C  14   0.01018    -0.03845     0.09265    -0.09094     0.08032    -0.00522
 PZ  C  14  -0.05460     0.07169    -0.11821     0.17267     0.02833    -0.11294
  
  S  C  15   0.09652    -0.13671     0.13321    -0.21284    -0.01223     0.17749
 PX  C  15  -0.00231    -0.00957    -0.00123    -0.00261     0.02642     0.00630
 PY  C  15   0.00031    -0.05164    -0.01215    -0.01159     0.07676     0.03328
 PZ  C  15  -0.02549     0.06312     0.02106     0.02437     0.05295    -0.14199
  
  S  C  16   0.02023    -0.05790    -0.03069    -0.00078     0.06912    -0.03862
 PX  C  16  -0.01256     0.02214    -0.02755     0.03672    -0.01068    -0.01905
 PY  C  16  -0.02748     0.04295    -0.12921     0.16319    -0.05985    -0.10155
 PZ  C  16  -0.05922     0.14075     0.04045    -0.00936     0.07353    -0.15900
  
  S  C  17  -0.07425     0.19178     0.01039    -0.02169     0.00362    -0.05425
 PX  C  17   0.00186     0.00624    -0.01359     0.00755    -0.02446     0.01509
 PY  C  17   0.00897     0.01195    -0.06856     0.05886    -0.06098    -0.02536
 PZ  C  17  -0.00368     0.03046     0.04188    -0.06468    -0.09302     0.17490
  
  S  C  18   0.00758    -0.05426    -0.15272     0.19638    -0.09661    -0.05559
 PX  C  18  -0.00950     0.02122     0.02084    -0.01622     0.00245     0.01858
 PY  C  18  -0.02850     0.07191    -0.00438     0.04881    -0.01755    -0.11545
 PZ  C  18   0.00641    -0.01733    -0.06609     0.05665     0.00943    -0.06527
  
  S  C  19  -0.03254     0.07272     0.07001    -0.05265     0.02338     0.00728
 PX  C  19  -0.01304     0.03992     0.04356    -0.05387     0.04558    -0.01455
 PY  C  19  -0.01965     0.05050    -0.00453     0.03967    -0.00339    -0.12079
 PZ  C  19   0.02360    -0.07781    -0.09076     0.10308    -0.07905     0.05346
  
  S  C  20  -0.02595     0.07594     0.07175    -0.06852     0.05944    -0.07278
 PX  C  20  -0.00131     0.00481     0.00341    -0.00756     0.01149    -0.00953
 PY  C  20   0.03073    -0.08045    -0.05984     0.04499    -0.04133     0.06974
 PZ  C  20  -0.01907     0.04642     0.02837    -0.00825     0.00488    -0.03518
  
  S  O  21   0.01594    -0.03574    -0.00378    -0.01710     0.00258     0.05464
 PX  O  21   0.00324    -0.00730    -0.00213    -0.00206     0.00115     0.00700
 PY  O  21   0.00231    -0.00816    -0.00710     0.00430    -0.00413     0.01677
 PZ  O  21  -0.00849     0.02107     0.00829     0.00239     0.00106    -0.02722
  
  S  O  22   0.01280    -0.03747    -0.04817     0.05433    -0.03893     0.01190
 PX  O  22   0.00402    -0.01469    -0.01944     0.02616    -0.02374     0.01627
 PY  O  22   0.01627    -0.04655    -0.04362     0.04351    -0.03838     0.04002
 PZ  O  22  -0.01865     0.05924     0.06463    -0.07696     0.07106    -0.06005
  
  S  C  23  -0.01232     0.02644     0.03780    -0.04909     0.02903     0.04044
 PX  C  23  -0.00688     0.01323    -0.02968     0.04723    -0.00521    -0.06895
 PY  C  23  -0.01585     0.04370     0.07113    -0.08194     0.04550     0.03100
 PZ  C  23   0.01211    -0.03212    -0.00230    -0.00907    -0.01369     0.06537
  
  S  N  24  -0.00312    -0.00175    -0.05045     0.06824    -0.02099    -0.05839
 PX  N  24  -0.00340     0.00837     0.00215     0.00231     0.00425    -0.01639
 PY  N  24  -0.00544     0.01064    -0.00335     0.00612     0.00626    -0.01546
 PZ  N  24   0.00473    -0.01296    -0.00664     0.00341    -0.00801     0.01985
  
  S  C  25  -0.00844    -0.06040     0.21389    -0.01306    -0.01953    -0.02766
 PX  C  25   0.05474    -0.00587    -0.05590    -0.06823    -0.10083    -0.05323
 PY  C  25  -0.02072     0.08017     0.13104     0.19107     0.00378     0.01994
 PZ  C  25   0.06399    -0.01198    -0.03971     0.00597    -0.16101     0.00564
  
  S  C  26   0.17484    -0.03347    -0.14093    -0.21953    -0.23210    -0.15782
 PX  C  26   0.02347     0.02138    -0.09078    -0.05625     0.00682    -0.04788
 PY  C  26   0.01354     0.06487     0.01875     0.10682     0.05013     0.00958
 PZ  C  26   0.04041     0.05007    -0.13164    -0.02280     0.03624    -0.02916
  
  S  C  27   0.11326     0.08078    -0.29420    -0.10611     0.14969    -0.03543
 PX  C  27   0.02819    -0.00560    -0.05876    -0.08013    -0.01972    -0.05563
 PY  C  27  -0.09603     0.00082     0.02477     0.07040     0.17174     0.11388
 PZ  C  27   0.00227    -0.00843    -0.07592    -0.07874     0.08728    -0.00050
  
  S  C  28  -0.17463     0.00076     0.00264     0.10718     0.12869     0.13006
 PX  C  28   0.04425     0.02109    -0.10931    -0.06443     0.06884    -0.01870
 PY  C  28  -0.10551    -0.07663     0.01949    -0.09064    -0.07417    -0.02747
 PZ  C  28   0.04996    -0.00144    -0.15915    -0.14323     0.13448    -0.00552
  
  S  S  29  -0.16599     0.01943     0.34744     0.30955    -0.00097     0.10268
 PX  S  29  -0.03155     0.01141     0.06803     0.07574    -0.01705     0.01729
 PY  S  29  -0.03748    -0.02526    -0.09547    -0.04190    -0.05490     0.01015
 PZ  S  29  -0.05175    -0.00647     0.03378     0.08696    -0.03576     0.05521
  
  S  C  30  -0.09467    -0.07831    -0.00024    -0.11827    -0.07908    -0.05207
 PX  C  30  -0.00694     0.00128    -0.02927    -0.01875     0.01865    -0.00421
 PY  C  30   0.06667     0.00044     0.04980    -0.00966    -0.18438    -0.11216
 PZ  C  30   0.17969     0.04163    -0.03420    -0.02671     0.13468     0.02319
  
  S  C  31   0.22991     0.02445     0.04101    -0.00987     0.04211    -0.00080
 PX  C  31  -0.00231    -0.00125    -0.01736    -0.01707     0.01509    -0.00236
 PY  C  31   0.04500     0.01818     0.07355     0.07794    -0.11485    -0.02722
 PZ  C  31   0.04973     0.03241     0.04614     0.09294    -0.02034     0.02141
  
  S  C  32   0.04120     0.02800     0.09884     0.13223    -0.09894     0.01024
 PX  C  32   0.00732     0.00185    -0.00282    -0.00237     0.00548    -0.00022
 PY  C  32  -0.21068    -0.03089    -0.04793    -0.02005     0.01039     0.01625
 PZ  C  32  -0.04168    -0.01074     0.00585     0.00773    -0.02852    -0.00263
  
  S  C  33  -0.18462     0.00061    -0.06305     0.01790     0.14183     0.08931
 PX  C  33   0.01790     0.00586    -0.00346     0.00275     0.01635     0.00692
 PY  C  33  -0.12274    -0.03742    -0.06056    -0.08688     0.05774    -0.00072
 PZ  C  33  -0.17544    -0.05699     0.03370    -0.02696    -0.17416    -0.07778
  
  S  C  34   0.05458     0.06105    -0.09734     0.02656     0.24567     0.10759
 PX  C  34   0.00201    -0.00073    -0.00103    -0.00365    -0.00771    -0.00695
 PY  C  34   0.00365     0.01542    -0.02598     0.02182     0.15315     0.09470
 PZ  C  34  -0.01377     0.00966    -0.00939     0.01785     0.08686     0.05757
  
  S  C  35  -0.09253    -0.04849     0.01060    -0.06353    -0.22870    -0.13513
 PX  C  35  -0.00311    -0.00048    -0.00770    -0.00641     0.00330    -0.00282
 PY  C  35   0.10433     0.06188    -0.05469     0.03815     0.15593     0.05656
 PZ  C  35   0.05853     0.01092    -0.00474    -0.01240     0.02781     0.00051
  
  S  O  36  -0.16607    -0.06652    -0.01377    -0.10833    -0.13361    -0.11364
 PX  O  36  -0.00464    -0.00042    -0.00360    -0.00214     0.00826     0.00363
 PY  O  36   0.33229     0.05503     0.07848     0.05803    -0.06566    -0.03579
 PZ  O  36   0.00117    -0.00320     0.02361     0.01160    -0.07563    -0.03483
  
  S  C  37   0.43482     0.08745     0.11095     0.14190    -0.02195     0.04347
 PX  C  37  -0.00212     0.00096    -0.00259     0.00138     0.00951     0.00618
 PY  C  37   0.06971     0.02351     0.03174     0.06383    -0.00782     0.03177
 PZ  C  37   0.01320    -0.01394     0.02203    -0.02647    -0.10147    -0.07334
  
  S  H  38  -0.00867     0.00632    -0.08937     0.13229    -0.05670    -0.10381
  
  S  H  39  -0.03173     0.15752    -0.01931    -0.03106    -0.04513     0.05528
  
  S  H  40  -0.03788     0.19375    -0.01811    -0.04720    -0.05554     0.07572
  
  S  H  41  -0.03140     0.15696    -0.01252    -0.03826    -0.04092     0.05422
  
  S  H  42   0.00636    -0.04639     0.01833     0.00207     0.02894    -0.02921
  
  S  H  43   0.00545    -0.04512    -0.00064     0.02116     0.01842    -0.02642
  
  S  H  44   0.02016    -0.11016    -0.02295     0.06098     0.01594    -0.04663
  
  S  H  45   0.02325    -0.11502     0.02967     0.01048     0.04216    -0.05167
  
  S  H  46   0.00717     0.03365     0.06324    -0.09289    -0.02438     0.07589
  
  S  H  47   0.00054     0.03822    -0.05056     0.00958    -0.07178     0.09273
  
  S  H  48  -0.02003     0.05161     0.09766     0.00580    -0.02820     0.04019
  
  S  H  49  -0.02963    -0.07420    -0.08182     0.00521    -0.05446     0.20144
  
  S  H  50  -0.00088     0.10991     0.02101    -0.02806    -0.00846     0.02026
  
  S  H  51   0.01210     0.04324    -0.05408     0.06456    -0.11075    -0.01955
  
  S  H  52   0.06147    -0.09682     0.05625    -0.11889    -0.04883     0.17252
  
  S  H  53  -0.03192     0.11059    -0.02814     0.01356    -0.05518    -0.01019
  
  S  H  54   0.01855    -0.05572    -0.05965     0.06634    -0.05750     0.04707
  
  S  H  55   0.09060    -0.03918    -0.12262    -0.18215    -0.13877    -0.09659
  
  S  H  56   0.06939     0.03523    -0.20261    -0.11822     0.11572    -0.03611
  
  S  H  57   0.11056     0.01623    -0.00770    -0.01426     0.07951     0.02191
  
  S  H  58  -0.01349     0.00570     0.05039     0.06852    -0.06917     0.00227
  
  S  H  59   0.04937     0.03776    -0.05347     0.02350     0.16855     0.08371
  
  S  H  60  -0.08517    -0.03226     0.01454    -0.02040    -0.13871    -0.06835
  
  S  H  61   0.20819     0.04944     0.04581     0.08307     0.03170     0.05344
  
  S  H  62   0.23923     0.04593     0.07450     0.08432    -0.05517     0.00429
  
  S  H  63   0.20831     0.04948     0.04563     0.08292     0.03191     0.05337




    ROOT NO.   25          26          27          28          29          30

           -25.59227   -25.11568   -24.67890   -24.56147   -24.43915   -24.28603
  
  
  S  C   1  -0.02538    -0.15403     0.00114    -0.01746    -0.03293     0.14392
 PX  C   1   0.01993     0.15753    -0.00281     0.01483     0.03373    -0.14746
 PY  C   1  -0.00215    -0.12570     0.00939     0.01259    -0.00300    -0.01821
 PZ  C   1   0.00309    -0.00016     0.00426     0.00882    -0.00627     0.00308
  
  S  C   2   0.03289     0.35976    -0.01275     0.00802     0.04737    -0.17443
 PX  C   2   0.01261     0.13283    -0.00541    -0.00269     0.00848    -0.01605
 PY  C   2  -0.00635    -0.23454     0.01632     0.01863    -0.01081    -0.00359
 PZ  C   2   0.00763    -0.00038     0.00943     0.01975    -0.01376     0.00656
  
  S  C   3  -0.01455    -0.34198     0.02344     0.02873    -0.00777    -0.03653
 PX  C   3  -0.01449     0.10606    -0.01349    -0.03189    -0.01898     0.13604
 PY  C   3  -0.02199    -0.27146     0.01216     0.00630    -0.01662     0.03523
 PZ  C   3   0.01651    -0.00067     0.01784     0.03985    -0.02680     0.01375
  
  S  C   4  -0.03737     0.13890    -0.02256    -0.05055    -0.04055     0.25196
 PX  C   4   0.00205     0.15824    -0.01165    -0.01011     0.00171     0.01650
 PY  C   4  -0.02916    -0.16179     0.00702     0.01843     0.01574    -0.10295
 PZ  C   4   0.04533    -0.00310     0.02243     0.08322    -0.04545     0.02437
  
  S  N   5  -0.06827     0.00758    -0.01656     0.02642     0.04595    -0.15479
 PX  N   5   0.02066     0.09548    -0.00906     0.01405     0.00687    -0.01910
 PY  N   5   0.00864    -0.03147     0.00438     0.02735     0.02837    -0.11433
 PZ  N   5   0.10369    -0.01278    -0.05848     0.16651    -0.03519     0.06609
  
  S  C   6   0.07340    -0.00697    -0.10150     0.03308     0.00884     0.08119
 PX  C   6  -0.01869     0.03589    -0.02458    -0.03879     0.01099     0.04185
 PY  C   6  -0.09284    -0.00042    -0.09211    -0.12585     0.04787     0.14456
 PZ  C   6   0.03995    -0.00143     0.05926    -0.07179    -0.04536     0.05892
  
  S  C   7   0.14881    -0.01015     0.17727    -0.01422    -0.04994    -0.14658
 PX  C   7  -0.03481     0.01275    -0.02342    -0.02138     0.01432     0.02022
 PY  C   7  -0.12152    -0.00198    -0.09719    -0.07133     0.04492     0.11070
 PZ  C   7  -0.04119    -0.00274     0.08127    -0.01987     0.02816    -0.14133
  
  S  C   8  -0.08399    -0.00574    -0.03423     0.02169     0.06078    -0.05551
 PX  C   8  -0.01705     0.00544    -0.04905     0.01958     0.00244     0.04112
 PY  C   8  -0.08365     0.00916    -0.15084     0.05588     0.01201     0.16395
 PZ  C   8   0.04815    -0.00849    -0.01470     0.06759     0.02046    -0.07674
  
  S  C   9  -0.05946     0.01606    -0.01660     0.10961    -0.03079     0.05571
 PX  C   9   0.04575    -0.00022     0.01299     0.01335    -0.01721    -0.02004
 PY  C   9   0.13861    -0.00192     0.14086     0.03814    -0.05442    -0.10597
 PZ  C   9   0.08419    -0.01489    -0.09860     0.04141     0.04696     0.03179
  
  S  C  10  -0.00247     0.00518     0.14783     0.01732    -0.05722    -0.16057
 PX  C  10   0.02053     0.00382     0.03466     0.02684    -0.01691    -0.03984
 PY  C  10   0.09707    -0.00540     0.13508     0.08013    -0.03839    -0.16755
 PZ  C  10  -0.06437     0.02129     0.05177     0.05492    -0.05458     0.05209
  
  S  C  11   0.02863    -0.01123    -0.10782    -0.06405     0.05719     0.07308
 PX  C  11   0.00220     0.00972     0.01720    -0.00373    -0.00423    -0.03186
 PY  C  11   0.03956    -0.01244     0.08681     0.01329    -0.01729    -0.13316
 PZ  C  11  -0.10384     0.00795    -0.04443    -0.08341     0.00343     0.06114
  
  S  C  12   0.06904     0.00509     0.09619     0.05304    -0.07703     0.07541
 PX  C  12   0.02188     0.00239    -0.02754     0.00818     0.02499    -0.03241
 PY  C  12   0.06367    -0.03436    -0.08398     0.03966     0.06757    -0.08961
 PZ  C  12   0.07097    -0.01916    -0.08411     0.00178     0.08408    -0.06426
  
  S  C  13  -0.02991     0.03066     0.15735    -0.07969    -0.08050     0.00033
 PX  C  13  -0.00678     0.04380     0.02157     0.01088    -0.02359     0.03478
 PY  C  13   0.01165     0.01401     0.07796     0.06376    -0.11230     0.17965
 PZ  C  13  -0.08366    -0.01226    -0.01011    -0.00723     0.05607    -0.10065
  
  S  C  14   0.20106    -0.01111    -0.12688     0.07335     0.06611    -0.05125
 PX  C  14  -0.02621     0.02405     0.04042    -0.01099    -0.03452     0.03389
 PY  C  14  -0.06428     0.01137     0.06830     0.01774    -0.07822     0.09958
 PZ  C  14  -0.06543     0.02396     0.15517    -0.11610    -0.09617     0.05494
  
  S  C  15  -0.02987    -0.01985    -0.06181     0.04813     0.05682    -0.05336
 PX  C  15  -0.06051     0.01142     0.06179    -0.04639    -0.03459     0.01967
 PY  C  15  -0.19145     0.01322     0.14121    -0.13224    -0.06542     0.03580
 PZ  C  15  -0.00382     0.01673     0.01219     0.00336    -0.05414     0.10301
  
  S  C  16  -0.17299     0.00162    -0.00756    -0.12232     0.03971    -0.02865
 PX  C  16   0.01579     0.00156     0.00362    -0.01024     0.00305    -0.01851
 PY  C  16   0.10775    -0.00636    -0.10015     0.01552     0.07344    -0.06204
 PZ  C  16  -0.03180    -0.00157    -0.09195     0.01362     0.03441     0.01977
  
  S  C  17   0.00746    -0.02665    -0.13111     0.02101     0.10232    -0.10608
 PX  C  17   0.02308    -0.00293    -0.02137     0.00442     0.02541    -0.04133
 PY  C  17   0.06101    -0.02231    -0.13737     0.00853     0.12495    -0.13802
 PZ  C  17   0.12428    -0.01227     0.05317     0.08842    -0.03626    -0.01978
  
  S  C  18   0.21342     0.01606     0.00455     0.11024    -0.05750     0.09686
 PX  C  18   0.00143     0.00300     0.05535    -0.00138    -0.04080     0.01422
 PY  C  18   0.14931     0.00370    -0.10755     0.14024     0.00316     0.08468
 PZ  C  18  -0.06138    -0.00910    -0.10303    -0.07509     0.10961    -0.09553
  
  S  C  19  -0.01376     0.00193     0.04943     0.00124    -0.04070     0.02069
 PX  C  19  -0.10667    -0.00869    -0.02869    -0.07925     0.05613    -0.07446
 PY  C  19   0.11652     0.00382    -0.13647     0.13289     0.02326     0.09215
 PZ  C  19   0.14056     0.01571     0.12282     0.06648    -0.11627     0.08697
  
  S  C  20  -0.07756    -0.01057    -0.13739    -0.01793     0.10246    -0.04428
 PX  C  20  -0.03678    -0.00393    -0.02995    -0.03292     0.03848    -0.03800
 PY  C  20   0.02751     0.00573     0.09836    -0.01304    -0.05807     0.00795
 PZ  C  20   0.05490     0.00442    -0.00482     0.06943    -0.03802     0.06817
  
  S  O  21  -0.05818    -0.00188     0.06063    -0.06374    -0.00885    -0.04324
 PX  O  21  -0.01363    -0.00085     0.00178    -0.01415     0.00666    -0.01249
 PY  O  21  -0.01108    -0.00001     0.02770    -0.02304    -0.00725    -0.01587
 PZ  O  21   0.03287     0.00171    -0.02140     0.04040    -0.00791     0.03344
  
  S  O  22   0.08253     0.00747     0.04265     0.05218    -0.05544     0.05508
 PX  O  22   0.05928     0.00683     0.05916     0.04123    -0.06436     0.05329
 PY  O  22   0.06122     0.00738     0.07744     0.02739    -0.06625     0.04077
 PZ  O  22  -0.15483    -0.01788    -0.16474    -0.09954     0.16787    -0.13051
  
  S  C  23  -0.09650    -0.00427     0.06460    -0.08937    -0.00243    -0.06195
 PX  C  23   0.05262     0.00338    -0.05587     0.04610     0.00951     0.03942
 PY  C  23  -0.12004    -0.00701     0.03597    -0.09491     0.01941    -0.07185
 PZ  C  23  -0.01125     0.00209     0.07944    -0.02474    -0.03937    -0.00767
  
  S  N  24   0.08384     0.00585    -0.04184     0.06872    -0.00906     0.05960
 PX  N  24   0.00188     0.00065    -0.01079     0.00382     0.00260     0.00720
 PY  N  24  -0.00954    -0.00015    -0.00391    -0.01089     0.00512    -0.00547
 PZ  N  24   0.00477     0.00106     0.02457    -0.00211    -0.01434     0.00098
  
  S  C  25   0.14682    -0.01378    -0.00413    -0.06136     0.02126     0.02844
 PX  C  25  -0.00356    -0.00176    -0.02671    -0.04120    -0.01138     0.01068
 PY  C  25  -0.01170    -0.00189     0.07439    -0.10214     0.02680    -0.02449
 PZ  C  25  -0.02714    -0.00874    -0.07704    -0.11815     0.03911     0.05082
  
  S  C  26   0.01073    -0.00324    -0.01854    -0.07222    -0.03822     0.00143
 PX  C  26  -0.03774     0.00852     0.04271     0.05310    -0.04222    -0.03994
 PY  C  26  -0.04510     0.00527     0.05884    -0.02617     0.01075    -0.01160
 PZ  C  26  -0.07734     0.01224     0.06674     0.05885    -0.03370    -0.04940
  
  S  C  27  -0.08213     0.01969     0.09808     0.15360    -0.05460    -0.06966
 PX  C  27  -0.00945     0.00559     0.03951     0.04977    -0.03438    -0.03363
 PY  C  27   0.02488    -0.00108    -0.03998     0.07444     0.01906     0.01699
 PZ  C  27   0.02752     0.00331     0.03015     0.08746    -0.00951    -0.02246
  
  S  C  28  -0.05453     0.00392    -0.10404     0.09856    -0.02436     0.01859
 PX  C  28  -0.00993     0.00685     0.04298     0.07152    -0.02559    -0.03147
 PY  C  28   0.02825    -0.00302    -0.06842     0.03008    -0.05529    -0.00337
 PZ  C  28   0.07774    -0.00176     0.01418     0.04830    -0.02352    -0.01972
  
  S  S  29  -0.00201    -0.00658     0.00533    -0.07762     0.06105     0.01609
 PX  S  29  -0.01974    -0.00005    -0.00506    -0.02119     0.00987     0.00726
 PY  S  29  -0.08906     0.00725    -0.06972     0.07525    -0.01664     0.01746
 PZ  S  29  -0.06012    -0.00031    -0.08072    -0.02102     0.01845     0.04731
  
  S  C  30   0.07328    -0.00984    -0.07748    -0.10320    -0.13479    -0.03917
 PX  C  30  -0.01175     0.00353     0.01074     0.04368    -0.01205    -0.01175
 PY  C  30  -0.04837     0.00372     0.06180    -0.10126    -0.06190    -0.04960
 PZ  C  30   0.16432    -0.01888     0.02919    -0.18160     0.04760     0.01567
  
  S  C  31   0.13232    -0.01554     0.10507    -0.12437     0.22734     0.08639
 PX  C  31   0.01163    -0.00057    -0.00317    -0.00448    -0.02185    -0.01096
 PY  C  31  -0.10956     0.00956    -0.02387     0.00471    -0.10594    -0.04708
 PZ  C  31  -0.11024     0.01429     0.09744     0.17756     0.21007     0.07415
  
  S  C  32  -0.20002     0.02334     0.00916     0.23334     0.02204     0.00471
 PX  C  32   0.00766    -0.00096    -0.00354    -0.01461    -0.01302    -0.00568
 PY  C  32  -0.05630     0.00722    -0.12480     0.08255    -0.22578    -0.07847
 PZ  C  32  -0.07449     0.01203     0.07460     0.18427     0.16340     0.05856
  
  S  C  33   0.03144    -0.00519    -0.16381    -0.00643    -0.19338    -0.04788
 PX  C  33   0.01067    -0.00135    -0.00369    -0.01209    -0.00172     0.00022
 PY  C  33   0.10870    -0.01075     0.05757    -0.04275     0.15710     0.06521
 PZ  C  33  -0.13224     0.01766     0.04148     0.15667    -0.00952    -0.01937
  
  S  C  34   0.09570    -0.00893     0.02326     0.00814     0.15452     0.06963
 PX  C  34  -0.00738     0.00150     0.01802     0.01632     0.02088     0.00456
 PY  C  34   0.07146    -0.00849    -0.06194     0.02581     0.05826     0.05082
 PZ  C  34   0.07507    -0.01344    -0.17073    -0.15608    -0.24320    -0.06839
  
  S  C  35  -0.13414     0.01922     0.15145     0.13051     0.10675     0.00593
 PX  C  35  -0.00607     0.00168     0.01150     0.02426     0.01117     0.00132
 PY  C  35   0.03760    -0.00113     0.09337     0.03479     0.17925     0.05784
 PZ  C  35   0.07898    -0.01246    -0.07886    -0.18690    -0.17112    -0.06070
  
  S  O  36   0.03289    -0.00256     0.15351    -0.10678     0.12988     0.01934
 PX  O  36   0.00691    -0.00081    -0.00347    -0.00325     0.00066     0.00157
 PY  O  36  -0.01310    -0.00070     0.08006    -0.10478     0.05416     0.00192
 PZ  O  36  -0.07287     0.00931     0.02947     0.05765    -0.01691    -0.02011
  
  S  C  37  -0.12074     0.01227    -0.10973     0.13137    -0.15535    -0.04679
 PX  C  37   0.00221    -0.00021    -0.00754     0.00600    -0.00287     0.00096
[...]
    Config     592  -0.04257149  0.00181233
    Config     617  -0.08029461  0.00644722
    Config     619   0.07271696  0.00528776
    Config     623   0.04842895  0.00234536
    Config     630  -0.04326285  0.00187167
    Config     635   0.15500107  0.02402533
    Config     654  -0.04411796  0.00194639
    Config     684  -0.06499856  0.00422481
    Config     685  -0.04227100  0.00178684
    Config     700  -0.06096754  0.00371704
    Config     705   0.04707329  0.00221589
    Config     731   0.09079933  0.00824452
    Config     771  -0.04431902  0.00196418
 Total coeff printed             0.79280027
  

 -------------------------------------------------------------------------------
 INDO CIS EPS=8.93 N**2=1.42
 Dye17
 Calculo de Estados Excitados


     1SCF WAS SPECIFIED, SO BFGS WAS NOT USED                 
     SCF FIELD WAS ACHIEVED                                   


                              INDO CALCULATION
                                                       MOPAC2016 (Version: 21.013L)
                                                       Thu Oct 21 11:33:52 2021
                                                       No. of days remaining =  84




          FINAL HEAT OF FORMATION =    -152247.04331 KCAL/MOL = -637001.62921 KJ/MOL
          VAN DER WAALS AREA      =        527.40 SQUARE ANGSTROMS


          TOTAL ENERGY            =      -6910.95866 EV
          ELECTRONIC ENERGY       =     -11577.25053 EV  POINT GROUP:     C1  
          CORE-CORE REPULSION     =       4666.29188 EV

          DIELECTRIC ENERGY       =         -0.48557 EV
          COSMO AREA              =        527.40 SQUARE ANGSTROMS
          COSMO VOLUME            =        599.10 CUBIC ANGSTROMS

          IONIZATION POTENTIAL    =          7.080417 EV
          HOMO LUMO ENERGIES (EV) =         -7.080 -0.834
          NO. OF FILLED LEVELS    =         92
          MOLECULAR WEIGHT        =        506.6180

          MOLECULAR DIMENSIONS (Angstroms)

            Atom       Atom       Distance
            H    62    H    40    19.13334
            H    58    H    54    14.39460
            H    39    H    55     5.53152


          SCF CALCULATIONS        =          2
 
          WALL-CLOCK TIME         =  8 MINUTES AND 54.461 SECONDS
          COMPUTATION TIME        =  8 MINUTES AND 58.666 SECONDS




   ATOM   CHEMICAL          X               Y               Z
  NUMBER   SYMBOL      (ANGSTROMS)     (ANGSTROMS)     (ANGSTROMS)
 
     1       C          0.00000000  *   0.00000000  *   0.00000000  *
     2       C          1.51987514  *   0.00000000  *   0.00000000  *
     3       C          2.05484410  *   1.42881106  *   0.00000000  *
     4       C          3.59052039  *   1.41480447  *  -0.00263957  *
     5       N          4.13930463  *   2.76772100  *  -0.00812407  *
     6       C          4.39612204  *   3.55816391  *   1.13211128  *
     7       C          4.40367657  *   3.20188251  *   2.47826716  *
     8       C          4.74094148  *   4.18339972  *   3.39536028  *
     9       C          5.06257334  *   5.48890933  *   2.99069880  *
    10       C          5.05210268  *   5.84675337  *   1.64593141  *
    11       C          4.71348438  *   4.87945424  *   0.71557141  *
    12       C          4.59754493  *   4.90917937  *  -0.72032913  *
    13       C          4.20827731  *   3.60233995  *  -1.13334111  *
    14       C          3.98137974  *   3.30427546  *  -2.47669015  *
    15       C          4.18092004  *   4.31717629  *  -3.39814308  *
    16       C          4.59021464  *   5.59886051  *  -2.99962062  *
    17       C          4.78362412  *   5.90945528  *  -1.65429953  *
    18       C          4.79679920  *   6.64239674  *  -3.98681516  *
    19       C          5.46782761  *   6.44828986  *  -5.13745162  *
    20       C          5.60885290  *   7.55552733  *  -6.09235751  *
    21       O          5.18561017  *   8.69456693  *  -5.95365549  *
    22       O          6.27648593  *   7.22842727  *  -7.21699424  *
    23       C          6.08534809  *   5.21583217  *  -5.46908313  *
    24       N          6.59355092  *   4.21622545  *  -5.75145301  *
    25       C          5.41756429  *   6.45735558  *   4.00094715  *
    26       C          6.24095975  *   6.23789594  *   5.06526724  *
    27       C          6.38043810  *   7.40369424  *   5.88893593  *
    28       C          5.65669112  *   8.45705387  *   5.41391744  *
    29       S          4.79612017  *   8.05700655  *   3.98353879  *
    30       C          5.57289133  *   9.76654758  *   6.01436675  *
    31       C          5.44595510  *   9.87332196  *   7.40278333  *
    32       C          5.37407322  *  11.11612501  *   8.00426263  *
    33       C          5.43164874  *  12.26560126  *   7.20217052  *
    34       C          5.55883445  *  12.17508777  *   5.81906391  *
    35       C          5.62920597  *  10.91606343  *   5.23286662  *
    36       O          5.35116299  *  13.42576118  *   7.91475616  *
    37       C          5.39923119  *  14.63102569  *   7.19515779  *
    38       H          4.37958779  *   7.63205183  *  -3.74524213  *
    39       H         -0.41737120  *   0.50468372  *  -0.88330537  *
    40       H         -0.40781122  *  -1.02130632  *   0.00126112  *
    41       H         -0.41740285  *   0.50696076  *   0.88198833  *
    42       H          1.90218925  *  -0.56044536  *   0.87954909  *
    43       H          1.90218078  *  -0.56084886  *  -0.87932158  *
    44       H          1.67213449  *   1.98969959  *  -0.87908985  *
    45       H          1.67312133  *   1.98921897  *   0.87939437  *
    46       H          3.98849443  *   0.86387886  *   0.88066317  *
    47       H          3.98420158  *   0.86465036  *  -0.88959670  *
    48       H          4.15265526  *   2.19236398  *   2.80891765  *
    49       H          4.74939957  *   3.93637594  *   4.46229167  *
    50       H          5.30908304  *   6.85804439  *   1.32020316  *
    51       H          3.66012078  *   2.31121020  *  -2.79751628  *
    52       H          3.98896548  *   4.11289136  *  -4.45726298  *
    53       H          5.08602727  *   6.91166455  *  -1.33716242  *
    54       H          6.34778431  *   7.98817187  *  -7.81291943  *
    55       H          6.75477953  *   5.30376071  *   5.27811255  *
    56       H          7.00786953  *   7.42392799  *   6.77651734  *
    57       H          5.39590901  *   8.96963743  *   8.01867023  *
    58       H          5.27287870  *  11.20604848  *   9.08986766  *
    59       H          5.60769077  *  13.05561479  *   5.17536084  *
    60       H          5.73698275  *  10.83725548  *   4.14617492  *
    61       H          4.55915871  *  14.75291092  *   6.49155212  *
    62       H          5.31670241  *  15.40067869  *   7.97829236  *
    63       H          6.34882868  *  14.77882350  *   6.65473082  *

                             CARTESIAN COORDINATES

   1    C        0.000000000     0.000000000     0.000000000
   2    C        1.519875137     0.000000000     0.000000000
   3    C        2.054844096     1.428811058     0.000000000
   4    C        3.590520387     1.414804466    -0.002639570
   5    N        4.139304631     2.767720999    -0.008124066
   6    C        4.396122038     3.558163906     1.132111283
   7    C        4.403676572     3.201882511     2.478267155
   8    C        4.740941475     4.183399717     3.395360282
   9    C        5.062573344     5.488909327     2.990698795
  10    C        5.052102681     5.846753366     1.645931410
  11    C        4.713484376     4.879454243     0.715571405
  12    C        4.597544932     4.909179373    -0.720329131
  13    C        4.208277309     3.602339952    -1.133341115
  14    C        3.981379743     3.304275457    -2.476690152
  15    C        4.180920036     4.317176291    -3.398143076
  16    C        4.590214640     5.598860505    -2.999620623
  17    C        4.783624124     5.909455279    -1.654299532
  18    C        4.796799197     6.642396742    -3.986815161
  19    C        5.467827609     6.448289859    -5.137451625
  20    C        5.608852897     7.555527328    -6.092357515
  21    O        5.185610166     8.694566931    -5.953655494
  22    O        6.276485930     7.228427266    -7.216994235
  23    C        6.085348091     5.215832172    -5.469083133
  24    N        6.593550924     4.216225448    -5.751453012
  25    C        5.417564289     6.457355577     4.000947154
  26    C        6.240959754     6.237895936     5.065267235
  27    C        6.380438096     7.403694239     5.888935930
  28    C        5.656691120     8.457053865     5.413917442
  29    S        4.796120173     8.057006547     3.983538792
  30    C        5.572891332     9.766547577     6.014366748
  31    C        5.445955095     9.873321958     7.402783326
  32    C        5.374073220    11.116125010     8.004262633
  33    C        5.431648741    12.265601260     7.202170523
  34    C        5.558834450    12.175087770     5.819063909
  35    C        5.629205972    10.916063430     5.232866617
  36    O        5.351162990    13.425761180     7.914756155
  37    C        5.399231193    14.631025690     7.195157788
  38    H        4.379587789     7.632051832    -3.745242129
  39    H       -0.417371204     0.504683723    -0.883305370
  40    H       -0.407811224    -1.021306319     0.001261120
  41    H       -0.417402852     0.506960765     0.881988327
  42    H        1.902189247    -0.560445358     0.879549093
  43    H        1.902180779    -0.560848859    -0.879321582
  44    H        1.672134492     1.989699593    -0.879089848
  45    H        1.673121330     1.989218970     0.879394365
  46    H        3.988494428     0.863878861     0.880663166
  47    H        3.984201583     0.864650360    -0.889596699
  48    H        4.152655260     2.192363984     2.808917649
  49    H        4.749399572     3.936375936     4.462291667
  50    H        5.309083041     6.858044386     1.320203160
  51    H        3.660120784     2.311210203    -2.797516283
  52    H        3.988965475     4.112891361    -4.457262979
  53    H        5.086027269     6.911664554    -1.337162422
  54    H        6.347784313     7.988171872    -7.812919430
  55    H        6.754779535     5.303760708     5.278112548
  56    H        7.007869530     7.423927987     6.776517340
  57    H        5.395909012     8.969637431     8.018670231
  58    H        5.272878703    11.206048480     9.089867665
  59    H        5.607690767    13.055614790     5.175360843
  60    H        5.736982750    10.837255480     4.146174917
  61    H        4.559158714    14.752910920     6.491552116
  62    H        5.316702415    15.400678690     7.978292357
  63    H        6.348828676    14.778823500     6.654730818


           Empirical Formula: C31 H26 N2 O3 S  =    63 atoms



      MOLECULAR POINT GROUP   :   C1  


                  EIGENVALUES  
 -48.61089 -46.80222 -46.75848 -43.97165 -43.47115 -42.90421 -41.49958 -40.53932
 -39.58050 -39.01975 -36.73690 -36.26313 -34.95352 -33.73572 -33.47860 -33.19416
 -31.81121 -31.14761 -30.17943 -29.30102 -28.78658 -27.77138 -26.87547 -26.20691
 -25.59227 -25.11568 -24.67890 -24.56147 -24.43915 -24.28603 -23.40705 -23.05463
 -22.34235 -21.02460 -20.76267 -20.36362 -20.16362 -19.75329 -19.33668 -18.93465
 -18.75287 -18.30963 -17.83483 -17.71492 -17.23746 -16.90846 -16.76507 -16.52815
 -16.23707 -16.10095 -15.91531 -15.72356 -15.65457 -15.41078 -15.34857 -15.23877
 -15.02184 -14.90902 -14.64964 -14.53880 -14.36309 -13.93056 -13.79597 -13.62524
 -13.48979 -13.34201 -13.22772 -13.19984 -13.18039 -12.90393 -12.84657 -12.75225
 -12.46620 -12.41767 -12.21866 -12.13421 -12.10075 -11.93558 -11.81005 -11.73699
 -11.66973 -11.06171 -10.83184 -10.11166  -9.92131  -9.80928  -9.17093  -9.08970
  -8.72459  -7.94125  -7.67989  -7.08042  -0.83358  -0.03660   0.12126   0.64373
   0.75070   0.80787   1.04339   1.34265   1.50642   1.72139   2.15438   2.32921
   2.52279   2.56294   2.62959   2.76340   2.99728   3.05963   3.14103   3.19840
   3.33763   3.41094   3.53499   3.84272   3.87666   3.90185   4.02560   4.08082
   4.13867   4.23067   4.33232   4.60265   4.72380   4.80577   5.07361   5.44429
   5.53646   5.68217   5.81332   5.81613   6.15666   6.36552   6.41308   6.54222
   6.59659   6.69785   6.72192   6.75091   6.83243   6.83431   6.84747   7.00514
   7.06253   7.91337   8.19012   8.30709   8.50594   8.70352   8.91026   9.01569
   9.07701   9.15963   9.35002   9.76056  10.02675  10.35842  10.50820  10.89323
  11.03919  11.48291  11.64981  11.97795  12.27847  12.50364  12.56840  12.60994
  12.88620  13.02278  13.91999  14.13167  14.25407  15.16360


              NET ATOMIC CHARGES AND DIPOLE CONTRIBUTIONS

  ATOM NO.   TYPE          CHARGE      No. of ELECS.   s-Pop       p-Pop       
    1          C          -0.026709        4.0267     1.05448     2.97223
    2          C          -0.006082        4.0061     1.04337     2.96271
    3          C          -0.000789        4.0008     1.05062     2.95016
    4          C           0.074233        3.9258     1.04910     2.87666
    5          N          -0.150205        5.1502     1.24566     3.90454
    6          C           0.073383        3.9266     1.05005     2.87657
    7          C          -0.039234        4.0392     1.07811     2.96112
    8          C          -0.028292        4.0283     1.08302     2.94527
    9          C           0.011897        3.9881     1.03908     2.94902
   10          C          -0.026512        4.0265     1.08006     2.94645
   11          C          -0.014434        4.0144     1.04973     2.96470
   12          C          -0.013749        4.0137     1.04879     2.96496
   13          C           0.091826        3.9082     1.05171     2.85647
   14          C          -0.041156        4.0412     1.07682     2.96433
   15          C          -0.007427        4.0074     1.08334     2.92409
   16          C          -0.004928        4.0049     1.03517     2.96976
   17          C          -0.004030        4.0040     1.08102     2.92301
   18          C           0.134534        3.8655     1.10682     2.75865
   19          C           0.014321        3.9857     1.00078     2.98490
   20          C           0.501082        3.4989     1.04587     2.45305
   21          O          -0.608304        6.6083     1.81669     4.79161
   22          O          -0.309365        6.3094     1.68723     4.62214
   23          C           0.218060        3.7819     1.14916     2.63278
   24          N          -0.396824        5.3968     1.75345     3.64338
   25          C           0.031481        3.9685     1.08216     2.88636
   26          C          -0.058349        4.0583     1.08552     2.97283
   27          C          -0.054267        4.0543     1.08627     2.96800
   28          C           0.028056        3.9719     1.08043     2.89151
   29          S          -0.061313        6.0613     1.77424     4.28708
   30          C           0.020778        3.9792     1.03738     2.94184
   31          C          -0.021849        4.0218     1.08258     2.93927
   32          C          -0.034969        4.0350     1.08115     2.95382
   33          C           0.140558        3.8594     1.04335     2.81610
   34          C          -0.031531        4.0315     1.07794     2.95360
   35          C          -0.022372        4.0224     1.08190     2.94047
   36          O          -0.327920        6.3279     1.69013     4.63779
   37          C           0.106872        3.8931     1.05719     2.83593
   38          H           0.067040        0.9330     0.93296
   39          H           0.008267        0.9917     0.99173
   40          H           0.001042        0.9990     0.99896
   41          H           0.008098        0.9919     0.99190
   42          H           0.008633        0.9914     0.99137
   43          H           0.008674        0.9913     0.99133
   44          H           0.012575        0.9874     0.98742
   45          H           0.012000        0.9880     0.98800
   46          H           0.021973        0.9780     0.97803
   47          H           0.021767        0.9782     0.97823
   48          H           0.028178        0.9718     0.97182
   49          H           0.023876        0.9761     0.97612
   50          H           0.027924        0.9721     0.97208
   51          H           0.030431        0.9696     0.96957
   52          H           0.030948        0.9691     0.96905
   53          H           0.034101        0.9659     0.96590
   54          H           0.247611        0.7524     0.75239
   55          H           0.027478        0.9725     0.97252
   56          H           0.028017        0.9720     0.97198
   57          H           0.026883        0.9731     0.97312
   58          H           0.028273        0.9717     0.97173
   59          H           0.033670        0.9663     0.96633
   60          H           0.027937        0.9721     0.97206
   61          H           0.031464        0.9685     0.96854
   62          H           0.015255        0.9847     0.98474
   63          H           0.031410        0.9686     0.96859
 DIPOLE           X         Y         Z       TOTAL
 POINT-CHG.    -2.385    -2.363     2.860     4.410
 HYBRID         0.540     0.677     0.094     0.871
 SUM           -1.845    -1.686     2.954     3.870


          ATOMIC ORBITAL ELECTRON POPULATIONS

     Atom    s        px        py        pz   
    1  C   1.05448   0.98938   0.98936   0.99349
    2  C   1.04337   0.99198   0.98273   0.98800
    3  C   1.05062   0.97207   0.98610   0.99200
    4  C   1.04910   0.99164   0.88552   0.99950
    5  N   1.24566   1.66523   1.13188   1.10743
    6  C   1.05005   0.99999   0.96399   0.91259
    7  C   1.07811   1.03336   0.95631   0.97145
    8  C   1.08302   1.01621   0.97913   0.94993
    9  C   1.03908   1.00391   0.97244   0.97267
   10  C   1.08006   1.01551   0.95285   0.97809
   11  C   1.04973   1.02212   0.98113   0.96145
   12  C   1.04879   1.02468   0.97751   0.96276
   13  C   1.05171   0.97602   0.96133   0.91912
   14  C   1.07682   1.03818   0.95809   0.96807
   15  C   1.08334   0.99427   0.97587   0.95395
   16  C   1.03517   1.03373   0.96990   0.96613
   17  C   1.08102   0.99001   0.95808   0.97493
   18  C   1.10682   0.82369   0.98553   0.94942
   19  C   1.00078   1.09642   0.91302   0.97546
   20  C   1.04587   0.71022   0.90721   0.83563
   21  O   1.81669   1.57602   1.33077   1.88482
   22  O   1.68723   1.74762   1.54479   1.32972
   23  C   1.14916   0.87714   0.91940   0.83624
   24  N   1.75345   1.20571   1.23167   1.20599
   25  C   1.08216   0.99837   0.89816   0.98983
   26  C   1.08552   1.02369   0.95033   0.99882
   27  C   1.08627   1.01175   0.99460   0.96165
   28  C   1.08043   0.99214   0.97236   0.92701
   29  S   1.77424   1.64458   1.23403   1.40846
   30  C   1.03738   0.99566   0.96328   0.98291
   31  C   1.08258   1.00542   0.96363   0.97022
   32  C   1.08115   1.02670   0.98346   0.94366
   33  C   1.04335   0.99314   0.86186   0.96109
   34  C   1.07794   1.03593   0.96652   0.95114
   35  C   1.08190   1.00402   0.98896   0.94749
   36  O   1.69013   1.93333   1.18697   1.51749
   37  C   1.05719   1.00803   0.86405   0.96386
   38  H   0.93296
   39  H   0.99173
   40  H   0.99896
   41  H   0.99190
   42  H   0.99137
   43  H   0.99133
   44  H   0.98742
   45  H   0.98800
   46  H   0.97803
   47  H   0.97823
   48  H   0.97182
   49  H   0.97612
   50  H   0.97208
   51  H   0.96957
   52  H   0.96905
   53  H   0.96590
   54  H   0.75239
   55  H   0.97252
   56  H   0.97198
   57  H   0.97312
   58  H   0.97173
   59  H   0.96633
   60  H   0.97206
   61  H   0.96854
   62  H   0.98474
   63  H   0.96859

 **********************
 *                    *
 * JOB ENDED NORMALLY *
 *                    *
 **********************



 TOTAL JOB TIME:           534.55 SECONDS

 == MOPAC DONE ==
