 *******************************************************************************
 ** Site#: 4824         For non-commercial use only    Version 21.013L 64BITS **
 *******************************************************************************
 ** Cite this program as: MOPAC2016, Version: 21.013L, James J. P. Stewart,   **
 ** Stewart Computational Chemistry, web: HTTP://OpenMOPAC.net. Days left:  84**
 *******************************************************************************
 **                                                                           **
 **                                MOPAC2016                                  **
 **                                                                           **
 *******************************************************************************

                              INDO CALCULATION RESULTS

 *******************************************************************************
 *  CALCULATION DONE:                                Thu Oct 21 11:25:13 2021  *
 *  INDO       - The INDO Hamiltonian to be used
 *  CIS        - C.I. USES 1 ELECTRON EXCITATIONS ONLY
 *  EPS=  4.81 - USE ANDREAS KLAMT'S COSMO IMPLICIT SOLVATION MODEL
 *  n**2 =  1.400 for COSMO-CI
 *  T=         - A TIME OF 172800.0 SECONDS REQUESTED
 *  DUMP=N     - RESTART FILE WRITTEN EVERY 7200.0 SECONDS REQUESTED
 *******************************************************************************
INDO CIS EPS=4.81 N**2=1.4
 Dye19
 Calculo de Estados Excitados
   ATOM   CHEMICAL          X               Y               Z
  NUMBER   SYMBOL      (ANGSTROMS)     (ANGSTROMS)     (ANGSTROMS)
 
     1       N          0.00000000  *   0.00000000  *   0.00000000  *
     2       C          1.15644699  *   0.00000000  *   0.00000000  *
     3       C          2.57409001  *   0.01711572  *   0.00000000  *
     4       C          3.31624969  *  -1.10380414  *  -0.07398156  *
     5       C          2.74066638  *  -2.43628460  *  -0.10065079  *
     6       C          1.73453708  *  -2.78725446  *   0.81602665  *
     7       C          1.20985706  *  -4.06354865  *   0.84558346  *
     8       C          1.69311778  *  -4.98021865  *  -0.09115436  *
     9       C          2.66401997  *  -4.61691958  *  -1.07122482  *
    10       C          3.23142907  *  -3.35161628  *  -1.02568466  *
    11       C          2.93673231  *  -5.79385050  *  -1.85225226  *
    12       C          2.22566879  *  -6.85241812  *  -1.25140782  *
    13       N          1.40149070  *  -6.34135058  *  -0.23603643  *
    14       C          0.53404616  *  -7.12848165  *   0.62369613  *
    15       C          2.43299257  *  -8.20142547  *  -1.60698768  *
    16       C          3.41661512  *  -8.45961461  *  -2.51952282  *
    17       C          4.12740032  *  -7.41528155  *  -3.17441547  *
    18       C          3.77720898  *  -6.06622039  *  -2.95133975  *
    19       C          4.29835931  *  -5.10695120  *  -3.84214052  *
    20       C          3.91800009  *  -3.76792786  *  -4.20495363  *
    21       C          2.81100378  *  -2.97461858  *  -3.91689358  *
    22       C          2.72553191  *  -1.71839009  *  -4.48865646  *
    23       C          3.71539051  *  -1.24701342  *  -5.36271014  *
    24       C          4.79241935  *  -2.03386189  *  -5.72390293  *
    25       C          4.86925765  *  -3.30692497  *  -5.15756623  *
    26       N          5.79910265  *  -4.33474705  *  -5.39661600  *
    27       C          5.38265038  *  -5.46037329  *  -4.67379861  *
    28       C          5.86597301  *  -6.78335975  *  -4.76217793  *
    29       C          5.19537090  *  -7.74162541  *  -4.05700814  *
    30       C          6.81662173  *  -4.32765013  *  -6.43348584  *
    31       C          3.23645725  *   1.32636536  *   0.05109221  *
    32       O          4.44162437  *   1.53380277  *   0.07006724  *
    33       O          2.38470566  *   2.37165840  *   0.08103189  *
    34       H          4.41409665  *  -1.04396022  *  -0.12952141  *
    35       H          1.38554377  *  -2.05153128  *   1.54845677  *
    36       H          0.45248347  *  -4.34019384  *   1.58142872  *
    37       H          4.05876167  *  -3.09195190  *  -1.69467404  *
    38       H          1.08604034  *  -7.57804384  *   1.47005261  *
    39       H         -0.27960811  *  -6.51198262  *   1.04453596  *
    40       H          0.05742326  *  -7.95066846  *   0.06045779  *
    41       H          1.85622928  *  -9.00312853  *  -1.14294312  *
    42       H          3.66029808  *  -9.49794472  *  -2.76957229  *
    43       H          2.00924656  *  -3.35569510  *  -3.27768591  *
    44       H          1.86577719  *  -1.07970290  *  -4.26603783  *
    45       H          3.61962357  *  -0.24009345  *  -5.78087039  *
    46       H          5.54080271  *  -1.67332604  *  -6.43135276  *
    47       H          6.71662950  *  -7.03218984  *  -5.39890411  *
    48       H          5.49167125  *  -8.79138438  *  -4.15706417  *
    49       H          7.66292165  *  -4.98353866  *  -6.16256093  *
    50       H          6.42646061  *  -4.67085286  *  -7.40988917  *
    51       H          7.22850809  *  -3.31330051  *  -6.57722663  *
    52       H          2.86570603  *   3.21112536  *   0.11355909  *
 


          CARTESIAN COORDINATES 

    NO.       ATOM           X           Y           Z

     1         N          0.0000      0.0000      0.0000
     2         C          1.1564      0.0000      0.0000
     3         C          2.5741      0.0171      0.0000
     4         C          3.3162     -1.1038     -0.0740
     5         C          2.7407     -2.4363     -0.1007
     6         C          1.7345     -2.7873      0.8160
     7         C          1.2099     -4.0635      0.8456
     8         C          1.6931     -4.9802     -0.0912
     9         C          2.6640     -4.6169     -1.0712
    10         C          3.2314     -3.3516     -1.0257
    11         C          2.9367     -5.7939     -1.8523
    12         C          2.2257     -6.8524     -1.2514
    13         N          1.4015     -6.3414     -0.2360
    14         C          0.5340     -7.1285      0.6237
    15         C          2.4330     -8.2014     -1.6070
    16         C          3.4166     -8.4596     -2.5195
    17         C          4.1274     -7.4153     -3.1744
    18         C          3.7772     -6.0662     -2.9513
    19         C          4.2984     -5.1070     -3.8421
    20         C          3.9180     -3.7679     -4.2050
    21         C          2.8110     -2.9746     -3.9169
    22         C          2.7255     -1.7184     -4.4887
    23         C          3.7154     -1.2470     -5.3627
    24         C          4.7924     -2.0339     -5.7239
    25         C          4.8693     -3.3069     -5.1576
    26         N          5.7991     -4.3347     -5.3966
    27         C          5.3827     -5.4604     -4.6738
    28         C          5.8660     -6.7834     -4.7622
    29         C          5.1954     -7.7416     -4.0570
    30         C          6.8166     -4.3277     -6.4335
    31         C          3.2365      1.3264      0.0511
    32         O          4.4416      1.5338      0.0701
    33         O          2.3847      2.3717      0.0810
    34         H          4.4141     -1.0440     -0.1295
    35         H          1.3855     -2.0515      1.5485
    36         H          0.4525     -4.3402      1.5814
    37         H          4.0588     -3.0920     -1.6947
    38         H          1.0860     -7.5780      1.4701
    39         H         -0.2796     -6.5120      1.0445
    40         H          0.0574     -7.9507      0.0605
    41         H          1.8562     -9.0031     -1.1429
    42         H          3.6603     -9.4979     -2.7696
    43         H          2.0092     -3.3557     -3.2777
    44         H          1.8658     -1.0797     -4.2660
    45         H          3.6196     -0.2401     -5.7809
    46         H          5.5408     -1.6733     -6.4314
    47         H          6.7166     -7.0322     -5.3989
    48         H          5.4917     -8.7914     -4.1571
    49         H          7.6629     -4.9835     -6.1626
    50         H          6.4265     -4.6709     -7.4099
    51         H          7.2285     -3.3133     -6.5772
    52         H          2.8657      3.2111      0.1136

           Empirical Formula: C28 H19 N3 O2  =    52 atoms



      MOLECULAR POINT GROUP   :   C1  


      RHF CALCULATION, NO. OF DOUBLY OCCUPIED LEVELS = 79

 WARNING: INDO only performs single-point calculations

 Summary of symmetry occupancy in each shell:

 SHELL     
    1   79
    v   72
 TOTAL 151




    ROOT NO.    1           2           3           4           5           6

           -48.84529   -48.13676   -46.78233   -44.09820   -43.06193   -42.14209
  
  
  S  N   1   0.00534    -0.00515     0.04055    -0.03038     0.06526    -0.00854
 PX  N   1   0.00315    -0.00301     0.02507    -0.01651     0.03492    -0.00437
 PY  N   1  -0.00094     0.00080     0.00368     0.00515    -0.00861     0.00092
 PZ  N   1   0.00017    -0.00019     0.00037    -0.00074     0.00123    -0.00033
  
  S  C   2   0.01293    -0.01210     0.11585    -0.05657     0.11759    -0.01324
 PX  C   2   0.00431    -0.00388     0.05039    -0.01141     0.02211    -0.00106
 PY  C   2  -0.00322     0.00258     0.02107     0.01897    -0.03162     0.00293
 PZ  C   2   0.00029    -0.00042     0.00124    -0.00128     0.00217    -0.00082
  
  S  C   3   0.02007    -0.01837     0.23192    -0.06974     0.14799    -0.01304
 PX  C   3   0.00064    -0.00044     0.03190     0.00352    -0.00387     0.00181
 PY  C   3  -0.00587     0.00401     0.07531     0.04564    -0.07789     0.00562
 PZ  C   3  -0.00023    -0.00019     0.00244     0.00106    -0.00175    -0.00101
  
  S  C   4   0.03359    -0.02658     0.12172    -0.13045     0.23747    -0.01480
 PX  C   4  -0.00765     0.00715    -0.01919     0.03421    -0.06085     0.00702
 PY  C   4  -0.01110     0.00757     0.04537     0.03693    -0.04941     0.00159
 PZ  C   4  -0.00098    -0.00066     0.00311     0.00028     0.00097    -0.00379
  
  S  C   5   0.08772    -0.07157     0.05869    -0.24194     0.36396    -0.03123
 PX  C   5  -0.00938     0.01117    -0.00068     0.02305    -0.02530     0.01168
 PY  C   5  -0.03072     0.02596     0.01647     0.04121    -0.03143     0.00661
 PZ  C   5  -0.00494    -0.00059     0.00248    -0.00080     0.00310    -0.01226
  
  S  C   6   0.07890    -0.07202     0.03638    -0.20894     0.28716    -0.04909
 PX  C   6   0.01246    -0.01023     0.00884    -0.03626     0.05821    -0.00360
 PY  C   6  -0.02527     0.02382     0.00818     0.03569    -0.02172     0.01257
 PZ  C   6  -0.02435     0.02104    -0.00856     0.05638    -0.07666     0.00878
  
  S  C   7   0.11269    -0.10716     0.01065    -0.17829     0.15937    -0.06197
 PX  C   7   0.02934    -0.02651     0.00443    -0.05328     0.06391    -0.01160
 PY  C   7  -0.02185     0.02233     0.00913    -0.02349     0.08104     0.00521
 PZ  C   7  -0.04031     0.03724    -0.00148     0.04884    -0.03794     0.01410
  
  S  C   8   0.27628    -0.25741    -0.01162    -0.16670    -0.00554    -0.07733
 PX  C   8   0.03125    -0.02410     0.00036    -0.01647     0.03554     0.00765
 PY  C   8  -0.07274     0.07193     0.01757    -0.06296     0.18862     0.01008
 PZ  C   8  -0.05577     0.04706     0.00589    -0.00897     0.03106    -0.00866
  
  S  C   9   0.24846    -0.19703    -0.00425    -0.12934     0.11403     0.00126
 PX  C   9  -0.03788     0.04589     0.00310     0.02885     0.02645     0.02522
 PY  C   9  -0.06862     0.06349     0.01601    -0.07372     0.12985    -0.00111
 PZ  C   9   0.02320    -0.03740     0.00264    -0.06533     0.02836    -0.03774
  
  S  C  10   0.11955    -0.07747     0.02462    -0.18894     0.26706     0.01398
 PX  C  10  -0.02979     0.03028    -0.00414     0.05509    -0.06322     0.01374
 PY  C  10  -0.03340     0.02497     0.01044    -0.00794     0.02340    -0.00335
 PZ  C  10   0.01226    -0.02462     0.00796    -0.05551     0.07203    -0.03150
  
  S  C  11   0.26335    -0.16774    -0.02200     0.14782     0.02830     0.08927
 PX  C  11  -0.04231     0.06130     0.00482     0.04253     0.06665     0.02459
 PY  C  11  -0.01625     0.01082     0.00554    -0.09971     0.00690    -0.02628
 PZ  C  11   0.05454    -0.07954    -0.00513    -0.06711    -0.07144    -0.03702
  
  S  C  12   0.28567    -0.23595    -0.03073     0.14225    -0.12392     0.04370
 PX  C  12  -0.01004     0.02596     0.00148     0.06388     0.07416     0.04452
 PY  C  12   0.08469    -0.07929    -0.00695    -0.04403    -0.05164    -0.02392
 PZ  C  12   0.03778    -0.05301    -0.00402    -0.07312    -0.09343    -0.05246
  
  S  N  13   0.34240    -0.32794    -0.03581    -0.04121    -0.30729    -0.08768
 PX  N  13   0.05831    -0.05156    -0.00541     0.00526    -0.01912     0.00398
 PY  N  13   0.04027    -0.03772    -0.00172    -0.03369     0.00652    -0.01250
 PZ  N  13  -0.04020     0.03379     0.00422    -0.01722     0.01263    -0.01192
  
  S  C  14   0.12445    -0.12365    -0.01430    -0.01875    -0.15695    -0.05102
 PX  C  14   0.04387    -0.04286    -0.00502    -0.00329    -0.04903    -0.01324
 PY  C  14   0.03787    -0.03780    -0.00380    -0.01447    -0.03829    -0.01737
 PZ  C  14  -0.04127     0.04019     0.00490     0.00015     0.04853     0.01130
  
  S  C  15   0.12263    -0.08226    -0.01505     0.19148     0.00845     0.08513
 PX  C  15   0.00906     0.00349    -0.00100     0.05510     0.03948     0.02978
 PY  C  15   0.05683    -0.04218    -0.00651     0.05383    -0.01251     0.02103
 PZ  C  15   0.00060    -0.01125    -0.00010    -0.04688    -0.04215    -0.02678
  
  S  C  16   0.09613    -0.03315    -0.01110     0.24751     0.10275     0.10545
 PX  C  16  -0.00532     0.01231     0.00114     0.00220     0.01783    -0.00783
 PY  C  16   0.04348    -0.01478    -0.00471     0.09556     0.03976     0.03922
 PZ  C  16   0.00668    -0.01341    -0.00129    -0.00062    -0.01733     0.00796
  
  S  C  17   0.14441     0.01617    -0.01199     0.35467     0.20893     0.09378
 PX  C  17  -0.01140     0.02700     0.00257    -0.01832     0.01217    -0.03528
 PY  C  17   0.03453     0.01602    -0.00151     0.04847     0.03731     0.00230
 PZ  C  17   0.00836    -0.02928    -0.00244     0.01372    -0.01450     0.03308
  
  S  C  18   0.19296     0.02065    -0.01249     0.30484     0.19143     0.10534
 PX  C  18  -0.00257     0.04451     0.00222     0.01704     0.03088    -0.02816
 PY  C  18  -0.00503     0.02035     0.00351    -0.09035    -0.03163    -0.01835
 PZ  C  18   0.00446    -0.05881    -0.00310    -0.00787    -0.02793     0.02979
  
  S  C  19   0.23045     0.21631    -0.00174     0.12005     0.10530    -0.00397
 PX  C  19   0.03178     0.06033     0.00083     0.00111    -0.00718    -0.07049
 PY  C  19   0.01503     0.04595     0.00345    -0.11777    -0.07795     0.01082
 PZ  C  19  -0.03952    -0.08175    -0.00195     0.04000     0.03701     0.05411
  
  S  C  20   0.20768     0.23546     0.00432    -0.10098    -0.03307     0.21718
 PX  C  20   0.05254     0.07947     0.00049    -0.00574    -0.02122    -0.09073
 PY  C  20  -0.02909    -0.02730     0.00142    -0.05828    -0.03207     0.14811
 PZ  C  20  -0.02962    -0.05633    -0.00068     0.03215     0.03836    -0.01211
  
  S  C  21   0.09785     0.08973     0.00456    -0.11145    -0.01535     0.34319
 PX  C  21   0.03419     0.04303     0.00104    -0.03165    -0.01581     0.08509
 PY  C  21  -0.01218    -0.00392     0.00067    -0.01952    -0.01643     0.05878
 PZ  C  21  -0.01281    -0.02990     0.00012     0.02392     0.02952    -0.08100
  
  S  C  22   0.06190     0.07071     0.00381    -0.11146    -0.04385     0.36147
 PX  C  22   0.02150     0.02823     0.00091    -0.03608    -0.02031     0.10820
 PY  C  22  -0.02147    -0.02235    -0.00090     0.02850     0.00762    -0.08208
 PZ  C  22  -0.00278    -0.00824     0.00038     0.00784     0.01258    -0.02945
  
  S  C  23   0.05863     0.07580     0.00296    -0.11049    -0.06099     0.34721
 PX  C  23   0.00451     0.00721     0.00002    -0.00495    -0.00643     0.00048
 PY  C  23  -0.02789    -0.03578    -0.00118     0.04403     0.02392    -0.12337
 PZ  C  23   0.01014     0.01167     0.00066    -0.01765    -0.00614     0.05786
  
  S  C  24   0.08962     0.12129     0.00320    -0.12087    -0.08142     0.26696
 PX  C  24  -0.00931    -0.01028    -0.00070     0.02782     0.01073    -0.12081
 PY  C  24  -0.03654    -0.04998    -0.00083     0.02492     0.02111     0.00480
 PZ  C  24   0.02299     0.02946     0.00091    -0.03092    -0.01654     0.08285
  
  S  C  25   0.22507     0.29939     0.00514    -0.14994    -0.11343     0.10622
 PX  C  25   0.00949     0.01995    -0.00034     0.01577    -0.00753    -0.15912
 PY  C  25  -0.07633    -0.10153    -0.00055    -0.00822     0.00708     0.17711
 PZ  C  25   0.02412     0.02560     0.00051    -0.00578     0.00599     0.03607
  
  S  N  26   0.28132     0.38572     0.00458    -0.10002    -0.11719    -0.30209
 PX  N  26  -0.05799    -0.07510    -0.00091     0.01736     0.01192    -0.00116
 PY  N  26  -0.00811    -0.00812     0.00036    -0.02550    -0.01888     0.04449
 PZ  N  26   0.03465     0.04232     0.00035     0.00199     0.00534     0.00028
  
  S  C  27   0.24203     0.28847     0.00023     0.08823     0.05398    -0.18861
 PX  C  27  -0.02983    -0.02464     0.00050    -0.02932    -0.02857    -0.03367
 PY  C  27   0.06912     0.10769     0.00275    -0.09877    -0.08385    -0.06438
 PZ  C  27  -0.00496    -0.02451    -0.00133     0.05492     0.05117     0.05395
  
  S  C  28   0.10750     0.10699    -0.00242     0.16152     0.12038    -0.08365
 PX  C  28  -0.03140    -0.02497     0.00118    -0.06370    -0.04898     0.00207
 PY  C  28   0.03563     0.04764     0.00045    -0.00584    -0.00854    -0.04734
 PZ  C  28   0.01527     0.00607    -0.00111     0.05377     0.04255     0.01203
  
  S  C  29   0.08920     0.05406    -0.00496     0.23066     0.16694     0.00209
 PX  C  29  -0.01652    -0.00099     0.00152    -0.04802    -0.02879    -0.01995
 PY  C  29   0.03626     0.03051    -0.00121     0.06852     0.05325    -0.01454
 PZ  C  29   0.00836    -0.00533    -0.00120     0.03206     0.01738     0.02073
  
  S  C  30   0.10266     0.14601     0.00182    -0.04643    -0.06113    -0.16852
 PX  C  30  -0.04268    -0.06010    -0.00076     0.01939     0.02327     0.05508
 PY  C  30  -0.00161    -0.00145     0.00011    -0.00769    -0.00592     0.01352
 PZ  C  30   0.04024     0.05647     0.00067    -0.01514    -0.01973    -0.05923
  
  S  C  31   0.01367    -0.01544     0.51139     0.03477    -0.03473     0.00156
 PX  C  31   0.00003    -0.00003     0.01720     0.00281    -0.00171     0.00119
 PY  C  31  -0.00014    -0.00107     0.13660     0.04030    -0.07430     0.00534
 PZ  C  31  -0.00002    -0.00009     0.00507     0.00145    -0.00262    -0.00003
  
  S  O  32   0.00957    -0.01111     0.40840     0.03576    -0.04059     0.00340
 PX  O  32  -0.00396     0.00467    -0.17481    -0.01645     0.02021    -0.00151
 PY  O  32  -0.00084     0.00068    -0.00482     0.00613    -0.01379     0.00086
 PZ  O  32  -0.00008     0.00007    -0.00190     0.00009    -0.00035    -0.00003
  
  S  O  33   0.01089    -0.01376     0.56963     0.07738    -0.12352     0.00743
 PX  O  33   0.00287    -0.00367     0.15755     0.02233    -0.03560     0.00237
 PY  O  33  -0.00173     0.00201    -0.06469    -0.00303     0.00101     0.00039
 PZ  O  33  -0.00004     0.00003    -0.00104     0.00005    -0.00020    -0.00001
  
  S  H  34   0.01204    -0.00868     0.05275    -0.04268     0.07894    -0.00262
  
  S  H  35   0.01972    -0.01832     0.01904    -0.06538     0.09919    -0.01615
  
  S  H  36   0.03482    -0.03423     0.00183    -0.04857     0.02966    -0.02244
  
  S  H  37   0.04563    -0.00876     0.00986    -0.05680     0.08627     0.03304
  
  S  H  38   0.04403    -0.04379    -0.00510    -0.00613    -0.05688    -0.01848
  
  S  H  39   0.04469    -0.04490    -0.00474    -0.01364    -0.05371    -0.02221
  
  S  H  40   0.04491    -0.04421    -0.00545    -0.00044    -0.05963    -0.01594
  
  S  H  41   0.03758    -0.02902    -0.00482     0.04807    -0.01299     0.01904
  
  S  H  42   0.02444    -0.00603    -0.00285     0.07454     0.03498     0.03017
  
  S  H  43   0.04092     0.01426     0.00208    -0.03598     0.01831     0.10133
  
  S  H  44   0.01501     0.01560     0.00152    -0.03067    -0.00913     0.10403
  
  S  H  45   0.01333     0.01755     0.00078    -0.02929    -0.01678     0.09871
  
  S  H  46   0.02781     0.03897     0.00090    -0.03548    -0.02763     0.05907
  
  S  H  47   0.03240     0.03650    -0.00042     0.03765     0.02677    -0.04029
  
  S  H  48   0.02308     0.01152    -0.00156     0.07071     0.05024     0.00477
  
  S  H  49   0.03696     0.05212     0.00057    -0.01169    -0.01843    -0.06888
  
  S  H  50   0.03676     0.05232     0.00064    -0.01648    -0.02211    -0.06200
  
  S  H  51   0.03654     0.05254     0.00073    -0.02176    -0.02628    -0.05378
  
  S  H  52   0.00441    -0.00563     0.24011     0.03454    -0.05619     0.00364




    ROOT NO.    7           8           9          10          11          12

           -39.68315   -39.25761   -38.83167   -37.52769   -36.46981   -35.99218
  
  
  S  N   1  -0.08539    -0.32624     0.18175     0.18178     0.44749     0.27036
 PX  N   1  -0.04086    -0.15455     0.08395     0.07825     0.17446     0.09948
 PY  N   1   0.00921     0.00021    -0.00111     0.00281     0.00403    -0.00060
 PZ  N   1   0.00002    -0.00088     0.00024    -0.00094    -0.00011     0.00128
  
  S  C   2  -0.13529    -0.39355     0.20997     0.16793     0.26630     0.11266
 PX  C   2  -0.01814     0.04351    -0.03072    -0.06345    -0.27696    -0.20709
 PY  C   2   0.03754    -0.00122    -0.00393     0.00728     0.01541     0.00251
 PZ  C   2   0.00076    -0.00197     0.00043    -0.00213     0.00010     0.00303
  
  S  C   3  -0.26307    -0.22956     0.14672     0.07548    -0.13828    -0.19359
 PX  C   3  -0.07964     0.11599    -0.03359    -0.02233    -0.06267    -0.04290
 PY  C   3   0.07779     0.03580    -0.02079     0.00718     0.06918     0.04552
 PZ  C   3   0.00364     0.00047    -0.00068    -0.00246     0.00425     0.00639
  
  S  C   4  -0.27421    -0.13985     0.08473     0.01086    -0.25552    -0.22262
 PX  C   4   0.03993     0.07817    -0.03484    -0.00144     0.04271     0.03493
 PY  C   4  -0.08759    -0.00171     0.03623     0.03760     0.01843    -0.03236
 PZ  C   4  -0.00807    -0.00653     0.00533    -0.00500     0.00109     0.00455
  
  S  C   5  -0.02910    -0.04898    -0.03420    -0.08810    -0.15480    -0.04129
 PX  C   5  -0.02603     0.00102     0.00174     0.03474    -0.04134    -0.06549
 PY  C   5  -0.12683    -0.09761     0.07426     0.03247    -0.09565    -0.09706
 PZ  C   5  -0.01321    -0.02084     0.01639    -0.03391     0.00182     0.03415
  
  S  C   6   0.05037    -0.00840    -0.02899    -0.16838    -0.01281     0.16685
 PX  C   6  -0.00976    -0.00886    -0.01120    -0.00260    -0.04052    -0.04093
 PY  C   6  -0.08312    -0.07711     0.03991     0.05651    -0.05842    -0.09483
 PZ  C   6  -0.01687    -0.00725     0.01991     0.01772     0.00894     0.00233
  
  S  C   7   0.11933     0.08242    -0.00341    -0.19674     0.06520     0.25366
 PX  C   7   0.03716     0.02494    -0.02900    -0.02448     0.02319     0.02328
 PY  C   7   0.00949    -0.01105    -0.04441    -0.01653     0.00263     0.02417
 PZ  C   7  -0.03624    -0.02981     0.01307     0.01660    -0.02778    -0.01495
  
  S  C   8   0.10681     0.10636     0.03990    -0.04464     0.11538     0.03957
 PX  C   8   0.02576     0.01711    -0.06635     0.07006     0.05185    -0.07750
 PY  C   8   0.07677     0.03977    -0.10815    -0.05466     0.04246     0.09774
 PZ  C   8   0.00115    -0.00303     0.03559    -0.10809    -0.04394     0.12973
  
  S  C   9   0.13502     0.11695    -0.13831     0.18481     0.15380    -0.13858
 PX  C   9  -0.00811    -0.00885    -0.02288     0.03464    -0.03064    -0.00613
 PY  C   9   0.04454     0.02948    -0.01695    -0.08638    -0.03754     0.09987
 PZ  C   9   0.03039     0.02334     0.00886    -0.08178     0.02740     0.04272
  
  S  C  10   0.09655     0.07817    -0.11568     0.05244    -0.02100    -0.05304
 PX  C  10  -0.03910    -0.02392     0.02771     0.02447    -0.02947    -0.02177
 PY  C  10  -0.05807    -0.04945     0.03729    -0.06078    -0.09004    -0.00094
 PZ  C  10   0.01297     0.00233    -0.01598    -0.06662    -0.00638     0.02160
  
  S  C  11   0.00101    -0.01976    -0.20114     0.24543     0.08030    -0.15209
 PX  C  11   0.00890     0.00425    -0.00833    -0.00348    -0.02725     0.04936
 PY  C  11   0.06219     0.07809     0.05801     0.08111     0.03525    -0.05162
 PZ  C  11   0.00413     0.01046     0.00897     0.01503     0.05245    -0.07914
  
  S  C  12  -0.10516    -0.12062    -0.12499     0.01850    -0.03561    -0.03213
 PX  C  12   0.00057    -0.02347    -0.12216     0.02666     0.03267    -0.00288
 PY  C  12   0.03681     0.05555     0.03859     0.13105     0.08864    -0.15201
 PZ  C  12   0.00277     0.03101     0.13308    -0.01087    -0.01846    -0.02326
  
  S  N  13  -0.07231    -0.01551     0.25855    -0.08460    -0.10445     0.02559
 PX  N  13   0.00328     0.00015    -0.05166     0.07790     0.06305    -0.10181
 PY  N  13   0.04308     0.04405    -0.01420     0.05758     0.09401    -0.06946
 PZ  N  13   0.00564     0.01108     0.06320    -0.08019    -0.04993     0.10138
  
  S  C  14  -0.06130    -0.02573     0.21799    -0.17531    -0.18427     0.18677
 PX  C  14  -0.01724    -0.00796     0.04689    -0.02613    -0.03106     0.01723
 PY  C  14  -0.00274     0.00717     0.05451    -0.02781    -0.01491     0.02371
 PZ  C  14   0.02023     0.01156    -0.04357     0.02570     0.03540    -0.01715
  
  S  C  15  -0.12104    -0.17164    -0.21922    -0.15279    -0.10442     0.17136
 PX  C  15  -0.01185    -0.02846    -0.07393    -0.02460     0.00902     0.02455
 PY  C  15  -0.02897    -0.03665    -0.04767     0.00749    -0.01102    -0.00560
 PZ  C  15   0.00652     0.02153     0.06540     0.02130    -0.01088    -0.02298
  
  S  C  16  -0.08546    -0.13878    -0.20672    -0.20105    -0.03732     0.15402
 PX  C  16   0.02282     0.03362     0.05894    -0.00593     0.02968    -0.03583
 PY  C  16  -0.02223    -0.03698    -0.06602    -0.02298    -0.00166     0.01804
 PZ  C  16  -0.02242    -0.03291    -0.05723     0.00453    -0.02686     0.03211
  
  S  C  17  -0.00407    -0.01439     0.01755    -0.16240     0.03514     0.02541
 PX  C  17   0.03995     0.06613     0.14184    -0.01779     0.03255    -0.05805
 PY  C  17   0.02608     0.03912     0.05106     0.08035    -0.00195    -0.03131
 PZ  C  17  -0.03918    -0.06471    -0.13770     0.01040    -0.02528     0.04915
  
  S  C  18   0.03265     0.03232    -0.01897     0.14244    -0.01353    -0.00185
 PX  C  18   0.02804     0.04749     0.11884    -0.03263    -0.00357     0.00373
 PY  C  18   0.03258     0.04720     0.03385     0.13657    -0.02766    -0.00822
 PZ  C  18  -0.03217    -0.05566    -0.13941     0.01949     0.02246    -0.02352
  
  S  C  19   0.07211     0.10630     0.13634     0.25474    -0.14217     0.12541
 PX  C  19   0.00028     0.00610     0.04093    -0.03631    -0.00278     0.00860
 PY  C  19  -0.02041    -0.03119    -0.08112     0.07280    -0.07003     0.08656
 PZ  C  19   0.00795     0.00541    -0.01790     0.01008     0.03638    -0.05313
  
  S  C  20   0.02667     0.04121     0.03949     0.20188    -0.15288     0.16329
 PX  C  20  -0.01074    -0.01374    -0.01939     0.01589    -0.03604     0.05662
 PY  C  20  -0.01461    -0.01905     0.00214    -0.10623     0.06119    -0.06000
 PZ  C  20   0.01641     0.02016     0.00455     0.04555    -0.00163    -0.02103
  
  S  C  21   0.02577     0.03781     0.05496     0.06392    -0.03040     0.00599
 PX  C  21   0.00138     0.00441     0.01373     0.01891    -0.02253     0.02745
 PY  C  21  -0.01044    -0.01126     0.01654    -0.08218     0.04373    -0.04375
 PZ  C  21   0.00741     0.00598    -0.02291     0.03731    -0.00971    -0.00374
  
  S  C  22   0.00204     0.00990     0.07331    -0.09233     0.05936    -0.07133
 PX  C  22  -0.00315    -0.00192     0.01821    -0.03791     0.01928    -0.01429
 PY  C  22  -0.00486    -0.00744    -0.01161    -0.01741     0.01400    -0.01171
 PZ  C  22   0.00453     0.00529    -0.00710     0.03567    -0.02125     0.01308
  
  S  C  23  -0.01207    -0.00990     0.06166    -0.17011     0.10984    -0.10375
 PX  C  23  -0.00469    -0.00718    -0.00927    -0.01880     0.01202    -0.00608
 PY  C  23   0.00352     0.00276    -0.01656     0.03624    -0.01729     0.01172
 PZ  C  23   0.00163     0.00384     0.01394    -0.00271    -0.00135    -0.00090
  
  S  C  24  -0.02941    -0.03869    -0.00121    -0.18203     0.11458    -0.09350
 PX  C  24  -0.00367    -0.00865    -0.03744     0.02355    -0.00990     0.00790
 PY  C  24   0.00946     0.01455     0.02827    -0.00062     0.00833    -0.01711
 PZ  C  24  -0.00140    -0.00005     0.01348    -0.01343     0.00077     0.00449
  
  S  C  25  -0.03651    -0.05083    -0.06679    -0.03233    -0.01789     0.05966
 PX  C  25  -0.01914    -0.03228    -0.07078    -0.03804     0.03667    -0.03876
 PY  C  25   0.00210     0.00484     0.04301    -0.10226     0.08218    -0.08966
 PZ  C  25   0.01504     0.02424     0.03396     0.08430    -0.07117     0.07510
  
  S  N  26  -0.06709    -0.10357    -0.19417    -0.10358     0.07279    -0.06645
 PX  N  26  -0.00660    -0.01259    -0.01718    -0.09250     0.09688    -0.12185
 PY  N  26  -0.01228    -0.02011    -0.03856    -0.01018     0.00064     0.01495
 PZ  N  26   0.01506     0.02562     0.04130     0.09347    -0.09012     0.10461
  
  S  C  27   0.04011     0.06803     0.14736     0.01824    -0.01154    -0.01393
 PX  C  27  -0.02167    -0.03343    -0.05076    -0.09034     0.07358    -0.08424
 PY  C  27  -0.03701    -0.05910    -0.14446     0.08591    -0.08225     0.11388
 PZ  C  27   0.02998     0.04631     0.08351     0.05533    -0.03808     0.03657
  
  S  C  28   0.06298     0.10547     0.26685    -0.14697     0.12207    -0.17689
 PX  C  28  -0.02355    -0.03789    -0.08601     0.01265    -0.00592     0.01094
 PY  C  28  -0.00179    -0.00261    -0.01191     0.02171    -0.00806     0.00148
 PZ  C  28   0.01974     0.03149     0.07149    -0.01195     0.00509    -0.00763
  
  S  C  29   0.05666     0.09165     0.25102    -0.19228     0.10572    -0.11267
 PX  C  29   0.00398     0.00861     0.01390     0.01596     0.01045    -0.03208
 PY  C  29   0.02979     0.04835     0.10611    -0.01111     0.02252    -0.04450
 PZ  C  29  -0.00792    -0.01481    -0.02868    -0.01166    -0.01138     0.03271
  
  S  C  30  -0.05204    -0.08390    -0.14875    -0.19305     0.18217    -0.21200
 PX  C  30   0.01582     0.02484     0.04502     0.03634    -0.02820     0.02775
 PY  C  30  -0.00410    -0.00678    -0.01331    -0.00250    -0.00052     0.00639
 PZ  C  30  -0.01391    -0.02181    -0.03922    -0.03722     0.03111    -0.03420
  
  S  C  31  -0.12050     0.08385    -0.00070     0.01413     0.01083    -0.01335
 PX  C  31  -0.28091     0.30441    -0.05575    -0.00496     0.11975     0.11060
 PY  C  31   0.21107     0.01964    -0.05576    -0.04030     0.03385     0.07260
 PZ  C  31   0.00539     0.00319    -0.00247    -0.00190     0.00288     0.00467
  
  S  O  32  -0.40244     0.44166    -0.07737     0.00083     0.18119     0.15464
 PX  O  32   0.10553    -0.12848     0.02493     0.00191    -0.04509    -0.03884
 PY  O  32   0.08380    -0.03079    -0.00725    -0.00976     0.00032     0.01203
 PZ  O  32   0.00427    -0.00238    -0.00005    -0.00044    -0.00020     0.00040
  
  S  O  33   0.48076    -0.20712    -0.02738    -0.04913    -0.09456    -0.03726
 PX  O  33   0.08111     0.00577    -0.02074    -0.01642    -0.00312     0.01257
 PY  O  33  -0.00076     0.04011    -0.01846    -0.01383     0.00471     0.02052
 PZ  O  33   0.00059     0.00144    -0.00080    -0.00068     0.00031     0.00108
  
  S  H  34  -0.11665    -0.01798     0.02114     0.00646    -0.09533    -0.08623
  
  S  H  35  -0.01429    -0.04237     0.01454    -0.04987    -0.01078     0.05606
  
  S  H  36   0.03011     0.02185     0.02246    -0.08132     0.01023     0.10951
  
  S  H  37   0.02055     0.02420    -0.03297     0.05781    -0.03724    -0.03796
  
  S  H  38  -0.02402    -0.01103     0.08262    -0.07161    -0.07569     0.07925
  
  S  H  39  -0.01676    -0.00310     0.09057    -0.07767    -0.06950     0.08864
  
  S  H  40  -0.03047    -0.01834     0.07782    -0.07335    -0.08404     0.08066
  
  S  H  41  -0.04420    -0.05748    -0.05034    -0.06839    -0.05498     0.07691
  
  S  H  42  -0.02489    -0.04077    -0.05291    -0.08815    -0.00945     0.05626
  
  S  H  43   0.02082     0.02436     0.00556     0.05820    -0.01384    -0.00590
  
  S  H  44   0.00094     0.00341     0.02397    -0.03048     0.02273    -0.03095
  
  S  H  45  -0.00426    -0.00385     0.01968    -0.06322     0.04426    -0.04385
  
  S  H  46  -0.01429    -0.02064    -0.01592    -0.07872     0.05638    -0.05076
  
  S  H  47   0.01466     0.02557     0.07245    -0.06835     0.05966    -0.08348
  
  S  H  48   0.01323     0.02165     0.07114    -0.08576     0.04128    -0.03666
  
  S  H  49  -0.01746    -0.02818    -0.04813    -0.08102     0.07940    -0.09687
  
  S  H  50  -0.01960    -0.03172    -0.05574    -0.07827     0.07513    -0.08851
  
  S  H  51  -0.02255    -0.03652    -0.06424    -0.08419     0.07877    -0.08930
  
  S  H  52   0.19037    -0.04841    -0.02508    -0.02816    -0.02820     0.00314




    ROOT NO.   13          14          15          16          17          18

           -33.60167   -32.87682   -32.40176   -31.66135   -30.57736   -29.76182
  
  
  S  N   1   0.13103    -0.06037     0.08870     0.02247    -0.05261     0.03367
 PX  N   1   0.03901    -0.01682     0.02201     0.00148    -0.00522     0.00597
 PY  N   1   0.00049    -0.00003    -0.00431    -0.01509     0.02543     0.00102
 PZ  N   1  -0.00198     0.00145    -0.00083     0.00347    -0.00375    -0.00271
  
  S  C   2  -0.00349     0.00773    -0.03028    -0.04480     0.07308    -0.01502
 PX  C   2  -0.14215     0.06935    -0.11670    -0.06127     0.11218    -0.04298
 PY  C   2  -0.00349     0.00409    -0.01814    -0.04191     0.07455    -0.00276
 PZ  C   2  -0.00489     0.00326    -0.00204     0.00731    -0.00737    -0.00597
  
  S  C   3  -0.18448     0.09198    -0.17268    -0.14201     0.21617    -0.04012
 PX  C   3  -0.00513    -0.00054     0.00261    -0.00997    -0.00551     0.02033
 PY  C   3  -0.01812     0.01980    -0.05352    -0.07379     0.16595    -0.03265
 PZ  C   3  -0.00779     0.00441    -0.00394     0.00791    -0.00531    -0.00836
  
  S  C   4  -0.00344    -0.02203     0.05243     0.01775    -0.13278     0.07483
 PX  C   4   0.04254    -0.01748     0.02207    -0.02617     0.03226     0.02091
 PY  C   4  -0.13188     0.07682    -0.14286    -0.10032     0.17431    -0.04402
 PZ  C   4  -0.03308     0.01555    -0.01714     0.01955    -0.01727    -0.01644
  
  S  C   5   0.14442    -0.10407     0.18557     0.12734    -0.17865     0.04727
 PX  C   5   0.09417    -0.05154     0.07306    -0.05384     0.01170     0.06524
 PY  C   5  -0.03594     0.01783    -0.00012     0.04964    -0.15715     0.02457
 PZ  C   5  -0.10726     0.05361    -0.05320     0.08960    -0.09344    -0.04865
  
  S  C   6  -0.13763     0.09923    -0.07082     0.22734    -0.17866    -0.13176
 PX  C   6   0.05467    -0.05680     0.07280     0.01507    -0.03198     0.03171
 PY  C   6   0.05746    -0.04863     0.07335     0.03743    -0.10852     0.02074
 PZ  C   6  -0.03398     0.03987    -0.04171     0.00462    -0.01644    -0.02397
  
  S  C   7  -0.22023     0.20074    -0.20378     0.02921     0.01076    -0.05105
 PX  C   7  -0.02026    -0.01707    -0.00337     0.00728     0.02442    -0.00685
 PY  C   7  -0.01476    -0.00282    -0.00088     0.11449    -0.04196    -0.09660
 PZ  C   7   0.01650     0.01804     0.00652     0.04241    -0.04671    -0.03228
  
  S  C   8  -0.18879     0.01830    -0.11680    -0.13048     0.01547     0.10814
 PX  C   8   0.00113    -0.08710     0.03021     0.00448     0.04287    -0.02031
 PY  C   8  -0.01085     0.03560    -0.03846     0.00763     0.14549    -0.05984
 PZ  C   8  -0.00669     0.11108    -0.04239    -0.00049     0.01115     0.00309
  
  S  C   9   0.04499    -0.07197     0.03037    -0.15369     0.20141     0.00681
 PX  C   9   0.10762     0.03479     0.05322    -0.01386     0.05666    -0.02440
 PY  C   9   0.14373    -0.01674     0.04432    -0.07008     0.14739    -0.00206
 PZ  C   9  -0.07238    -0.05974    -0.01458    -0.01148     0.01684     0.04100
  
  S  C  10   0.31884    -0.12917     0.18396    -0.14067     0.19346     0.04191
 PX  C  10   0.01541     0.01703     0.00600     0.00302    -0.04147     0.00265
 PY  C  10   0.03364    -0.03493     0.05196     0.07979    -0.15070     0.04087
 PZ  C  10  -0.02524    -0.03975     0.05052     0.04649    -0.02182     0.03225
  
  S  C  11  -0.01748     0.15477     0.02287     0.08052    -0.01481    -0.03666
 PX  C  11   0.05741     0.13365     0.02749    -0.02568     0.03490     0.01859
 PY  C  11   0.04980    -0.00439     0.01046    -0.11761     0.06253    -0.00348
 PZ  C  11  -0.06437    -0.17512    -0.01634    -0.00371    -0.00737    -0.00573
  
  S  C  12  -0.01024    -0.12030     0.00005     0.24834    -0.00611    -0.15552
 PX  C  12  -0.03825     0.04159    -0.02416     0.01155     0.01899     0.02117
 PY  C  12  -0.09683     0.01831     0.00764    -0.04623    -0.14552     0.07983
 PZ  C  12   0.01990    -0.05690     0.02686    -0.02117    -0.03856    -0.00635
  
  S  N  13   0.05826    -0.00348     0.04491    -0.02259    -0.10655     0.04254
 PX  N  13  -0.09679    -0.11233    -0.02222     0.06917    -0.06832    -0.03036
 PY  N  13  -0.15712    -0.00946    -0.07175    -0.08272    -0.09065     0.11720
 PZ  N  13   0.06798     0.12267     0.00718    -0.10261     0.05555     0.06908
  
  S  C  14   0.26113     0.18734     0.10236    -0.09837     0.13717     0.01698
 PX  C  14   0.02640    -0.00473     0.01318     0.00838    -0.01310    -0.00713
 PY  C  14  -0.00596     0.03875    -0.00919    -0.04155    -0.03339     0.04917
 PZ  C  14  -0.03685     0.01156    -0.01879    -0.01966     0.00527     0.02207
  
  S  C  15   0.06541    -0.18481    -0.06555     0.14752     0.21698    -0.16210
 PX  C  15  -0.02994    -0.01497    -0.02901    -0.05441    -0.00736     0.06121
 PY  C  15  -0.00078     0.02418     0.01395     0.09931    -0.02319    -0.03816
 PZ  C  15   0.02887     0.00767     0.02832     0.06115     0.00761    -0.06407
  
  S  C  16  -0.02161    -0.18788    -0.08313    -0.20689     0.02358     0.10882
 PX  C  16  -0.02497     0.01356     0.02075    -0.12338    -0.11025     0.08149
 PY  C  16  -0.01409     0.05059     0.00739     0.01234    -0.03562     0.03846
 PZ  C  16   0.02258    -0.01600    -0.01918     0.11485     0.10108    -0.07772
  
  S  C  17  -0.05391     0.02408     0.03451    -0.24649    -0.16791     0.17840
 PX  C  17  -0.00324    -0.05634     0.01958    -0.04216    -0.02719    -0.04489
 PY  C  17   0.01580     0.19297     0.05820     0.16301     0.03005    -0.02462
 PZ  C  17   0.00178     0.03744    -0.01997     0.02710     0.02171     0.03886
  
  S  C  18   0.03585     0.39592     0.09304     0.04673    -0.04080     0.05704
 PX  C  18  -0.01130    -0.02074     0.02698    -0.01255     0.00190     0.02567
 PY  C  18   0.05570     0.05507    -0.00009     0.03393     0.06046    -0.08626
 PZ  C  18   0.00693     0.01444    -0.01656     0.00750     0.00615    -0.00980
  
  S  C  19  -0.00617     0.14248     0.04484     0.06989     0.03397     0.01056
 PX  C  19  -0.06034    -0.11012     0.01496     0.06262     0.05371     0.08182
 PY  C  19  -0.00822    -0.11344    -0.05660    -0.07793    -0.02967    -0.05201
 PZ  C  19   0.06757     0.15345     0.02332    -0.02466    -0.01519    -0.04090
  
  S  C  20   0.02262    -0.05076    -0.10617    -0.11011    -0.11480    -0.21572
 PX  C  20  -0.12742    -0.05650     0.12840     0.00884     0.04467     0.07318
 PY  C  20   0.02666    -0.03470    -0.04553    -0.03113    -0.04854    -0.08006
 PZ  C  20   0.09567     0.06120    -0.05132    -0.00068     0.00943    -0.00943
  
  S  C  21   0.23591    -0.01910    -0.35396    -0.05658    -0.14607    -0.09363
 PX  C  21  -0.02065    -0.01067     0.01848    -0.03129    -0.02580    -0.10672
 PY  C  21  -0.00114    -0.02291    -0.04371     0.07062     0.01610     0.15680
 PZ  C  21   0.04139     0.01438     0.02198    -0.02924     0.02314    -0.01025
  
  S  C  22   0.11388    -0.01590    -0.25160     0.14217     0.00416     0.31875
 PX  C  22  -0.03851     0.00192     0.05371     0.01886     0.02684    -0.01696
 PY  C  22  -0.05643     0.01869     0.09771     0.05412     0.08296     0.13106
 PZ  C  22   0.06075    -0.01224    -0.08090    -0.04298    -0.05578    -0.05399
  
  S  C  23  -0.08898     0.04851     0.14066     0.17464     0.18201     0.25907
 PX  C  23  -0.06339     0.02460     0.14831    -0.04168     0.02505    -0.14672
 PY  C  23   0.02018     0.00349    -0.01994     0.01671     0.02195     0.08564
 PZ  C  23   0.03516    -0.01958    -0.09035     0.01756    -0.02796     0.05457
  
  S  C  24  -0.17441     0.09100     0.36686    -0.02223     0.09881    -0.15014
 PX  C  24   0.01938     0.01724     0.00531    -0.06074    -0.04187    -0.06031
 PY  C  24   0.01166     0.00979    -0.00957     0.09009     0.08375     0.12648
 PZ  C  24  -0.01908    -0.01891     0.00200    -0.00251    -0.01069    -0.02174
  
  S  C  25  -0.16717    -0.04111     0.20619    -0.14873    -0.06453    -0.16984
 PX  C  25   0.01091     0.04404     0.04311    -0.02389     0.00653     0.07417
 PY  C  25  -0.00837     0.07466     0.10025     0.00306     0.02272    -0.14264
 PZ  C  25  -0.00379    -0.07105    -0.07329     0.01275    -0.01171     0.01060
  
  S  N  26   0.05012     0.01811    -0.04801    -0.02483    -0.01553     0.14065
 PX  N  26   0.12997     0.11716    -0.07589     0.01282    -0.02022    -0.05480
 PY  N  26  -0.05354     0.05223     0.12185    -0.13956    -0.08677    -0.09901
 PZ  N  26  -0.09239    -0.12271     0.01960     0.04799     0.05681     0.08739
  
  S  C  27  -0.00697    -0.11103    -0.06069     0.23500     0.16597     0.10565
 PX  C  27   0.06478    -0.02214    -0.07119     0.02677     0.02367    -0.01691
 PY  C  27  -0.04854    -0.01946     0.00096    -0.06342    -0.03293     0.15761
 PZ  C  27  -0.03666     0.03613     0.06512    -0.00229    -0.00545    -0.02563
  
  S  C  28   0.05451    -0.17872    -0.07906     0.16346     0.12572    -0.22347
 PX  C  28   0.02063     0.00965    -0.02922     0.00064     0.00647    -0.00636
 PY  C  28   0.02091     0.03987    -0.02842     0.12251     0.07497     0.09349
 PZ  C  28  -0.02172    -0.00913     0.03392    -0.02658    -0.02151    -0.01153
  
  S  C  29  -0.02437    -0.20043     0.00104    -0.19666    -0.10451    -0.11479
 PX  C  29   0.02421    -0.03304    -0.02372     0.09825     0.06914    -0.12327
 PY  C  29   0.00743     0.02552     0.01720     0.10343     0.04761    -0.04608
 PZ  C  29  -0.02156     0.02820     0.01975    -0.09909    -0.06734     0.11035
  
  S  C  30   0.22419     0.23301    -0.11849    -0.05438    -0.10053    -0.10016
 PX  C  30  -0.01323    -0.01586    -0.00182     0.01486     0.00602    -0.02569
 PY  C  30  -0.02299     0.02520     0.05378    -0.05004    -0.02888    -0.02792
 PZ  C  30   0.02806     0.01060    -0.02304     0.00642     0.00570     0.03418
  
  S  C  31  -0.05632     0.03408    -0.07226    -0.07322     0.14570    -0.02978
 PX  C  31   0.06780    -0.03487     0.06914     0.07029    -0.11934     0.01885
 PY  C  31   0.09307    -0.04998     0.09940     0.09572    -0.15793     0.02381
 PZ  C  31   0.00255    -0.00137     0.00375     0.00611    -0.00885    -0.00074
  
  S  O  32   0.06404    -0.02891     0.05331     0.05551    -0.07276     0.00191
 PX  O  32  -0.01286     0.00511    -0.00870    -0.00848     0.00673     0.00113
 PY  O  32   0.02209    -0.01237     0.02549     0.02739    -0.04589     0.00515
 PZ  O  32   0.00037    -0.00022     0.00073     0.00142    -0.00208    -0.00033
  
  S  O  33   0.03362    -0.02120     0.04537     0.04128    -0.08367     0.02109
 PX  O  33   0.02246    -0.01232     0.02531     0.02554    -0.04259     0.00637
 PY  O  33   0.04287    -0.02644     0.05797     0.06223    -0.13149     0.02950
 PZ  O  33   0.00142    -0.00087     0.00216     0.00287    -0.00547     0.00063
  
  S  H  34   0.02172    -0.01915     0.03478    -0.01073    -0.03853     0.04732
  
  S  H  35  -0.06905     0.05532    -0.03711     0.12251    -0.12711    -0.07234
  
  S  H  36  -0.08654     0.11548    -0.09384     0.00795    -0.01259    -0.01939
  
  S  H  37   0.18117    -0.04342     0.07219    -0.07705     0.05903     0.00764
  
  S  H  38   0.11451     0.08188     0.04518    -0.04213     0.07190     0.00336
  
  S  H  39   0.09676     0.10942     0.03032    -0.06796     0.06106     0.03212
  
  S  H  40   0.13033     0.06558     0.05305    -0.02025     0.08598    -0.02408
  
  S  H  41   0.05331    -0.08972    -0.02000     0.06131     0.12401    -0.09859
  
  S  H  42  -0.00947    -0.11651    -0.03983    -0.14054     0.00195     0.05162
  
  S  H  43   0.14556     0.00492    -0.15956    -0.04476    -0.04648    -0.03733
  
  S  H  44   0.06066    -0.00439    -0.12368     0.07381     0.01118     0.20232
  
  S  H  45  -0.03753     0.02802     0.07019     0.09220     0.10540     0.16765
  
  S  H  46  -0.06497     0.06432     0.17742    -0.01897     0.04885    -0.06960
  
  S  H  47   0.04469    -0.07994    -0.06177     0.07372     0.06046    -0.12335
  
  S  H  48  -0.01139    -0.11979    -0.01378    -0.13480    -0.06281    -0.05462
  
  S  H  49   0.11216     0.09184    -0.07998     0.00387    -0.02972    -0.04903
  
  S  H  50   0.09712     0.10199    -0.05278    -0.02244    -0.04584    -0.05576
  
  S  H  51   0.08456     0.12036    -0.01711    -0.05101    -0.06015    -0.07669
  
  S  H  52   0.03971    -0.02405     0.05168     0.05251    -0.10632     0.02357




    ROOT NO.   19          20          21          22          23          24

           -28.20357   -27.77316   -27.22411   -26.05569   -25.63382   -25.20178
  
  
  S  N   1  -0.03492     0.07276    -0.02583     0.06319     0.04257    -0.05499
 PX  N   1  -0.00431     0.00459    -0.00392    -0.00380    -0.00214     0.00324
 PY  N   1  -0.00542    -0.00392    -0.02403    -0.00428     0.02774     0.00520
 PZ  N   1   0.00376    -0.00410     0.00641    -0.00197    -0.00303     0.00499
  
  S  C   2   0.01686    -0.05830     0.00096    -0.06889    -0.04264     0.05031
 PX  C   2   0.04236    -0.10495     0.02056    -0.09738    -0.06187     0.07417
 PY  C   2  -0.00826    -0.02074    -0.05835    -0.01465     0.07064     0.02338
 PZ  C   2   0.00797    -0.00953     0.01290    -0.00551    -0.00654     0.00912
  
  S  C   3   0.01762    -0.06522    -0.01996    -0.02086    -0.01731    -0.00753
 PX  C   3  -0.03677     0.09255    -0.02832     0.12665     0.07005    -0.11065
 PY  C   3   0.01683    -0.11544    -0.10371    -0.08207     0.14150     0.10565
 PZ  C   3   0.01091    -0.01744     0.01483    -0.01436    -0.01114     0.00832
  
  S  C   4  -0.08100     0.22450     0.01163     0.17200     0.00677    -0.14058
 PX  C   4  -0.03953     0.06557    -0.07453     0.08694     0.13015    -0.02809
 PY  C   4   0.01952    -0.03373     0.00626     0.06155    -0.02696    -0.08923
 PZ  C   4   0.02209    -0.02712     0.04175    -0.01860    -0.04474    -0.01371
  
  S  C   5  -0.01382    -0.02646    -0.03828    -0.12462     0.01150     0.02671
 PX  C   5  -0.07247     0.13149    -0.08448     0.08088     0.11387     0.01421
 PY  C   5  -0.01519     0.12746     0.10109     0.07840    -0.07178    -0.00162
 PZ  C   5   0.06077    -0.06381     0.11693    -0.03947    -0.10189    -0.02826
  
  S  C   6   0.14815    -0.18846     0.17090    -0.04968    -0.04380     0.10585
 PX  C   6  -0.01532    -0.03362    -0.02526    -0.10800    -0.05531    -0.05314
 PY  C   6   0.02369    -0.02233     0.09328    -0.07705    -0.11800     0.04161
 PZ  C   6   0.02541     0.03063     0.06149     0.08757     0.03126     0.07574
  
  S  C   7  -0.02531     0.14558    -0.03135     0.19295     0.14582     0.04924
 PX  C   7  -0.00648    -0.06359    -0.02939    -0.06262    -0.03111    -0.07161
 PY  C   7   0.11822    -0.19139     0.09025    -0.02782     0.00476     0.04607
 PZ  C   7   0.05778    -0.01061     0.06885     0.05620     0.04508     0.10068
  
  S  C   8  -0.19373     0.18736    -0.08632     0.00701    -0.06998    -0.09370
 PX  C   8   0.04605    -0.11597     0.03460    -0.05696    -0.07428    -0.11125
 PY  C   8   0.05800    -0.04268    -0.04448     0.03390     0.01517    -0.16391
 PZ  C   8  -0.03089     0.11153    -0.06567     0.07159     0.10176     0.05815
  
  S  C   9   0.08182    -0.03303     0.13122     0.01393    -0.16276    -0.11756
 PX  C   9   0.07684    -0.00158     0.05306     0.05074     0.04824     0.09098
 PY  C   9  -0.03870    -0.06145    -0.11350    -0.01557     0.05533     0.04140
 PZ  C   9  -0.09347    -0.02681    -0.12326    -0.08066    -0.01282    -0.11918
  
  S  C  10  -0.01246    -0.01425    -0.10157     0.01311     0.13039     0.13703
 PX  C  10  -0.00892     0.06994     0.02513     0.06859     0.06673     0.08780
 PY  C  10  -0.06920     0.06437    -0.10411    -0.02241     0.11744     0.06794
 PZ  C  10  -0.02291    -0.03518    -0.08359    -0.09174     0.01601    -0.10011
  
  S  C  11   0.26046     0.11920     0.11632     0.04057     0.03004    -0.02634
 PX  C  11   0.02305     0.04789    -0.00445     0.01983     0.00892     0.04462
 PY  C  11  -0.02015    -0.03401     0.19497     0.07853    -0.14328     0.03772
 PZ  C  11  -0.00695    -0.06021     0.03709    -0.01961    -0.05248    -0.07062
  
  S  C  12   0.03269    -0.14158    -0.12964     0.05180     0.17755    -0.03103
 PX  C  12   0.08335     0.14343    -0.00881    -0.02491    -0.00309    -0.07895
 PY  C  12   0.08435     0.03621     0.07811    -0.08751    -0.02090     0.02011
 PZ  C  12  -0.08408    -0.14787     0.02124     0.00966    -0.00991     0.08000
  
  S  N  13  -0.11742    -0.06657    -0.04740    -0.03261     0.06193     0.21454
 PX  N  13  -0.06492    -0.08821    -0.02142     0.00965     0.02030    -0.00284
 PY  N  13  -0.13346     0.21855     0.00135    -0.02114    -0.08187     0.01629
 PZ  N  13   0.02766     0.16043     0.01672    -0.01739    -0.04369     0.00563
  
  S  C  14   0.26701     0.03719     0.11024    -0.08027    -0.09582    -0.18517
 PX  C  14  -0.05077    -0.04775    -0.03478     0.01285     0.04809     0.10310
 PY  C  14  -0.05849     0.08689    -0.02692     0.00275     0.03184     0.11644
 PZ  C  14   0.04108     0.07825     0.03177    -0.01737    -0.04992    -0.09631
  
  S  C  15  -0.20156    -0.01601     0.00696     0.16775    -0.10754    -0.04704
 PX  C  15  -0.01274     0.10279     0.04360    -0.06603    -0.04851     0.01985
 PY  C  15   0.10013    -0.02903    -0.15233    -0.03304     0.18546    -0.03533
 PZ  C  15   0.01695    -0.10462    -0.05056     0.06247     0.06030    -0.02158
  
  S  C  16  -0.13163     0.07260     0.21758    -0.07554    -0.14429     0.09009
 PX  C  16   0.08507    -0.06028     0.02356    -0.07303     0.08938     0.03685
 PY  C  16   0.08249     0.02773    -0.14026    -0.08623     0.11198    -0.03051
 PZ  C  16  -0.06956     0.05512    -0.02339     0.06995    -0.07176    -0.03708
  
  S  C  17   0.04310    -0.10736    -0.08611    -0.13413     0.04554     0.01688
 PX  C  17   0.00392    -0.10409     0.02419     0.09441     0.00703    -0.02906
 PY  C  17  -0.03058     0.00111    -0.20815     0.01188    -0.06011    -0.05228
 PZ  C  17   0.02505     0.10118    -0.01174    -0.07939     0.01388     0.02502
  
  S  C  18  -0.00679     0.00406    -0.08791     0.01456    -0.02904     0.03882
 PX  C  18  -0.12580    -0.10745    -0.04867     0.00274    -0.08488    -0.02112
 PY  C  18  -0.07635    -0.00771     0.20542     0.14344    -0.03315     0.05359
 PZ  C  18   0.19651     0.13315     0.02816    -0.01096     0.08931     0.01405
  
  S  C  19  -0.25758    -0.11044     0.13977     0.05864    -0.00382    -0.03087
 PX  C  19   0.01775    -0.00813    -0.06592    -0.04449    -0.04747    -0.04658
 PY  C  19   0.05171     0.04788     0.14689    -0.00699     0.18690    -0.01797
 PZ  C  19  -0.01438    -0.00141     0.01530     0.06708    -0.03831     0.07088
  
  S  C  20  -0.08196     0.04622     0.10315    -0.11642     0.16505    -0.08303
 PX  C  20   0.04224    -0.02471    -0.00371     0.03357     0.04754    -0.11414
 PY  C  20   0.07832     0.07070    -0.15058    -0.11074    -0.06781    -0.01230
 PZ  C  20  -0.06243    -0.00964     0.08835     0.05520     0.01391     0.11562
  
  S  C  21   0.01085     0.00836    -0.09892     0.00458    -0.12591     0.14405
 PX  C  21  -0.03412     0.05934     0.03440    -0.13532     0.10353    -0.07805
 PY  C  21   0.07073    -0.05089    -0.11767     0.05922    -0.09585    -0.06350
 PZ  C  21  -0.01253    -0.00354     0.03991     0.07213     0.00017     0.11248
  
  S  C  22   0.08488    -0.13049    -0.07417     0.16449    -0.06826    -0.08577
 PX  C  22  -0.02142     0.03907     0.04308    -0.11034     0.08241    -0.05363
 PY  C  22  -0.01121    -0.05055     0.11172     0.08859     0.10623    -0.04334
 PZ  C  22   0.01910     0.00338    -0.08343     0.03188    -0.09868     0.06573
  
  S  C  23  -0.04928    -0.04249     0.22151     0.01408     0.18741     0.00065
 PX  C  23  -0.05417     0.07562     0.03317    -0.08880    -0.01673     0.11716
 PY  C  23  -0.00585    -0.04828     0.07624     0.09745     0.06481     0.03255
 PZ  C  23   0.03936    -0.02510    -0.06016     0.01200    -0.01742    -0.09196
  
  S  C  24  -0.06576     0.06598     0.02595    -0.00614    -0.09847     0.17044
 PX  C  24   0.01158    -0.02480    -0.06526     0.10996    -0.10025     0.05624
 PY  C  24  -0.05971    -0.00704     0.16899    -0.03354     0.12918     0.07357
 PZ  C  24   0.02129     0.02370    -0.03611    -0.06194     0.01020    -0.07347
  
  S  C  25   0.10839     0.01923    -0.16735     0.07335    -0.09502    -0.07285
 PX  C  25   0.05670    -0.06943    -0.04860     0.20900    -0.09832     0.10837
 PY  C  25  -0.07251     0.06528    -0.02863    -0.09115    -0.09330     0.04565
 PZ  C  25  -0.00716     0.02294     0.05422    -0.10449     0.12495    -0.09763
  
  S  N  26   0.15285    -0.01563    -0.06465     0.09482    -0.05070     0.14620
 PX  N  26  -0.10666     0.00594     0.04890    -0.07887     0.01141     0.02378
 PY  N  26   0.01769    -0.11640    -0.10878     0.25563    -0.08302    -0.07573
 PZ  N  26   0.07735     0.04195     0.01013    -0.03657     0.02871     0.01265
  
  S  C  27  -0.03031     0.10659    -0.00179    -0.17227    -0.09768     0.07757
 PX  C  27   0.10550     0.12818     0.00459    -0.08191     0.00849     0.11185
 PY  C  27   0.06387    -0.06323     0.06113     0.02863     0.10990     0.00822
 PZ  C  27  -0.11402    -0.09174    -0.01826     0.06315    -0.04627    -0.08689
  
  S  C  28   0.10934     0.23437     0.01360     0.00460    -0.00013     0.02589
 PX  C  28   0.03828     0.07361     0.05322    -0.03173     0.05666     0.03632
 PY  C  28  -0.08710     0.05318    -0.04322    -0.20174    -0.13349     0.08203
 PZ  C  28  -0.01689    -0.07492    -0.03922     0.06813    -0.02325    -0.04631
  
  S  C  29   0.15374    -0.08552     0.08180     0.19300     0.16174    -0.05869
 PX  C  29   0.05018     0.11313     0.02450     0.08437     0.03410    -0.02119
 PY  C  29  -0.05122     0.01616    -0.12339    -0.01953    -0.10806    -0.03138
 PZ  C  29  -0.02854    -0.09832    -0.00841    -0.06475    -0.00827     0.01997
  
  S  C  30  -0.24022    -0.10005     0.10132    -0.07690     0.11796    -0.19900
 PX  C  30  -0.06548    -0.00087     0.05107    -0.06818     0.07208    -0.11110
 PY  C  30  -0.00758    -0.05945    -0.04209     0.11233    -0.04980    -0.01840
 PZ  C  30   0.06122     0.02584    -0.02776     0.01818    -0.04825     0.12157
  
  S  C  31   0.01474    -0.08818    -0.07307    -0.06008     0.10472     0.07568
 PX  C  31  -0.00576     0.05354     0.05552     0.03849    -0.07629    -0.05537
 PY  C  31  -0.00123     0.03338     0.04968    -0.02175    -0.05236     0.02990
 PZ  C  31   0.00243    -0.00205     0.00662    -0.00434    -0.00694     0.00253
  
  S  O  32   0.01268    -0.01535     0.03411    -0.03924    -0.05452     0.02693
 PX  O  32  -0.00210     0.00615     0.00224     0.00428    -0.00913    -0.00495
 PY  O  32   0.00358     0.00186     0.02180    -0.02116    -0.03185     0.02036
 PZ  O  32   0.00091    -0.00121     0.00208    -0.00229    -0.00270     0.00164
  
  S  O  33  -0.01657     0.06650     0.02767     0.06027    -0.02945    -0.06204
 PX  O  33  -0.00066     0.01046     0.01318    -0.00414    -0.01049     0.00897
 PY  O  33  -0.02127     0.11558     0.08129     0.12038    -0.12579    -0.15676
 PZ  O  33  -0.00005     0.00308     0.00420     0.00297    -0.00580    -0.00463
  
  S  H  34  -0.06275     0.14817    -0.04054     0.14130     0.08642    -0.08635
  
  S  H  35   0.09665    -0.08501     0.15470    -0.00021    -0.05294     0.11060
  
  S  H  36   0.00153     0.12639     0.01288     0.14859     0.10237     0.08673
  
  S  H  37  -0.01786     0.05157    -0.01947     0.07373     0.11465     0.16146
  
  S  H  38   0.14445     0.01815     0.06371    -0.04237    -0.06361    -0.13452
  
  S  H  39   0.13605     0.09625     0.06507    -0.03852    -0.06427    -0.11639
  
  S  H  40   0.14860    -0.03724     0.06363    -0.02998    -0.05953    -0.14331
  
  S  H  41  -0.12798    -0.05533     0.04597     0.13477    -0.10954    -0.02591
  
  S  H  42  -0.08583     0.00525     0.19850    -0.00331    -0.11036     0.07292
  
  S  H  43   0.00545    -0.01247    -0.02004     0.08015    -0.09341     0.16816
  
  S  H  44   0.05105    -0.10004    -0.02916     0.17164    -0.04870    -0.02517
  
  S  H  45  -0.03404    -0.04536     0.16497     0.06290     0.13761     0.03359
  
  S  H  46  -0.05385     0.00891     0.03465     0.06110    -0.06845     0.14988
  
  S  H  47   0.08305     0.16820     0.05431    -0.01417     0.05910     0.03049
  
  S  H  48   0.11039    -0.02896     0.12273     0.12623     0.14753    -0.01354
  
  S  H  49  -0.12968    -0.01327     0.08551    -0.11286     0.10324    -0.12026
  
  S  H  50  -0.13162    -0.04918     0.06071    -0.05430     0.07746    -0.13589
  
  S  H  51  -0.13906    -0.08156     0.03724     0.01509     0.04188    -0.13545
  
  S  H  52  -0.01615     0.08340     0.05549     0.08017    -0.08059    -0.09976




    ROOT NO.   25          26          27          28          29          30

           -24.67949   -23.78215   -23.47487   -23.05850   -22.25791   -21.12541
  
  
  S  N   1   0.10312    -0.06204    -0.09195     0.10530    -0.04564    -0.04276
 PX  N   1  -0.01592     0.01489     0.01750    -0.02500     0.01590     0.02162
 PY  N   1  -0.00202    -0.02885    -0.02924     0.01128     0.00593     0.01764
 PZ  N   1   0.00087    -0.00728     0.00260     0.00159    -0.00370    -0.01797
  
  S  C   2  -0.13081     0.11067     0.12765    -0.14683     0.06568     0.08568
 PX  C   2  -0.16166     0.11864     0.14584    -0.16168     0.06640     0.07456
 PY  C   2  -0.00476    -0.08069    -0.06696     0.02551     0.00947     0.02301
 PZ  C   2   0.00015    -0.01347     0.00286     0.00528    -0.00686    -0.03131
  
  S  C   3   0.00070     0.10575     0.08005    -0.02310    -0.05058     0.01494
 PX  C   3   0.24555    -0.10623    -0.15968     0.23178    -0.14423    -0.11751
 PY  C   3  -0.05107    -0.21056    -0.14136     0.05998    -0.00983    -0.02350
 PZ  C   3  -0.00829    -0.01346    -0.00513     0.01606    -0.00860    -0.03565
  
  S  C   4   0.17462    -0.01874    -0.06469     0.06024     0.03589     0.01996
 PX  C   4   0.15389    -0.16778    -0.12964     0.10375    -0.02979    -0.01561
 PY  C   4   0.17715     0.12841     0.06154     0.10207    -0.17647    -0.06687
 PZ  C   4  -0.00332     0.01229    -0.00559     0.04484    -0.02427    -0.04939
  
  S  C   5  -0.18337    -0.04709    -0.11989     0.03314     0.04868     0.06556
 PX  C   5   0.03666    -0.10365     0.00690    -0.08950     0.09263     0.06139
 PY  C   5  -0.00559    -0.01137     0.03784    -0.09280     0.12501    -0.00282
 PZ  C   5  -0.00990    -0.00129    -0.04849     0.11331    -0.03510    -0.08203
  
  S  C   6   0.05548    -0.12516    -0.00297     0.07508    -0.10768    -0.14526
 PX  C   6  -0.13478     0.06370    -0.10111     0.10438    -0.01087     0.01592
 PY  C   6  -0.11534    -0.00646     0.03251    -0.00408    -0.00943    -0.15984
 PZ  C   6   0.11017    -0.12211     0.09666    -0.08661     0.00594    -0.09917
  
  S  C   7   0.11564    -0.03644     0.07488    -0.13255     0.09875     0.13357
 PX  C   7  -0.02330     0.07322    -0.08595     0.11967    -0.04866     0.02088
 PY  C   7   0.14100    -0.10609    -0.00405     0.04959    -0.09858    -0.03957
 PZ  C   7   0.08786    -0.14604     0.09300    -0.10045     0.00749    -0.04783
  
  S  C   8  -0.12881     0.11208    -0.06906     0.01671     0.07973    -0.02986
 PX  C   8   0.07232    -0.00189    -0.05672     0.03061     0.00129    -0.00909
 PY  C   8   0.08952     0.12978    -0.06420     0.01546     0.06028     0.17747
 PZ  C   8  -0.04739     0.03911     0.05885    -0.01513     0.01212     0.07291
  
  S  C   9   0.09401     0.00384     0.08160     0.00756     0.00799    -0.08138
 PX  C   9   0.03576    -0.06358     0.16196    -0.01279    -0.04744    -0.02406
 PY  C   9   0.00996     0.13205     0.09630     0.04089    -0.12103    -0.05842
 PZ  C   9  -0.03106     0.08549    -0.08576     0.04244    -0.00412    -0.00811
  
  S  C  10   0.02277    -0.05202     0.19136    -0.11464    -0.06243    -0.07017
 PX  C  10   0.03189    -0.10804     0.08504    -0.08929     0.04018    -0.04505
 PY  C  10  -0.09509    -0.08487    -0.12063    -0.07904     0.08201     0.10588
 PZ  C  10  -0.07560     0.00451    -0.11735     0.09067     0.00924     0.10514
  
  S  C  11  -0.03674    -0.08897    -0.00599    -0.01028     0.02869     0.11929
 PX  C  11  -0.05491     0.02379     0.08496     0.12490    -0.03257     0.03711
 PY  C  11   0.05410    -0.07278     0.08969     0.07887     0.06386     0.00655
 PZ  C  11   0.09793    -0.07765    -0.01949    -0.15210     0.04180    -0.08893
  
  S  C  12   0.08826     0.08084    -0.03644    -0.11481     0.03413     0.07658
 PX  C  12  -0.07456    -0.02051    -0.05145    -0.10124    -0.00245    -0.08808
 PY  C  12   0.00914    -0.13298    -0.06516    -0.03126    -0.03509     0.05244
 PZ  C  12   0.08402    -0.01205     0.06230     0.09727    -0.00528     0.07266
  
  S  N  13  -0.04228     0.01385     0.12543     0.15697    -0.17169    -0.01642
 PX  N  13   0.06319    -0.02275    -0.03953    -0.04498     0.07314     0.03425
 PY  N  13  -0.17923    -0.06703    -0.04957    -0.07867     0.05409    -0.19930
 PZ  N  13  -0.12479     0.00746     0.04556     0.03612    -0.07125    -0.11190
  
  S  C  14   0.03256    -0.04447    -0.12425    -0.08030     0.04177    -0.01139
 PX  C  14  -0.00565     0.04697     0.10388     0.12103    -0.10636     0.02890
 PY  C  14  -0.09584     0.00630     0.09753     0.04853    -0.11424    -0.07780
 PZ  C  14  -0.01951    -0.05549    -0.09993    -0.13119     0.09664    -0.06684
  
  S  C  15  -0.06037     0.00597     0.03268     0.01252     0.14492    -0.09936
 PX  C  15  -0.05653    -0.06552    -0.02315    -0.02114    -0.11695    -0.06192
 PY  C  15   0.04197     0.14338    -0.02584    -0.10845    -0.07313    -0.00446
 PZ  C  15   0.06036     0.06928     0.02604     0.01037     0.10389     0.05758
  
  S  C  16  -0.00189    -0.13629    -0.00852     0.04354    -0.12308     0.07118
 PX  C  16   0.09976     0.03915    -0.00121    -0.00498    -0.03169     0.12507
 PY  C  16   0.01852     0.11849    -0.01002    -0.08479    -0.08366    -0.13949
 PZ  C  16  -0.09082    -0.03162     0.00435    -0.00207     0.03042    -0.11463
  
  S  C  17   0.15105     0.06849     0.03161    -0.03538     0.00905    -0.08739
 PX  C  17   0.04277    -0.00086     0.01694    -0.02441     0.15416     0.00554
 PY  C  17  -0.04749     0.00774     0.03631     0.02895     0.04678    -0.15918
 PZ  C  17  -0.03952     0.00266    -0.00325     0.01636    -0.13757     0.00342
  
  S  C  18  -0.07383     0.01942     0.04404     0.20009     0.03628     0.07464
 PX  C  18   0.06902    -0.03313     0.02813    -0.03359     0.05275    -0.06756
 PY  C  18  -0.07169    -0.05006    -0.01875     0.11388     0.05732     0.22243
 PZ  C  18  -0.05464     0.00610     0.03535     0.01566    -0.06395     0.04947
  
  S  C  19  -0.05019    -0.02123    -0.07894    -0.00548    -0.02552     0.11964
 PX  C  19   0.06753    -0.07649     0.03965    -0.15199    -0.06098    -0.00544
 PY  C  19  -0.06311     0.07878    -0.05537    -0.03409    -0.08153    -0.03135
 PZ  C  19  -0.03367     0.00542     0.03860     0.15908     0.08526     0.06185
  
  S  C  20  -0.03322     0.06516    -0.02092     0.03298     0.02495    -0.11658
 PX  C  20  -0.06556    -0.10278     0.11024    -0.04126    -0.10548     0.07990
 PY  C  20   0.07861    -0.05098     0.12581     0.05031     0.09965    -0.06582
 PZ  C  20   0.01050     0.07597    -0.09219    -0.00956     0.01893    -0.02278
  
  S  C  21   0.08361     0.11416    -0.18951    -0.07525     0.00415    -0.05386
 PX  C  21   0.01202    -0.02242     0.12697     0.10821     0.13103    -0.07994
 PY  C  21  -0.01994    -0.12760     0.08466    -0.02612    -0.06484     0.17158
 PZ  C  21   0.01262     0.06168    -0.07633    -0.08056    -0.04980    -0.05485
  
  S  C  22  -0.09844    -0.10719     0.04828     0.00400    -0.08678     0.12115
 PX  C  22   0.02839    -0.01543     0.12138     0.09669     0.14708    -0.07732
 PY  C  22  -0.09276    -0.00810     0.03677     0.02070    -0.03764    -0.06103
 PZ  C  22   0.03097     0.00855    -0.08097    -0.08186    -0.07420     0.07110
  
  S  C  23  -0.02724     0.08618    -0.00669     0.03061     0.07990    -0.15401
 PX  C  23   0.10205     0.08717    -0.10778    -0.07036     0.00335     0.03244
 PY  C  23  -0.05473     0.07802    -0.09742    -0.04943    -0.05055    -0.14651
 PZ  C  23  -0.04014    -0.09894     0.12664     0.06814     0.02333     0.04528
  
  S  C  24   0.08256     0.05828    -0.14521    -0.09681    -0.08163     0.12990
 PX  C  24  -0.02988    -0.00330    -0.09457    -0.07324    -0.12170     0.04395
 PY  C  24   0.04293     0.14405    -0.13147    -0.06614     0.02509    -0.07879
 PZ  C  24   0.00145    -0.07142     0.13751     0.07987     0.07030     0.00895
  
  S  C  25  -0.07625    -0.11603     0.11200     0.03163    -0.07264     0.00812
 PX  C  25  -0.05022     0.03231    -0.09287    -0.02179    -0.03319    -0.04530
 PY  C  25   0.07516    -0.05136     0.03068     0.01815     0.01108     0.14597
 PZ  C  25  -0.00070    -0.00917     0.07009    -0.00352     0.00706    -0.03180
  
  S  N  26   0.02873     0.09802    -0.01714     0.14434     0.20196    -0.08007
 PX  N  26   0.05326     0.02828     0.00287     0.07748     0.13947    -0.00304
 PY  N  26  -0.16638    -0.06969    -0.00979    -0.02385    -0.08680    -0.14719
 PZ  N  26   0.02453    -0.00026     0.00717    -0.06550    -0.08984     0.07861
  
  S  C  27   0.15640    -0.04514    -0.00375    -0.10106    -0.03920     0.09013
 PX  C  27   0.04624     0.05297     0.02655     0.11206     0.05545     0.02751
 PY  C  27   0.00356     0.08035    -0.02047     0.01529     0.05154     0.07368
 PZ  C  27  -0.03219    -0.07839    -0.00191    -0.09779    -0.05909    -0.01908
  
  S  C  28  -0.13097    -0.02147    -0.00745     0.04924    -0.15357    -0.03071
 PX  C  28  -0.04934     0.03119    -0.00653     0.08475    -0.08107     0.09008
 PY  C  28   0.19280    -0.05681     0.03201    -0.04622     0.00159     0.05250
 PZ  C  28   0.00351    -0.01812     0.00541    -0.06070     0.06610    -0.08292
  
  S  C  29  -0.08191     0.07916    -0.02558    -0.00207     0.12120     0.00419
 PX  C  29  -0.17048    -0.00186    -0.02478     0.04848    -0.08952    -0.00525
 PY  C  29   0.01399    -0.05601     0.03070    -0.05707    -0.01590    -0.19614
 PZ  C  29   0.13888     0.01242     0.02250    -0.03126     0.08099     0.02678
  
  S  C  30  -0.02948    -0.06605     0.03926    -0.09854    -0.07144     0.00577
 PX  C  30  -0.01514    -0.05879     0.02890    -0.12099    -0.16225     0.07819
 PY  C  30  -0.05337    -0.02499    -0.03345    -0.04888    -0.04481    -0.06648
 PZ  C  30   0.03964     0.07091    -0.01534     0.14324     0.18505    -0.04188
  
  S  C  31  -0.03320    -0.19904    -0.15331     0.07893     0.01171    -0.05647
 PX  C  31   0.03265     0.13953     0.09939    -0.02948    -0.04089     0.01106
 PY  C  31  -0.10676    -0.00371     0.02179    -0.10049     0.14834     0.04175
 PZ  C  31  -0.00700    -0.00015     0.00220    -0.00097     0.00343    -0.00974
  
  S  O  32  -0.09289     0.08143     0.08993    -0.10483     0.05651     0.06296
 PX  O  32  -0.00404     0.03495     0.03457    -0.03105     0.00915     0.03573
 PY  O  32  -0.06865     0.02492     0.03735    -0.07314     0.07794     0.03873
 PZ  O  32  -0.00427     0.00086     0.00211    -0.00224     0.00250    -0.00309
  
  S  O  33   0.07989     0.06664     0.03351     0.02412    -0.05458    -0.00411
 PX  O  33  -0.02663    -0.02226    -0.01316    -0.01737     0.05366    -0.00306
 PY  O  33   0.16714     0.31966     0.21277    -0.00323    -0.18621     0.01647
 PZ  O  33   0.00444     0.01037     0.00764     0.00070    -0.00664    -0.00484
  
  S  H  34   0.19056    -0.11448    -0.10937     0.09698    -0.00879    -0.00359
  
  S  H  35   0.05223    -0.12378     0.08320    -0.02785    -0.05450    -0.20098
  
  S  H  36   0.08258    -0.10012     0.11602    -0.18126     0.09446     0.03929
  
  S  H  37   0.04699    -0.09003     0.15849    -0.14698     0.00077    -0.08734
  
  S  H  38   0.02978    -0.03598    -0.10287    -0.07968     0.06829    -0.00918
  
  S  H  39  -0.02007    -0.05820    -0.09448    -0.12472     0.06421    -0.06693
  
  S  H  40   0.07136    -0.01740    -0.10229    -0.05206     0.08728     0.05324
  
  S  H  41  -0.01217    -0.02396     0.04027     0.06960     0.18537    -0.00611
  
  S  H  42   0.01149    -0.12976    -0.00102     0.07628    -0.01669     0.17441
  
  S  H  43   0.04884     0.12104    -0.19649    -0.11639    -0.06869    -0.04946
  
  S  H  44  -0.09484    -0.04959    -0.03262    -0.05150    -0.14864     0.09125
  
  S  H  45  -0.04171     0.10997    -0.08687    -0.02754     0.00356    -0.18965
  
  S  H  46   0.03586     0.08693    -0.20402    -0.13705    -0.12765     0.06407
  
  S  H  47  -0.11982     0.01863    -0.01118     0.09871    -0.14962     0.06187
  
  S  H  48  -0.08702     0.06850    -0.03840     0.04807     0.04995     0.14001
  
  S  H  49   0.00278    -0.04023     0.04393    -0.06322    -0.07923     0.07213
  
  S  H  50  -0.02311    -0.05468     0.02772    -0.09432    -0.09962     0.02454
  
  S  H  51  -0.05250    -0.06593    -0.00237    -0.12764    -0.13123    -0.01043
  
  S  H  52   0.10419     0.19214     0.12704    -0.00360    -0.10337     0.01024




    ROOT NO.   31          32          33          34          35          36

           -20.86207   -20.11664   -19.11139   -19.01865   -18.43849   -18.20955
  
  
  S  N   1  -0.05143    -0.00282     0.04571     0.01127     0.00352    -0.10877
 PX  N   1   0.02106    -0.00147    -0.02602    -0.00162    -0.00304     0.06723
 PY  N   1   0.01822     0.02633    -0.02121     0.02304     0.03387     0.07556
 PZ  N   1  -0.00936     0.00367     0.00947    -0.01594     0.00874     0.01399
  
  S  C   2   0.08924     0.00606    -0.06739     0.00013    -0.01051     0.12726
 PX  C   2   0.08012     0.00597    -0.05113    -0.00242    -0.00822     0.08364
 PY  C   2   0.03335     0.05631    -0.03523     0.03186     0.06180     0.13016
 PZ  C   2  -0.01824     0.00596     0.01666    -0.02318     0.01627     0.02332
  
  S  C   3   0.06744     0.07671     0.00764     0.01004    -0.00305    -0.06922
 PX  C   3  -0.08367     0.04534     0.09203     0.00519     0.01253    -0.18743
 PY  C   3   0.05108     0.18755    -0.01556     0.03238     0.16755     0.12750
 PZ  C   3  -0.03136     0.00613     0.02706    -0.01388     0.03270     0.03091
  
  S  C   4  -0.07704    -0.17742    -0.03254    -0.01185    -0.07834     0.08261
 PX  C   4   0.02695     0.03663    -0.07512    -0.02134     0.02153     0.29776
 PY  C   4   0.01988     0.05211     0.05218    -0.02410    -0.09697    -0.15085
 PZ  C   4  -0.06583    -0.01632     0.04629    -0.00382     0.03003     0.02225
  
  S  C   5   0.01076     0.08887     0.01095     0.10667     0.09632    -0.05758
 PX  C   5   0.07005    -0.01653    -0.07412    -0.03879    -0.01477     0.11577
 PY  C   5  -0.11000    -0.18902    -0.00166    -0.02572     0.00509     0.02456
 PZ  C   5  -0.13906    -0.04318     0.07229     0.01997     0.07448     0.08283
  
  S  C   6  -0.02083     0.08562     0.01729    -0.05943     0.01417     0.04757
 PX  C   6  -0.07231     0.03487     0.07170     0.09718     0.09692    -0.02161
 PY  C   6  -0.13819     0.01571     0.11699    -0.08524     0.08364    -0.03822
 PZ  C   6   0.00981    -0.01127    -0.02488    -0.14564    -0.03592     0.10470
  
  S  C   7   0.05791    -0.07122    -0.04145     0.06899    -0.00964    -0.04261
 PX  C   7  -0.00532     0.00327    -0.01239     0.01227    -0.01095     0.07773
 PY  C   7   0.11439     0.05338    -0.10651    -0.04793    -0.10661     0.06841
 PZ  C   7   0.04922     0.03307    -0.02311    -0.04008    -0.02415     0.00749
  
  S  C   8  -0.05990    -0.02834     0.02128    -0.11201     0.06247     0.01227
 PX  C   8   0.04815    -0.04834    -0.05537    -0.07639    -0.07022     0.10633
 PY  C   8   0.00357    -0.17324    -0.03221     0.11251    -0.03970     0.01673
 PZ  C   8  -0.06243    -0.00026     0.07172     0.11105     0.05402    -0.02398
  
  S  C   9  -0.13349    -0.14492    -0.00174    -0.01990    -0.02598     0.10413
 PX  C   9  -0.08378     0.00678     0.06725     0.07011     0.01362     0.01322
 PY  C   9  -0.03541    -0.04085     0.06181    -0.06607    -0.08556    -0.04690
 PZ  C   9   0.06750    -0.00742    -0.01972    -0.14190    -0.07573     0.05339
  
  S  C  10   0.06588     0.09091     0.04428    -0.07763    -0.03893    -0.08279
 PX  C  10   0.02205     0.02849     0.02551    -0.07333     0.04010     0.02393
 PY  C  10   0.18057     0.16430    -0.07667     0.03495     0.05669    -0.07582
 PZ  C  10   0.06232     0.07027    -0.04396     0.06427    -0.00689     0.05151
  
  S  C  11  -0.07066     0.07095    -0.02179     0.24384     0.06510    -0.01321
 PX  C  11  -0.09403    -0.01513    -0.06795    -0.01836     0.03758     0.02559
 PY  C  11  -0.10204    -0.08939    -0.05894     0.01261     0.10263     0.04972
 PZ  C  11   0.03181    -0.00790     0.06562     0.01135    -0.03519     0.05724
  
  S  C  12   0.05683    -0.01317     0.16202     0.03370    -0.02939    -0.04492
 PX  C  12  -0.05317     0.08435     0.10918     0.05662    -0.01983     0.07815
 PY  C  12   0.17138     0.08050    -0.12758     0.08650    -0.07377    -0.08188
 PZ  C  12   0.06284    -0.07701    -0.12007    -0.07806    -0.00369    -0.01478
  
  S  N  13  -0.02991     0.00019    -0.04537     0.04086    -0.06049     0.01983
 PX  N  13   0.13807     0.01106    -0.02674    -0.16875     0.02026    -0.05004
 PY  N  13  -0.01651     0.19869     0.07479    -0.18287     0.10997    -0.06732
 PZ  N  13  -0.18411     0.04467     0.08315     0.09876    -0.00175     0.17268
  
  S  C  14   0.06131     0.01519     0.00592    -0.01580    -0.02260     0.01030
 PX  C  14  -0.10329    -0.07057    -0.02342     0.11455    -0.05165     0.15461
 PY  C  14  -0.13760     0.04869     0.10740     0.15594    -0.04038     0.06639
 PZ  C  14   0.08751     0.10447     0.08458    -0.14875     0.03248    -0.02922
  
  S  C  15  -0.13224     0.06778    -0.01291    -0.06223     0.10408     0.01987
 PX  C  15   0.08446     0.01884     0.04284     0.03709    -0.19963     0.05880
 PY  C  15  -0.02128    -0.08807     0.28180    -0.00844    -0.07745     0.06964
 PZ  C  15  -0.08792    -0.02442    -0.00627    -0.03587     0.17190    -0.01990
  
  S  C  16   0.15699    -0.05620     0.00563     0.06633    -0.12521    -0.00349
 PX  C  16   0.02105    -0.09623     0.05913     0.00151     0.09316    -0.01852
 PY  C  16  -0.05738    -0.09129     0.10958    -0.14386     0.01729     0.10240
 PZ  C  16  -0.03822     0.09431    -0.03672     0.00286    -0.08253     0.03592
  
  S  C  17  -0.01474    -0.11328    -0.06814    -0.09688     0.14469     0.00364
 PX  C  17  -0.10066     0.08628     0.02316     0.10485     0.11740    -0.01496
 PY  C  17  -0.01281     0.06278    -0.23569    -0.08270    -0.06439    -0.03355
 PZ  C  17   0.04826    -0.06272    -0.01542    -0.07441    -0.08326     0.02652
  
  S  C  18   0.00937     0.03370    -0.17432    -0.12459    -0.00981    -0.05487
 PX  C  18   0.02187    -0.00910    -0.00295    -0.07864    -0.04169     0.01746
 PY  C  18   0.01938     0.05216     0.18257     0.06071    -0.00869    -0.00128
 PZ  C  18  -0.11372     0.02501    -0.05799     0.13206     0.07415    -0.00551
  
  S  C  19   0.07180     0.02581     0.19890    -0.10304    -0.11629     0.04904
 PX  C  19  -0.11537     0.06298    -0.01279     0.10078    -0.08695     0.00277
 PY  C  19   0.01101    -0.06842     0.04749    -0.03184     0.10735     0.03512
 PZ  C  19   0.04835    -0.00148     0.00009    -0.09369     0.03409    -0.02953
  
  S  C  20   0.10533    -0.09084     0.03225     0.01202     0.11195     0.03265
 PX  C  20  -0.07600     0.01350    -0.03615    -0.08521     0.01355    -0.02401
 PY  C  20  -0.02704     0.02686    -0.11264     0.08374    -0.00331    -0.04607
 PZ  C  20   0.06000    -0.01730     0.10891    -0.02604     0.01047     0.01608
  
  S  C  21  -0.04438     0.03617    -0.11038     0.07763    -0.06493    -0.00832
 PX  C  21   0.09364    -0.02217     0.07319     0.02367     0.02540     0.02096
 PY  C  21  -0.11962     0.10738    -0.00205    -0.09926    -0.13534     0.01390
 PZ  C  21   0.00619    -0.03440    -0.02316     0.00391     0.05945    -0.04951
  
  S  C  22  -0.00506    -0.00723     0.09857    -0.08327     0.02977     0.03245
 PX  C  22   0.04078     0.03347     0.00664     0.07427    -0.12285    -0.01920
 PY  C  22   0.12356    -0.13216     0.10542    -0.01603     0.20782    -0.01069
 PZ  C  22  -0.08275     0.04622    -0.05010    -0.05174    -0.02052     0.00300
  
  S  C  23   0.05912    -0.02066    -0.07304     0.08821    -0.04962    -0.03015
 PX  C  23  -0.11996     0.09953    -0.10044    -0.03263    -0.11371    -0.00094
 PY  C  23   0.08418    -0.10831    -0.09257     0.08409     0.13769    -0.02851
 PZ  C  23   0.04043    -0.01281     0.11309    -0.02590     0.01212     0.00613
  
  S  C  24  -0.09003     0.04571     0.05244    -0.09499     0.01551     0.02718
 PX  C  24   0.02723    -0.06916     0.06713    -0.03471     0.15013     0.02492
 PY  C  24  -0.07633     0.07460    -0.14391     0.01413    -0.12508     0.01361
 PZ  C  24   0.01459     0.01376     0.02594     0.00277    -0.03664    -0.03184
  
  S  C  25   0.04611    -0.08961    -0.04125     0.01061     0.12483    -0.05213
 PX  C  25   0.06260    -0.03568    -0.00619     0.03489    -0.02004    -0.01701
 PY  C  25  -0.00936     0.01884     0.19796    -0.08657     0.05345     0.02036
 PZ  C  25  -0.04938     0.01906    -0.07958    -0.01819     0.00431    -0.01063
  
  S  N  26   0.04991     0.05230    -0.00150    -0.00091    -0.08972     0.00967
 PX  N  26   0.07890     0.03092     0.21455    -0.04852    -0.06509     0.07009
 PY  N  26   0.17399    -0.12492    -0.02393     0.12710    -0.03511    -0.01633
[...]
    Config     528  -0.06859633  0.00470546
    Config     530  -0.05852933  0.00342568
    Config     534  -0.13645581  0.01862019
    Config     540   0.08390648  0.00704030
    Config     542  -0.09603856  0.00922340
    Config     544   0.05398214  0.00291407
    Config     545   0.06875798  0.00472766
    Config     546  -0.12839715  0.01648583
    Config     548  -0.08135949  0.00661937
    Config     549  -0.05247757  0.00275390
    Config     551   0.07390810  0.00546241
    Config     552   0.04044079  0.00163546
    Config     554   0.07654906  0.00585976
    Config     557  -0.04770920  0.00227617
    Config     558   0.04010138  0.00160812
    Config     559  -0.05268101  0.00277529
    Config     564   0.05801729  0.00336601
    Config     567   0.05749942  0.00330618
    Config     568   0.08562414  0.00733149
    Config     570  -0.07305268  0.00533669
    Config     573   0.05794788  0.00335796
    Config     574   0.04662477  0.00217387
    Config     575   0.04662090  0.00217351
    Config     583  -0.09304912  0.00865814
    Config     590   0.04289589  0.00184006
    Config     592  -0.06231834  0.00388358
    Config     593   0.07062339  0.00498766
    Config     597   0.05484740  0.00300824
    Config     603  -0.06855772  0.00470016
    Config     605   0.05687756  0.00323506
    Config     607  -0.07458947  0.00556359
    Config     614  -0.04866777  0.00236855
    Config     617  -0.05547439  0.00307741
    Config     620  -0.05710655  0.00326116
    Config     621   0.04876954  0.00237847
    Config     622  -0.11234718  0.01262189
    Config     623  -0.06437494  0.00414413
    Config     627   0.08571465  0.00734700
    Config     640   0.05239402  0.00274513
    Config     649   0.04772016  0.00227721
    Config     652  -0.04329126  0.00187413
    Config     655  -0.07640769  0.00583813
    Config     659  -0.05662373  0.00320625
    Config     660  -0.06630645  0.00439655
    Config     666   0.04148490  0.00172100
    Config     671  -0.04056704  0.00164568
    Config     684   0.04401807  0.00193759
    Config     701  -0.04315994  0.00186278
    Config     702  -0.05160450  0.00266302
    Config     704  -0.05986082  0.00358332
    Config     706   0.04968848  0.00246895
    Config     708   0.07802719  0.00608824
    Config     723   0.04269202  0.00182261
    Config     739   0.07376142  0.00544075
    Config     756  -0.05889730  0.00346889
    Config     759  -0.05037642  0.00253778
    Config     766  -0.06688267  0.00447329
    Config     767   0.05780593  0.00334153
    Config     777   0.04984705  0.00248473
    Config     782  -0.04136599  0.00171115
    Config     791  -0.07740037  0.00599082
    Config     796  -0.04084090  0.00166798
    Config     798  -0.04627469  0.00214135
    Config     805   0.04428641  0.00196129
    Config     815   0.05879883  0.00345730
    Config     820   0.06156316  0.00379002
    Config     845  -0.04063422  0.00165114
    Config     847  -0.04586750  0.00210383
    Config     858   0.06697676  0.00448589
    Config     889   0.04231989  0.00179097
    Config     920  -0.05414700  0.00293190
    Config     932   0.05940709  0.00352920
    Config     934  -0.06221397  0.00387058
    Config     938   0.05026629  0.00252670
    Config    1095   0.05098758  0.00259973
 Total coeff printed             0.76654303
  

 -------------------------------------------------------------------------------
 INDO CIS EPS=4.81 N**2=1.4
 Dye19
 Calculo de Estados Excitados


     1SCF WAS SPECIFIED, SO BFGS WAS NOT USED                 
     SCF FIELD WAS ACHIEVED                                   


                              INDO CALCULATION
                                                       MOPAC2016 (Version: 21.013L)
                                                       Thu Oct 21 11:33:01 2021
                                                       No. of days remaining =  84




          FINAL HEAT OF FORMATION =    -131335.48712 KCAL/MOL = -549507.67812 KJ/MOL
          VAN DER WAALS AREA      =        409.48 SQUARE ANGSTROMS


          TOTAL ENERGY            =      -5965.53805 EV
          ELECTRONIC ENERGY       =     -14530.85461 EV  POINT GROUP:     C1  
          CORE-CORE REPULSION     =       8565.31655 EV

          DIELECTRIC ENERGY       =         -0.32546 EV
          COSMO AREA              =        409.48 SQUARE ANGSTROMS
          COSMO VOLUME            =        498.17 CUBIC ANGSTROMS

          IONIZATION POTENTIAL    =          7.015115 EV
          HOMO LUMO ENERGIES (EV) =         -7.015 -0.851
          NO. OF FILLED LEVELS    =         79
          MOLECULAR WEIGHT        =        429.4770

          MOLECULAR DIMENSIONS (Angstroms)

            Atom       Atom       Distance
            H    52    H    42    13.05620
            H    51    H    39    11.12415
            H    34    H    44     4.64760


          SCF CALCULATIONS        =          2
 
          WALL-CLOCK TIME         =  7 MINUTES AND 47.934 SECONDS
          COMPUTATION TIME        =  7 MINUTES AND 52.473 SECONDS




   ATOM   CHEMICAL          X               Y               Z
  NUMBER   SYMBOL      (ANGSTROMS)     (ANGSTROMS)     (ANGSTROMS)
 
     1       N          0.00000000  *   0.00000000  *   0.00000000  *
     2       C          1.15644699  *   0.00000000  *   0.00000000  *
     3       C          2.57409001  *   0.01711572  *   0.00000000  *
     4       C          3.31624969  *  -1.10380414  *  -0.07398156  *
     5       C          2.74066638  *  -2.43628460  *  -0.10065079  *
     6       C          1.73453708  *  -2.78725446  *   0.81602665  *
     7       C          1.20985706  *  -4.06354865  *   0.84558346  *
     8       C          1.69311778  *  -4.98021865  *  -0.09115436  *
     9       C          2.66401997  *  -4.61691958  *  -1.07122482  *
    10       C          3.23142907  *  -3.35161628  *  -1.02568466  *
    11       C          2.93673231  *  -5.79385050  *  -1.85225226  *
    12       C          2.22566879  *  -6.85241812  *  -1.25140782  *
    13       N          1.40149070  *  -6.34135058  *  -0.23603643  *
    14       C          0.53404616  *  -7.12848165  *   0.62369613  *
    15       C          2.43299257  *  -8.20142547  *  -1.60698768  *
    16       C          3.41661512  *  -8.45961461  *  -2.51952282  *
    17       C          4.12740032  *  -7.41528155  *  -3.17441547  *
    18       C          3.77720898  *  -6.06622039  *  -2.95133975  *
    19       C          4.29835931  *  -5.10695120  *  -3.84214052  *
    20       C          3.91800009  *  -3.76792786  *  -4.20495363  *
    21       C          2.81100378  *  -2.97461858  *  -3.91689358  *
    22       C          2.72553191  *  -1.71839009  *  -4.48865646  *
    23       C          3.71539051  *  -1.24701342  *  -5.36271014  *
    24       C          4.79241935  *  -2.03386189  *  -5.72390293  *
    25       C          4.86925765  *  -3.30692497  *  -5.15756623  *
    26       N          5.79910265  *  -4.33474705  *  -5.39661600  *
    27       C          5.38265038  *  -5.46037329  *  -4.67379861  *
    28       C          5.86597301  *  -6.78335975  *  -4.76217793  *
    29       C          5.19537090  *  -7.74162541  *  -4.05700814  *
    30       C          6.81662173  *  -4.32765013  *  -6.43348584  *
    31       C          3.23645725  *   1.32636536  *   0.05109221  *
    32       O          4.44162437  *   1.53380277  *   0.07006724  *
    33       O          2.38470566  *   2.37165840  *   0.08103189  *
    34       H          4.41409665  *  -1.04396022  *  -0.12952141  *
    35       H          1.38554377  *  -2.05153128  *   1.54845677  *
    36       H          0.45248347  *  -4.34019384  *   1.58142872  *
    37       H          4.05876167  *  -3.09195190  *  -1.69467404  *
    38       H          1.08604034  *  -7.57804384  *   1.47005261  *
    39       H         -0.27960811  *  -6.51198262  *   1.04453596  *
    40       H          0.05742326  *  -7.95066846  *   0.06045779  *
    41       H          1.85622928  *  -9.00312853  *  -1.14294312  *
    42       H          3.66029808  *  -9.49794472  *  -2.76957229  *
    43       H          2.00924656  *  -3.35569510  *  -3.27768591  *
    44       H          1.86577719  *  -1.07970290  *  -4.26603783  *
    45       H          3.61962357  *  -0.24009345  *  -5.78087039  *
    46       H          5.54080271  *  -1.67332604  *  -6.43135276  *
    47       H          6.71662950  *  -7.03218984  *  -5.39890411  *
    48       H          5.49167125  *  -8.79138438  *  -4.15706417  *
    49       H          7.66292165  *  -4.98353866  *  -6.16256093  *
    50       H          6.42646061  *  -4.67085286  *  -7.40988917  *
    51       H          7.22850809  *  -3.31330051  *  -6.57722663  *
    52       H          2.86570603  *   3.21112536  *   0.11355909  *

                             CARTESIAN COORDINATES

   1    N        0.000000000     0.000000000     0.000000000
   2    C        1.156446990     0.000000000     0.000000000
   3    C        2.574090008     0.017115721     0.000000000
   4    C        3.316249686    -1.103804140    -0.073981555
   5    C        2.740666383    -2.436284600    -0.100650789
   6    C        1.734537083    -2.787254455     0.816026646
   7    C        1.209857056    -4.063548650     0.845583458
   8    C        1.693117781    -4.980218647    -0.091154356
   9    C        2.664019972    -4.616919581    -1.071224819
  10    C        3.231429075    -3.351616284    -1.025684665
  11    C        2.936732311    -5.793850502    -1.852252257
  12    C        2.225668788    -6.852418117    -1.251407817
  13    N        1.401490699    -6.341350584    -0.236036427
  14    C        0.534046165    -7.128481650     0.623696133
  15    C        2.432992568    -8.201425474    -1.606987677
  16    C        3.416615122    -8.459614615    -2.519522817
  17    C        4.127400325    -7.415281547    -3.174415467
  18    C        3.777208976    -6.066220385    -2.951339754
  19    C        4.298359312    -5.106951203    -3.842140520
  20    C        3.918000093    -3.767927861    -4.204953634
  21    C        2.811003778    -2.974618585    -3.916893576
  22    C        2.725531910    -1.718390088    -4.488656460
  23    C        3.715390510    -1.247013416    -5.362710144
  24    C        4.792419346    -2.033861895    -5.723902931
  25    C        4.869257650    -3.306924968    -5.157566234
  26    N        5.799102653    -4.334747054    -5.396615999
  27    C        5.382650381    -5.460373293    -4.673798614
  28    C        5.865973009    -6.783359747    -4.762177928
  29    C        5.195370899    -7.741625407    -4.057008143
  30    C        6.816621728    -4.327650126    -6.433485843
  31    C        3.236457250     1.326365363     0.051092210
  32    O        4.441624371     1.533802768     0.070067239
  33    O        2.384705662     2.371658399     0.081031895
  34    H        4.414096648    -1.043960217    -0.129521410
  35    H        1.385543767    -2.051531277     1.548456770
  36    H        0.452483465    -4.340193845     1.581428719
  37    H        4.058761669    -3.091951898    -1.694674038
  38    H        1.086040339    -7.578043837     1.470052612
  39    H       -0.279608108    -6.511982617     1.044535958
  40    H        0.057423260    -7.950668463     0.060457787
  41    H        1.856229275    -9.003128528    -1.142943119
  42    H        3.660298080    -9.497944723    -2.769572293
  43    H        2.009246556    -3.355695098    -3.277685913
  44    H        1.865777193    -1.079702903    -4.266037834
  45    H        3.619623571    -0.240093447    -5.780870388
  46    H        5.540802707    -1.673326036    -6.431352756
  47    H        6.716629504    -7.032189840    -5.398904106
  48    H        5.491671248    -8.791384378    -4.157064170
  49    H        7.662921646    -4.983538659    -6.162560934
  50    H        6.426460613    -4.670852860    -7.409889166
  51    H        7.228508088    -3.313300510    -6.577226631
  52    H        2.865706027     3.211125359     0.113559090


           Empirical Formula: C28 H19 N3 O2  =    52 atoms



      MOLECULAR POINT GROUP   :   C1  


                  EIGENVALUES  
 -48.84529 -48.13676 -46.78233 -44.09820 -43.06193 -42.14209 -39.68315 -39.25761
 -38.83167 -37.52769 -36.46981 -35.99218 -33.60167 -32.87682 -32.40176 -31.66135
 -30.57736 -29.76182 -28.20357 -27.77316 -27.22411 -26.05569 -25.63382 -25.20178
 -24.67949 -23.78215 -23.47487 -23.05850 -22.25791 -21.12541 -20.86207 -20.11664
 -19.11139 -19.01865 -18.43849 -18.20955 -17.73175 -17.61879 -17.33727 -16.99762
 -16.80713 -16.59230 -16.23319 -16.07373 -15.91729 -15.67996 -15.44072 -15.23760
 -15.08427 -14.73306 -14.56268 -14.48141 -14.28925 -14.20735 -13.84248 -13.50547
 -13.42995 -13.30929 -13.15421 -12.89309 -12.76978 -12.48372 -12.30478 -12.08882
 -12.04108 -11.83338 -11.46765 -11.40155 -11.09350 -10.79060 -10.47562 -10.22154
  -9.83884  -9.64367  -8.56824  -8.04935  -7.89734  -7.33775  -7.01512  -0.85070
  -0.31962   0.35307   0.66540   0.76589   0.93500   1.18149   1.21388   1.71762
   1.86741   2.13221   2.39597   2.52257   2.64814   2.75129   2.92243   3.10986
   3.15376   3.26166   3.37597   3.54415   3.66052   3.74524   3.84206   3.92018
   4.03547   4.18379   4.23933   4.45909   4.71277   4.81007   5.38190   5.47455
   5.63827   5.67381   6.02558   6.21080   6.39487   6.42502   6.44926   6.65008
   6.72286   6.73669   6.75337   6.77452   6.88464   7.55902   7.88662   8.40873
   8.74517   9.00292   9.09006   9.35266   9.71632  10.13152  10.49297  10.86084
  11.04675  11.23046  11.50876  11.95052  12.11687  12.37418  12.45266  12.77212
  12.99327  13.04082  13.46980  14.15802  14.26703  14.96203  15.36901


              NET ATOMIC CHARGES AND DIPOLE CONTRIBUTIONS

  ATOM NO.   TYPE          CHARGE      No. of ELECS.   s-Pop       p-Pop       
    1          N          -0.385799        5.3858     1.75352     3.63228
    2          C           0.213124        3.7869     1.14823     2.63864
    3          C           0.011121        3.9889     1.00176     2.98712
    4          C           0.125241        3.8748     1.10740     2.76736
    5          C          -0.012725        4.0127     1.03571     2.97702
    6          C          -0.013008        4.0130     1.08239     2.93062
    7          C          -0.040110        4.0401     1.07625     2.96386
    8          C           0.084918        3.9151     1.05065     2.86444
    9          C          -0.010825        4.0108     1.05076     2.96006
   10          C          -0.009958        4.0100     1.08664     2.92331
   11          C          -0.039917        4.0399     1.05009     2.98983
   12          C           0.076395        3.9236     1.05451     2.86910
   13          N          -0.131483        5.1315     1.22965     3.90183
   14          C           0.061635        3.9384     1.04643     2.89194
   15          C          -0.045985        4.0460     1.07657     2.96941
   16          C          -0.021254        4.0213     1.08808     2.93317
   17          C          -0.014151        4.0142     1.04272     2.97144
   18          C           0.033813        3.9662     1.04360     2.92259
   19          C          -0.040240        4.0402     1.05077     2.98947
   20          C          -0.015121        4.0151     1.04940     2.96572
   21          C          -0.021958        4.0220     1.08413     2.93782
   22          C          -0.048241        4.0482     1.07728     2.97096
   23          C          -0.027231        4.0272     1.07993     2.94730
   24          C          -0.043551        4.0436     1.07488     2.96867
   25          C           0.070658        3.9293     1.05009     2.87925
   26          N          -0.138447        5.1384     1.23607     3.90238
   27          C           0.075860        3.9241     1.05415     2.86999
   28          C          -0.046016        4.0460     1.07689     2.96913
   29          C          -0.024110        4.0241     1.08765     2.93646
   30          C           0.061217        3.9388     1.04645     2.89234
   31          C           0.498292        3.5017     1.04549     2.45622
   32          O          -0.598005        6.5980     1.81668     4.78133
   33          O          -0.309205        6.3092     1.68720     4.62201
   34          H           0.065630        0.9344     0.93437
   35          H           0.030209        0.9698     0.96979
   36          H           0.030138        0.9699     0.96986
   37          H           0.036157        0.9638     0.96384
   38          H           0.024553        0.9754     0.97545
   39          H           0.022436        0.9776     0.97756
   40          H           0.022293        0.9777     0.97771
   41          H           0.027135        0.9729     0.97287
   42          H           0.021646        0.9784     0.97835
   43          H           0.026768        0.9732     0.97323
   44          H           0.015640        0.9844     0.98436
   45          H           0.018422        0.9816     0.98158
   46          H           0.025578        0.9744     0.97442
   47          H           0.025972        0.9740     0.97403
   48          H           0.020841        0.9792     0.97916
   49          H           0.020849        0.9792     0.97915
   50          H           0.022940        0.9771     0.97706
   51          H           0.021498        0.9785     0.97850
   52          H           0.246362        0.7536     0.75364
 DIPOLE           X         Y         Z       TOTAL
 POINT-CHG.     1.446    -6.254    -0.777     6.466
 HYBRID         1.460     0.186    -0.187     1.484
 SUM            2.906    -6.068    -0.965     6.797


          ATOMIC ORBITAL ELECTRON POPULATIONS

     Atom    s        px        py        pz   
    1  N   1.75352   1.23024   1.22680   1.17524
    2  C   1.14823   0.94953   0.81018   0.87893
    3  C   1.00176   0.90667   0.92360   1.15684
    4  C   1.10740   0.98736   1.01104   0.76897
    5  C   1.03571   1.01841   0.95657   1.00203
    6  C   1.08239   0.97595   0.97430   0.98037
    7  C   1.07625   0.99447   0.98472   0.98468
    8  C   1.05065   0.98917   0.88686   0.98840
    9  C   1.05076   1.00680   0.95280   1.00046
   10  C   1.08664   0.97153   0.97349   0.97830
   11  C   1.05009   1.01523   0.97998   0.99462
   12  C   1.05451   0.95470   0.97554   0.93886
   13  N   1.22965   1.43462   1.11606   1.35116
   14  C   1.04643   0.96040   0.96874   0.96280
   15  C   1.07657   1.00275   0.94731   1.01935
   16  C   1.08808   0.99406   0.95108   0.98803
   17  C   1.04272   0.98334   0.97188   1.01621
   18  C   1.04360   0.97584   0.98107   0.96567
   19  C   1.05077   1.00082   0.96969   1.01896
   20  C   1.04940   0.98581   0.96877   1.01114
   21  C   1.08413   0.96841   0.99228   0.97714
   22  C   1.07728   0.97210   0.98544   1.01341
   23  C   1.07993   1.00031   0.95285   0.99414
   24  C   1.07488   0.98467   0.97986   1.00414
   25  C   1.05009   0.95109   0.93016   0.99800
   26  N   1.23607   1.33257   1.16778   1.40203
   27  C   1.05415   0.99212   0.90852   0.96934
   28  C   1.07689   0.98126   0.97338   1.01449
   29  C   1.08765   0.99274   0.95215   0.99157
   30  C   1.04645   0.94381   1.00457   0.94395
   31  C   1.04549   0.88004   0.90619   0.66999
   32  O   1.81668   1.27858   1.95577   1.54697
   33  O   1.68720   1.52724   1.20698   1.88778
   34  H   0.93437
   35  H   0.96979
   36  H   0.96986
   37  H   0.96384
   38  H   0.97545
   39  H   0.97756
   40  H   0.97771
   41  H   0.97287
   42  H   0.97835
   43  H   0.97323
   44  H   0.98436
   45  H   0.98158
   46  H   0.97442
   47  H   0.97403
   48  H   0.97916
   49  H   0.97915
   50  H   0.97706
   51  H   0.97850
   52  H   0.75364

 **********************
 *                    *
 * JOB ENDED NORMALLY *
 *                    *
 **********************



 TOTAL JOB TIME:           467.95 SECONDS

 == MOPAC DONE ==
