 *******************************************************************************
 ** Site#: 4824         For non-commercial use only    Version 21.013L 64BITS **
 *******************************************************************************
 ** Cite this program as: MOPAC2016, Version: 21.013L, James J. P. Stewart,   **
 ** Stewart Computational Chemistry, web: HTTP://OpenMOPAC.net. Days left:  83**
 *******************************************************************************
 **                                                                           **
 **                                MOPAC2016                                  **
 **                                                                           **
 *******************************************************************************

                              INDO CALCULATION RESULTS

 *******************************************************************************
 *  CALCULATION DONE:                                Fri Oct 22 10:26:58 2021  *
 *  INDO       - The INDO Hamiltonian to be used
 *  CIS        - C.I. USES 1 ELECTRON EXCITATIONS ONLY
 *  EPS=  8.93 - USE ANDREAS KLAMT'S COSMO IMPLICIT SOLVATION MODEL
 *  n**2 =  1.420 for COSMO-CI
 *  T=         - A TIME OF 172800.0 SECONDS REQUESTED
 *  DUMP=N     - RESTART FILE WRITTEN EVERY 7200.0 SECONDS REQUESTED
 *******************************************************************************
INDO CIS EPS=8.93 N**2=1.42
 Dye131
 Calculo dos Estados Excitados
   ATOM   CHEMICAL          X               Y               Z
  NUMBER   SYMBOL      (ANGSTROMS)     (ANGSTROMS)     (ANGSTROMS)
 
     1       N          0.08326128  *  -0.06587204  *   0.66597819  *
     2       C          1.23252302  *  -0.06897169  *   0.53302577  *
     3       C          2.63855379  *  -0.03735035  *   0.37123554  *
     4       C          3.38593435  *  -1.12556732  *   0.08826295  *
     5       C          2.89708308  *  -2.45960414  *  -0.07776452  *
     6       C          3.68911424  *  -3.48404377  *  -0.55494425  *
     7       C          2.98590965  *  -4.71603562  *  -0.63098946  *
     8       C          1.68683823  *  -4.58510591  *  -0.20096350  *
     9       S          1.32501712  *  -2.99762096  *   0.28363809  *
    10       C          0.71144165  *  -5.62383878  *  -0.13691045  *
    11       C         -0.63301262  *  -5.49550004  *  -0.34690101  *
    12       C         -1.33371590  *  -6.72929156  *  -0.16916522  *
    13       C         -0.48468958  *  -7.75280587  *   0.15990794  *
    14       S          1.16682554  *  -7.23486030  *   0.24585390  *
    15       N         -0.82599054  *  -9.09020688  *   0.33323034  *
    16       C         -1.84695151  *  -9.74340585  *  -0.40409354  *
    17       C         -2.43250995  *  -9.38841314  *  -1.61157003  *
    18       C         -3.37327206  * -10.26043170  *  -2.13982385  *
    19       C         -3.73028840  * -11.45972038  *  -1.50422065  *
    20       C         -3.12568047  * -11.80911894  *  -0.30135955  *
    21       C         -2.18664301  * -10.95282483  *   0.25021238  *
    22       C         -1.39478305  * -11.02394747  *   1.45629655  *
    23       C         -0.59460877  *  -9.85570842  *   1.50563812  *
    24       C          0.26702499  *  -9.61917317  *   2.56774819  *
    25       C          0.32149380  * -10.57916325  *   3.56749722  *
    26       C         -0.45191398  * -11.74953304  *   3.53103071  *
    27       C         -1.31829494  * -11.96992363  *   2.46557164  *
    28       C         -0.30565795  * -12.72568973  *   4.66960437  *
    29       C         -1.19017764  * -13.96476106  *   4.51780708  *
    30       C         -0.69504285  * -12.02640045  *   5.97504022  *
    31       C          1.15084137  * -13.19372468  *   4.73776658  *
    32       C         -4.76704609  * -12.32749131  *  -2.16965885  *
    33       C         -6.06762769  * -11.53051251  *  -2.30532647  *
    34       C         -5.07814380  * -13.60341480  *  -1.38478291  *
    35       C         -4.25589621  * -12.73909486  *  -3.55316331  *
    36       C          3.29733600  *   1.26684886  *   0.51562661  *
    37       O          4.49463937  *   1.49527846  *   0.41223619  *
    38       O          2.45104882  *   2.28020357  *   0.78961686  *
    39       H          4.47601910  *  -1.00765668  *  -0.03636472  *
    40       H          4.73175708  *  -3.37919017  *  -0.85040984  *
    41       H          3.43523285  *  -5.63672007  *  -0.99549632  *
    42       H         -1.14131589  *  -4.57121278  *  -0.61522694  *
    43       H         -2.41334150  *  -6.81517475  *  -0.27348408  *
    44       H         -2.15766483  *  -8.46944086  *  -2.13390133  *
    45       H         -3.83887452  *  -9.98031925  *  -3.09063953  *
    46       H         -3.35188966  * -12.73158416  *   0.23766942  *
    47       H          0.87549546  *  -8.71359849  *   2.62128079  *
    48       H          1.00066288  * -10.39211851  *   4.40598812  *
    49       H         -1.95022412  * -12.85657709  *   2.38037200  *
    50       H         -2.26115555  * -13.71787363  *   4.49170409  *
    51       H         -0.95665687  * -14.54073102  *   3.61097606  *
    52       H         -1.06284296  * -14.66292103  *   5.35929659  *
    53       H         -1.71760438  * -11.62496189  *   5.93241148  *
    54       H         -0.65598008  * -12.71000102  *   6.83584539  *
    55       H         -0.03686166  * -11.18411587  *   6.22877085  *
    56       H          1.30464215  * -13.94781414  *   5.52358376  *
    57       H          1.47700271  * -13.64792463  *   3.79124214  *
    58       H          1.85765896  * -12.38171824  *   4.95708717  *
    59       H         -6.42670583  * -11.16865916  *  -1.33131717  *
    60       H         -5.97009940  * -10.64803481  *  -2.95242981  *
    61       H         -6.87749209  * -12.13488502  *  -2.73970303  *
    62       H         -5.47729195  * -13.39458942  *  -0.38194466  *
    63       H         -5.83882261  * -14.21824990  *  -1.88983880  *
    64       H         -4.19788438  * -14.25142876  *  -1.26709810  *
    65       H         -4.95497252  * -13.41626806  *  -4.06556561  *
    66       H         -4.10853153  * -11.88789982  *  -4.23196877  *
    67       H         -3.29138555  * -13.26300987  *  -3.49141776  *
    68       H          2.92855514  *   3.11807430  *   0.87595505  *
 


          CARTESIAN COORDINATES 

    NO.       ATOM           X           Y           Z

     1         N          0.0833     -0.0659      0.6660
     2         C          1.2325     -0.0690      0.5330
     3         C          2.6386     -0.0374      0.3712
     4         C          3.3859     -1.1256      0.0883
     5         C          2.8971     -2.4596     -0.0778
     6         C          3.6891     -3.4840     -0.5549
     7         C          2.9859     -4.7160     -0.6310
     8         C          1.6868     -4.5851     -0.2010
     9         S          1.3250     -2.9976      0.2836
    10         C          0.7114     -5.6238     -0.1369
    11         C         -0.6330     -5.4955     -0.3469
    12         C         -1.3337     -6.7293     -0.1692
    13         C         -0.4847     -7.7528      0.1599
    14         S          1.1668     -7.2349      0.2459
    15         N         -0.8260     -9.0902      0.3332
    16         C         -1.8470     -9.7434     -0.4041
    17         C         -2.4325     -9.3884     -1.6116
    18         C         -3.3733    -10.2604     -2.1398
    19         C         -3.7303    -11.4597     -1.5042
    20         C         -3.1257    -11.8091     -0.3014
    21         C         -2.1866    -10.9528      0.2502
    22         C         -1.3948    -11.0239      1.4563
    23         C         -0.5946     -9.8557      1.5056
    24         C          0.2670     -9.6192      2.5677
    25         C          0.3215    -10.5792      3.5675
    26         C         -0.4519    -11.7495      3.5310
    27         C         -1.3183    -11.9699      2.4656
    28         C         -0.3057    -12.7257      4.6696
    29         C         -1.1902    -13.9648      4.5178
    30         C         -0.6950    -12.0264      5.9750
    31         C          1.1508    -13.1937      4.7378
    32         C         -4.7670    -12.3275     -2.1697
    33         C         -6.0676    -11.5305     -2.3053
    34         C         -5.0781    -13.6034     -1.3848
    35         C         -4.2559    -12.7391     -3.5532
    36         C          3.2973      1.2668      0.5156
    37         O          4.4946      1.4953      0.4122
    38         O          2.4510      2.2802      0.7896
    39         H          4.4760     -1.0077     -0.0364
    40         H          4.7318     -3.3792     -0.8504
    41         H          3.4352     -5.6367     -0.9955
    42         H         -1.1413     -4.5712     -0.6152
    43         H         -2.4133     -6.8152     -0.2735
    44         H         -2.1577     -8.4694     -2.1339
    45         H         -3.8389     -9.9803     -3.0906
    46         H         -3.3519    -12.7316      0.2377
    47         H          0.8755     -8.7136      2.6213
    48         H          1.0007    -10.3921      4.4060
    49         H         -1.9502    -12.8566      2.3804
    50         H         -2.2612    -13.7179      4.4917
    51         H         -0.9567    -14.5407      3.6110
    52         H         -1.0628    -14.6629      5.3593
    53         H         -1.7176    -11.6250      5.9324
    54         H         -0.6560    -12.7100      6.8358
    55         H         -0.0369    -11.1841      6.2288
    56         H          1.3046    -13.9478      5.5236
    57         H          1.4770    -13.6479      3.7912
    58         H          1.8577    -12.3817      4.9571
    59         H         -6.4267    -11.1687     -1.3313
    60         H         -5.9701    -10.6480     -2.9524
    61         H         -6.8775    -12.1349     -2.7397
    62         H         -5.4773    -13.3946     -0.3819
    63         H         -5.8388    -14.2182     -1.8898
    64         H         -4.1979    -14.2514     -1.2671
    65         H         -4.9550    -13.4163     -4.0656
    66         H         -4.1085    -11.8879     -4.2320
    67         H         -3.2914    -13.2630     -3.4914
    68         H          2.9286      3.1181      0.8760

           Empirical Formula: C32 H30 N2 O2 S2  =    68 atoms



      MOLECULAR POINT GROUP   :   C1  


      RHF CALCULATION, NO. OF DOUBLY OCCUPIED LEVELS = 96

 WARNING: INDO only performs single-point calculations

 Summary of symmetry occupancy in each shell:

 SHELL     
    1   96
    v   86
 TOTAL 182




    ROOT NO.    1           2           3           4           5           6

           -48.49475   -46.75848   -45.22420   -44.74038   -43.41133   -42.01060
  
  
  S  N   1   0.00009     0.03911    -0.00004    -0.00096     0.02875    -0.03782
 PX  N   1   0.00005     0.02412    -0.00002    -0.00051     0.01541    -0.01975
 PY  N   1  -0.00000     0.00451     0.00001     0.00015    -0.00339     0.00345
 PZ  N   1  -0.00001    -0.00204     0.00000     0.00009    -0.00243     0.00285
  
  S  C   2   0.00022     0.11207    -0.00008    -0.00202     0.05746    -0.06839
 PX  C   2   0.00008     0.04891    -0.00002    -0.00052     0.01381    -0.01302
 PY  C   2  -0.00003     0.02431     0.00004     0.00080    -0.01628     0.01477
 PZ  C   2  -0.00002    -0.00172     0.00001     0.00021    -0.00449     0.00404
  
  S  C   3   0.00038     0.22559    -0.00011    -0.00282     0.08213    -0.09484
 PX  C   3   0.00003     0.03236     0.00000     0.00001     0.00195    -0.00361
 PY  C   3  -0.00008     0.07928     0.00012     0.00234    -0.04678     0.04194
 PZ  C   3  -0.00002     0.00944     0.00002     0.00041    -0.00852     0.00784
  
  S  C   4   0.00070     0.11281    -0.00035    -0.00763     0.16720    -0.15479
 PX  C   4  -0.00011    -0.01462     0.00006     0.00131    -0.02890     0.02730
 PY  C   4  -0.00027     0.04617     0.00016     0.00319    -0.05338     0.03185
 PZ  C   4  -0.00004     0.00972     0.00002     0.00045    -0.00670     0.00285
  
  S  C   5   0.00217     0.04748    -0.00098    -0.01944     0.34414    -0.24039
 PX  C   5  -0.00020     0.00201     0.00005     0.00073    -0.00309    -0.00651
 PY  C   5  -0.00093     0.01293     0.00036     0.00687    -0.09878     0.04259
 PZ  C   5  -0.00017     0.00166     0.00007     0.00140    -0.02235     0.01232
  
  S  C   6   0.00244     0.02465    -0.00105    -0.02056     0.34537    -0.21946
 PX  C   6  -0.00109    -0.00706     0.00044     0.00855    -0.13532     0.07758
 PY  C   6  -0.00033     0.00572     0.00008     0.00131    -0.00758    -0.00989
 PZ  C   6   0.00024     0.00339    -0.00011    -0.00226     0.03901    -0.02570
  
  S  C   7   0.00460     0.01558    -0.00144    -0.02607     0.35185    -0.15872
 PX  C   7  -0.00186    -0.00221     0.00046     0.00749    -0.07073     0.00567
 PY  C   7   0.00025     0.00663    -0.00024    -0.00542     0.11237    -0.08437
 PZ  C   7   0.00057     0.00222    -0.00019    -0.00354     0.04821    -0.02160
  
  S  C   8   0.01054     0.01459    -0.00236    -0.03899     0.38053    -0.06444
 PX  C   8  -0.00311     0.00460     0.00029     0.00238     0.07069    -0.10458
 PY  C   8  -0.00311     0.00411     0.00036     0.00406     0.04104    -0.08803
 PZ  C   8   0.00002    -0.00050     0.00006     0.00064    -0.01345     0.00918
  
  S  S   9   0.00373     0.02225    -0.00113    -0.02010     0.27044    -0.12792
 PX  S   9   0.00046     0.01149    -0.00032    -0.00686     0.13126    -0.09358
 PY  S   9  -0.00212     0.00384     0.00051     0.00843    -0.07852     0.00266
 PZ  S   9  -0.00073    -0.00314     0.00024     0.00436    -0.06069     0.02908
  
  S  C  10   0.03468     0.00512    -0.00483    -0.06929     0.27754     0.26711
 PX  C  10  -0.01192     0.00124     0.00164     0.01769    -0.00493    -0.12176
 PY  C  10  -0.01058     0.00138     0.00082     0.01257     0.01484    -0.08547
 PZ  C  10   0.00063    -0.00019     0.00026    -0.00015    -0.00528     0.00239
  
  S  C  11   0.04066     0.00252    -0.00651    -0.07110     0.20929     0.32809
 PX  C  11   0.00466     0.00101    -0.00023    -0.01278     0.05855     0.05211
 PY  C  11  -0.01906    -0.00014     0.00281     0.02682    -0.04703    -0.12394
 PZ  C  11   0.00445     0.00016    -0.00030    -0.00746     0.01844     0.03395
  
  S  C  12   0.09334     0.00129    -0.01253    -0.09978     0.15987     0.34377
 PX  C  12   0.01981     0.00062    -0.00087    -0.03184     0.07075     0.13645
 PY  C  12  -0.04155     0.00025     0.00374     0.02262     0.01847     0.00929
 PZ  C  12   0.00887     0.00002     0.00113    -0.00799     0.00482     0.01393
  
  S  C  13   0.20129     0.00095    -0.00881    -0.16028     0.12969     0.32514
 PX  C  13  -0.04086     0.00015     0.00619     0.02249     0.00915    -0.00477
 PY  C  13  -0.08847     0.00069    -0.00138     0.03425     0.07393     0.10926
 PZ  C  13   0.01130    -0.00014     0.00619    -0.00215    -0.01633    -0.02979
  
  S  S  14   0.05739     0.00184    -0.00079    -0.06773     0.14461     0.22426
 PX  S  14  -0.03717    -0.00033     0.00122     0.04095    -0.05841    -0.13878
 PY  S  14  -0.01063     0.00110    -0.00265    -0.00485     0.06673     0.06190
 PZ  S  14  -0.00050    -0.00030     0.00221     0.00569    -0.02217    -0.02978
  
  S  N  15   0.46639    -0.00043    -0.00589    -0.24265    -0.02303     0.07089
 PX  N  15  -0.06327     0.00013     0.01377     0.02097     0.01410     0.02111
 PY  N  15  -0.06873     0.00031    -0.00316     0.00142     0.04146     0.09820
 PZ  N  15   0.03164    -0.00009     0.02097    -0.00916    -0.01164    -0.02610
  
  S  C  16   0.36817    -0.00060    -0.11231    -0.07536    -0.04179    -0.04721
 PX  C  16   0.06421    -0.00003     0.04212    -0.07708    -0.00620     0.01954
 PY  C  16  -0.01360     0.00016     0.02835    -0.04700     0.01776     0.06578
 PZ  C  16   0.10323    -0.00016     0.03487    -0.06863    -0.02145    -0.02327
  
  S  C  17   0.15748    -0.00027    -0.13923     0.04360    -0.00396    -0.00886
 PX  C  17   0.01780     0.00002     0.02327    -0.03954    -0.00102     0.01256
 PY  C  17  -0.03564     0.00014     0.05551    -0.04352     0.00776     0.03094
 PZ  C  17   0.06224    -0.00009    -0.01991    -0.01775    -0.00663    -0.00522
  
  S  C  18   0.11122    -0.00032    -0.20840     0.16570     0.00805    -0.01547
 PX  C  18   0.02050    -0.00003     0.00161    -0.02064    -0.00755    -0.01511
 PY  C  18  -0.01271     0.00007     0.05201    -0.05805    -0.00576    -0.00175
 PZ  C  18   0.04224    -0.00011    -0.04779     0.02563    -0.00502    -0.01917
  
  S  C  19   0.12081    -0.00040    -0.28932     0.27118     0.02263    -0.00131
 PX  C  19   0.02493    -0.00005     0.00815    -0.03059    -0.01392    -0.03237
 PY  C  19   0.02068    -0.00004    -0.00021    -0.02069    -0.00964    -0.02191
 PZ  C  19   0.01614    -0.00003     0.01208    -0.02454    -0.01080    -0.02553
  
  S  C  20   0.14047    -0.00041    -0.18200     0.15321    -0.00808    -0.05983
 PX  C  20   0.02931    -0.00006     0.01870    -0.03119    -0.01320    -0.02755
 PY  C  20   0.05242    -0.00013    -0.03874     0.01180    -0.01026    -0.02888
 PZ  C  20  -0.00739     0.00004     0.06361    -0.05611    -0.00918    -0.01203
  
  S  C  21   0.30627    -0.00068    -0.09839     0.01490    -0.05501    -0.13188
 PX  C  21   0.06575    -0.00010     0.04389    -0.05688    -0.01555    -0.01660
 PY  C  21   0.08978    -0.00014    -0.00656    -0.04725    -0.01479    -0.01133
 PZ  C  21   0.00857    -0.00000     0.07006    -0.03763    -0.00743    -0.01069
  
  S  C  22   0.30475    -0.00069     0.10589     0.01003    -0.05664    -0.15244
 PX  C  22   0.02191    -0.00005     0.04707     0.00688    -0.00123    -0.00825
 PY  C  22   0.09320    -0.00015    -0.00295    -0.05206    -0.01723    -0.01762
 PZ  C  22  -0.05671     0.00007     0.07150     0.05960     0.01520     0.00614
  
  S  C  23   0.36116    -0.00064     0.11328    -0.07517    -0.04911    -0.09030
 PX  C  23  -0.07181     0.00014     0.01276     0.02978     0.01660     0.02542
 PY  C  23  -0.00449     0.00013    -0.03792    -0.05092     0.01261     0.06096
 PZ  C  23  -0.10070     0.00010     0.05509     0.09145     0.01455    -0.01537
  
  S  C  24   0.15097    -0.00032     0.14409     0.04182    -0.01132    -0.05521
 PX  C  24  -0.04919     0.00011    -0.03099    -0.00172     0.00746     0.02127
 PY  C  24  -0.03142     0.00013    -0.05920    -0.04184     0.00546     0.03416
 PZ  C  24  -0.04258     0.00004     0.01040     0.03695     0.00638     0.00018
  
  S  C  25   0.10854    -0.00034     0.22010     0.15409     0.00747    -0.03725
 PX  C  25  -0.02991     0.00009    -0.04881    -0.03150     0.00135     0.01664
 PY  C  25  -0.00887     0.00006    -0.05192    -0.05280    -0.00881    -0.01260
 PZ  C  25  -0.03598     0.00008    -0.02329     0.00326     0.01045     0.03689
  
  S  C  26   0.11880    -0.00043     0.30684     0.25165     0.02652    -0.00195
 PX  C  26  -0.00371     0.00001     0.00792     0.00831     0.00396     0.01054
 PY  C  26   0.02279    -0.00005    -0.00157    -0.02267    -0.01341    -0.04187
 PZ  C  26  -0.02704     0.00006     0.01335     0.03394     0.01859     0.05524
  
  S  C  27   0.13899    -0.00043     0.19399     0.14174    -0.00724    -0.07354
 PX  C  27   0.02065    -0.00007     0.05487     0.03586     0.00263    -0.00610
 PY  C  27   0.05265    -0.00013     0.03430     0.00446    -0.01287    -0.04356
 PZ  C  27  -0.01958     0.00002     0.04813     0.04856     0.01616     0.03254
  
  S  C  28   0.06104    -0.00030     0.30917     0.30177     0.06226     0.11634
 PX  C  28  -0.00070     0.00000     0.00144     0.00130     0.00090     0.00293
 PY  C  28   0.00922    -0.00003     0.01977     0.01303    -0.00046    -0.00875
 PZ  C  28  -0.00973     0.00003    -0.01651    -0.01035     0.00178     0.01263
  
  S  C  29   0.03244    -0.00017     0.17924     0.18033     0.03907     0.07827
 PX  C  29   0.00623    -0.00003     0.03994     0.04013     0.00919     0.01923
 PY  C  29   0.01195    -0.00006     0.06096     0.05986     0.01217     0.02219
 PZ  C  29  -0.00194     0.00000     0.00217     0.00349     0.00224     0.00776
  
  S  C  30   0.03263    -0.00017     0.18434     0.18280     0.04007     0.08043
 PX  C  30   0.00358    -0.00002     0.02064     0.02019     0.00443     0.00875
 PY  C  30  -0.00317     0.00002    -0.02730    -0.02912    -0.00734    -0.01707
 PZ  C  30  -0.01376     0.00007    -0.06806    -0.06570    -0.01319    -0.02347
  
  S  C  31   0.03264    -0.00017     0.18441     0.18285     0.04007     0.08043
 PX  C  31  -0.01242     0.00006    -0.06966    -0.06916    -0.01494    -0.02941
 PY  C  31   0.00697    -0.00003     0.02986     0.02743     0.00491     0.00705
 PZ  C  31  -0.00303     0.00001    -0.00751    -0.00579    -0.00020     0.00211
  
  S  C  32   0.06204    -0.00028    -0.29108     0.32453     0.05337     0.07674
 PX  C  32   0.00929    -0.00003    -0.01588     0.01162    -0.00112    -0.00720
 PY  C  32   0.00846    -0.00003    -0.01729     0.01305    -0.00016    -0.00429
 PZ  C  32   0.00531    -0.00002    -0.00636     0.00425    -0.00144    -0.00620
  
  S  C  33   0.03320    -0.00016    -0.17365     0.19661     0.03445     0.05365
 PX  C  33   0.01400    -0.00006    -0.06455     0.07107     0.01146     0.01596
 PY  C  33  -0.00428     0.00002     0.03047    -0.03658    -0.00709    -0.01215
 PZ  C  33   0.00221    -0.00001    -0.00692     0.00719     0.00075     0.00020
  
  S  C  34   0.03294    -0.00016    -0.16866     0.19391     0.03336     0.05044
 PX  C  34   0.00522    -0.00002    -0.01752     0.01876     0.00218     0.00126
 PY  C  34   0.01211    -0.00006    -0.05852     0.06581     0.01079     0.01525
 PZ  C  34  -0.00417     0.00002     0.03129    -0.03657    -0.00729    -0.01291
  
  S  C  35   0.03317    -0.00016    -0.17358     0.19658     0.03441     0.05355
 PX  C  35  -0.00199     0.00001     0.01894    -0.02326    -0.00489    -0.00900
 PY  C  35   0.00636    -0.00003    -0.02519     0.02633     0.00380     0.00446
 PZ  C  35   0.01322    -0.00006    -0.06442     0.07217     0.01199     0.01735
  
  S  C  36   0.00030     0.51356     0.00018     0.00264    -0.02647     0.00803
 PX  C  36   0.00001     0.01735     0.00001     0.00008     0.00131    -0.00671
 PY  C  36   0.00001     0.13733     0.00011     0.00212    -0.04430     0.04730
 PZ  C  36   0.00000     0.02138     0.00002     0.00036    -0.00780     0.00895
  
  S  O  37   0.00022     0.41150     0.00015     0.00240    -0.02602     0.00640
 PX  O  37  -0.00009    -0.17468    -0.00007    -0.00109     0.01317    -0.00607
 PY  O  37  -0.00002    -0.00810     0.00001     0.00027    -0.00817     0.01091
 PZ  O  37   0.00001     0.01938     0.00001     0.00018    -0.00299     0.00261
  
  S  O  38   0.00026     0.57441     0.00028     0.00480    -0.08087     0.07674
 PX  O  38   0.00007     0.15774     0.00008     0.00135    -0.02261     0.02072
 PY  O  38  -0.00004    -0.06098    -0.00002    -0.00027     0.00160     0.00128
 PZ  O  38  -0.00001    -0.02921    -0.00001    -0.00021     0.00296    -0.00224
  
  S  H  39   0.00026     0.05227    -0.00013    -0.00277     0.06168    -0.05779
  
  S  H  40   0.00059     0.00878    -0.00027    -0.00544     0.09632    -0.06598
  
  S  H  41   0.00180     0.00390    -0.00048    -0.00844     0.10084    -0.03517
  
  S  H  42   0.00982     0.00099    -0.00188    -0.01906     0.06635     0.08870
  
  S  H  43   0.03944     0.00030    -0.00748    -0.03311     0.04101     0.09744
  
  S  H  44   0.05098    -0.00003    -0.03667    -0.00032     0.00587     0.01888
  
  S  H  45   0.03018    -0.00010    -0.07838     0.07147     0.00802     0.00570
  
  S  H  46   0.04253    -0.00013    -0.06049     0.06465     0.00039    -0.01599
  
  S  H  47   0.04702    -0.00005     0.03685     0.00166     0.00118    -0.00204
  
  S  H  48   0.02937    -0.00010     0.08290     0.06661     0.00852     0.00300
  
  S  H  49   0.04222    -0.00014     0.06509     0.06039     0.00133    -0.01568
  
  S  H  50   0.01464    -0.00007     0.07336     0.07344     0.01523     0.02924
  
  S  H  51   0.01464    -0.00007     0.07337     0.07343     0.01523     0.02923
  
  S  H  52   0.01108    -0.00006     0.06871     0.07021     0.01612     0.03447
  
  S  H  53   0.01407    -0.00007     0.07439     0.07313     0.01560     0.03045
  
  S  H  54   0.01103    -0.00006     0.06946     0.07031     0.01625     0.03468
  
  S  H  55   0.01480    -0.00007     0.07788     0.07589     0.01613     0.03110
  
  S  H  56   0.01104    -0.00006     0.06949     0.07033     0.01625     0.03469
  
  S  H  57   0.01406    -0.00007     0.07440     0.07313     0.01560     0.03046
  
  S  H  58   0.01483    -0.00007     0.07796     0.07595     0.01613     0.03109
  
  S  H  59   0.01431    -0.00007    -0.07007     0.07865     0.01340     0.02026
  
  S  H  60   0.01509    -0.00007    -0.07341     0.08163     0.01393     0.02111
  
  S  H  61   0.01122    -0.00006    -0.06543     0.07563     0.01396     0.02303
  
  S  H  62   0.01485    -0.00007    -0.06900     0.07895     0.01297     0.01853
  
  S  H  63   0.01126    -0.00006    -0.06467     0.07551     0.01379     0.02241
  
  S  H  64   0.01485    -0.00007    -0.06900     0.07896     0.01297     0.01852
  
  S  H  65   0.01122    -0.00006    -0.06542     0.07562     0.01395     0.02301
  
  S  H  66   0.01507    -0.00007    -0.07338     0.08161     0.01390     0.02104
  
  S  H  67   0.01429    -0.00007    -0.07003     0.07863     0.01338     0.02020
  
  S  H  68   0.00010     0.24206     0.00012     0.00210    -0.03608     0.03469




    ROOT NO.    7           8           9          10          11          12

           -41.04161   -39.91836   -39.60095   -39.07137   -36.40206   -36.05796
  
  
  S  N   1   0.00489     0.07183     0.00077     0.42067     0.37338     0.37500
 PX  N   1   0.00247     0.03448     0.00119     0.19538     0.14376     0.14007
 PY  N   1  -0.00036    -0.00535     0.00840    -0.00299     0.00254     0.00221
 PZ  N   1  -0.00034    -0.00483     0.00125    -0.02293    -0.01617    -0.01576
  
  S  C   2   0.00806     0.10773    -0.02108     0.49957     0.21493     0.18177
 PX  C   2   0.00110     0.00860    -0.02038    -0.06042    -0.23443    -0.26263
 PY  C   2  -0.00143    -0.01999     0.03254    -0.00539     0.01150     0.00994
 PZ  C   2  -0.00037    -0.00443     0.00795     0.00583     0.02903     0.03219
  
  S  C   3   0.01079     0.16021    -0.16904     0.33824    -0.13224    -0.20492
 PX  C   3   0.00057     0.02771    -0.10012    -0.10094    -0.05431    -0.05596
 PY  C   3  -0.00399    -0.04713     0.05266    -0.05467     0.05751     0.05913
 PZ  C   3  -0.00078    -0.01165     0.02128     0.00230     0.01671     0.01724
  
  S  C   4   0.01494     0.17887    -0.19575     0.22940    -0.23840    -0.26358
 PX  C   4  -0.00269    -0.02912     0.01161    -0.08906     0.03155     0.04466
 PY  C   4  -0.00145     0.02666    -0.08101     0.03466     0.01888    -0.02183
 PZ  C   4   0.00004     0.00813    -0.01572     0.01763     0.00020    -0.00913
  
  S  C   5   0.01731     0.08841     0.00387     0.05422    -0.16240    -0.09463
 PX  C   5   0.00100     0.01260    -0.01404    -0.00173    -0.04331    -0.03080
 PY  C   5  -0.00063     0.05222    -0.09034     0.13149    -0.06977    -0.11343
 PZ  C   5  -0.00052     0.00681    -0.01534     0.02592    -0.00299    -0.01569
  
  S  C   6   0.01367     0.01947     0.08333    -0.09329    -0.06422     0.03792
 PX  C   6  -0.00421     0.00528    -0.04234     0.04527    -0.00785    -0.03377
 PY  C   6   0.00188     0.03053    -0.03145     0.04935    -0.06471    -0.06346
 PZ  C   6   0.00169     0.00533     0.00560    -0.00301    -0.01274    -0.00440
  
  S  C   7   0.00603    -0.04858     0.10987    -0.15102     0.08025     0.11286
 PX  C   7   0.00168     0.02606    -0.01431     0.02596    -0.04851    -0.01458
 PY  C   7   0.00569     0.00861     0.03948    -0.04066    -0.02223     0.02814
 PZ  C   7   0.00079    -0.00615     0.01375    -0.01788     0.00977     0.01131
  
  S  C   8  -0.00460    -0.10399     0.07753    -0.13197     0.16133     0.06967
 PX  C   8   0.00854     0.02296     0.05026    -0.04915    -0.02204     0.05648
 PY  C   8   0.00795     0.03050     0.03290    -0.02196    -0.04170     0.02523
 PZ  C   8  -0.00063     0.00146    -0.00668     0.00885    -0.00482    -0.00945
  
  S  S   9   0.00616    -0.00180     0.04366    -0.01227     0.02496     0.02200
 PX  S   9   0.00633     0.01768     0.02821    -0.01721    -0.03585     0.00155
 PY  S   9   0.00264     0.04754    -0.03599     0.08846    -0.05441    -0.03252
 PZ  S   9  -0.00131     0.00526    -0.01601     0.02041    -0.00541    -0.00952
  
  S  C  10  -0.03250    -0.17461    -0.06354     0.00559     0.15830    -0.07184
 PX  C  10   0.00967     0.02856     0.05063    -0.05115     0.02183     0.05670
 PY  C  10   0.00712     0.00429     0.03439    -0.04044     0.04250     0.02520
 PZ  C  10  -0.00086     0.00309    -0.00128     0.00273    -0.00707     0.00048
  
  S  C  11  -0.03020    -0.15570    -0.10190     0.06214     0.07761    -0.11355
 PX  C  11  -0.00905    -0.04073    -0.01203    -0.00259     0.04988    -0.01760
 PY  C  11   0.00860     0.03157     0.03904    -0.03515     0.02365     0.02791
 PZ  C  11  -0.00415    -0.01283    -0.01016     0.00717     0.00299    -0.00955
  
  S  C  12  -0.01293    -0.06113    -0.08226     0.07445    -0.06638    -0.03480
 PX  C  12  -0.01720    -0.04377    -0.03864     0.02912     0.00635    -0.03529
 PY  C  12  -0.01134    -0.06543    -0.02859     0.01100     0.06366    -0.06455
 PZ  C  12  -0.00545     0.00782     0.00120     0.00107    -0.00729     0.00407
  
  S  C  13  -0.02626     0.08310    -0.01382     0.04196    -0.15529     0.08202
 PX  C  13  -0.01768    -0.04396    -0.01700     0.00462     0.03644    -0.02863
 PY  C  13  -0.00748    -0.15190    -0.08476     0.04793     0.06448    -0.10671
 PZ  C  13  -0.01505     0.02377     0.01531    -0.01003    -0.00199     0.01353
  
  S  S  14  -0.03402    -0.06251    -0.04640     0.02886     0.00839    -0.01239
 PX  S  14   0.01740     0.01728     0.03150    -0.03041     0.02893     0.01075
 PY  S  14  -0.00220    -0.06624    -0.02516     0.00433     0.06459    -0.04133
 PZ  S  14  -0.00178     0.01591     0.00843    -0.00376    -0.01337     0.01232
  
  S  N  15  -0.00936     0.32146     0.13751    -0.05657    -0.09005     0.11395
 PX  N  15  -0.03943    -0.01846    -0.01354     0.01001    -0.03900     0.03196
 PY  N  15  -0.00207     0.01237    -0.01327     0.02067    -0.13214     0.10239
 PZ  N  15  -0.05579     0.01049     0.00882    -0.00746     0.03046    -0.02013
  
  S  C  16   0.22665     0.01075     0.01420    -0.01151    -0.01550     0.03144
 PX  C  16  -0.07766     0.13311     0.05964    -0.02769     0.02599    -0.01431
 PY  C  16  -0.04760     0.09989     0.03425    -0.00735    -0.09613     0.09352
 PZ  C  16  -0.07015     0.09874     0.05197    -0.03055     0.11873    -0.10418
  
  S  C  17   0.25705    -0.13110    -0.06213     0.03397    -0.19417     0.19065
 PX  C  17  -0.02004     0.05048     0.02188    -0.00962     0.01594    -0.01573
 PY  C  17  -0.08408     0.07575     0.03016    -0.01158     0.01555    -0.01763
 PZ  C  17   0.05185     0.00142     0.00195    -0.00152     0.00329    -0.00368
  
  S  C  18   0.18978    -0.15867    -0.07348     0.03767    -0.17624     0.17667
 PX  C  18   0.07822    -0.04978    -0.02127     0.00966    -0.02639     0.02395
 PY  C  18   0.02076    -0.00103    -0.00080     0.00095    -0.01906     0.01949
 PZ  C  18   0.09355    -0.07112    -0.03027     0.01336    -0.02096     0.01651
  
  S  C  19   0.08126    -0.10707    -0.04956     0.02450    -0.05636     0.04724
 PX  C  19   0.11948    -0.09201    -0.03823     0.01611    -0.01409     0.00850
 PY  C  19   0.10505    -0.07532    -0.03257     0.01510    -0.06096     0.06303
 PZ  C  19   0.07195    -0.06072    -0.02405     0.00886     0.03783    -0.04801
  
  S  C  20   0.15893    -0.18020    -0.07330     0.02822     0.09177    -0.11787
 PX  C  20   0.04783    -0.03789    -0.01285     0.00287     0.03665    -0.03783
 PY  C  20   0.09821    -0.07254    -0.02902     0.01130    -0.00669     0.00600
 PZ  C  20  -0.02416     0.01401     0.00885    -0.00646     0.05899    -0.06028
  
  S  C  21   0.17322    -0.14403    -0.04296     0.00344     0.21305    -0.21639
 PX  C  21  -0.06144     0.06803     0.03509    -0.01999     0.05163    -0.03747
 PY  C  21   0.02791     0.05123     0.02676    -0.01469    -0.01008     0.02832
 PZ  C  21  -0.11629     0.05018     0.02499    -0.01437     0.08088    -0.07878
  
  S  C  22  -0.15612    -0.14051    -0.04576     0.00689     0.20666    -0.21511
 PX  C  22  -0.08192    -0.01364    -0.00836     0.00573    -0.05563     0.05882
 PY  C  22  -0.01562     0.05841     0.03065    -0.01726     0.00258     0.01870
 PZ  C  22  -0.10465    -0.07597    -0.04193     0.02530    -0.08555     0.06910
  
  S  C  23  -0.22174     0.01270     0.01269    -0.01085    -0.00533     0.02717
 PX  C  23  -0.03110    -0.03058    -0.02124     0.01581    -0.09839     0.09226
 PY  C  23   0.04735     0.11097     0.04347    -0.01462    -0.07300     0.08022
 PZ  C  23  -0.09109    -0.15099    -0.07393     0.03867    -0.08214     0.06371
  
  S  C  24  -0.25214    -0.12763    -0.06376     0.03506    -0.18565     0.18824
 PX  C  24   0.05672     0.02241     0.00930    -0.00370     0.00305    -0.00271
 PY  C  24   0.07632     0.07616     0.03394    -0.01550     0.02493    -0.02093
 PZ  C  24   0.01156    -0.03930    -0.01873     0.00952    -0.02034     0.01660
  
  S  C  25  -0.18379    -0.15450    -0.07657     0.04146    -0.18228     0.17883
 PX  C  25   0.04949     0.04300     0.01976    -0.00942     0.01026    -0.00483
 PY  C  25  -0.03141    -0.00888    -0.00397     0.00194    -0.01807     0.02094
 PZ  C  25   0.10349     0.07233     0.03310    -0.01580     0.03244    -0.02723
  
  S  C  26  -0.07767    -0.10430    -0.05210     0.02803    -0.06744     0.05033
 PX  C  26   0.01090     0.01430     0.00521    -0.00124    -0.04122     0.04964
 PY  C  26  -0.11242    -0.08286    -0.03828     0.01874    -0.06172     0.06062
 PZ  C  26   0.12249     0.09935     0.04382    -0.01950    -0.00247     0.01584
  
  S  C  27  -0.14778    -0.17630    -0.07684     0.03288     0.07862    -0.11466
 PX  C  27  -0.04512    -0.03052    -0.01562     0.00881    -0.04205     0.04062
 PY  C  27  -0.09349    -0.07127    -0.03055     0.01289    -0.00353     0.00007
 PZ  C  27   0.02239     0.02252     0.00586     0.00084    -0.05870     0.05968
  
  S  C  28   0.21985     0.14589     0.06270    -0.02715     0.02835    -0.01900
 PX  C  28   0.00335     0.00555     0.00219    -0.00067    -0.02011     0.02582
 PY  C  28  -0.03366    -0.03207    -0.01587     0.00864    -0.04174     0.04170
 PZ  C  28   0.03675     0.03845     0.01819    -0.00914     0.00973    -0.00131
  
  S  C  29   0.16540     0.11457     0.05133    -0.02415     0.07977    -0.08080
 PX  C  29   0.03880     0.02898     0.01280    -0.00580     0.00598    -0.00292
 PY  C  29   0.04236     0.02616     0.01119    -0.00483     0.00934    -0.00907
 PZ  C  29   0.01795     0.01851     0.00851    -0.00408     0.00029     0.00395
  
  S  C  30   0.15770     0.11427     0.04995    -0.02220     0.01106     0.00321
 PX  C  30   0.01551     0.01144     0.00480    -0.00194    -0.00697     0.00990
 PY  C  30  -0.03913    -0.03042    -0.01394     0.00676    -0.01887     0.01724
 PZ  C  30  -0.04132    -0.02553    -0.01055     0.00421     0.00131    -0.00282
  
  S  C  31   0.15768     0.11431     0.04997    -0.02221     0.01063     0.00380
 PX  C  31  -0.05800    -0.04028    -0.01759     0.00784    -0.01139     0.00893
 PY  C  31   0.00731     0.00223     0.00020     0.00059    -0.01613     0.01791
 PZ  C  31   0.00796     0.00910     0.00444    -0.00234     0.00438    -0.00232
  
  S  C  32  -0.23066     0.14954     0.05993    -0.02405     0.02410    -0.01784
 PX  C  32   0.03585    -0.03564    -0.01589     0.00755    -0.01634     0.01336
 PY  C  32   0.03139    -0.02914    -0.01348     0.00693    -0.03914     0.04165
 PZ  C  32   0.02164    -0.02346    -0.01002     0.00428     0.01379    -0.02055
  
  S  C  33  -0.16565     0.11713     0.04771    -0.01956     0.00530     0.00513
 PX  C  33  -0.04349     0.02655     0.01018    -0.00368    -0.00578     0.00792
 PY  C  33   0.04406    -0.03299    -0.01400     0.00625    -0.01729     0.01679
 PZ  C  33  -0.00021    -0.00195    -0.00090     0.00040     0.00498    -0.00672
  
  S  C  34  -0.17301     0.11758     0.04904    -0.02146     0.07525    -0.07933
 PX  C  34  -0.00259    -0.00315    -0.00162     0.00085     0.00387    -0.00579
 PY  C  34  -0.04715     0.02938     0.01177    -0.00477     0.00889    -0.00852
 PZ  C  34   0.04192    -0.03299    -0.01375     0.00585    -0.00317     0.00003
  
  S  C  35  -0.16567     0.11711     0.04773    -0.01959     0.00576     0.00468
 PX  C  35   0.03228    -0.02544    -0.01080     0.00477    -0.00810     0.00642
 PY  C  35  -0.00652     0.00171     0.00001     0.00060    -0.01563     0.01770
 PZ  C  35  -0.05241     0.03385     0.01356    -0.00544     0.00672    -0.00582
  
  S  C  36   0.00037     0.04455    -0.13089    -0.04433     0.00817    -0.00808
 PX  C  36   0.00164     0.09808    -0.32929    -0.23178     0.10933     0.12753
 PY  C  36  -0.00554    -0.10361     0.17295    -0.10034     0.03701     0.07275
 PZ  C  36  -0.00115    -0.02945     0.06877     0.01026    -0.00653    -0.00256
  
  S  O  37   0.00130     0.13738    -0.47831    -0.33656     0.16604     0.18461
 PX  O  37   0.00002    -0.03364     0.12788     0.10108    -0.04121    -0.04564
 PY  O  37  -0.00147    -0.03758     0.08450     0.00508     0.00096     0.00943
 PZ  O  37  -0.00026    -0.00246    -0.00072    -0.01120     0.00512     0.00711
  
  S  O  38  -0.00896    -0.21192     0.48219     0.05540    -0.08128    -0.06045
 PX  O  38  -0.00226    -0.04104     0.06996    -0.03561    -0.00114     0.00891
 PY  O  38  -0.00031    -0.00408    -0.00925    -0.04708     0.00589     0.01766
 PZ  O  38   0.00022     0.00418    -0.00991    -0.00386     0.00116     0.00199
  
  S  H  39   0.00564     0.07263    -0.09766     0.05639    -0.09285    -0.09858
  
  S  H  40   0.00447     0.01338     0.01636    -0.02000    -0.03726    -0.00184
  
  S  H  41   0.00058    -0.02133     0.03082    -0.04729     0.03711     0.03738
  
  S  H  42  -0.00821    -0.05082    -0.02818     0.01453     0.03619    -0.03706
  
  S  H  43   0.00663    -0.00642    -0.01991     0.02130    -0.04066     0.00645
  
  S  H  44   0.07325    -0.02483    -0.01600     0.01201    -0.08901     0.08419
  
  S  H  45   0.03067    -0.03050    -0.01592     0.00960    -0.07266     0.07601
  
  S  H  46   0.01822    -0.04701    -0.01879     0.00656     0.06312    -0.07660
  
  S  H  47  -0.07434    -0.02388    -0.01477     0.01017    -0.08057     0.08288
  
  S  H  48  -0.03037    -0.02966    -0.01641     0.01023    -0.07352     0.07664
  
  S  H  49  -0.01521    -0.04638    -0.01947     0.00752     0.05940    -0.07576
  
  S  H  50   0.06232     0.04064     0.01825    -0.00867     0.03691    -0.03951
  
  S  H  51   0.06227     0.04062     0.01824    -0.00866     0.03681    -0.03938
  
  S  H  52   0.07498     0.05573     0.02524    -0.01205     0.03550    -0.03397
  
  S  H  53   0.05897     0.04169     0.01815    -0.00803     0.00530    -0.00066
  
  S  H  54   0.07196     0.05480     0.02445    -0.01128     0.01273    -0.00594
  
  S  H  55   0.05707     0.04068     0.01736    -0.00733    -0.00857     0.01567
  
  S  H  56   0.07196     0.05483     0.02446    -0.01128     0.01257    -0.00572
  
  S  H  57   0.05898     0.04175     0.01818    -0.00804     0.00507    -0.00033
  
  S  H  58   0.05700     0.04064     0.01734    -0.00732    -0.00883     0.01600
  
  S  H  59  -0.06191     0.04275     0.01735    -0.00708     0.00323     0.00013
  
  S  H  60  -0.06006     0.04165     0.01656    -0.00640    -0.01071     0.01637
  
  S  H  61  -0.07556     0.05620     0.02336    -0.00995     0.00953    -0.00492
  
  S  H  62  -0.06502     0.04174     0.01741    -0.00771     0.03547    -0.03891
  
  S  H  63  -0.07853     0.05718     0.02411    -0.01069     0.03264    -0.03308
  
  S  H  64  -0.06504     0.04173     0.01742    -0.00772     0.03558    -0.03902
  
  S  H  65  -0.07556     0.05619     0.02336    -0.00996     0.00966    -0.00505
  
  S  H  66  -0.06005     0.04163     0.01656    -0.00642    -0.01050     0.01617
  
  S  H  67  -0.06195     0.04276     0.01737    -0.00711     0.00354    -0.00017
  
  S  H  68  -0.00403    -0.08785     0.18205    -0.01624    -0.02266    -0.00660




    ROOT NO.   13          14          15          16          17          18

           -33.66604   -33.41939   -32.48526   -32.09285   -31.29983   -31.29706
  
  
  S  N   1   0.10366     0.04336    -0.08517    -0.03600    -0.00018     0.00019
 PX  N   1   0.02944     0.01189    -0.01982    -0.00782    -0.00003     0.00003
 PY  N   1  -0.00386    -0.00194     0.00726     0.00362     0.00003    -0.00003
 PZ  N   1  -0.00387    -0.00162     0.00329     0.00142     0.00001    -0.00001
  
  S  C   2  -0.01574    -0.00918     0.03797     0.01880     0.00014    -0.00013
 PX  C   2  -0.12363    -0.05360     0.11953     0.05231     0.00029    -0.00029
 PY  C   2  -0.01223    -0.00618     0.02275     0.01139     0.00010    -0.00009
 PZ  C   2   0.01262     0.00533    -0.01039    -0.00431    -0.00002     0.00002
  
  S  C   3  -0.18109    -0.07962     0.18416     0.08010     0.00046    -0.00044
 PX  C   3  -0.00866    -0.00272    -0.00315    -0.00347    -0.00004     0.00004
 PY  C   3  -0.01938    -0.01127     0.05251     0.02809     0.00024    -0.00022
 PZ  C   3  -0.00237    -0.00166     0.00961     0.00534     0.00005    -0.00004
  
  S  C   4  -0.01995    -0.00206    -0.05024    -0.03267    -0.00029     0.00029
 PX  C   4   0.03374     0.01487    -0.03182    -0.01401    -0.00005     0.00006
 PY  C   4  -0.11961    -0.05515     0.14523     0.06591     0.00040    -0.00038
 PZ  C   4  -0.02710    -0.01243     0.03162     0.01430     0.00008    -0.00008
  
  S  C   5   0.16106     0.07437    -0.19268    -0.08457    -0.00051     0.00046
 PX  C   5   0.05456     0.02689    -0.07227    -0.03559    -0.00013     0.00019
 PY  C   5  -0.05197    -0.01859    -0.00039    -0.00953    -0.00017     0.00017
 PZ  C   5  -0.02596    -0.01125     0.01926     0.00731    -0.00001    -0.00001
  
  S  C   6   0.19834     0.08705    -0.15714    -0.06217    -0.00005     0.00016
 PX  C   6  -0.02025    -0.00647    -0.00608    -0.00751    -0.00006     0.00008
 PY  C   6   0.04525     0.02342    -0.09286    -0.04478    -0.00037     0.00031
 PZ  C   6   0.01697     0.00762    -0.01993    -0.00846    -0.00007     0.00005
  
  S  C   7  -0.02562    -0.01599     0.10894     0.04988     0.00055    -0.00038
 PX  C   7   0.09790     0.04414    -0.09122    -0.03607    -0.00006     0.00010
 PY  C   7   0.08997     0.03760    -0.06456    -0.01965    -0.00004     0.00001
 PZ  C   7  -0.00927    -0.00460     0.01422     0.00614     0.00002    -0.00003
  
  S  C   8  -0.24408    -0.11026     0.22142     0.08987     0.00020    -0.00028
 PX  C   8   0.09077     0.03676    -0.00474     0.00297     0.00033    -0.00018
 PY  C   8   0.10307     0.04076    -0.06615    -0.01341    -0.00008    -0.00004
 PZ  C   8  -0.00160     0.00020    -0.00898    -0.00529    -0.00007     0.00004
  
  S  S   9  -0.03368    -0.01833     0.01851     0.01557    -0.00022    -0.00001
 PX  S   9   0.05460     0.02324    -0.03479    -0.01248    -0.00002     0.00003
 PY  S   9   0.07228     0.03448    -0.07016    -0.03384    -0.00005     0.00014
 PZ  S   9   0.00180     0.00191    -0.00453    -0.00447     0.00001     0.00002
  
  S  C  10  -0.25620    -0.09959     0.09060     0.01093    -0.00021     0.00024
 PX  C  10  -0.07588    -0.03266     0.13886     0.04159     0.00039    -0.00017
 PY  C  10  -0.09960    -0.05346     0.07341     0.05123    -0.00018    -0.00017
 PZ  C  10   0.01018     0.00815    -0.00068    -0.00916     0.00007     0.00001
  
  S  C  11  -0.04878    -0.03049    -0.14687    -0.01336    -0.00085     0.00009
 PX  C  11  -0.10395    -0.03325     0.05826    -0.00801     0.00005     0.00023
 PY  C  11  -0.08783    -0.03625     0.07665     0.02103    -0.00003    -0.00002
 PZ  C  11   0.00258     0.00463    -0.00915    -0.00984     0.00004     0.00003
  
  S  C  12   0.20260     0.05002    -0.15056     0.03768    -0.00020    -0.00048
 PX  C  12   0.01746     0.02336    -0.03250    -0.04247     0.00014     0.00040
 PY  C  12  -0.06516    -0.01755    -0.08687    -0.04273    -0.00052     0.00017
 PZ  C  12   0.00942     0.01486     0.01418    -0.01602     0.00030     0.00003
  
  S  C  13   0.20424     0.11058     0.09738    -0.02722     0.00128     0.00015
 PX  C  13  -0.06778     0.01131     0.00930    -0.08796    -0.00001     0.00033
 PY  C  13   0.01571    -0.00696    -0.16874    -0.01705    -0.00060    -0.00015
 PZ  C  13  -0.03254     0.01904     0.03854    -0.05851     0.00051    -0.00015
  
  S  S  14  -0.03710     0.03269     0.07885    -0.08542     0.00055     0.00032
 PX  S  14  -0.05402    -0.04425     0.01283     0.05372    -0.00028    -0.00020
 PY  S  14  -0.07720    -0.04464    -0.00489     0.02338    -0.00010     0.00005
 PZ  S  14   0.00363     0.01096     0.00421    -0.01410    -0.00001    -0.00010
  
  S  N  15   0.01472     0.02418     0.15177     0.00473     0.00090     0.00067
 PX  N  15   0.00424     0.05763     0.07673    -0.11949     0.00002     0.00022
 PY  N  15   0.13918     0.06965     0.14511     0.01733     0.00124    -0.00040
 PZ  N  15  -0.07502     0.03418     0.00421    -0.16757     0.00101    -0.00083
  
  S  C  16  -0.02216    -0.08842    -0.07197     0.23876    -0.00202     0.00027
 PX  C  16  -0.00389    -0.01142     0.00763     0.00540    -0.00009     0.00287
 PY  C  16   0.07022    -0.04243     0.07520     0.08311     0.00003    -0.00120
 PZ  C  16  -0.05345     0.03209    -0.05570    -0.07054     0.00163    -0.00160
  
  S  C  17   0.04141    -0.20311    -0.00492     0.21864    -0.00327     0.00017
 PX  C  17   0.02105     0.02541     0.00456     0.08034    -0.00113     0.00653
 PY  C  17   0.03444     0.00753     0.00554     0.04248     0.00044    -0.00410
 PZ  C  17   0.00755     0.03254     0.00046     0.07972     0.00013    -0.00440
  
  S  C  18  -0.02682    -0.21498    -0.00961    -0.12699     0.00029     0.00010
 PX  C  18   0.00980    -0.00020     0.00841     0.09206    -0.00469     0.02915
 PY  C  18   0.01920    -0.05142    -0.01594     0.12357     0.00041    -0.01938
 PZ  C  18  -0.00218     0.04949     0.02715     0.01574     0.00198    -0.02024
  
  S  C  19  -0.01619     0.11416     0.10896    -0.22254     0.00255     0.00016
 PX  C  19  -0.00136     0.04658     0.02013     0.00227    -0.00813     0.07013
 PY  C  19  -0.02235    -0.12140    -0.04519    -0.04545     0.00537    -0.04675
 PZ  C  19   0.02013     0.18344     0.07187     0.04785     0.00511    -0.04870
  
  S  C  20   0.04281     0.35535     0.13820    -0.08657     0.00170    -0.00011
 PX  C  20  -0.00045    -0.02876    -0.05578     0.01609    -0.00229     0.01821
 PY  C  20  -0.02365    -0.01540    -0.03379    -0.02294     0.00168    -0.01242
 PZ  C  20   0.02290    -0.02590    -0.04813     0.04551     0.00134    -0.01304
  
  S  C  21  -0.02348     0.10374    -0.11537     0.00777     0.00057    -0.00048
 PX  C  21  -0.03226    -0.10541    -0.08444     0.02141    -0.00171     0.00469
 PY  C  21  -0.06817    -0.09616    -0.07541     0.05481    -0.00006    -0.00282
 PZ  C  21   0.02293    -0.05925    -0.04839    -0.02021     0.00128    -0.00303
  
  S  C  22   0.07490    -0.10406    -0.10285    -0.02830     0.00025    -0.00017
 PX  C  22  -0.02291    -0.02962     0.01598    -0.02659    -0.00513     0.00026
 PY  C  22  -0.13224     0.00768    -0.06956    -0.05899     0.00273    -0.00041
 PZ  C  22   0.09635    -0.04859     0.09083     0.01937     0.00298    -0.00006
  
  S  C  23  -0.13290     0.01695     0.00931    -0.23761    -0.00020    -0.00079
 PX  C  23  -0.01209     0.06600     0.07828    -0.06215    -0.00275    -0.00029
 PY  C  23  -0.02407     0.07341     0.09724    -0.06219     0.00219    -0.00008
 PZ  C  23   0.01766     0.02994     0.02565    -0.02350     0.00096    -0.00051
  
  S  C  24  -0.16691     0.15557     0.05429    -0.20605    -0.00115    -0.00128
 PX  C  24  -0.00414     0.01875    -0.01096     0.03398    -0.00645    -0.00057
 PY  C  24   0.00730     0.00928     0.03173    -0.04793     0.00456     0.00037
 PZ  C  24  -0.01067     0.01928    -0.04629     0.09898     0.00410     0.00064
  
  S  C  25  -0.14308     0.14038    -0.07711     0.12133    -0.00024     0.00017
 PX  C  25  -0.03759     0.03164    -0.01411    -0.03119    -0.02973    -0.00350
 PY  C  25  -0.04427     0.03709     0.02707    -0.12385     0.01815     0.00132
 PZ  C  25  -0.01257     0.01140    -0.04636     0.07256     0.02065     0.00267
  
  S  C  26   0.11409    -0.05851     0.03744     0.22818     0.00087     0.00130
 PX  C  26  -0.11705     0.08546    -0.08626     0.03301    -0.07104    -0.00790
 PY  C  26  -0.07508     0.05714    -0.06444     0.03440     0.04544     0.00502
 PZ  C  26  -0.10079     0.07191    -0.06608     0.01759     0.04876     0.00548
  
  S  C  27   0.31191    -0.18475     0.13109     0.09865     0.00036     0.00068
 PX  C  27   0.00173    -0.01730     0.00681     0.03791    -0.01871    -0.00169
 PY  C  27  -0.01724    -0.00446    -0.05021     0.01092     0.01207     0.00119
 PZ  C  27   0.01988    -0.02061     0.05780     0.04640     0.01276     0.00166
  
  S  C  28  -0.01730     0.00173    -0.00450    -0.00643     0.00028     0.00009
 PX  C  28  -0.09847     0.07215    -0.11043     0.05468    -0.23179    -0.02587
 PY  C  28  -0.05177     0.05155    -0.09085     0.15477     0.14999     0.01750
 PZ  C  28  -0.09567     0.05757    -0.07675    -0.06334     0.15721     0.01718
  
  S  C  29   0.16246    -0.13942     0.24365    -0.25533    -0.00548    -0.00159
 PX  C  29  -0.02098     0.01015    -0.01744    -0.00975    -0.08739    -0.00985
 PY  C  29   0.01734    -0.01210     0.00930     0.01527     0.05565     0.00638
 PZ  C  29  -0.04659     0.02596    -0.03379    -0.02849     0.05880     0.00639
  
  S  C  30  -0.13855     0.08849    -0.13700    -0.00076     0.49773     0.05568
 PX  C  30  -0.04207     0.03088    -0.04619     0.02393    -0.06751    -0.00751
 PY  C  30  -0.01036     0.01530    -0.02606     0.05913     0.02344     0.00289
 PZ  C  30   0.00015    -0.00059    -0.00102    -0.02432     0.00366     0.00027
  
  S  C  31  -0.14153     0.09034    -0.14011    -0.00222    -0.49327    -0.05550
 PX  C  31  -0.00348     0.00752    -0.01484     0.02092    -0.02346    -0.00258
 PY  C  31  -0.03473     0.03009    -0.04583     0.06124     0.03646     0.00436
 PZ  C  31  -0.02509     0.01473    -0.02157    -0.02206     0.05820     0.00637
  
  S  C  32  -0.00209    -0.01147    -0.00906     0.00585     0.00012     0.00014
 PX  C  32  -0.00241     0.04348     0.04635    -0.08803    -0.02464     0.22940
 PY  C  32  -0.02365    -0.10447    -0.03785    -0.16512     0.01921    -0.15214
 PZ  C  32   0.01975     0.16279     0.10268     0.03262     0.01730    -0.15863
  
  S  C  33  -0.01982    -0.17734    -0.12245    -0.01949     0.05601    -0.49466
 PX  C  33  -0.00587    -0.02621    -0.00570    -0.03853    -0.00290     0.03040
 PY  C  33  -0.00653    -0.02552    -0.00432    -0.06174     0.00306    -0.02045
 PZ  C  33   0.00596     0.04993     0.03190     0.01423     0.00678    -0.06231
  
  S  C  34   0.04815     0.25165     0.12544     0.29287    -0.00374    -0.00200
 PX  C  34   0.00466     0.04163     0.02795    -0.01979    -0.00933     0.08602
 PY  C  34   0.00144     0.01592     0.00693    -0.01190     0.00673    -0.05729
 PZ  C  34   0.00542     0.04426     0.03327    -0.01700     0.00683    -0.05930
  
  S  C  35  -0.02030    -0.17541    -0.12071    -0.02018    -0.05514     0.49642
 PX  C  35  -0.00011     0.01951     0.02039    -0.03115    -0.00640     0.06019
 PY  C  35  -0.01046    -0.05587    -0.02165    -0.06661     0.00526    -0.03929
 PZ  C  35   0.00189     0.01884     0.01421     0.00906    -0.00008    -0.00035
  
  S  C  36  -0.05475    -0.02579     0.07560     0.03609     0.00025    -0.00024
 PX  C  36   0.06845     0.02996    -0.07143    -0.03184    -0.00021     0.00019
 PY  C  36   0.09327     0.04185    -0.10461    -0.04685    -0.00030     0.00028
 PZ  C  36   0.00782     0.00359    -0.00936    -0.00421    -0.00003     0.00002
  
  S  O  37   0.06717     0.02800    -0.05498    -0.02229    -0.00012     0.00011
 PX  O  37  -0.01375    -0.00552     0.00900     0.00324     0.00001    -0.00001
 PY  O  37   0.02191     0.00997    -0.02601    -0.01178    -0.00008     0.00007
 PZ  O  37   0.00540     0.00236    -0.00552    -0.00239    -0.00001     0.00001
  
  S  O  38   0.03266     0.01591    -0.04902    -0.02355    -0.00016     0.00016
 PX  O  38   0.02289     0.01038    -0.02679    -0.01212    -0.00008     0.00007
 PY  O  38   0.04256     0.02006    -0.06048    -0.02941    -0.00022     0.00021
 PZ  O  38   0.00457     0.00220    -0.00717    -0.00359    -0.00003     0.00003
  
  S  H  39   0.00642     0.00594    -0.03730    -0.02135    -0.00015     0.00016
  
  S  H  40   0.08608     0.03920    -0.08197    -0.03550    -0.00006     0.00013
  
  S  H  41  -0.03036    -0.01428     0.06055     0.02405     0.00028    -0.00016
  
  S  H  42  -0.03850    -0.02399    -0.05031     0.00677    -0.00046    -0.00003
  
  S  H  43   0.09342     0.00805    -0.05461     0.05026    -0.00021    -0.00065
  
  S  H  44   0.04328    -0.09858    -0.00095     0.11894    -0.00159     0.00024
  
  S  H  45  -0.01321    -0.14630    -0.02956    -0.07843     0.00042     0.00023
  
  S  H  46   0.04528     0.18570     0.08568    -0.00875     0.00051     0.00015
  
  S  H  47  -0.07795     0.08815     0.03941    -0.11229    -0.00032    -0.00061
  
  S  H  48  -0.10000     0.09288    -0.06937     0.07076     0.00024     0.00016
  
  S  H  49   0.16745    -0.08225     0.09549     0.01892     0.00008     0.00021
  
  S  H  50   0.09565    -0.07561     0.12911    -0.11195     0.05911     0.00622
  
  S  H  51   0.09524    -0.07540     0.12870    -0.11205    -0.06423    -0.00760
  
  S  H  52   0.04776    -0.04883     0.09444    -0.14094    -0.00290    -0.00094
  
  S  H  53  -0.04199     0.02637    -0.04246    -0.00062     0.27970     0.03133
  
  S  H  54  -0.06282     0.03653    -0.05591    -0.03553     0.22457     0.02494
  
  S  H  55  -0.09058     0.06451    -0.09772     0.03577     0.22018     0.02475
  
  S  H  56  -0.06405     0.03731    -0.05728    -0.03614    -0.22302    -0.02528
  
  S  H  57  -0.04371     0.02740    -0.04419    -0.00158    -0.27820    -0.03126
  
  S  H  58  -0.09191     0.06538    -0.09911     0.03527    -0.21693    -0.02429
  
  S  H  59  -0.00597    -0.05423    -0.03895    -0.00552     0.03144    -0.27869
  
  S  H  60  -0.01568    -0.12275    -0.07370    -0.05028     0.02519    -0.21787
  
  S  H  61  -0.00598    -0.07582    -0.06162     0.02713     0.02486    -0.22357
  
  S  H  62   0.02585     0.13987     0.07400     0.13172     0.00523    -0.06260
  
  S  H  63   0.01910     0.08450     0.03556     0.15586    -0.00203    -0.00112
  
  S  H  64   0.02582     0.14016     0.07424     0.13166    -0.00863     0.06078
  
  S  H  65  -0.00617    -0.07515    -0.06094     0.02674    -0.02534     0.22409
  
  S  H  66  -0.01593    -0.12186    -0.07290    -0.05060    -0.02383     0.21923
  
  S  H  67  -0.00624    -0.05304    -0.03793    -0.00582    -0.03114     0.27929
  
  S  H  68   0.03944     0.01859    -0.05473    -0.02621    -0.00019     0.00018




    ROOT NO.   19          20          21          22          23          24

           -31.02364   -30.23956   -29.29172   -29.21788   -28.93261   -27.44257
  
  
  S  N   1   0.03495    -0.06938    -0.00686     0.05546    -0.02862    -0.06984
 PX  N   1   0.00550    -0.00760    -0.00099     0.00693    -0.00511    -0.00294
 PY  N   1  -0.00695     0.02221    -0.00025    -0.00375    -0.01190    -0.00012
 PZ  N   1  -0.00167     0.00417     0.00011    -0.00156    -0.00091     0.00093
  
  S  C   2  -0.02845     0.07186     0.00396    -0.03944     0.00652     0.05812
 PX  C   2  -0.05781     0.12531     0.00919    -0.08067     0.02860     0.09983
 PY  C   2  -0.02113     0.06634    -0.00015    -0.01495    -0.03074     0.00637
 PZ  C   2   0.00338    -0.00420    -0.00098     0.00633    -0.00719    -0.00892
  
  S  C   3  -0.09087     0.20052     0.00683    -0.07577    -0.00884     0.04880
 PX  C   3   0.00865    -0.02533    -0.00619     0.04754    -0.03471    -0.09812
 PY  C   3  -0.05307     0.16444     0.00480    -0.07148    -0.04002     0.07481
 PZ  C   3  -0.01010     0.03039     0.00183    -0.01935    -0.00011     0.02734
  
  S  C   4   0.06424    -0.18553    -0.01648     0.15010    -0.03953    -0.19037
 PX  C   4   0.00761     0.00762    -0.00878     0.05061    -0.07602    -0.08678
 PY  C   4  -0.07877     0.17444     0.00594    -0.06399    -0.00777     0.00485
 PZ  C   4  -0.01499     0.02721     0.00292    -0.02152     0.01570     0.01769
  
  S  C   5   0.09845    -0.21490     0.00247     0.01218     0.07202     0.08440
 PX  C   5   0.02280    -0.00010    -0.02273     0.13866    -0.16835    -0.15882
 PY  C   5   0.04161    -0.14831    -0.01045     0.10711    -0.00376    -0.12604
 PZ  C   5   0.00372    -0.03658     0.00405    -0.01388     0.04885     0.01751
  
  S  C   6  -0.00604     0.17233    -0.02217     0.08353    -0.24042    -0.05405
 PX  C   6   0.01268    -0.01889    -0.01309     0.08619    -0.09139    -0.11365
 PY  C   6   0.07605    -0.19559     0.00083     0.02459     0.04941     0.01106
 PZ  C   6   0.01387    -0.04065     0.00386    -0.01784     0.03925     0.03764
  
  S  C   7  -0.11127     0.29199    -0.02070     0.09832    -0.17305    -0.13842
 PX  C   7   0.00253     0.09126    -0.00902     0.02130    -0.12264    -0.00846
 PY  C   7  -0.00041     0.05835     0.01063    -0.09755     0.01766     0.11184
 PZ  C   7  -0.00235    -0.01337     0.00418    -0.02073     0.04109     0.03301
  
  S  C   8  -0.02135    -0.10713     0.01071    -0.02079     0.12454    -0.09773
 PX  C   8  -0.07008     0.20398    -0.00707     0.01986    -0.04668     0.04671
 PY  C   8   0.00481     0.02810     0.02760    -0.20120     0.12724     0.17526
 PZ  C   8   0.01542    -0.04875     0.00502    -0.02484     0.04325     0.04191
  
  S  S   9   0.04680    -0.20324     0.04380    -0.24651     0.32443     0.23148
 PX  S   9   0.00352    -0.01238     0.00955    -0.05852     0.08607     0.13141
 PY  S   9   0.00935     0.00864    -0.01133     0.07230    -0.04596     0.02538
 PZ  S   9  -0.00166     0.00987    -0.00675     0.04357    -0.03813    -0.02960
  
  S  C  10   0.05869    -0.19865    -0.01907     0.15620    -0.06502    -0.07028
 PX  C  10  -0.05302    -0.02110    -0.01537     0.14692     0.03776    -0.07215
 PY  C  10   0.03164    -0.11368     0.02469    -0.14352     0.07556    -0.16713
 PZ  C  10  -0.00698     0.00377    -0.00377     0.03007     0.00865     0.04481
  
  S  C  11   0.11943    -0.03920     0.03113    -0.26867    -0.08423    -0.09650
 PX  C  11   0.01318    -0.11666    -0.01631     0.13507    -0.01518     0.03611
 PY  C  11   0.01885    -0.11225     0.00562    -0.02608     0.02939    -0.09233
 PZ  C  11  -0.00110     0.00318    -0.00215     0.01646    -0.00342     0.03299
  
  S  C  12  -0.01049     0.18701     0.03693    -0.24897     0.04466    -0.10765
 PX  C  12  -0.01286     0.01253    -0.01044     0.07826    -0.03267     0.12716
 PY  C  12   0.07784    -0.00572     0.00377    -0.10524    -0.09529     0.02602
 PZ  C  12  -0.02289     0.00127    -0.00191     0.02928     0.01193     0.02910
  
  S  C  13  -0.16712     0.05534    -0.01305     0.12088     0.14648     0.07226
 PX  C  13   0.01181    -0.02738    -0.03629     0.16139    -0.05063     0.19932
 PY  C  13   0.06362     0.12074     0.00199    -0.02174    -0.07402     0.10554
 PZ  C  13  -0.00811    -0.02629    -0.01526     0.02250     0.00093     0.04739
  
  S  S  14  -0.06270    -0.00862    -0.05718     0.38967    -0.03657     0.24691
 PX  S  14   0.03231    -0.02441     0.01719    -0.08058    -0.01307    -0.14735
 PY  S  14   0.02347    -0.02547    -0.00896     0.08121    -0.07396    -0.03370
 PZ  S  14   0.00675     0.00036     0.00599    -0.02900     0.02099     0.00476
  
  S  N  15  -0.11428    -0.14008     0.00116    -0.02992    -0.02742    -0.05173
 PX  N  15  -0.03361    -0.00443    -0.05903     0.07388     0.06169     0.10544
 PY  N  15  -0.11466     0.00228     0.00050     0.07597     0.19980    -0.08624
 PZ  N  15   0.01551    -0.00050    -0.07501    -0.01096    -0.04731     0.15024
  
  S  C  16   0.13408     0.00366     0.15427     0.02337    -0.04934    -0.06570
 PX  C  16  -0.05665    -0.05291    -0.01241    -0.06240    -0.05849    -0.05845
 PY  C  16  -0.01438    -0.03539    -0.05831    -0.04299     0.03943    -0.15114
 PZ  C  16  -0.08055    -0.02960     0.03803    -0.06542    -0.09734     0.03438
  
  S  C  17   0.23866     0.05654    -0.12893     0.08120     0.07852    -0.01235
 PX  C  17   0.00362    -0.00126     0.08602    -0.00016     0.02052    -0.09615
 PY  C  17  -0.01581     0.00693    -0.00108    -0.02600     0.03530    -0.09328
 PZ  C  17   0.01642    -0.00024     0.12890     0.01192     0.00580    -0.06600
  
  S  C  18   0.00625    -0.02239    -0.25838    -0.03880    -0.06740     0.12014
 PX  C  18   0.10888     0.03113    -0.00452     0.06202     0.04066     0.03537
 PY  C  18   0.13396     0.05046    -0.04671     0.07612     0.06853     0.03822
 PZ  C  18   0.02832    -0.00158     0.03924     0.01408    -0.00449     0.01067
  
  S  C  19  -0.18474    -0.11252    -0.09497    -0.17972    -0.14991    -0.07413
 PX  C  19   0.02158     0.01247     0.04170     0.04582     0.03357     0.04760
 PY  C  19   0.00704     0.01556    -0.02409     0.03682     0.00569     0.09175
 PZ  C  19   0.02449     0.00354     0.08383     0.03060     0.04394    -0.02013
  
  S  C  20  -0.14775    -0.02011     0.14052     0.00763     0.10299    -0.09273
 PX  C  20   0.00179     0.04929     0.08539     0.08619     0.08516     0.04306
 PY  C  20  -0.00258     0.01807     0.07637     0.04037     0.00999     0.05663
 PZ  C  20   0.00441     0.05487     0.05144     0.08543     0.11545     0.00645
  
  S  C  21  -0.03998     0.08202     0.19368     0.10398     0.09471     0.05586
 PX  C  21   0.03800     0.00632    -0.07129    -0.03531    -0.07685     0.02801
 PY  C  21   0.09411    -0.01281     0.00979    -0.04218    -0.14465     0.05701
 PZ  C  21  -0.03753     0.02431    -0.11211    -0.01445     0.03365    -0.02153
  
  S  C  22  -0.03936     0.08760    -0.20198     0.02329     0.11860    -0.03574
 PX  C  22   0.05361    -0.01055    -0.07217    -0.04658    -0.05765     0.00000
 PY  C  22   0.09046     0.00596     0.01006    -0.06731    -0.14159     0.07551
 PZ  C  22  -0.01077    -0.01844    -0.11255    -0.00525     0.05809    -0.07975
  
  S  C  23   0.12808     0.04009    -0.15395    -0.04803    -0.03823     0.08316
 PX  C  23   0.04485     0.01605     0.03632     0.03686     0.06516    -0.00784
 PY  C  23  -0.02262    -0.05125     0.05960     0.02155     0.00159     0.04825
 PZ  C  23   0.08105     0.07982     0.00187     0.02565     0.11274    -0.08408
  
  S  C  24   0.22640     0.11809     0.12049     0.02484     0.09428    -0.05086
 PX  C  24  -0.01525    -0.00424     0.08049     0.01814     0.00038    -0.00582
 PY  C  24  -0.01431    -0.00811    -0.01148     0.02794     0.01980     0.04976
 PZ  C  24  -0.01023     0.00290     0.13267    -0.00254    -0.01467    -0.06426
  
  S  C  25   0.00617    -0.01252     0.26124    -0.01077    -0.07204    -0.02852
 PX  C  25   0.02234     0.02541     0.03726     0.01344     0.02529    -0.01081
 PY  C  25   0.13484     0.09228     0.03715     0.01611     0.09048    -0.08016
 PZ  C  25  -0.09493    -0.04981     0.02043     0.00405    -0.04766     0.05819
  
  S  C  26  -0.17424    -0.17778     0.10981    -0.02590    -0.19492     0.13334
 PX  C  26  -0.01329     0.00723     0.06064    -0.00539    -0.02693     0.01451
 PY  C  26   0.00982     0.03125     0.01249    -0.00630     0.02656    -0.06750
 PZ  C  26  -0.02787    -0.01882     0.07797    -0.00210    -0.06433     0.08439
  
  S  C  27  -0.14126    -0.06314    -0.14231     0.04176     0.09606    -0.05305
 PX  C  27  -0.00176    -0.03640     0.01224    -0.02737    -0.07420     0.02829
 PY  C  27  -0.00192     0.03376    -0.08808    -0.00647     0.04145    -0.04619
 PZ  C  27  -0.00157    -0.08500     0.10218    -0.03420    -0.14626     0.08324
  
  S  C  28  -0.01322    -0.02679     0.02011    -0.00746    -0.06048     0.08414
 PX  C  28  -0.07621     0.01015    -0.08267     0.01300     0.05117    -0.02009
 PY  C  28  -0.15746    -0.08176    -0.00168     0.00333    -0.06143     0.07810
 PZ  C  28   0.04215     0.09292    -0.12065     0.01628     0.13370    -0.10347
  
  S  C  29   0.29791     0.07472     0.19169    -0.03163    -0.04836    -0.03617
 PX  C  29  -0.00174     0.00931    -0.03159     0.00150     0.01375     0.00160
 PY  C  29  -0.02784    -0.02733    -0.00755     0.00064    -0.02512     0.04498
 PZ  C  29   0.02633     0.03983    -0.03947     0.00170     0.04402    -0.03997
  
  S  C  30  -0.04228     0.06105    -0.17971     0.02429     0.13278    -0.07333
 PX  C  30  -0.03310     0.00154    -0.02696     0.00516     0.01515    -0.00107
 PY  C  30  -0.05621    -0.03118     0.00970     0.00199    -0.02180     0.02163
 PZ  C  30   0.02135     0.03315    -0.05123     0.00770     0.06291    -0.06406
  
  S  C  31  -0.05397     0.05982    -0.18169     0.02432     0.13403    -0.07389
 PX  C  31  -0.02102     0.00242    -0.02845     0.00655     0.02963    -0.03169
 PY  C  31  -0.06348    -0.03177     0.01093     0.00116    -0.03111     0.04112
 PZ  C  31   0.01401     0.03256    -0.05023     0.00678     0.05333    -0.04371
  
  S  C  32  -0.01415    -0.01668    -0.01619    -0.04852    -0.04628    -0.05121
 PX  C  32  -0.08164    -0.05337    -0.06777    -0.09846    -0.07738    -0.05643
 PY  C  32  -0.16481    -0.03539     0.02000    -0.06298    -0.02683    -0.06255
 PZ  C  32   0.03994    -0.04450    -0.11742    -0.08140    -0.08673    -0.02116
  
  S  C  33  -0.04973     0.05161     0.17283     0.09762     0.11193    -0.00462
 PX  C  33  -0.03816    -0.01894    -0.03265    -0.04450    -0.03962    -0.02544
 PY  C  33  -0.05814    -0.01437    -0.00263    -0.02332    -0.00815    -0.01809
 PZ  C  33   0.01714    -0.01501    -0.04354    -0.02968    -0.03433    -0.00691
  
  S  C  34   0.31039     0.01690    -0.19212     0.01671    -0.06357     0.12065
 PX  C  34  -0.02688    -0.02091    -0.01946    -0.03914    -0.02422    -0.04027
 PY  C  34  -0.02755    -0.01252     0.01418    -0.02601    -0.01185    -0.05023
 PZ  C  34  -0.01268    -0.01871    -0.04181    -0.03134    -0.02392    -0.00956
  
  S  C  35  -0.04780     0.05386     0.17215     0.09661     0.11264    -0.00489
 PX  C  35  -0.02623    -0.01976    -0.03176    -0.03567    -0.02861    -0.01640
 PY  C  35  -0.06599    -0.01395    -0.00315    -0.02898    -0.01563    -0.02389
 PZ  C  35   0.00906    -0.01444    -0.04414    -0.03569    -0.04199    -0.01305
  
  S  C  36  -0.05327     0.14554     0.00495    -0.06405    -0.02386     0.06169
 PX  C  36   0.04224    -0.11059    -0.00240     0.03866     0.02538    -0.03372
 PY  C  36   0.05944    -0.14563    -0.00272     0.04403     0.03066    -0.00951
 PZ  C  36   0.00515    -0.01193    -0.00012     0.00258     0.00285     0.00314
  
  S  O  37   0.02402    -0.05564     0.00163    -0.00140     0.02960     0.02823
 PX  O  37  -0.00228     0.00299    -0.00049     0.00338    -0.00281    -0.00563
 PY  O  37   0.01575    -0.04047    -0.00009     0.00823     0.01445     0.00788
 PZ  O  37   0.00296    -0.00731     0.00007     0.00087     0.00300     0.00230
  
  S  O  38   0.03355    -0.08761    -0.00438     0.04691     0.00204    -0.05579
 PX  O  38   0.01581    -0.03938    -0.00079     0.01239     0.00806    -0.00391
 PY  O  38   0.04650    -0.13452    -0.00543     0.06772     0.02015    -0.09031
 PZ  O  38   0.00609    -0.01840    -0.00082     0.01003     0.00265    -0.01480
  
  S  H  39   0.03129    -0.07334    -0.01336     0.10149    -0.06987    -0.14742
  
  S  H  40   0.00591     0.06979    -0.01872     0.09310    -0.17295    -0.09830
  
  S  H  41  -0.05421     0.14112    -0.01882     0.10842    -0.13266    -0.13164
  
  S  H  42   0.06511    -0.04394     0.02323    -0.18707    -0.02039    -0.10707
  
  S  H  43   0.00488     0.08737     0.02270    -0.16447     0.04559    -0.13419
  
  S  H  44   0.10362     0.03586    -0.08538     0.01804     0.06172    -0.05488
  
  S  H  45  -0.02349    -0.00764    -0.14245    -0.02546    -0.02449     0.05060
  
  S  H  46  -0.05915    -0.00916     0.02350    -0.00082     0.06891    -0.07507
  
  S  H  47   0.09637     0.05303     0.08171     0.03948     0.05825     0.00195
  
  S  H  48  -0.02291    -0.00748     0.14406     0.00459    -0.03139    -0.00338
  
  S  H  49  -0.05727    -0.02826    -0.02463     0.03407     0.05995    -0.02098
  
  S  H  50   0.13600     0.02481     0.10740    -0.01484    -0.03320    -0.01209
  
  S  H  51   0.13452     0.02453     0.10727    -0.01490    -0.03336    -0.01188
  
  S  H  52   0.16321     0.06651     0.06803    -0.01355     0.01295    -0.05754
  
  S  H  53  -0.01354     0.01978    -0.06534     0.00867     0.04710    -0.02758
  
  S  H  54   0.01344     0.05831    -0.11324     0.01434     0.10310    -0.07719
  
  S  H  55  -0.05684     0.01935    -0.09145     0.01570     0.06600    -0.03459
  
  S  H  56   0.00804     0.05775    -0.11436     0.01436     0.10384    -0.07759
  
  S  H  57  -0.01995     0.01916    -0.06646     0.00867     0.04781    -0.02791
  
  S  H  58  -0.06210     0.01871    -0.09210     0.01574     0.06644    -0.03475
  
  S  H  59  -0.01760     0.01676     0.06326     0.03366     0.04002    -0.00477
  
  S  H  60  -0.06171     0.02159     0.08825     0.04212     0.05840    -0.00715
  
  S  H  61   0.01180     0.04223     0.10715     0.08319     0.08267     0.02058
  
  S  H  62   0.14069     0.00061    -0.10666    -0.00375    -0.03731     0.05247
  
  S  H  63   0.17046     0.02747    -0.07114     0.04519    -0.00530     0.09494
  
  S  H  64   0.14091     0.00091    -0.10666    -0.00376    -0.03708     0.05242
  
  S  H  65   0.01257     0.04333     0.10687     0.08264     0.08310     0.02033
  
  S  H  66  -0.06083     0.02252     0.08788     0.04167     0.05858    -0.00719
  
  S  H  67  -0.01641     0.01803     0.06289     0.03317     0.04043    -0.00486
  
  S  H  68   0.03921    -0.10865    -0.00439     0.05333     0.01377    -0.06557




    ROOT NO.   25          26          27          28          29          30

           -26.86763   -25.93989   -25.71773   -24.32999   -23.93370   -23.80867
  
  
  S  N   1   0.01726     0.02174     0.01414     0.13704    -0.00294     0.10171
 PX  N   1   0.00140    -0.00250    -0.00036    -0.01874     0.00141    -0.01860
 PY  N   1   0.02179    -0.03340     0.01149     0.04273     0.01332     0.01255
 PZ  N   1   0.00280    -0.00499     0.00166     0.00835     0.00214     0.00390
  
  S  C   2  -0.00821    -0.02420    -0.01411    -0.17325    -0.00173    -0.13067
 PX  C   2  -0.01774    -0.03479    -0.01989    -0.20959    -0.00015    -0.15250
 PY  C   2   0.05748    -0.09062     0.02895     0.09782     0.03293     0.02563
 PZ  C   2   0.01014    -0.01052     0.00649     0.03895     0.00575     0.02146
  
  S  C   3   0.01156    -0.00387    -0.00656    -0.06854    -0.03833    -0.01057
 PX  C   3   0.02741     0.05123     0.02214     0.26052    -0.02824     0.22296
 PY  C   3   0.11634    -0.23166     0.05841     0.17806     0.08011     0.03559
 PZ  C   3   0.01367    -0.04389     0.00606    -0.00352     0.01719    -0.02103
  
  S  C   4  -0.03189     0.16361    -0.00514     0.11357    -0.02121     0.09375
 PX  C   4   0.09232    -0.07471     0.05090     0.24956     0.02668     0.12726
 PY  C   4   0.00289     0.07712    -0.00941     0.02945    -0.09711     0.12753
 PZ  C   4  -0.01926     0.02994    -0.01138    -0.03090    -0.02078     0.00733
  
  S  C   5  -0.03461    -0.09058    -0.00215    -0.01831     0.07964    -0.06654
 PX  C   5   0.12764    -0.09246     0.05448     0.11707     0.03870    -0.00912
 PY  C   5  -0.06243     0.14464    -0.02358    -0.06201     0.00525    -0.06152
 PZ  C   5  -0.05257     0.05711    -0.02016    -0.03280    -0.00467    -0.00361
  
  S  C   6   0.19263    -0.19118     0.05359    -0.04992    -0.02658    -0.05608
 PX  C   6   0.07127    -0.02717     0.02659    -0.01766    -0.01054    -0.05586
 PY  C   6   0.02944    -0.14217     0.03854     0.13690     0.09768    -0.01798
 PZ  C   6  -0.01737    -0.02588     0.00083     0.04452     0.03021     0.01602
  
  S  C   7  -0.05164     0.23713    -0.05119    -0.12447    -0.05418    -0.01072
 PX  C   7   0.10191    -0.06841     0.01321    -0.13718    -0.07085    -0.04530
 PY  C   7   0.06387    -0.11810     0.01920     0.01148    -0.03600     0.04584
 PZ  C   7  -0.02705    -0.00709    -0.00192     0.05162     0.02288     0.02705
  
  S  C   8  -0.04592     0.08241     0.01483     0.16608     0.03527     0.03366
 PX  C   8  -0.12412     0.15430    -0.06214    -0.03627     0.01149     0.04650
 PY  C   8   0.01957    -0.05339     0.00308     0.02531    -0.06096     0.08970
 PZ  C   8   0.00636    -0.05743     0.01165     0.03521     0.00757     0.01265
  
  S  S   9  -0.08796    -0.02740    -0.01479    -0.00786    -0.03032     0.03410
 PX  S   9  -0.08677     0.00398    -0.03219    -0.03583     0.02580     0.00595
 PY  S   9  -0.07608     0.05607    -0.04528    -0.17222     0.01612    -0.08592
 PZ  S   9  -0.00197     0.00998    -0.00233    -0.01404     0.00673    -0.01603
  
  S  C  10   0.05127    -0.13913     0.02641    -0.02799     0.03242    -0.06753
 PX  C  10  -0.14298     0.08173    -0.01111     0.13104     0.10732    -0.01580
 PY  C  10   0.15491     0.01963     0.06069     0.06073    -0.05019    -0.02410
 PZ  C  10  -0.03684    -0.01791    -0.00617     0.02323     0.02122     0.01623
  
  S  C  11   0.27248     0.01037     0.02439    -0.16799    -0.10310    -0.01113
 PX  C  11   0.01996    -0.17106     0.02480    -0.03092    -0.02573    -0.03625
 PY  C  11   0.14970    -0.05135     0.05371    -0.04339    -0.06996    -0.03710
 PZ  C  11  -0.02141    -0.01472    -0.00598     0.01480     0.00613     0.00997
  
  S  C  12  -0.09412     0.22342    -0.02996     0.15516     0.08362     0.02237
 PX  C  12  -0.03859    -0.08320    -0.01463    -0.04406    -0.05947     0.01842
 PY  C  12   0.13364     0.03905    -0.01758    -0.13036    -0.02377     0.02822
 PZ  C  12  -0.01975    -0.00091     0.00057     0.03614    -0.01910     0.00516
  
  S  C  13  -0.07798    -0.00102     0.03696     0.11929    -0.09971    -0.01624
 PX  C  13   0.02947    -0.07787    -0.01319    -0.10207    -0.02846     0.04369
 PY  C  13  -0.17231     0.03748    -0.07138     0.05917     0.11148     0.06595
 PZ  C  13   0.08483     0.03704     0.01048    -0.00704    -0.02346     0.00769
  
  S  S  14  -0.16344    -0.11197    -0.03008    -0.04533     0.06129     0.04386
 PX  S  14   0.02301     0.05247     0.00412     0.00444     0.04792    -0.02601
 PY  S  14  -0.09227    -0.02839    -0.02913     0.00159     0.08588    -0.03832
 PZ  S  14   0.04080     0.01692     0.01074     0.00055    -0.00183     0.03077
  
  S  N  15   0.11093    -0.02558     0.05909    -0.06247    -0.10463    -0.06428
 PX  N  15   0.15264     0.07677     0.01637     0.00877    -0.03765    -0.02812
 PY  N  15   0.06098    -0.00853     0.06198     0.07098    -0.11953    -0.05636
 PZ  N  15   0.14932     0.17665    -0.00936     0.04840     0.05011    -0.02313
  
  S  C  16  -0.10043    -0.16450    -0.16743    -0.08690    -0.01511     0.14891
 PX  C  16  -0.05775    -0.04711     0.07826    -0.04912     0.01651    -0.03630
 PY  C  16  -0.02653    -0.07909     0.03054    -0.06246     0.09613    -0.06085
 PZ  C  16  -0.06342     0.04322     0.09110     0.04019    -0.06152    -0.00707
  
  S  C  17   0.04610    -0.02384     0.02490    -0.08417     0.23269    -0.04511
 PX  C  17  -0.04908    -0.10509    -0.09920    -0.05998     0.06434     0.05074
 PY  C  17  -0.04114    -0.02624     0.05645    -0.04257     0.18272    -0.04617
 PZ  C  17  -0.03787    -0.10811    -0.19928    -0.02036    -0.07650     0.11557
  
  S  C  18   0.00928     0.11993     0.24833     0.05483    -0.11554    -0.04458
 PX  C  18   0.06762     0.01486    -0.05320    -0.00633     0.04554    -0.03028
 PY  C  18   0.07306     0.05321     0.08915    -0.02554     0.15814    -0.09236
 PZ  C  18   0.02639    -0.02474    -0.16366     0.02269    -0.08447     0.04465
  
  S  C  19  -0.12415    -0.07369    -0.07204    -0.00139    -0.04157     0.04139
 PX  C  19   0.09203     0.05352    -0.06489     0.06285    -0.11053    -0.06716
 PY  C  19   0.05198     0.07672     0.04286     0.07883    -0.21816     0.01636
 PZ  C  19   0.08278     0.00558    -0.13524     0.01852     0.04940    -0.11223
  
  S  C  20   0.10372     0.02584    -0.02165     0.00009     0.13968    -0.18684
 PX  C  20   0.06061     0.05224     0.06443     0.02249    -0.06369     0.03012
 PY  C  20   0.03291     0.02474    -0.08262     0.06110    -0.16575     0.06820
 PZ  C  20   0.05589     0.05466     0.17151    -0.02024     0.06513    -0.02187
  
  S  C  21   0.00717     0.06081     0.11786     0.03442    -0.02825     0.05594
 PX  C  21  -0.10538    -0.02433     0.06243    -0.01913     0.01951     0.05833
 PY  C  21  -0.09606    -0.04837    -0.13307     0.01011    -0.07163     0.10613
 PZ  C  21  -0.06283     0.01966     0.21811    -0.02066     0.09616    -0.02041
  
  S  C  22  -0.08680    -0.01609     0.11887     0.03863     0.01771    -0.04493
 PX  C  22  -0.01184    -0.02371    -0.18205     0.05522    -0.00877    -0.08731
 PY  C  22  -0.05756     0.04427    -0.11385     0.09810     0.05859    -0.09518
 PZ  C  22   0.03484    -0.07187    -0.15330    -0.00020    -0.06999    -0.03968
  
  S  C  23   0.11715     0.12014    -0.17159     0.06747     0.13855    -0.07992
 PX  C  23   0.10329     0.01898    -0.04945    -0.04530     0.03654     0.06848
 PY  C  23   0.16924     0.08126     0.04074    -0.07723     0.01688     0.09101
 PZ  C  23  -0.02167    -0.04071    -0.10601     0.03776     0.03558     0.00726
  
  S  C  24   0.04736     0.02114     0.02505    -0.10106     0.11355     0.21848
 PX  C  24  -0.03123    -0.01801     0.14321    -0.08400    -0.01517     0.12487
 PY  C  24   0.09980     0.06386     0.03777    -0.07750     0.08133     0.15999
 PZ  C  24  -0.14567    -0.08560     0.17986    -0.04298    -0.10117     0.03141
  
  S  C  25  -0.15715    -0.05432     0.24897    -0.00223    -0.11736    -0.08234
 PX  C  25  -0.01305     0.00226     0.13103    -0.07289     0.01370     0.10851
 PY  C  25  -0.03334    -0.04068     0.07641    -0.09405     0.01791     0.17263
 PZ  C  25   0.01122     0.04255     0.12312    -0.01642     0.00247    -0.00370
  
  S  C  26   0.06400     0.06916    -0.07410     0.04620     0.01398    -0.05298
 PX  C  26  -0.05766     0.01245     0.09668     0.05276     0.00025    -0.12050
 PY  C  26  -0.10697    -0.08059     0.02961     0.06868    -0.14126    -0.18947
 PZ  C  26   0.01581     0.09504     0.11576     0.01404     0.13340     0.00154
  
  S  C  27   0.09824    -0.05304    -0.01774    -0.13563    -0.07657     0.19596
 PX  C  27  -0.00945    -0.00531    -0.13581     0.06900    -0.02626    -0.08787
[...]




          FINAL HEAT OF FORMATION =    -155566.17629 KCAL/MOL = -650888.88160 KJ/MOL
          VAN DER WAALS AREA      =        541.50 SQUARE ANGSTROMS


          TOTAL ENERGY            =      -7071.63459 EV
          ELECTRONIC ENERGY       =     -12424.57134 EV  POINT GROUP:     C1  
          CORE-CORE REPULSION     =       5352.93675 EV

          DIELECTRIC ENERGY       =         -0.43244 EV
          COSMO AREA              =        541.50 SQUARE ANGSTROMS
          COSMO VOLUME            =        634.28 CUBIC ANGSTROMS

          IONIZATION POTENTIAL    =          7.043149 EV
          HOMO LUMO ENERGIES (EV) =         -7.043 -1.338
          NO. OF FILLED LEVELS    =         96
          MOLECULAR WEIGHT        =        538.7212

          MOLECULAR DIMENSIONS (Angstroms)

            Atom       Atom       Distance
            H    68    H    63    19.62306
            H    60    H    56    11.54614
            H    40    H    53     7.11193


          SCF CALCULATIONS        =          2
 
          WALL-CLOCK TIME         =  5 MINUTES AND 18.582 SECONDS
          COMPUTATION TIME        =  5 MINUTES AND 23.455 SECONDS




   ATOM   CHEMICAL          X               Y               Z
  NUMBER   SYMBOL      (ANGSTROMS)     (ANGSTROMS)     (ANGSTROMS)
 
     1       N          0.08326128  *  -0.06587204  *   0.66597819  *
     2       C          1.23252302  *  -0.06897169  *   0.53302577  *
     3       C          2.63855379  *  -0.03735035  *   0.37123554  *
     4       C          3.38593435  *  -1.12556732  *   0.08826295  *
     5       C          2.89708308  *  -2.45960414  *  -0.07776452  *
     6       C          3.68911424  *  -3.48404377  *  -0.55494425  *
     7       C          2.98590965  *  -4.71603562  *  -0.63098946  *
     8       C          1.68683823  *  -4.58510591  *  -0.20096350  *
     9       S          1.32501712  *  -2.99762096  *   0.28363809  *
    10       C          0.71144165  *  -5.62383878  *  -0.13691045  *
    11       C         -0.63301262  *  -5.49550004  *  -0.34690101  *
    12       C         -1.33371590  *  -6.72929156  *  -0.16916522  *
    13       C         -0.48468958  *  -7.75280587  *   0.15990794  *
    14       S          1.16682554  *  -7.23486030  *   0.24585390  *
    15       N         -0.82599054  *  -9.09020688  *   0.33323034  *
    16       C         -1.84695151  *  -9.74340585  *  -0.40409354  *
    17       C         -2.43250995  *  -9.38841314  *  -1.61157003  *
    18       C         -3.37327206  * -10.26043170  *  -2.13982385  *
    19       C         -3.73028840  * -11.45972038  *  -1.50422065  *
    20       C         -3.12568047  * -11.80911894  *  -0.30135955  *
    21       C         -2.18664301  * -10.95282483  *   0.25021238  *
    22       C         -1.39478305  * -11.02394747  *   1.45629655  *
    23       C         -0.59460877  *  -9.85570842  *   1.50563812  *
    24       C          0.26702499  *  -9.61917317  *   2.56774819  *
    25       C          0.32149380  * -10.57916325  *   3.56749722  *
    26       C         -0.45191398  * -11.74953304  *   3.53103071  *
    27       C         -1.31829494  * -11.96992363  *   2.46557164  *
    28       C         -0.30565795  * -12.72568973  *   4.66960437  *
    29       C         -1.19017764  * -13.96476106  *   4.51780708  *
    30       C         -0.69504285  * -12.02640045  *   5.97504022  *
    31       C          1.15084137  * -13.19372468  *   4.73776658  *
    32       C         -4.76704609  * -12.32749131  *  -2.16965885  *
    33       C         -6.06762769  * -11.53051251  *  -2.30532647  *
    34       C         -5.07814380  * -13.60341480  *  -1.38478291  *
    35       C         -4.25589621  * -12.73909486  *  -3.55316331  *
    36       C          3.29733600  *   1.26684886  *   0.51562661  *
    37       O          4.49463937  *   1.49527846  *   0.41223619  *
    38       O          2.45104882  *   2.28020357  *   0.78961686  *
    39       H          4.47601910  *  -1.00765668  *  -0.03636472  *
    40       H          4.73175708  *  -3.37919017  *  -0.85040984  *
    41       H          3.43523285  *  -5.63672007  *  -0.99549632  *
    42       H         -1.14131589  *  -4.57121278  *  -0.61522694  *
    43       H         -2.41334150  *  -6.81517475  *  -0.27348408  *
    44       H         -2.15766483  *  -8.46944086  *  -2.13390133  *
    45       H         -3.83887452  *  -9.98031925  *  -3.09063953  *
    46       H         -3.35188966  * -12.73158416  *   0.23766942  *
    47       H          0.87549546  *  -8.71359849  *   2.62128079  *
    48       H          1.00066288  * -10.39211851  *   4.40598812  *
    49       H         -1.95022412  * -12.85657709  *   2.38037200  *
    50       H         -2.26115555  * -13.71787363  *   4.49170409  *
    51       H         -0.95665687  * -14.54073102  *   3.61097606  *
    52       H         -1.06284296  * -14.66292103  *   5.35929659  *
    53       H         -1.71760438  * -11.62496189  *   5.93241148  *
    54       H         -0.65598008  * -12.71000102  *   6.83584539  *
    55       H         -0.03686166  * -11.18411587  *   6.22877085  *
    56       H          1.30464215  * -13.94781414  *   5.52358376  *
    57       H          1.47700271  * -13.64792463  *   3.79124214  *
    58       H          1.85765896  * -12.38171824  *   4.95708717  *
    59       H         -6.42670583  * -11.16865916  *  -1.33131717  *
    60       H         -5.97009940  * -10.64803481  *  -2.95242981  *
    61       H         -6.87749209  * -12.13488502  *  -2.73970303  *
    62       H         -5.47729195  * -13.39458942  *  -0.38194466  *
    63       H         -5.83882261  * -14.21824990  *  -1.88983880  *
    64       H         -4.19788438  * -14.25142876  *  -1.26709810  *
    65       H         -4.95497252  * -13.41626806  *  -4.06556561  *
    66       H         -4.10853153  * -11.88789982  *  -4.23196877  *
    67       H         -3.29138555  * -13.26300987  *  -3.49141776  *
    68       H          2.92855514  *   3.11807430  *   0.87595505  *

                             CARTESIAN COORDINATES

   1    N        0.083261279    -0.065872039     0.665978187
   2    C        1.232523017    -0.068971688     0.533025771
   3    C        2.638553785    -0.037350348     0.371235537
   4    C        3.385934355    -1.125567318     0.088262950
   5    C        2.897083081    -2.459604137    -0.077764516
   6    C        3.689114238    -3.484043771    -0.554944251
   7    C        2.985909645    -4.716035616    -0.630989464
   8    C        1.686838227    -4.585105914    -0.200963503
   9    S        1.325017124    -2.997620962     0.283638089
  10    C        0.711441650    -5.623838778    -0.136910447
  11    C       -0.633012625    -5.495500039    -0.346901006
  12    C       -1.333715897    -6.729291561    -0.169165215
  13    C       -0.484689575    -7.752805871     0.159907939
  14    S        1.166825540    -7.234860303     0.245853900
  15    N       -0.825990541    -9.090206880     0.333230344
  16    C       -1.846951514    -9.743405853    -0.404093538
  17    C       -2.432509945    -9.388413139    -1.611570033
  18    C       -3.373272058   -10.260431700    -2.139823846
  19    C       -3.730288404   -11.459720380    -1.504220648
  20    C       -3.125680474   -11.809118940    -0.301359545
  21    C       -2.186643005   -10.952824830     0.250212383
  22    C       -1.394783049   -11.023947470     1.456296547
  23    C       -0.594608771    -9.855708415     1.505638116
  24    C        0.267024987    -9.619173169     2.567748194
  25    C        0.321493801   -10.579163250     3.567497216
  26    C       -0.451913979   -11.749533040     3.531030708
  27    C       -1.318294942   -11.969923630     2.465571645
  28    C       -0.305657947   -12.725689730     4.669604368
  29    C       -1.190177641   -13.964761060     4.517807081
  30    C       -0.695042850   -12.026400450     5.975040219
  31    C        1.150841368   -13.193724680     4.737766576
  32    C       -4.767046092   -12.327491310    -2.169658852
  33    C       -6.067627692   -11.530512510    -2.305326465
  34    C       -5.078143797   -13.603414800    -1.384782909
  35    C       -4.255896215   -12.739094860    -3.553163306
  36    C        3.297336000     1.266848860     0.515626610
  37    O        4.494639370     1.495278460     0.412236194
  38    O        2.451048825     2.280203570     0.789616861
  39    H        4.476019100    -1.007656675    -0.036364725
  40    H        4.731757078    -3.379190168    -0.850409842
  41    H        3.435232850    -5.636720073    -0.995496319
  42    H       -1.141315890    -4.571212776    -0.615226937
  43    H       -2.413341500    -6.815174751    -0.273484076
  44    H       -2.157664834    -8.469440865    -2.133901332
  45    H       -3.838874523    -9.980319248    -3.090639527
  46    H       -3.351889661   -12.731584160     0.237669422
  47    H        0.875495464    -8.713598487     2.621280790
  48    H        1.000662879   -10.392118510     4.405988122
  49    H       -1.950224120   -12.856577090     2.380372002
  50    H       -2.261155553   -13.717873630     4.491704087
  51    H       -0.956656868   -14.540731020     3.610976062
  52    H       -1.062842965   -14.662921030     5.359296593
  53    H       -1.717604382   -11.624961890     5.932411476
  54    H       -0.655980083   -12.710001020     6.835845388
  55    H       -0.036861664   -11.184115870     6.228770852
  56    H        1.304642151   -13.947814140     5.523583759
  57    H        1.477002714   -13.647924630     3.791242143
  58    H        1.857658957   -12.381718240     4.957087174
  59    H       -6.426705829   -11.168659160    -1.331317169
  60    H       -5.970099402   -10.648034810    -2.952429807
  61    H       -6.877492091   -12.134885020    -2.739703027
  62    H       -5.477291948   -13.394589420    -0.381944663
  63    H       -5.838822615   -14.218249900    -1.889838800
  64    H       -4.197884382   -14.251428760    -1.267098095
  65    H       -4.954972522   -13.416268060    -4.065565606
  66    H       -4.108531528   -11.887899820    -4.231968772
  67    H       -3.291385553   -13.263009870    -3.491417760
  68    H        2.928555138     3.118074302     0.875955048


           Empirical Formula: C32 H30 N2 O2 S2  =    68 atoms



      MOLECULAR POINT GROUP   :   C1  


                  EIGENVALUES  
 -48.49475 -46.75848 -45.22420 -44.74038 -43.41133 -42.01060 -41.04161 -39.91836
 -39.60095 -39.07137 -36.40206 -36.05796 -33.66604 -33.41939 -32.48526 -32.09285
 -31.29983 -31.29706 -31.02364 -30.23956 -29.29172 -29.21788 -28.93261 -27.44257
 -26.86763 -25.93989 -25.71773 -24.32999 -23.93370 -23.80867 -23.44036 -22.56991
 -22.11025 -21.62859 -20.76562 -20.63128 -20.25974 -20.03685 -19.50396 -18.89264
 -18.87544 -18.77825 -18.48005 -18.15884 -17.91594 -17.41358 -17.14489 -16.87464
 -16.66931 -16.35175 -16.06708 -16.04431 -15.96794 -15.85910 -15.60862 -15.45586
 -15.21360 -14.93809 -14.55413 -14.50788 -14.45694 -14.18337 -14.09212 -13.94332
 -13.93017 -13.83352 -13.80262 -13.52707 -13.48507 -13.31709 -13.20434 -13.13766
 -13.08196 -13.04173 -12.96925 -12.91160 -12.81422 -12.71208 -12.23011 -12.11111
 -12.09513 -12.04147 -11.57249 -11.47848 -11.35310 -11.11163 -10.76739 -10.63379
 -10.15941  -9.91270  -9.82084  -8.89581  -8.68972  -7.71158  -7.63299  -7.04315
  -1.33846  -0.03152   0.20216   0.70064   0.80537   1.02706   1.26242   1.50938
   1.59564   1.92546   2.08530   2.18034   2.28766   2.42950   2.71721   2.75302
   2.75613   2.96127   3.04689   3.27603   3.33729   3.46530   3.59975   3.73003
   3.84255   4.14326   4.16299   4.21940   4.41159   4.41427   4.44868   4.46271
   4.54925   4.66327   5.05258   5.31109   5.31154   5.33568   5.50564   5.63965
   5.87978   6.28286   6.43529   6.63706   6.64421   6.65976   6.66090   6.70711
   6.84434   6.87194   6.90509   7.00406   7.15543   7.16088   7.17762   7.17903
   7.38131   7.38277   7.75533   8.23944   8.60724   8.95744   9.04437   9.12933
   9.16621   9.30303   9.79187   9.80376   9.99799   9.99997  10.14095  10.34496
  10.41597  10.58907  11.00928  11.47546  11.97504  11.99616  12.22458  12.68641
  12.81898  13.01596  13.42340  14.30081  14.66565  15.07559


              NET ATOMIC CHARGES AND DIPOLE CONTRIBUTIONS

  ATOM NO.   TYPE          CHARGE      No. of ELECS.   s-Pop       p-Pop       
    1          N          -0.396948        5.3969     1.75369     3.64326
    2          C           0.216165        3.7838     1.14917     2.63467
    3          C           0.002534        3.9975     1.00002     2.99744
    4          C           0.122623        3.8774     1.09442     2.78296
    5          C          -0.005936        4.0059     1.05943     2.94650
    6          C           0.037904        3.9621     1.10084     2.86126
    7          C          -0.050146        4.0501     1.08216     2.96798
    8          C           0.083852        3.9161     1.07865     2.83750
    9          S          -0.026173        6.0262     1.76753     4.25865
   10          C           0.017107        3.9829     1.06464     2.91826
   11          C          -0.017525        4.0175     1.08870     2.92882
   12          C          -0.058476        4.0585     1.08212     2.97636
   13          C           0.121852        3.8781     1.07056     2.80758
   14          S          -0.045352        6.0454     1.77670     4.26865
   15          N          -0.122885        5.1229     1.24096     3.88193
   16          C           0.062854        3.9371     1.04959     2.88755
   17          C          -0.037733        4.0377     1.07986     2.95787
   18          C          -0.040312        4.0403     1.08324     2.95707
   19          C           0.014043        3.9860     1.06024     2.92571
   20          C          -0.043025        4.0430     1.07991     2.96312
   21          C          -0.013534        4.0135     1.05186     2.96168
   22          C          -0.012874        4.0129     1.05194     2.96094
   23          C           0.065483        3.9345     1.04853     2.88599
   24          C          -0.039477        4.0395     1.07883     2.96065
   25          C          -0.039876        4.0399     1.08303     2.95684
   26          C           0.014225        3.9858     1.06012     2.92566
   27          C          -0.042309        4.0423     1.07998     2.96233
   28          C           0.040141        3.9599     0.99625     2.96361
   29          C          -0.021507        4.0215     1.06280     2.95871
   30          C          -0.018328        4.0183     1.06189     2.95644
   31          C          -0.018405        4.0184     1.06196     2.95645
   32          C           0.040117        3.9599     0.99628     2.96360
   33          C          -0.018392        4.0184     1.06195     2.95644
   34          C          -0.021539        4.0215     1.06282     2.95872
   35          C          -0.018344        4.0183     1.06189     2.95645
   36          C           0.496047        3.5040     1.04543     2.45853
   37          O          -0.615610        6.6156     1.81688     4.79873
   38          O          -0.311617        6.3116     1.68730     4.62431
   39          H           0.060190        0.9398     0.93981
   40          H           0.049814        0.9502     0.95019
   41          H           0.038817        0.9612     0.96118
   42          H           0.040072        0.9599     0.95993
   43          H           0.037458        0.9625     0.96254
   44          H           0.027250        0.9727     0.97275
   45          H           0.020453        0.9795     0.97955
   46          H           0.025699        0.9743     0.97430
   47          H           0.025009        0.9750     0.97499
   48          H           0.020373        0.9796     0.97963
   49          H           0.026014        0.9740     0.97399
   50          H           0.005281        0.9947     0.99472
   51          H           0.005383        0.9946     0.99462
   52          H           0.001911        0.9981     0.99809
   53          H           0.005456        0.9945     0.99454
   54          H           0.002617        0.9974     0.99738
   55          H           0.006719        0.9933     0.99328
   56          H           0.002485        0.9975     0.99752
   57          H           0.005502        0.9945     0.99450
   58          H           0.006715        0.9933     0.99328
   59          H           0.005428        0.9946     0.99457
   60          H           0.006749        0.9933     0.99325
   61          H           0.002479        0.9975     0.99752
   62          H           0.005156        0.9948     0.99484
   63          H           0.001864        0.9981     0.99814
   64          H           0.005403        0.9946     0.99460
   65          H           0.002456        0.9975     0.99754
   66          H           0.006874        0.9931     0.99313
   67          H           0.005438        0.9946     0.99456
   68          H           0.246310        0.7537     0.75369
 DIPOLE           X         Y         Z       TOTAL
 POINT-CHG.     0.214    -6.470    -1.291     6.601
 HYBRID         1.125     0.803    -0.961     1.683
 SUM            1.338    -5.667    -2.252     6.243


          ATOMIC ORBITAL ELECTRON POPULATIONS

     Atom    s        px        py        pz   
    1  N   1.75369   1.23137   1.22418   1.18771
    2  C   1.14917   0.95062   0.80872   0.87533
    3  C   1.00002   0.90694   0.92886   1.16164
    4  C   1.09442   0.98135   0.98772   0.81389
    5  C   1.05943   0.91654   0.95125   1.07872
    6  C   1.10084   0.94376   1.00675   0.91074
    7  C   1.08216   0.97426   0.95143   1.04230
    8  C   1.07865   0.98856   0.90450   0.94443
    9  S   1.76753   1.27254   1.18207   1.80404
   10  C   1.06464   0.97422   0.88675   1.05729
   11  C   1.08870   0.97900   0.96002   0.98980
   12  C   1.08212   0.92893   0.98494   1.06249
   13  C   1.07056   0.91569   0.89416   0.99773
   14  S   1.77670   1.20968   1.19259   1.86639
   15  N   1.24096   1.46739   1.15134   1.26320
   16  C   1.04959   0.93657   0.98422   0.96676
   17  C   1.07986   1.01316   0.97011   0.97459
   18  C   1.08324   1.00450   0.98775   0.96483
   19  C   1.06024   0.96763   0.97769   0.98040
   20  C   1.07991   1.01139   0.96833   0.98340
   21  C   1.05186   0.98988   0.98846   0.98334
   22  C   1.05194   1.00136   0.98520   0.97438
   23  C   1.04853   1.00287   0.97379   0.90933
   24  C   1.07883   0.99275   0.97046   0.99744
   25  C   1.08303   0.99232   0.99150   0.97301
   26  C   1.06012   0.98126   0.97513   0.96926
   27  C   1.07998   0.99978   0.97063   0.99192
   28  C   0.99625   0.99223   0.98162   0.98976
   29  C   1.06280   0.98594   0.98231   0.99046
   30  C   1.06189   0.99194   0.98872   0.97578
   31  C   1.06196   0.97513   0.99084   0.99048
   32  C   0.99628   0.98518   0.98305   0.99537
   33  C   1.06195   0.97813   0.98761   0.99070
   34  C   1.06282   0.98872   0.98196   0.98804
   35  C   1.06189   0.99051   0.99145   0.97449
   36  C   1.04543   0.87654   0.90265   0.67933
   37  O   1.81688   1.28340   1.94074   1.57459
   38  O   1.68730   1.53261   1.22842   1.86328
   39  H   0.93981
   40  H   0.95019
   41  H   0.96118
   42  H   0.95993
   43  H   0.96254
   44  H   0.97275
   45  H   0.97955
   46  H   0.97430
   47  H   0.97499
   48  H   0.97963
   49  H   0.97399
   50  H   0.99472
   51  H   0.99462
   52  H   0.99809
   53  H   0.99454
   54  H   0.99738
   55  H   0.99328
   56  H   0.99752
   57  H   0.99450
   58  H   0.99328
   59  H   0.99457
   60  H   0.99325
   61  H   0.99752
   62  H   0.99484
   63  H   0.99814
   64  H   0.99460
   65  H   0.99754
   66  H   0.99313
   67  H   0.99456
   68  H   0.75369

 **********************
 *                    *
 * JOB ENDED NORMALLY *
 *                    *
 **********************



 TOTAL JOB TIME:           318.61 SECONDS

 == MOPAC DONE ==
