 *******************************************************************************
 ** Site#: 37966        For non-commercial use only           Version 21.186W **
 *******************************************************************************
 ** Cite this program as: MOPAC2016, Version: 21.186W, James J. P. Stewart,   **
 ** Stewart Computational Chemistry, web: HTTP://OpenMOPAC.net. Days left: 254**
 *******************************************************************************
 **                                                                           **
 **                                MOPAC2016                                  **
 **                                                                           **
 *******************************************************************************

                              INDO CALCULATION RESULTS

 *******************************************************************************
 *  CALCULATION DONE:                                Sun Oct 24 22:44:49 2021  *
 *  INDO       - The INDO Hamiltonian to be used
 *  CIS        - C.I. USES 1 ELECTRON EXCITATIONS ONLY
 *  EPS=7.58   - USE ANDREAS KLAMT'S COSMO IMPLICIT SOLVATION MODEL
 *  N**2=1.40  - USED IN COSMO-CI
 *  T=         - A TIME OF 172800.0 SECONDS REQUESTED
 *  DUMP=N     - RESTART FILE WRITTEN EVERY 7200.0 SECONDS REQUESTED
 *******************************************************************************
INDO CIS EPS=7.58 N**2=1.40
 DyeE12
 Calculo de Estados Excitados
   ATOM   CHEMICAL          X               Y               Z
  NUMBER   SYMBOL      (ANGSTROMS)     (ANGSTROMS)     (ANGSTROMS)
 
     1       N          0.00000000  *   0.00000000  *   0.00000000  *
     2       C          1.15645514  *   0.00000000  *   0.00000000  *
     3       C          2.57340379  *   0.02107969  *   0.00000000  *
     4       C          3.32466955  *  -1.08730590  *  -0.15084253  *
     5       C          2.77152246  *  -2.40441712  *  -0.27127382  *
     6       C          1.66751870  *  -2.89985789  *   0.37007513  *
     7       C          1.42055499  *  -4.26590008  *   0.02830100  *
     8       C          2.34686852  *  -4.74795351  *  -0.85602828  *
     9       S          3.51747193  *  -3.57354258  *  -1.27316202  *
    10       C          2.38980760  *  -6.06168843  *  -1.41400776  *
    11       C          3.48353138  *  -6.87842376  *  -1.49103143  *
    12       C          3.17334277  *  -8.13218383  *  -2.10702763  *
    13       C          1.85838524  *  -8.21202253  *  -2.47142666  *
    14       S          0.98961030  *  -6.78736557  *  -2.08213065  *
    15       C          1.21431856  *  -9.31529957  *  -3.10907600  *
    16       C          0.02392363  *  -9.88399330  *  -2.75480060  *
    17       C         -0.32536311  * -10.97497924  *  -3.61479478  *
    18       C          0.61540835  * -11.18779241  *  -4.58055462  *
    19       S          1.91684070  * -10.08150060  *  -4.47416936  *
    20       C          0.55309469  * -12.20370307  *  -5.60590915  *
    21       C          1.68472826  * -12.95434250  *  -5.92651570  *
    22       C          1.61261556  * -13.93845632  *  -6.90561973  *
    23       C          2.79272861  * -14.71911876  *  -7.25541364  *
    24       C          3.60924468  * -15.21586775  *  -6.32210574  *
    25       C          4.79920871  * -15.98312970  *  -6.66837011  *
    26       C          5.11688984  * -17.12445617  *  -5.93238664  *
    27       C          6.23758413  * -17.87607294  *  -6.25056082  *
    28       C          7.05890058  * -17.46315345  *  -7.30459442  *
    29       C          6.75928967  * -16.31123330  *  -8.03673120  *
    30       C          5.62339363  * -15.58058367  *  -7.71682061  *
    31       N          8.20788163  * -18.21947218  *  -7.63141924  *
    32       C          8.56620301  * -18.66286348  *  -8.92099432  *
    33       C          7.89896806  * -18.50473849  * -10.13188840  *
    34       C          8.48868733  * -19.06480172  * -11.25499319  *
    35       C          9.69593504  * -19.76634218  * -11.17946963  *
    36       C         10.35050134  * -19.93887729  *  -9.96855813  *
    37       C          9.78459088  * -19.38904321  *  -8.83016192  *
    38       C         10.17941794  * -19.38937255  *  -7.44395742  *
    39       C          9.19303271  * -18.66131413  *  -6.72476271  *
    40       C          9.29849156  * -18.44760236  *  -5.35374840  *
    41       C         10.39629245  * -19.00018558  *  -4.71161722  *
    42       C         11.36306363  * -19.73323861  *  -5.40672519  *
    43       C         11.26644403  * -19.92933893  *  -6.77670226  *
    44       C          0.39808881  * -14.14990590  *  -7.56848208  *
    45       C         -0.73922673  * -13.40469746  *  -7.25535580  *
    46       C         -0.65363036  * -12.43000307  *  -6.26264054  *
    47       C         -2.01255727  * -13.61578314  *  -7.93313852  *
    48       C         -2.10683628  * -13.65204784  *  -9.26431999  *
    49       C         -3.38443092  * -13.85297603  *  -9.93847667  *
    50       C         -3.69132927  * -13.09010133  * -11.06497339  *
    51       C         -4.90372534  * -13.25644402  * -11.71669842  *
    52       C         -5.80575015  * -14.21521952  * -11.24449628  *
    53       C         -5.50055250  * -14.99696369  * -10.12733027  *
    54       C         -4.29033354  * -14.80427639  *  -9.47552237  *
    55       N         -7.04122308  * -14.39757103  * -11.90803522  *
    56       C         -8.31049727  * -14.43399168  * -11.29591557  *
    57       C         -8.65595673  * -14.27458255  *  -9.95727523  *
    58       C        -10.00382209  * -14.34820497  *  -9.64039830  *
    59       C        -10.97887664  * -14.56426081  * -10.61915956  *
    60       C        -10.63452972  * -14.70480250  * -11.95562777  *
    61       C         -9.29491763  * -14.63659703  * -12.30103176  *
    62       C         -8.60461402  * -14.72476462  * -13.56315668  *
    63       C         -7.21664037  * -14.57611538  * -13.29540362  *
    64       C         -6.26581819  * -14.64679568  * -14.30916823  *
    65       C         -6.73315914  * -14.84203410  * -15.59990395  *
    66       C         -8.09777445  * -14.97190516  * -15.87649955  *
    67       C         -9.04302449  * -14.91989073  * -14.86252832  *
    68       O          0.33698153  * -15.06049238  *  -8.59236388  *
    69       C          0.23001597  * -16.38636187  *  -8.12508605  *
    70       C          3.23144872  *   1.32716528  *   0.14393950  *
    71       O          4.43550437  *   1.53994844  *   0.12790784  *
    72       O          2.37609046  *   2.35544354  *   0.30971667  *
    73       H          4.42277429  *  -1.01230261  *  -0.19314972  *
    74       H          1.04884199  *  -2.35668462  *   1.08239445  *
    75       H          0.59048756  *  -4.83560626  *   0.43994475  *
    76       H          4.47778520  *  -6.63342986  *  -1.12490865  *
    77       H          3.91235820  *  -8.91716945  *  -2.24824258  *
    78       H         -0.59782541  *  -9.57135141  *  -1.91937861  *
    79       H         -1.23361452  * -11.55854513  *  -3.48497673  *
    80       H          2.63095572  * -12.76463480  *  -5.40975832  *
    81       H          2.95685429  * -14.87757951  *  -8.32809462  *
    82       H          3.41743833  * -15.08823520  *  -5.25050867  *
    83       H          4.47263468  * -17.43903440  *  -5.10518398  *
    84       H          6.46329751  * -18.78813790  *  -5.68849431  *
    85       H          7.41623358  * -15.97443974  *  -8.84537594  *
    86       H          5.39124196  * -14.67391380  *  -8.28479862  *
    87       H          6.94596934  * -17.97631585  * -10.19778113  *
    88       H          7.99513568  * -18.95750761  * -12.22616664  *
    89       H         10.12625247  * -20.18878469  * -12.09163783  *
    90       H         11.28907158  * -20.49479569  *  -9.90362275  *
    91       H          8.56012982  * -17.85915121  *  -4.80578866  *
    92       H         10.51105610  * -18.85661629  *  -3.63251808  *
    93       H         12.21090220  * -20.15362024  *  -4.85890015  *
    94       H         12.02509792  * -20.49288303  *  -7.32538255  *
    95       H         -1.53695987  * -11.83397979  *  -6.01145139  *
    96       H         -2.88563387  * -13.71105896  *  -7.27801154  *
    97       H         -1.23385547  * -13.52211847  *  -9.91497253  *
    98       H         -2.97729956  * -12.34588938  * -11.43218543  *
    99       H         -5.15098344  * -12.63242998  * -12.58166929  *
   100       H         -6.19645928  * -15.76449806  *  -9.77342931  *
   101       H         -4.04538446  * -15.42086327  *  -8.60492121  *
   102       H         -7.90372787  * -14.08523941  *  -9.18915191  *
   103       H        -10.31365760  * -14.23129894  *  -8.59707103  *
   104       H        -12.03013060  * -14.61805232  * -10.32320179  *
   105       H        -11.39419556  * -14.86388924  * -12.72488884  *
   106       H         -5.19718522  * -14.56705855  * -14.10055529  *
   107       H         -6.01517204  * -14.89884586  * -16.42423407  *
   108       H         -8.42138590  * -15.12152237  * -16.91019194  *
   109       H        -10.10956526  * -15.03080831  * -15.07308269  *
   110       H          1.08822985  * -16.70299343  *  -7.50923713  *
   111       H         -0.69492931  * -16.56068743  *  -7.55071983  *
   112       H          0.20270703  * -16.99416223  *  -9.04162557  *
   113       H          2.85240612  *   3.19398878  *   0.39755837  *
 


          CARTESIAN COORDINATES 

    NO.       ATOM           X           Y           Z

     1         N          0.0000      0.0000      0.0000
     2         C          1.1565      0.0000      0.0000
     3         C          2.5734      0.0211      0.0000
     4         C          3.3247     -1.0873     -0.1508
     5         C          2.7715     -2.4044     -0.2713
     6         C          1.6675     -2.8999      0.3701
     7         C          1.4206     -4.2659      0.0283
     8         C          2.3469     -4.7480     -0.8560
     9         S          3.5175     -3.5735     -1.2732
    10         C          2.3898     -6.0617     -1.4140
    11         C          3.4835     -6.8784     -1.4910
    12         C          3.1733     -8.1322     -2.1070
    13         C          1.8584     -8.2120     -2.4714
    14         S          0.9896     -6.7874     -2.0821
    15         C          1.2143     -9.3153     -3.1091
    16         C          0.0239     -9.8840     -2.7548
    17         C         -0.3254    -10.9750     -3.6148
    18         C          0.6154    -11.1878     -4.5806
    19         S          1.9168    -10.0815     -4.4742
    20         C          0.5531    -12.2037     -5.6059
    21         C          1.6847    -12.9543     -5.9265
    22         C          1.6126    -13.9385     -6.9056
    23         C          2.7927    -14.7191     -7.2554
    24         C          3.6092    -15.2159     -6.3221
    25         C          4.7992    -15.9831     -6.6684
    26         C          5.1169    -17.1245     -5.9324
    27         C          6.2376    -17.8761     -6.2506
    28         C          7.0589    -17.4632     -7.3046
    29         C          6.7593    -16.3112     -8.0367
    30         C          5.6234    -15.5806     -7.7168
    31         N          8.2079    -18.2195     -7.6314
    32         C          8.5662    -18.6629     -8.9210
    33         C          7.8990    -18.5047    -10.1319
    34         C          8.4887    -19.0648    -11.2550
    35         C          9.6959    -19.7663    -11.1795
    36         C         10.3505    -19.9389     -9.9686
    37         C          9.7846    -19.3890     -8.8302
    38         C         10.1794    -19.3894     -7.4440
    39         C          9.1930    -18.6613     -6.7248
    40         C          9.2985    -18.4476     -5.3537
    41         C         10.3963    -19.0002     -4.7116
    42         C         11.3631    -19.7332     -5.4067
    43         C         11.2664    -19.9293     -6.7767
    44         C          0.3981    -14.1499     -7.5685
    45         C         -0.7392    -13.4047     -7.2554
    46         C         -0.6536    -12.4300     -6.2626
    47         C         -2.0126    -13.6158     -7.9331
    48         C         -2.1068    -13.6520     -9.2643
    49         C         -3.3844    -13.8530     -9.9385
    50         C         -3.6913    -13.0901    -11.0650
    51         C         -4.9037    -13.2564    -11.7167
    52         C         -5.8058    -14.2152    -11.2445
    53         C         -5.5006    -14.9970    -10.1273
    54         C         -4.2903    -14.8043     -9.4755
    55         N         -7.0412    -14.3976    -11.9080
    56         C         -8.3105    -14.4340    -11.2959
    57         C         -8.6560    -14.2746     -9.9573
    58         C        -10.0038    -14.3482     -9.6404
    59         C        -10.9789    -14.5643    -10.6192
    60         C        -10.6345    -14.7048    -11.9556
    61         C         -9.2949    -14.6366    -12.3010
    62         C         -8.6046    -14.7248    -13.5632
    63         C         -7.2166    -14.5761    -13.2954
    64         C         -6.2658    -14.6468    -14.3092
    65         C         -6.7332    -14.8420    -15.5999
    66         C         -8.0978    -14.9719    -15.8765
    67         C         -9.0430    -14.9199    -14.8625
    68         O          0.3370    -15.0605     -8.5924
    69         C          0.2300    -16.3864     -8.1251
    70         C          3.2314      1.3272      0.1439
    71         O          4.4355      1.5399      0.1279
    72         O          2.3761      2.3554      0.3097
    73         H          4.4228     -1.0123     -0.1931
    74         H          1.0488     -2.3567      1.0824
    75         H          0.5905     -4.8356      0.4399
    76         H          4.4778     -6.6334     -1.1249
    77         H          3.9124     -8.9172     -2.2482
    78         H         -0.5978     -9.5714     -1.9194
    79         H         -1.2336    -11.5585     -3.4850
    80         H          2.6310    -12.7646     -5.4098
    81         H          2.9569    -14.8776     -8.3281
    82         H          3.4174    -15.0882     -5.2505
    83         H          4.4726    -17.4390     -5.1052
    84         H          6.4633    -18.7881     -5.6885
    85         H          7.4162    -15.9744     -8.8454
    86         H          5.3912    -14.6739     -8.2848
    87         H          6.9460    -17.9763    -10.1978
    88         H          7.9951    -18.9575    -12.2262
    89         H         10.1263    -20.1888    -12.0916
    90         H         11.2891    -20.4948     -9.9036
    91         H          8.5601    -17.8592     -4.8058
    92         H         10.5111    -18.8566     -3.6325
    93         H         12.2109    -20.1536     -4.8589
    94         H         12.0251    -20.4929     -7.3254
    95         H         -1.5370    -11.8340     -6.0115
    96         H         -2.8856    -13.7111     -7.2780
    97         H         -1.2339    -13.5221     -9.9150
    98         H         -2.9773    -12.3459    -11.4322
    99         H         -5.1510    -12.6324    -12.5817
   100         H         -6.1965    -15.7645     -9.7734
   101         H         -4.0454    -15.4209     -8.6049
   102         H         -7.9037    -14.0852     -9.1892
   103         H        -10.3137    -14.2313     -8.5971
   104         H        -12.0301    -14.6181    -10.3232
   105         H        -11.3942    -14.8639    -12.7249
   106         H         -5.1972    -14.5671    -14.1006
   107         H         -6.0152    -14.8988    -16.4242
   108         H         -8.4214    -15.1215    -16.9102
   109         H        -10.1096    -15.0308    -15.0731
   110         H          1.0882    -16.7030     -7.5092
   111         H         -0.6949    -16.5607     -7.5507
   112         H          0.2027    -16.9942     -9.0416
   113         H          2.8524      3.1940      0.3976

           Empirical Formula: C63 H41 N3 O3 S3  =   113 atoms



      MOLECULAR POINT GROUP   :   C1  


      RHF CALCULATION, NO. OF DOUBLY OCCUPIED LEVELS = 172

 WARNING: INDO only performs single-point calculations

 Summary of symmetry occupancy in each shell:

 SHELL     
    1  172
    v  157
 TOTAL 329




    ROOT NO.    1           2           3           4           5           6

           -48.62625   -48.61660   -47.47707   -46.79484   -44.27112   -44.20741
  
  
  S  N   1   0.00000     0.00000     0.00001     0.04032     0.00024     0.00020
 PX  N   1   0.00000     0.00000     0.00000     0.02485     0.00013     0.00011
 PY  N   1  -0.00000    -0.00000    -0.00000     0.00379    -0.00004    -0.00004
 PZ  N   1   0.00000     0.00000     0.00000     0.00064     0.00000     0.00000
  
  S  C   2   0.00000     0.00000     0.00002     0.11476     0.00043     0.00036
 PX  C   2   0.00000     0.00000     0.00001     0.04974     0.00007     0.00006
 PY  C   2  -0.00000    -0.00000    -0.00000     0.02174    -0.00015    -0.00012
 PZ  C   2   0.00000     0.00000     0.00000     0.00289    -0.00000    -0.00000
  
  S  C   3   0.00000     0.00000     0.00003     0.22984     0.00050     0.00042
 PX  C   3   0.00000     0.00000     0.00000     0.03181    -0.00004    -0.00003
 PY  C   3  -0.00000    -0.00000    -0.00000     0.07666    -0.00034    -0.00027
 PZ  C   3  -0.00000    -0.00000     0.00000     0.00842    -0.00003    -0.00002
  
  S  C   4   0.00000     0.00000     0.00004     0.11723     0.00094     0.00077
 PX  C   4  -0.00000    -0.00000    -0.00001    -0.01852    -0.00028    -0.00023
 PY  C   4  -0.00000    -0.00000    -0.00001     0.04661    -0.00028    -0.00023
 PZ  C   4  -0.00000    -0.00000     0.00000     0.00658    -0.00000    -0.00000
  
  S  C   5   0.00000     0.00000     0.00009     0.05463     0.00208     0.00169
 PX  C   5  -0.00000    -0.00000    -0.00002    -0.00358    -0.00038    -0.00031
 PY  C   5  -0.00000    -0.00000    -0.00003     0.01471    -0.00054    -0.00043
 PZ  C   5  -0.00000    -0.00000     0.00000     0.00457     0.00006     0.00005
  
  S  C   6   0.00000     0.00000     0.00010     0.03660     0.00214     0.00174
 PX  C   6   0.00000     0.00000     0.00002     0.00981     0.00051     0.00041
 PY  C   6  -0.00000    -0.00000    -0.00003     0.00618    -0.00043    -0.00034
 PZ  C   6  -0.00000    -0.00000    -0.00003    -0.00683    -0.00056    -0.00045
  
  S  C   7   0.00000     0.00000     0.00017     0.02000     0.00247     0.00198
 PX  C   7   0.00000     0.00000     0.00005     0.00629     0.00076     0.00061
 PY  C   7  -0.00000    -0.00000    -0.00002     0.00659     0.00021     0.00018
 PZ  C   7  -0.00000    -0.00000    -0.00004    -0.00242    -0.00049    -0.00039
  
  S  C   8   0.00000     0.00000     0.00034     0.01735     0.00333     0.00263
 PX  C   8   0.00000     0.00000     0.00000    -0.00111    -0.00011    -0.00009
 PY  C   8  -0.00000    -0.00000    -0.00012     0.00650    -0.00016    -0.00009
 PZ  C   8  -0.00000    -0.00000    -0.00004     0.00331     0.00007     0.00007
  
  S  S   9   0.00000     0.00000     0.00012     0.01959     0.00183     0.00147
 PX  S   9  -0.00000    -0.00000    -0.00005    -0.00807    -0.00090    -0.00072
 PY  S   9  -0.00000    -0.00000    -0.00005     0.00479    -0.00027    -0.00020
 PZ  S   9   0.00000     0.00000     0.00003     0.00765     0.00058     0.00047
  
  S  C  10   0.00001     0.00001     0.00100     0.00622     0.00499     0.00382
 PX  C  10   0.00000     0.00000     0.00005     0.00003     0.00033     0.00025
 PY  C  10  -0.00000    -0.00000    -0.00040     0.00196    -0.00123    -0.00091
 PZ  C  10  -0.00000    -0.00000    -0.00015     0.00100    -0.00041    -0.00030
  
  S  C  11   0.00001     0.00001     0.00111     0.00312     0.00486     0.00369
 PX  C  11  -0.00000    -0.00000    -0.00044    -0.00108    -0.00187    -0.00142
 PY  C  11  -0.00000    -0.00000    -0.00021     0.00068    -0.00045    -0.00033
 PZ  C  11  -0.00000    -0.00000    -0.00019     0.00004    -0.00066    -0.00049
  
  S  C  12   0.00003     0.00002     0.00205     0.00181     0.00579     0.00433
 PX  C  12  -0.00001    -0.00001    -0.00083    -0.00048    -0.00195    -0.00145
 PY  C  12  -0.00000    -0.00000    -0.00004     0.00067     0.00098     0.00076
 PZ  C  12  -0.00000    -0.00000    -0.00021     0.00018    -0.00006    -0.00003
  
  S  C  13   0.00006     0.00005     0.00431     0.00165     0.00800     0.00590
 PX  C  13  -0.00001    -0.00001    -0.00071     0.00037     0.00008     0.00010
 PY  C  13  -0.00002    -0.00002    -0.00137     0.00050    -0.00060    -0.00038
 PZ  C  13  -0.00001    -0.00001    -0.00065     0.00032    -0.00011    -0.00005
  
  S  S  14   0.00002     0.00002     0.00154     0.00236     0.00440     0.00331
 PX  S  14   0.00001     0.00001     0.00053     0.00125     0.00223     0.00169
 PY  S  14  -0.00001    -0.00001    -0.00077     0.00043    -0.00129    -0.00094
 PZ  S  14  -0.00000    -0.00000    -0.00015     0.00057     0.00008     0.00007
  
  S  C  15   0.00020     0.00019     0.01309     0.00059     0.01272     0.00908
 PX  C  15  -0.00005    -0.00004    -0.00300     0.00009    -0.00212    -0.00152
 PY  C  15  -0.00007    -0.00007    -0.00447     0.00015    -0.00276    -0.00190
 PZ  C  15  -0.00004    -0.00004    -0.00222     0.00011    -0.00105    -0.00070
  
  S  C  16   0.00023     0.00021     0.01483     0.00030     0.01247     0.00898
 PX  C  16   0.00004     0.00004     0.00301     0.00011     0.00308     0.00214
 PY  C  16  -0.00005    -0.00005    -0.00310     0.00004    -0.00156    -0.00113
 PZ  C  16  -0.00009    -0.00008    -0.00571    -0.00004    -0.00404    -0.00290
  
  S  C  17   0.00050     0.00043     0.02827     0.00017     0.01491     0.01088
 PX  C  17   0.00012     0.00012     0.00746     0.00006     0.00506     0.00337
 PY  C  17  -0.00005    -0.00004    -0.00208     0.00005     0.00155     0.00109
 PZ  C  17  -0.00017    -0.00014    -0.00891     0.00000    -0.00230    -0.00174
  
  S  C  18   0.00097     0.00091     0.05342     0.00015     0.02077     0.01381
 PX  C  18  -0.00009    -0.00002    -0.00365    -0.00000    -0.00035    -0.00099
 PY  C  18  -0.00027    -0.00027    -0.01390     0.00004    -0.00121    -0.00025
 PZ  C  18  -0.00025    -0.00023    -0.01207     0.00005    -0.00010     0.00041
  
  S  S  19   0.00032     0.00033     0.01922     0.00022     0.01187     0.00786
 PX  S  19  -0.00015    -0.00014    -0.00928    -0.00007    -0.00576    -0.00398
 PY  S  19  -0.00013    -0.00015    -0.00734     0.00005    -0.00274    -0.00150
 PZ  S  19   0.00000    -0.00001     0.00060     0.00011     0.00237     0.00186
  
  S  C  20   0.00272     0.00251     0.13803     0.00005     0.02732     0.01532
 PX  C  20  -0.00017     0.00013    -0.00330    -0.00000     0.00430    -0.00056
 PY  C  20  -0.00072    -0.00072    -0.03600     0.00002    -0.00406    -0.00060
 PZ  C  20  -0.00075    -0.00063    -0.03533     0.00002    -0.00183    -0.00058
  
  S  C  21   0.00284     0.00381     0.15175     0.00001     0.04170     0.01453
 PX  C  21  -0.00090    -0.00038    -0.04518    -0.00000    -0.00046    -0.00020
 PY  C  21  -0.00044    -0.00094    -0.02426     0.00001    -0.00842    -0.00071
 PZ  C  21  -0.00073    -0.00091    -0.03802     0.00001    -0.00676    -0.00023
  
  S  C  22   0.00493     0.00671     0.26024    -0.00003     0.04927    -0.00080
 PX  C  22  -0.00143     0.00004    -0.06900     0.00001     0.01606     0.01332
 PY  C  22  -0.00036    -0.00086    -0.02069     0.00001    -0.00084     0.00755
 PZ  C  22  -0.00075    -0.00049    -0.03802     0.00001     0.00819     0.01244
  
  S  C  23   0.00279     0.01074     0.14387    -0.00002     0.09807     0.03743
 PX  C  23  -0.00095     0.00249    -0.05781     0.00001     0.02897     0.02774
 PY  C  23   0.00015    -0.00171     0.01234    -0.00000    -0.01383    -0.01037
 PZ  C  23   0.00007     0.00137     0.00355     0.00000     0.02010     0.01218
  
  S  C  24   0.00173     0.01838     0.06783    -0.00001     0.15894     0.08984
 PX  C  24  -0.00015     0.00602    -0.02215     0.00000     0.03820     0.02930
 PY  C  24   0.00000    -0.00400     0.00948    -0.00000    -0.02421    -0.01771
 PZ  C  24  -0.00039    -0.00338    -0.01654     0.00000    -0.02860    -0.01510
  
  S  C  25   0.00254     0.05448     0.03457    -0.00001     0.31678     0.20115
 PX  C  25   0.00057     0.01791    -0.00636     0.00000     0.06394     0.04414
 PY  C  25  -0.00037    -0.01160     0.00414    -0.00000    -0.04038    -0.02800
 PZ  C  25  -0.00024    -0.00540    -0.00249     0.00000    -0.02246    -0.01431
  
  S  C  26   0.00247     0.05933     0.01736    -0.00000     0.27512     0.17821
 PX  C  26   0.00074     0.02003    -0.00086    -0.00000     0.05318     0.03571
 PY  C  26   0.00019     0.00315     0.00545    -0.00000     0.04466     0.02809
 PZ  C  26  -0.00081    -0.01967    -0.00479     0.00000    -0.08619    -0.05601
  
  S  C  27   0.00456     0.11710     0.00844    -0.00000     0.25495     0.16748
 PX  C  27   0.00130     0.03499    -0.00309     0.00000    -0.02341    -0.01469
 PY  C  27   0.00055     0.01305     0.00441    -0.00000     0.09105     0.05938
 PZ  C  27  -0.00144    -0.03740    -0.00140     0.00000    -0.05835    -0.03850
  
  S  C  28   0.00910     0.23754     0.00436    -0.00000     0.26469     0.17508
 PX  C  28   0.00258     0.06931    -0.00612     0.00000    -0.07863    -0.05075
 PY  C  28  -0.00169    -0.04556     0.00409    -0.00000     0.05197     0.03352
 PZ  C  28  -0.00073    -0.01972     0.00158    -0.00000     0.02219     0.01437
  
  S  C  29   0.00458     0.11728     0.00964    -0.00000     0.25671     0.16828
 PX  C  29   0.00047     0.01386    -0.00510     0.00000    -0.06589    -0.04240
 PY  C  29  -0.00172    -0.04532     0.00086    -0.00000    -0.03276    -0.02210
 PZ  C  29   0.00093     0.02339     0.00337    -0.00000     0.08306     0.05437
  
  S  C  30   0.00256     0.05976     0.02230    -0.00000     0.28127     0.18094
 PX  C  30   0.00032     0.01072    -0.00614     0.00000     0.00694     0.00637
 PY  C  30  -0.00092    -0.02356    -0.00213     0.00000    -0.08599    -0.05663
 PZ  C  30   0.00048     0.01076     0.00532    -0.00000     0.06756     0.04337
  
  S  N  31   0.01843     0.48689    -0.01201     0.00000     0.03679     0.02686
 PX  N  31   0.00260     0.06915    -0.00375     0.00000    -0.06711    -0.04419
 PY  N  31  -0.00171    -0.04561     0.00247    -0.00000     0.04422     0.02911
 PZ  N  31  -0.00074    -0.01973     0.00104    -0.00000     0.01903     0.01254
  
  S  C  32   0.01380     0.36497    -0.01116     0.00000    -0.07202    -0.04654
 PX  C  32   0.00137     0.03650    -0.00201     0.00000    -0.04464    -0.02963
 PY  C  32  -0.00003    -0.00107     0.00070    -0.00000     0.03067     0.02052
 PZ  C  32   0.00466     0.12318    -0.00333     0.00000     0.01042     0.00784
  
  S  C  33   0.00563     0.14883    -0.00450     0.00000    -0.04387    -0.02903
 PX  C  33   0.00168     0.04451    -0.00181     0.00000    -0.03092    -0.02054
 PY  C  33  -0.00058    -0.01552     0.00086    -0.00000     0.02087     0.01392
 PZ  C  33   0.00204     0.05398    -0.00132     0.00000     0.00585     0.00420
  
  S  C  34   0.00343     0.09076    -0.00337     0.00000    -0.06167    -0.04124
 PX  C  34   0.00061     0.01606    -0.00071     0.00000    -0.01587    -0.01061
 PY  C  34  -0.00005    -0.00143     0.00014    -0.00000     0.00528     0.00354
 PZ  C  34   0.00163     0.04309    -0.00153     0.00000    -0.02354    -0.01567
  
  S  C  35   0.00328     0.08696    -0.00343     0.00000    -0.06953    -0.04652
 PX  C  35  -0.00058    -0.01525     0.00056    -0.00000     0.00960     0.00641
 PY  C  35   0.00061     0.01607    -0.00060     0.00000    -0.01053    -0.00703
 PZ  C  35   0.00146     0.03859    -0.00149     0.00000    -0.02694    -0.01796
  
  S  C  36   0.00454     0.12029    -0.00467     0.00000    -0.08477    -0.05652
 PX  C  36  -0.00166    -0.04385     0.00165    -0.00000     0.02688     0.01789
 PY  C  36   0.00118     0.03130    -0.00116     0.00000    -0.01789    -0.01188
 PZ  C  36   0.00103     0.02737    -0.00098     0.00000    -0.00988    -0.00644
  
  S  C  37   0.01113     0.29473    -0.01039     0.00000    -0.12456    -0.08207
 PX  C  37  -0.00285    -0.07527     0.00235    -0.00000     0.01259     0.00800
 PY  C  37   0.00215     0.05694    -0.00176     0.00000    -0.00783    -0.00489
 PZ  C  37   0.00250     0.06604    -0.00204     0.00000    -0.00348    -0.00179
  
  S  C  38   0.01113     0.29476    -0.01042     0.00000    -0.12476    -0.08218
 PX  C  38  -0.00372    -0.09836     0.00305    -0.00000     0.01211     0.00746
 PY  C  38   0.00218     0.05761    -0.00180     0.00000    -0.00851    -0.00534
 PZ  C  38  -0.00063    -0.01655     0.00048    -0.00000    -0.00372    -0.00270
  
  S  C  39   0.01380     0.36498    -0.01123     0.00000    -0.07234    -0.04671
 PX  C  39  -0.00128    -0.03372     0.00001     0.00000    -0.04489    -0.03028
 PY  C  39  -0.00003    -0.00081     0.00062    -0.00000     0.02834     0.01897
 PZ  C  39  -0.00469    -0.12396     0.00388    -0.00000     0.01497     0.00917
  
  S  C  40   0.00563     0.14885    -0.00459     0.00000    -0.04426    -0.02924
 PX  C  40   0.00027     0.00740    -0.00081     0.00000    -0.03025    -0.02026
 PY  C  40  -0.00071    -0.01878     0.00088    -0.00000     0.01950     0.01301
 PZ  C  40  -0.00260    -0.06877     0.00208    -0.00000     0.01165     0.00747
  
  S  C  41   0.00343     0.09080    -0.00341     0.00000    -0.06199    -0.04142
 PX  C  41  -0.00037    -0.00984     0.00024    -0.00000    -0.00077    -0.00055
 PY  C  41  -0.00010    -0.00270     0.00017    -0.00000     0.00574     0.00385
 PZ  C  41  -0.00169    -0.04488     0.00169    -0.00000     0.02841     0.01892
  
  S  C  42   0.00328     0.08700    -0.00346     0.00000    -0.06982    -0.04668
 PX  C  42  -0.00126    -0.03336     0.00128    -0.00000     0.02245     0.01496
 PY  C  42   0.00060     0.01599    -0.00061     0.00000    -0.01060    -0.00706
 PZ  C  42  -0.00093    -0.02475     0.00098    -0.00000     0.01788     0.01191
  
  S  C  43   0.00454     0.12032    -0.00469     0.00000    -0.08502    -0.05666
 PX  C  43  -0.00194    -0.05151     0.00191    -0.00000     0.02793     0.01850
 PY  C  43   0.00119     0.03162    -0.00118     0.00000    -0.01828    -0.01213
 PZ  C  43  -0.00001    -0.00018    -0.00004     0.00000    -0.00579    -0.00397
  
  S  C  44   0.00902     0.00722     0.42652    -0.00006    -0.00689    -0.04152
 PX  C  44  -0.00078     0.00054    -0.00500     0.00000     0.01877    -0.00362
 PY  C  44  -0.00160    -0.00147    -0.09268     0.00003     0.01099     0.03111
 PZ  C  44  -0.00157    -0.00086    -0.07134     0.00002     0.01792     0.02320
  
  S  C  45   0.00718     0.00378     0.25129    -0.00003    -0.01934     0.01320
 PX  C  45   0.00031     0.00119     0.06414    -0.00001     0.01331    -0.01465
 PY  C  45  -0.00106    -0.00069    -0.04617     0.00001     0.00727     0.01047
 PZ  C  45  -0.00116    -0.00019    -0.02058     0.00001     0.01458     0.00094
  
  S  C  46   0.00363     0.00236     0.14822     0.00001     0.00813     0.01706
 PX  C  46   0.00055     0.00078     0.04157     0.00001     0.01059     0.00019
 PY  C  46  -0.00103    -0.00064    -0.04039     0.00001     0.00140    -0.00163
 PZ  C  46  -0.00083    -0.00033    -0.02411     0.00001     0.00575    -0.00200
  
  S  C  47   0.01086     0.00157     0.13665    -0.00002    -0.06543     0.07099
 PX  C  47  -0.00091     0.00094     0.05876    -0.00001     0.00675    -0.02181
 PY  C  47  -0.00068    -0.00011    -0.00854     0.00000     0.00390    -0.00085
 PZ  C  47  -0.00354     0.00012    -0.00331     0.00000     0.02402    -0.03059
  
  S  C  48   0.01877     0.00058     0.09342    -0.00002    -0.10539     0.13622
 PX  C  48  -0.00722     0.00064     0.02250    -0.00000     0.03381    -0.05827
 PY  C  48  -0.00129    -0.00005    -0.00643     0.00000     0.00612    -0.00680
 PZ  C  48  -0.00207     0.00055     0.03238    -0.00000     0.00490    -0.01595
  
  S  C  49   0.05434    -0.00158     0.04152    -0.00001    -0.20854     0.31141
 PX  C  49  -0.01923     0.00085     0.00730    -0.00000     0.04633    -0.07517
 PY  C  49  -0.00302     0.00010    -0.00095     0.00000     0.00789    -0.01195
 PZ  C  49  -0.00999     0.00049     0.00746    -0.00000     0.02160    -0.03644
  
  S  C  50   0.05913    -0.00203     0.02041    -0.00000    -0.18092     0.27595
 PX  C  50  -0.02173     0.00085     0.00083     0.00000     0.03975    -0.06280
 PY  C  50  -0.01730     0.00061    -0.00512     0.00000     0.05126    -0.07841
 PZ  C  50   0.00457    -0.00010     0.00667    -0.00000    -0.03305     0.04917
  
  S  C  51   0.11682    -0.00436     0.00973    -0.00000    -0.16774     0.25965
 PX  C  51  -0.03597     0.00141     0.00362    -0.00000    -0.01556     0.02296
 PY  C  51  -0.03642     0.00137    -0.00187     0.00000     0.04083    -0.06339
 PZ  C  51   0.01285    -0.00044     0.00484    -0.00000    -0.05818     0.08946
  
  S  C  52   0.23719    -0.00900     0.00501    -0.00000    -0.17419     0.27153
 PX  C  52  -0.07450     0.00291     0.00741    -0.00000    -0.05556     0.08453
 PY  C  52  -0.01111     0.00043     0.00099    -0.00000    -0.00806     0.01231
 PZ  C  52  -0.03999     0.00157     0.00411    -0.00000    -0.02993     0.04549
  
  S  C  53   0.11704    -0.00436     0.01097    -0.00000    -0.16881     0.26082
 PX  C  53  -0.01669     0.00070     0.00617    -0.00000    -0.04709     0.07150
 PY  C  53   0.02874    -0.00107     0.00327    -0.00000    -0.05027     0.07767
 PZ  C  53  -0.04104     0.00158     0.00063     0.00000     0.02412    -0.03816
  
  S  C  54   0.05958    -0.00198     0.02589    -0.00001    -0.18510     0.28050
 PX  C  54  -0.01140     0.00053     0.00726    -0.00000     0.00392    -0.00901
 PY  C  54   0.01255    -0.00040     0.00665    -0.00000    -0.04578     0.06920
 PZ  C  54  -0.02221     0.00084    -0.00184     0.00000     0.05546    -0.08621
  
  S  N  55   0.48699    -0.01871    -0.01360     0.00000    -0.02440     0.04195
 PX  N  55  -0.07459     0.00289     0.00458    -0.00000    -0.04743     0.07361
 PY  N  55  -0.01120     0.00043     0.00068    -0.00000    -0.00700     0.01087
 PZ  N  55  -0.03995     0.00155     0.00248    -0.00000    -0.02550     0.03956
  
  S  C  56   0.36514    -0.01405    -0.01269     0.00000     0.04730    -0.07202
 PX  C  56   0.06009    -0.00230    -0.00080    -0.00000    -0.03110     0.04972
 PY  C  56  -0.00796     0.00031     0.00039    -0.00000    -0.00388     0.00605
 PZ  C  56  -0.11341     0.00437     0.00439    -0.00000    -0.01832     0.02767
  
  S  C  57   0.14882    -0.00573    -0.00513     0.00000     0.02887    -0.04501
 PX  C  57   0.00294    -0.00011     0.00065    -0.00000    -0.02080     0.03293
 PY  C  57  -0.00995     0.00038     0.00038    -0.00000    -0.00277     0.00433
 PZ  C  57  -0.07093     0.00273     0.00262    -0.00000    -0.01330     0.02049
  
  S  C  58   0.09072    -0.00350    -0.00384     0.00000     0.04059    -0.06397
 PX  C  58   0.01866    -0.00072    -0.00062     0.00000     0.00262    -0.00404
 PY  C  58  -0.00404     0.00016     0.00018    -0.00000    -0.00213     0.00336
 PZ  C  58  -0.04185     0.00161     0.00182    -0.00000    -0.01870     0.02938
  
  S  C  59   0.08691    -0.00335    -0.00391     0.00000     0.04575    -0.07214
 PX  C  59   0.04191    -0.00162    -0.00182     0.00000     0.01865    -0.02931
 PY  C  59   0.00180    -0.00007    -0.00008     0.00000     0.00074    -0.00117
 PZ  C  59  -0.01481     0.00057     0.00068    -0.00000    -0.00734     0.01153
  
  S  C  60   0.12023    -0.00463    -0.00531     0.00000     0.05576    -0.08762
 PX  C  60   0.05813    -0.00224    -0.00244     0.00000     0.02003    -0.03125
 PY  C  60   0.00689    -0.00027    -0.00030     0.00000     0.00291    -0.00456
 PZ  C  60   0.01496    -0.00058    -0.00068     0.00000     0.00916    -0.01451
  
  S  C  61   0.29478    -0.01136    -0.01182     0.00000     0.08189    -0.12715
 PX  C  61   0.11401    -0.00439    -0.00401     0.00000     0.00866    -0.01247
 PY  C  61   0.01160    -0.00045    -0.00042     0.00000     0.00155    -0.00235
 PZ  C  61   0.01252    -0.00048    -0.00046     0.00000     0.00474    -0.00754
  
  S  C  62   0.29477    -0.01136    -0.01183     0.00000     0.08197    -0.12725
 PX  C  62   0.07293    -0.00281    -0.00259     0.00000     0.00883    -0.01332
 PY  C  62   0.01610    -0.00062    -0.00056     0.00000     0.00103    -0.00146
 PZ  C  62   0.08781    -0.00338    -0.00307     0.00000     0.00458    -0.00622
  
  S  C  63   0.36504    -0.01405    -0.01274     0.00000     0.04744    -0.07220
 PX  C  63  -0.06309     0.00244     0.00325    -0.00000    -0.03224     0.05020
 PY  C  63   0.00754    -0.00029    -0.00003    -0.00000    -0.00550     0.00875
 PZ  C  63   0.11181    -0.00430    -0.00306     0.00000    -0.01573     0.02601
  
  S  C  64   0.14874    -0.00572    -0.00519     0.00000     0.02903    -0.04522
 PX  C  64  -0.05879     0.00227     0.00257    -0.00000    -0.02251     0.03515
 PY  C  64   0.00171    -0.00006     0.00009    -0.00000    -0.00363     0.00573
 PZ  C  64   0.04092    -0.00157    -0.00090     0.00000    -0.00991     0.01600
  
  S  C  65   0.09068    -0.00349    -0.00387     0.00000     0.04071    -0.06411
 PX  C  65  -0.02536     0.00098     0.00121    -0.00000    -0.01444     0.02273
 PY  C  65   0.00307    -0.00012    -0.00010     0.00000     0.00040    -0.00062
 PZ  C  65   0.03824    -0.00147    -0.00152     0.00000     0.01241    -0.01943
  
  S  C  66   0.08688    -0.00335    -0.00393     0.00000     0.04586    -0.07227
 PX  C  66   0.01035    -0.00040    -0.00042     0.00000     0.00399    -0.00628
 PY  C  66   0.00594    -0.00023    -0.00026     0.00000     0.00262    -0.00411
 PZ  C  66   0.04284    -0.00165    -0.00189     0.00000     0.01952    -0.03067
  
  S  C  67   0.12020    -0.00463    -0.00533     0.00000     0.05586    -0.08773
 PX  C  67   0.04444    -0.00171    -0.00192     0.00000     0.01876    -0.02944
 PY  C  67   0.00829    -0.00032    -0.00035     0.00000     0.00283    -0.00442
 PZ  C  67   0.04008    -0.00154    -0.00165     0.00000     0.01164    -0.01803
  
  S  O  68   0.01157     0.00901     0.57608    -0.00011    -0.04032    -0.10629
 PX  O  68  -0.00037     0.00018    -0.00285     0.00000     0.00685    -0.00194
 PY  O  68   0.00005    -0.00019    -0.01129     0.00000     0.00001     0.00932
 PZ  O  68   0.00306     0.00252     0.15653    -0.00003    -0.00831    -0.02776
  
  S  C  69   0.00557     0.00466     0.28266    -0.00006    -0.01625    -0.05406
 PX  C  69   0.00015     0.00051     0.01624    -0.00000     0.00383    -0.00321
 PY  C  69   0.00338     0.00266     0.17086    -0.00003    -0.01165    -0.03236
 PZ  C  69  -0.00045    -0.00023    -0.02315     0.00001     0.00406     0.00685
  
  S  C  70   0.00000     0.00000     0.00004     0.51314    -0.00028    -0.00022
 PX  C  70  -0.00000    -0.00000     0.00000     0.01694    -0.00003    -0.00002
 PY  C  70   0.00000     0.00000     0.00001     0.13643    -0.00029    -0.00024
 PZ  C  70   0.00000     0.00000     0.00000     0.01720    -0.00004    -0.00003
  
  S  O  71   0.00000     0.00000     0.00003     0.41051    -0.00029    -0.00023
 PX  O  71  -0.00000    -0.00000    -0.00001    -0.17536     0.00013     0.00010
 PY  O  71  -0.00000    -0.00000    -0.00000    -0.00592    -0.00004    -0.00003
 PZ  O  71   0.00000     0.00000     0.00000     0.00562    -0.00001    -0.00001
  
  S  O  72   0.00000     0.00000     0.00004     0.57211    -0.00058    -0.00047
 PX  O  72   0.00000     0.00000     0.00001     0.15833    -0.00017    -0.00014
 PY  O  72  -0.00000    -0.00000    -0.00000    -0.06296     0.00002     0.00002
 PZ  O  72  -0.00000    -0.00000    -0.00000    -0.01445     0.00001     0.00001
  
  S  H  73   0.00000     0.00000     0.00001     0.05138     0.00029     0.00024
  
  S  H  74   0.00000     0.00000     0.00002     0.01626     0.00061     0.00050
  
  S  H  75   0.00000     0.00000     0.00006     0.00512     0.00077     0.00062
  
  S  H  76   0.00000     0.00000     0.00028     0.00116     0.00134     0.00102
  
  S  H  77   0.00001     0.00001     0.00080     0.00045     0.00184     0.00136
  
  S  H  78   0.00006     0.00005     0.00368     0.00011     0.00340     0.00247
  
  S  H  79   0.00022     0.00018     0.01156     0.00004     0.00460     0.00363
  
  S  H  80   0.00079     0.00158     0.04327     0.00001     0.01967     0.00806
  
  S  H  81   0.00134     0.00538     0.06695    -0.00001     0.04251     0.01547
  
  S  H  82   0.00068     0.00638     0.02818    -0.00000     0.05735     0.03193
  
  S  H  83   0.00065     0.01483     0.00647    -0.00000     0.07814     0.05020
  
  S  H  84   0.00188     0.04903     0.00144    -0.00000     0.06663     0.04398
  
  S  H  85   0.00189     0.04909     0.00190    -0.00000     0.06736     0.04432
  
  S  H  86   0.00073     0.01521     0.01079    -0.00000     0.08271     0.05216
  
  S  H  87   0.00191     0.05029    -0.00097     0.00000     0.00262     0.00177
  
  S  H  88   0.00079     0.02094    -0.00077     0.00000    -0.01536    -0.01030
  
  S  H  89   0.00075     0.01978    -0.00081     0.00000    -0.01832    -0.01229
  
  S  H  90   0.00123     0.03265    -0.00130     0.00000    -0.02558    -0.01708
  
  S  H  91   0.00191     0.05029    -0.00105     0.00000     0.00241     0.00166
  
  S  H  92   0.00079     0.02096    -0.00079     0.00000    -0.01545    -0.01035
  
  S  H  93   0.00075     0.01980    -0.00081     0.00000    -0.01840    -0.01233
  
  S  H  94   0.00123     0.03266    -0.00131     0.00000    -0.02564    -0.01712
  
  S  H  95   0.00122     0.00061     0.04132     0.00001     0.00049     0.00820
  
  S  H  96   0.00506     0.00040     0.04153    -0.00001    -0.02882     0.03639
  
  S  H  97   0.00674     0.00048     0.05086    -0.00001    -0.03814     0.04461
  
  S  H  98   0.01478    -0.00047     0.00783    -0.00000    -0.05138     0.07763
  
  S  H  99   0.04893    -0.00185     0.00170    -0.00000    -0.04387     0.06823
  
  S  H 100   0.04901    -0.00185     0.00216    -0.00000    -0.04429     0.06869
  
  S  H 101   0.01518    -0.00042     0.01272    -0.00000    -0.05455     0.08097
  
  S  H 102   0.05028    -0.00193    -0.00111     0.00000    -0.00172     0.00274
  
  S  H 103   0.02093    -0.00081    -0.00088     0.00000     0.01011    -0.01598
  
  S  H 104   0.01976    -0.00076    -0.00092     0.00000     0.01205    -0.01905
  
  S  H 105   0.03262    -0.00126    -0.00148     0.00000     0.01682    -0.02647
  
  S  H 106   0.05022    -0.00193    -0.00118     0.00000    -0.00162     0.00262
  
  S  H 107   0.02092    -0.00081    -0.00089     0.00000     0.01014    -0.01602
  
  S  H 108   0.01975    -0.00076    -0.00092     0.00000     0.01208    -0.01909
  
  S  H 109   0.03261    -0.00126    -0.00149     0.00000     0.01684    -0.02649
  
  S  H 110   0.00207     0.00228     0.10793    -0.00002     0.00070    -0.01754
  
  S  H 111   0.00222     0.00164     0.10319    -0.00002    -0.00766    -0.01775
  
  S  H 112   0.00177     0.00145     0.08866    -0.00002    -0.00577    -0.01772
  
  S  H 113   0.00000     0.00000     0.00002     0.24081    -0.00026    -0.00021




    ROOT NO.    7           8           9          10          11          12

           -43.82773   -43.45735   -42.90934   -42.90577   -42.53554   -41.52391
  
  
  S  N   1   0.01834     0.04586     0.00002    -0.00001    -0.05390     0.03639
 PX  N   1   0.00972     0.02420     0.00001    -0.00001    -0.02803     0.01852
 PY  N   1  -0.00294    -0.00675    -0.00000     0.00000     0.00635    -0.00322
 PZ  N   1   0.00019     0.00043     0.00000    -0.00000    -0.00036     0.00013
  
  S  C   2   0.03236     0.08010     0.00004    -0.00002    -0.09076     0.05796
 PX  C   2   0.00544     0.01311     0.00001    -0.00000    -0.01317     0.00653
 PY  C   2  -0.01009    -0.02314    -0.00001     0.00001     0.02174    -0.01113
 PZ  C   2  -0.00016    -0.00039    -0.00000     0.00000     0.00048    -0.00037
  
  S  C   3   0.03784     0.09445     0.00005    -0.00002    -0.10776     0.06845
 PX  C   3  -0.00242    -0.00514    -0.00000     0.00000     0.00388    -0.00106
 PY  C   3  -0.02276    -0.05259    -0.00002     0.00001     0.05080    -0.02708
 PZ  C   3  -0.00205    -0.00479    -0.00000     0.00000     0.00482    -0.00276
  
  S  C   4   0.06573     0.15524     0.00007    -0.00004    -0.15639     0.08686
 PX  C   4  -0.01913    -0.04473    -0.00002     0.00001     0.04393    -0.02352
 PY  C   4  -0.01757    -0.03724    -0.00001     0.00001     0.02625    -0.00634
 PZ  C   4   0.00007     0.00049     0.00000    -0.00000    -0.00138     0.00142
  
  S  C   5   0.13469     0.29700     0.00012    -0.00006    -0.24638     0.10280
 PX  C   5  -0.02430    -0.05246    -0.00002     0.00001     0.04022    -0.01399
 PY  C   5  -0.03122    -0.06099    -0.00002     0.00001     0.03014     0.00233
 PZ  C   5   0.00468     0.01186     0.00001    -0.00000    -0.01351     0.00794
  
  S  C   6   0.13646     0.29585     0.00012    -0.00006    -0.23227     0.08710
 PX  C   6   0.03273     0.07157     0.00003    -0.00001    -0.05757     0.02255
 PY  C   6  -0.02446    -0.04716    -0.00001     0.00001     0.02215     0.00238
 PZ  C   6  -0.03503    -0.07455    -0.00003     0.00001     0.05497    -0.01815
  
  S  C   7   0.14459     0.28936     0.00010    -0.00005    -0.17585     0.03833
 PX  C   7   0.04514     0.09102     0.00003    -0.00002    -0.05650     0.01290
 PY  C   7   0.01945     0.05319     0.00003    -0.00001    -0.06305     0.03262
 PZ  C   7  -0.02651    -0.04825    -0.00001     0.00001     0.01873     0.00252
  
  S  C   8   0.17409     0.30863     0.00008    -0.00004    -0.10714    -0.02163
 PX  C   8  -0.00790    -0.01890    -0.00001     0.00000     0.01742    -0.00676
 PY  C   8   0.00940     0.05417     0.00004    -0.00002    -0.10286     0.06033
 PZ  C   8   0.01148     0.03712     0.00002    -0.00001    -0.05037     0.02580
  
  S  S   9   0.10739     0.21531     0.00008    -0.00004    -0.13303     0.03217
 PX  S   9  -0.05354    -0.10916    -0.00004     0.00002     0.07047    -0.01789
 PY  S   9  -0.00936    -0.00582     0.00001    -0.00000    -0.02508     0.02397
 PZ  S   9   0.03708     0.07984     0.00003    -0.00002    -0.06085     0.02120
  
  S  C  10   0.19773     0.22724    -0.00002     0.00001     0.16804    -0.18442
 PX  C  10   0.01250     0.01146    -0.00000     0.00000     0.02195    -0.02124
 PY  C  10  -0.03260     0.00146     0.00004    -0.00002    -0.11029     0.06798
 PZ  C  10  -0.00912     0.00670     0.00002    -0.00001    -0.04359     0.02422
  
  S  C  11   0.17888     0.17222    -0.00005     0.00002     0.22462    -0.20175
 PX  C  11  -0.06788    -0.06320     0.00002    -0.00001    -0.08681     0.07434
 PY  C  11  -0.00964     0.00658     0.00001    -0.00001    -0.03897     0.01724
 PZ  C  11  -0.02091    -0.01275     0.00001    -0.00001    -0.03851     0.02609
  
  S  C  12   0.18651     0.13392    -0.00007     0.00004     0.26556    -0.17570
 PX  C  12  -0.05847    -0.03473     0.00002    -0.00001    -0.08103     0.04058
 PY  C  12   0.04273     0.04918    -0.00001     0.00000     0.06209    -0.06999
 PZ  C  12   0.00392     0.01247     0.00000    -0.00000     0.00641    -0.01972
  
  S  C  13   0.22334     0.10737    -0.00010     0.00005     0.29501    -0.10854
 PX  C  13   0.01882     0.03766    -0.00000     0.00000     0.04011    -0.06596
 PY  C  13   0.00753     0.04604     0.00001    -0.00000     0.02565    -0.08006
 PZ  C  13   0.01036     0.02871     0.00000    -0.00000     0.02310    -0.04842
  
  S  S  14   0.14660     0.11931    -0.00004     0.00002     0.17623    -0.12146
 PX  S  14   0.08027     0.07386    -0.00002     0.00001     0.10394    -0.08785
 PY  S  14  -0.03044     0.00046     0.00002    -0.00001    -0.05781     0.01106
 PZ  S  14   0.00920     0.02021     0.00000    -0.00000     0.00211    -0.01670
  
  S  C  15   0.25245    -0.03668    -0.00014     0.00007     0.23311     0.16114
 PX  C  15  -0.03066     0.03028     0.00002    -0.00001    -0.00755    -0.06834
 PY  C  15  -0.03435     0.04315     0.00002    -0.00001     0.00227    -0.08685
 PZ  C  15  -0.00845     0.02283     0.00001    -0.00000     0.01287    -0.03915
  
  S  C  16   0.22986    -0.07396    -0.00013     0.00007     0.17597     0.21840
 PX  C  16   0.05850    -0.01212    -0.00003     0.00002     0.05226     0.04485
 PY  C  16  -0.02092     0.02137     0.00001    -0.00001     0.00185    -0.03848
 PZ  C  16  -0.06838     0.03229     0.00004    -0.00002    -0.03922    -0.07605
  
  S  C  17   0.24625    -0.11907    -0.00013     0.00007     0.11396     0.22945
 PX  C  17   0.08070    -0.03588    -0.00005     0.00002     0.04495     0.07826
 PY  C  17   0.03567    -0.00616    -0.00003     0.00001     0.04633     0.05340
 PZ  C  17  -0.02905     0.02397     0.00001    -0.00000     0.01400    -0.00678
  
  S  C  18   0.28777    -0.16510    -0.00013     0.00006     0.05338     0.19396
 PX  C  18  -0.02060     0.01326     0.00001    -0.00001    -0.00235    -0.01825
 PY  C  18   0.01225     0.01369    -0.00002     0.00001     0.06401     0.06165
 PZ  C  18   0.02653     0.00562    -0.00003     0.00002     0.06883     0.07598
  
  S  S  19   0.18620    -0.07101    -0.00010     0.00005     0.10833     0.14496
 PX  S  19  -0.09330     0.04321     0.00005    -0.00003    -0.04881    -0.09027
 PY  S  19  -0.02176     0.02635     0.00001    -0.00000     0.01852    -0.01927
 PZ  S  19   0.05529    -0.00787    -0.00003     0.00002     0.05939     0.05050
  
  S  C  20   0.27816    -0.22463    -0.00005     0.00002    -0.15820    -0.02382
 PX  C  20  -0.00839     0.00612    -0.00001    -0.00001     0.00223    -0.00727
 PY  C  20  -0.01015     0.02260    -0.00001     0.00001     0.05637     0.06012
 PZ  C  20  -0.00822     0.02152    -0.00002     0.00001     0.05686     0.05979
  
  S  C  21   0.19870    -0.17690    -0.00006    -0.00005    -0.17158    -0.10484
 PX  C  21  -0.06950     0.06080     0.00000    -0.00002     0.05596     0.01814
 PY  C  21   0.01375    -0.00520     0.00000     0.00003     0.01377     0.03364
 PZ  C  21  -0.01170     0.01686     0.00000     0.00003     0.03353     0.03786
  
  S  C  22   0.10969    -0.11027    -0.00008    -0.00012    -0.13902    -0.13010
 PX  C  22  -0.02556     0.02388    -0.00000    -0.00008     0.02598    -0.00223
 PY  C  22   0.06064    -0.05383     0.00002     0.00002    -0.05286    -0.02309
 PZ  C  22   0.04721    -0.04168     0.00001     0.00000    -0.04034    -0.02522
  
  S  C  23   0.01583    -0.02488    -0.00007    -0.00039    -0.04840    -0.11530
 PX  C  23  -0.00252     0.00258     0.00002    -0.00015     0.00472    -0.01232
 PY  C  23   0.01662    -0.01507    -0.00001     0.00003    -0.01664    -0.00316
 PZ  C  23   0.01700    -0.01704    -0.00000     0.00003    -0.02135    -0.03084
  
  S  C  24   0.00574    -0.01588    -0.00003    -0.00005    -0.03555    -0.13080
 PX  C  24  -0.01160     0.00986     0.00002     0.00008     0.01152    -0.00392
 PY  C  24   0.01171    -0.01010    -0.00001    -0.00021    -0.01115    -0.00004
 PZ  C  24   0.00291    -0.00048     0.00001     0.00033     0.00358     0.02295
  
  S  C  25  -0.03295     0.01479     0.00001     0.00026    -0.00182    -0.13285
 PX  C  25  -0.01191     0.00887     0.00001    -0.00009     0.00993     0.00530
 PY  C  25   0.00844    -0.00651    -0.00001    -0.00115    -0.00750    -0.00557
 PZ  C  25   0.00377    -0.00242    -0.00000     0.00162    -0.00168     0.00402
  
  S  C  26  -0.03383     0.01874     0.00002     0.00641     0.00905    -0.07788
 PX  C  26  -0.00855     0.00591     0.00001     0.00331     0.00608     0.00597
 PY  C  26  -0.00402     0.00138    -0.00000    -0.00211    -0.00164    -0.02726
 PZ  C  26   0.01126    -0.00655    -0.00001     0.00038    -0.00390     0.01954
  
  S  C  27  -0.03526     0.02193     0.00003     0.01893     0.01800     0.00439
 PX  C  27   0.00213    -0.00064     0.00000     0.00820     0.00184     0.04269
 PY  C  27  -0.01192     0.00699     0.00001    -0.00222     0.00429    -0.02380
 PZ  C  27   0.00844    -0.00546    -0.00001     0.00252    -0.00521    -0.01538
  
  S  C  28  -0.03866     0.02533     0.00004     0.00030     0.02558     0.10192
 PX  C  28   0.00949    -0.00498    -0.00000     0.00232    -0.00043     0.07611
 PY  C  28  -0.00624     0.00325     0.00000    -0.00611     0.00021    -0.05035
 PZ  C  28  -0.00269     0.00143     0.00000     0.02301     0.00019    -0.02129
  
  S  C  29  -0.03527     0.02175     0.00003    -0.01825     0.01737     0.00178
 PX  C  29   0.00791    -0.00416    -0.00000    -0.00378    -0.00085     0.04164
 PY  C  29   0.00541    -0.00391    -0.00001     0.00547    -0.00501    -0.03165
 PZ  C  29  -0.01119     0.00678     0.00001     0.00611     0.00497    -0.00808
  
  S  C  30  -0.03374     0.01803     0.00002    -0.00578     0.00680    -0.08646
 PX  C  30  -0.00330     0.00333     0.00001    -0.00265     0.00575     0.02226
 PY  C  30   0.01218    -0.00764    -0.00001     0.00163    -0.00605     0.01019
 PZ  C  30  -0.00749     0.00370     0.00000     0.00222     0.00058    -0.02618
  
  S  N  31  -0.00938     0.00861     0.00002    -0.00005     0.01805     0.24471
 PX  N  31   0.00951    -0.00606    -0.00001     0.01650    -0.00545    -0.00332
 PY  N  31  -0.00626     0.00399     0.00001    -0.00105     0.00358     0.00214
 PZ  N  31  -0.00270     0.00173     0.00001     0.06083     0.00154     0.00100
  
  S  C  32   0.00888    -0.00498    -0.00002    -0.23073    -0.00255     0.02318
 PX  C  32   0.00673    -0.00459    -0.00001    -0.02324    -0.00548    -0.03763
 PY  C  32  -0.00489     0.00350     0.00001     0.03619     0.00484     0.04607
 PZ  C  32  -0.00307     0.00305     0.00002     0.11416     0.00751     0.12488
  
  S  C  33   0.00653    -0.00456    -0.00003    -0.27181    -0.00663    -0.08746
 PX  C  33   0.00472    -0.00329    -0.00001    -0.09817    -0.00446    -0.04663
 PY  C  33  -0.00327     0.00233     0.00001     0.05795     0.00329     0.03543
 PZ  C  33  -0.00139     0.00125     0.00000     0.00034     0.00267     0.03899
  
  S  C  34   0.00986    -0.00722    -0.00004    -0.28526    -0.01134    -0.14791
 PX  C  34   0.00253    -0.00184    -0.00001    -0.05225    -0.00276    -0.03249
 PY  C  34  -0.00086     0.00063     0.00000     0.01195     0.00096     0.01104
 PZ  C  34   0.00364    -0.00259    -0.00001    -0.10221    -0.00377    -0.04476
  
  S  C  35   0.01115    -0.00817    -0.00004    -0.27950    -0.01271    -0.16069
 PX  C  35  -0.00152     0.00110     0.00001     0.04897     0.00170     0.02211
 PY  C  35   0.00166    -0.00119    -0.00001    -0.04592    -0.00179    -0.02205
 PZ  C  35   0.00421    -0.00301    -0.00001    -0.09308    -0.00437    -0.04962
  
  S  C  36   0.01326    -0.00947    -0.00004    -0.25014    -0.01372    -0.15485
 PX  C  36  -0.00414     0.00293     0.00001     0.09999     0.00413     0.04613
 PY  C  36   0.00272    -0.00189    -0.00001    -0.05569    -0.00253    -0.02588
 PZ  C  36   0.00129    -0.00074     0.00000     0.02405    -0.00033     0.00976
  
  S  C  37   0.01786    -0.01175    -0.00003    -0.18688    -0.01303    -0.08760
 PX  C  37  -0.00132     0.00056     0.00000     0.05545    -0.00058    -0.02325
 PY  C  37   0.00068    -0.00016    -0.00000    -0.00745     0.00099     0.02703
 PZ  C  37  -0.00032     0.00078     0.00001     0.14253     0.00328     0.07015
  
  S  C  38   0.01789    -0.01175    -0.00000     0.18657    -0.01315    -0.08768
 PX  C  38  -0.00089     0.00002     0.00000     0.02953    -0.00230    -0.05737
 PY  C  38   0.00079    -0.00023     0.00000     0.00971     0.00089     0.02608
 PZ  C  38   0.00098    -0.00095     0.00001     0.14999    -0.00257    -0.04726
  
  S  C  39   0.00892    -0.00499     0.00001     0.23049    -0.00267     0.02323
 PX  C  39   0.00756    -0.00566    -0.00000     0.08180    -0.00886    -0.09918
 PY  C  39  -0.00454     0.00326     0.00000    -0.03300     0.00459     0.04405
 PZ  C  39  -0.00098    -0.00013     0.00000     0.08434    -0.00349    -0.08591
  
  S  C  40   0.00659    -0.00457     0.00001     0.27182    -0.00678    -0.08743
 PX  C  40   0.00488    -0.00355     0.00000     0.08181    -0.00536    -0.06048
 PY  C  40  -0.00306     0.00219    -0.00000    -0.06082     0.00319     0.03519
 PZ  C  40  -0.00135     0.00070    -0.00000    -0.05091     0.00014    -0.00850
  
  S  C  41   0.00991    -0.00723     0.00001     0.28529    -0.01152    -0.14806
 PX  C  41   0.00018    -0.00016    -0.00000    -0.01140    -0.00029    -0.00316
 PY  C  41  -0.00094     0.00069     0.00000    -0.01508     0.00107     0.01253
 PZ  C  41  -0.00443     0.00316    -0.00000    -0.11383     0.00471     0.05497
  
  S  C  42   0.01120    -0.00818     0.00001     0.27950    -0.01290    -0.16089
 PX  C  42  -0.00352     0.00252    -0.00000    -0.09055     0.00380     0.04493
 PY  C  42   0.00167    -0.00120     0.00000     0.04612    -0.00183    -0.02217
 PZ  C  42  -0.00279     0.00198    -0.00000    -0.05328     0.00285     0.03055
  
  S  C  43   0.01330    -0.00948     0.00000     0.25004    -0.01389    -0.15502
 PX  C  43  -0.00418     0.00286    -0.00000    -0.07123     0.00369     0.03359
 PY  C  43   0.00278    -0.00193     0.00000     0.05730    -0.00263    -0.02674
 PZ  C  43   0.00109    -0.00091     0.00000     0.07291    -0.00194    -0.03252
  
  S  C  44   0.01024    -0.02096    -0.00005     0.00006    -0.04765    -0.03596
 PX  C  44   0.00567    -0.00574    -0.00006    -0.00006    -0.00719    -0.01752
 PY  C  44   0.10790    -0.09790     0.00005    -0.00003    -0.10287    -0.06622
 PZ  C  44   0.09706    -0.08837     0.00003    -0.00004    -0.09322    -0.06444
  
  S  C  45   0.11736    -0.11409     0.00014     0.00007    -0.13625    -0.07594
 PX  C  45   0.03425    -0.03276    -0.00009    -0.00000    -0.03709    -0.02392
 PY  C  45   0.04538    -0.03932    -0.00000    -0.00002    -0.03604    -0.01888
 PZ  C  45   0.05539    -0.04880    -0.00003    -0.00002    -0.04628    -0.02512
  
  S  C  46   0.20957    -0.18221     0.00005     0.00003    -0.16527    -0.06282
 PX  C  46   0.06937    -0.06023    -0.00004    -0.00000    -0.05394    -0.02308
 PY  C  46  -0.01497     0.02005    -0.00003    -0.00000     0.03751     0.03420
 PZ  C  46   0.01209    -0.00293    -0.00004    -0.00000     0.01835     0.02742
  
  S  C  47   0.02425    -0.02737     0.00045     0.00006    -0.04279    -0.02564
 PX  C  47   0.00772    -0.00875    -0.00013     0.00002    -0.01320    -0.00501
 PY  C  47   0.01289    -0.01158    -0.00006    -0.00000    -0.01182    -0.00675
 PZ  C  47   0.01711    -0.01517    -0.00008    -0.00000    -0.01451    -0.00601
  
  S  C  48  -0.00294    -0.00143     0.00014     0.00004    -0.01285    -0.01383
 PX  C  48  -0.00176     0.00127    -0.00010     0.00001     0.00067     0.00450
 PY  C  48   0.00483    -0.00429    -0.00014    -0.00000    -0.00430    -0.00239
 PZ  C  48   0.00380    -0.00467     0.00035     0.00002    -0.00820    -0.00310
  
  S  C  49  -0.00944     0.00602    -0.00008    -0.00001    -0.00007    -0.01520
 PX  C  49   0.00231    -0.00237    -0.00052     0.00002    -0.00387     0.00024
 PY  C  49   0.00101    -0.00090    -0.00113     0.00000    -0.00096    -0.00022
 PZ  C  49   0.00194    -0.00213     0.00154     0.00001    -0.00364    -0.00097
  
  S  C  50  -0.00914     0.00695    -0.00624    -0.00002     0.00473    -0.00907
 PX  C  50   0.00227    -0.00210     0.00263     0.00001    -0.00293    -0.00044
 PY  C  50   0.00268    -0.00209     0.00038     0.00001    -0.00160     0.00224
 PZ  C  50  -0.00129     0.00071     0.00289    -0.00000    -0.00054    -0.00324
  
  S  C  51  -0.00923     0.00780    -0.01877    -0.00003     0.00874     0.00044
 PX  C  51  -0.00058     0.00024     0.00396     0.00000    -0.00094    -0.00535
 PY  C  51   0.00229    -0.00198     0.00315     0.00001    -0.00245    -0.00120
 PZ  C  51  -0.00300     0.00240     0.00731    -0.00001     0.00207    -0.00248
  
  S  C  52  -0.01005     0.00893    -0.00025    -0.00004     0.01232     0.01185
 PX  C  52  -0.00265     0.00188    -0.01034    -0.00000     0.00022    -0.00963
 PY  C  52  -0.00039     0.00028    -0.00588    -0.00000     0.00006    -0.00140
 PZ  C  52  -0.00138     0.00096     0.02072    -0.00000     0.00003    -0.00523
  
  S  C  53  -0.00912     0.00761     0.01829    -0.00003     0.00829     0.00011
 PX  C  53  -0.00224     0.00160    -0.00888    -0.00000     0.00046    -0.00524
 PY  C  53  -0.00268     0.00222     0.00114    -0.00001     0.00235    -0.00039
 PZ  C  53   0.00156    -0.00150     0.00056     0.00001    -0.00246    -0.00332
  
  S  C  54  -0.00894     0.00648     0.00591    -0.00002     0.00334    -0.01004
 PX  C  54   0.00047    -0.00085    -0.00373     0.00001    -0.00248    -0.00246
 PY  C  54  -0.00200     0.00137    -0.00064    -0.00000     0.00039    -0.00300
 PZ  C  54   0.00319    -0.00273    -0.00043     0.00001    -0.00297     0.00124
  
  S  N  55  -0.00245     0.00305    -0.00012    -0.00002     0.00873     0.02874
 PX  N  55  -0.00267     0.00231    -0.03015    -0.00001     0.00281     0.00038
 PY  N  55  -0.00039     0.00034     0.00256    -0.00000     0.00042     0.00005
 PZ  N  55  -0.00142     0.00122     0.05536    -0.00001     0.00152     0.00020
  
  S  C  56   0.00233    -0.00180     0.23070    -0.00001    -0.00116     0.00275
 PX  C  56  -0.00215     0.00225    -0.10626    -0.00000     0.00501     0.01482
 PY  C  56  -0.00023     0.00020    -0.00021    -0.00000     0.00030     0.00035
 PZ  C  56  -0.00082     0.00052     0.06015    -0.00001    -0.00042    -0.00666
  
  S  C  57   0.00173    -0.00166     0.27192    -0.00001    -0.00314    -0.01028
 PX  C  57  -0.00135     0.00136    -0.08402    -0.00000     0.00282     0.00814
 PY  C  57  -0.00017     0.00016    -0.01763     0.00000     0.00029     0.00080
 PZ  C  57  -0.00072     0.00062    -0.07504     0.00000     0.00077     0.00108
  
  S  C  58   0.00259    -0.00260     0.28535    -0.00001    -0.00540    -0.01737
 PX  C  58   0.00015    -0.00014     0.03211    -0.00000    -0.00022    -0.00068
 PY  C  58  -0.00014     0.00013    -0.01197     0.00000     0.00027     0.00081
 PZ  C  58  -0.00117     0.00115    -0.11023     0.00000     0.00224     0.00653
  
  S  C  59   0.00293    -0.00293     0.27951    -0.00001    -0.00606    -0.01886
 PX  C  59   0.00117    -0.00114     0.11151    -0.00000    -0.00224    -0.00657
 PY  C  59   0.00005    -0.00005     0.00656    -0.00000    -0.00010    -0.00033
 PZ  C  59  -0.00045     0.00044    -0.02637    -0.00000     0.00081     0.00201
  
  S  C  60   0.00347    -0.00339     0.25012    -0.00000    -0.00655    -0.01817
 PX  C  60   0.00118    -0.00109     0.06788    -0.00000    -0.00181    -0.00379
 PY  C  60   0.00018    -0.00018     0.01770    -0.00000    -0.00034    -0.00096
 PZ  C  60   0.00061    -0.00063     0.09359    -0.00000    -0.00140    -0.00496
  
  S  C  61   0.00467    -0.00418     0.18681     0.00000    -0.00624    -0.01025
 PX  C  61   0.00022     0.00005    -0.05908     0.00000     0.00142     0.00854
 PY  C  61   0.00007    -0.00005     0.01277    -0.00000    -0.00000     0.00025
 PZ  C  61   0.00033    -0.00036     0.14075    -0.00001    -0.00083    -0.00354
  
  S  C  62   0.00464    -0.00412    -0.18669     0.00003    -0.00641    -0.01029
 PX  C  62   0.00039    -0.00025    -0.08705     0.00001    -0.00000     0.00164
 PY  C  62   0.00002     0.00002     0.00864    -0.00000     0.00023     0.00127
 PZ  C  62   0.00002     0.00020     0.12570    -0.00001     0.00175     0.00904
  
  S  C  63   0.00229    -0.00172    -0.23069     0.00002    -0.00135     0.00273
 PX  C  63  -0.00186     0.00166     0.00671    -0.00001     0.00239     0.00244
 PY  C  63  -0.00037     0.00037     0.01655    -0.00000     0.00081     0.00222
 PZ  C  63  -0.00132     0.00155     0.12067    -0.00002     0.00449     0.01594
  
  S  C  64   0.00169    -0.00157    -0.27183     0.00003    -0.00335    -0.01030
 PX  C  64  -0.00133     0.00123     0.10968    -0.00002     0.00229     0.00538
 PY  C  64  -0.00023     0.00023     0.01100    -0.00000     0.00047     0.00120
 PZ  C  64  -0.00073     0.00079     0.02886    -0.00001     0.00195     0.00618
  
  S  C  65   0.00256    -0.00251    -0.28518     0.00004    -0.00566    -0.01742
 PX  C  65  -0.00090     0.00088     0.07604    -0.00001     0.00186     0.00519
 PY  C  65   0.00002    -0.00002    -0.00551     0.00000    -0.00004    -0.00014
 PZ  C  65   0.00075    -0.00071    -0.08660     0.00001    -0.00147    -0.00413
  
  S  C  66   0.00289    -0.00285    -0.27934     0.00004    -0.00632    -0.01892
 PX  C  66   0.00025    -0.00024    -0.03861     0.00000    -0.00057    -0.00190
 PY  C  66   0.00016    -0.00016    -0.01568     0.00000    -0.00033    -0.00092
 PZ  C  66   0.00120    -0.00116    -0.10688     0.00002    -0.00241    -0.00657
  
  S  C  67   0.00344    -0.00332    -0.24998     0.00004    -0.00679    -0.01822
 PX  C  67   0.00115    -0.00110    -0.11638     0.00002    -0.00229    -0.00630
 PY  C  67   0.00017    -0.00015    -0.00957     0.00000    -0.00026    -0.00053
 PZ  C  67   0.00065    -0.00056    -0.00531     0.00000    -0.00074    -0.00044
  
  S  O  68  -0.22381     0.19477    -0.00016     0.00017     0.18779     0.13110
 PX  O  68   0.00180    -0.00180    -0.00002    -0.00002    -0.00222    -0.00547
 PY  O  68   0.02380    -0.02270     0.00002    -0.00001    -0.02719    -0.02052
 PZ  O  68  -0.05230     0.04458    -0.00004     0.00004     0.04058     0.02636
  
  S  C  69  -0.11824     0.10379    -0.00008     0.00008     0.10274     0.07049
 PX  C  69  -0.00560     0.00462    -0.00002    -0.00001     0.00393    -0.00049
 PY  C  69  -0.06721     0.05858    -0.00005     0.00005     0.05671     0.03960
 PZ  C  69   0.01711    -0.01574     0.00001    -0.00001    -0.01731    -0.01420
  
  S  C  70  -0.01534    -0.02956    -0.00001     0.00000     0.01678    -0.00239
 PX  C  70  -0.00164    -0.00317    -0.00000     0.00000     0.00067     0.00307
 PY  C  70  -0.02011    -0.04776    -0.00002     0.00001     0.05123    -0.03265
 PZ  C  70  -0.00246    -0.00587    -0.00000     0.00000     0.00643    -0.00426
  
  S  O  71  -0.01674    -0.03392    -0.00001     0.00001     0.02223    -0.00374
 PX  O  71   0.00771     0.01598     0.00001    -0.00000    -0.01164     0.00366
 PY  O  71  -0.00309    -0.00792    -0.00000     0.00000     0.00995    -0.00739
 PZ  O  71  -0.00066    -0.00156    -0.00000     0.00000     0.00167    -0.00107
  
  S  O  72  -0.03713    -0.08358    -0.00004     0.00002     0.08112    -0.04921
 PX  O  72  -0.01081    -0.02435    -0.00001     0.00001     0.02344    -0.01368
 PY  O  72   0.00095     0.00118    -0.00000     0.00000     0.00109    -0.00193
 PZ  O  72   0.00056     0.00114     0.00000    -0.00000    -0.00080     0.00029
  
  S  H  73   0.02028     0.04831     0.00002    -0.00001    -0.04970     0.02841
  
  S  H  74   0.03977     0.08827     0.00004    -0.00002    -0.07459     0.03185
  
  S  H  75   0.04327     0.08284     0.00003    -0.00001    -0.04274     0.00494
  
  S  H  76   0.05132     0.05396    -0.00001     0.00000     0.05747    -0.05714
  
  S  H  77   0.05551     0.03415    -0.00002     0.00001     0.07878    -0.04398
  
  S  H  78   0.06595    -0.01640    -0.00004     0.00002     0.05631     0.05757
  
  S  H  79   0.07592    -0.04108    -0.00003     0.00002     0.02353     0.06335
  
  S  H  80   0.06604    -0.05645    -0.00003    -0.00003    -0.04888    -0.03098
  
  S  H  81  -0.00541     0.00053    -0.00003    -0.00030    -0.00836    -0.03969
  
  S  H  82   0.00815    -0.01128    -0.00001     0.00016    -0.01878    -0.05183
  
  S  H  83  -0.00881     0.00445     0.00000     0.00258     0.00107    -0.02849
  
  S  H  84  -0.00952     0.00612     0.00001     0.01542     0.00569     0.01258
  
  S  H  85  -0.00954     0.00606     0.00001    -0.01519     0.00546     0.01156
  
  S  H  86  -0.00871     0.00389     0.00000    -0.00243    -0.00062    -0.03457
  
  S  H  87  -0.00043     0.00026    -0.00001    -0.07482    -0.00008    -0.01333
  
  S  H  88   0.00251    -0.00187    -0.00001    -0.07913    -0.00310    -0.04315
  
  S  H  89   0.00299    -0.00223    -0.00001    -0.07705    -0.00361    -0.04777
  
  S  H  90   0.00404    -0.00291    -0.00001    -0.06110    -0.00429    -0.04888
  
  S  H  91  -0.00040     0.00026     0.00001     0.07487    -0.00010    -0.01319
  
  S  H  92   0.00252    -0.00187     0.00000     0.07915    -0.00315    -0.04319
  
  S  H  93   0.00300    -0.00223     0.00000     0.07707    -0.00366    -0.04784
  
  S  H  94   0.00405    -0.00291    -0.00000     0.06107    -0.00433    -0.04893
  
  S  H  95   0.07336    -0.05993     0.00003     0.00002    -0.04423    -0.00554
  
  S  H  96   0.01320    -0.01367     0.00033     0.00002    -0.01883    -0.01155
  
  S  H  97  -0.00481     0.00251    -0.00013     0.00002    -0.00232    -0.00299
  
  S  H  98  -0.00254     0.00182    -0.00252    -0.00000     0.00079    -0.00325
  
  S  H  99  -0.00251     0.00219    -0.01534    -0.00001     0.00278     0.00146
  
  S  H 100  -0.00246     0.00211     0.01515    -0.00001     0.00260     0.00133
  
  S  H 101  -0.00241     0.00147     0.00247    -0.00000    -0.00025    -0.00392
  
  S  H 102  -0.00009     0.00007     0.07484    -0.00001    -0.00003    -0.00157
  
  S  H 103   0.00066    -0.00067     0.07915    -0.00000    -0.00148    -0.00507
  
  S  H 104   0.00079    -0.00080     0.07703    -0.00000    -0.00172    -0.00561
  
  S  H 105   0.00106    -0.00104     0.06107     0.00000    -0.00205    -0.00573
  
  S  H 106  -0.00012     0.00011    -0.07483     0.00001    -0.00006    -0.00156
  
  S  H 107   0.00065    -0.00065    -0.07910     0.00001    -0.00155    -0.00508
  
  S  H 108   0.00078    -0.00078    -0.07698     0.00001    -0.00179    -0.00562
  
  S  H 109   0.00105    -0.00102    -0.06103     0.00001    -0.00211    -0.00575
  
  S  H 110  -0.04035     0.03475    -0.00004     0.00001     0.03296     0.01762
  
  S  H 111  -0.04029     0.03521    -0.00001     0.00003     0.03449     0.02440
  
  S  H 112  -0.04113     0.03651    -0.00003     0.00003     0.03718     0.02622
  
  S  H 113  -0.01672    -0.03791    -0.00002     0.00001     0.03736    -0.02279




    ROOT NO.   13          14          15          16          17          18

           -41.47633   -41.36565   -39.69884   -39.28711   -39.15949   -37.96025
  
  
  S  N   1   0.01329    -0.02648    -0.04021     0.01686     0.39721    -0.01742
 PX  N   1   0.00676    -0.01342    -0.01905     0.00797     0.18667    -0.00766
 PY  N   1  -0.00116     0.00223     0.00892    -0.00004    -0.00184    -0.00013
 PZ  N   1   0.00005    -0.00008     0.00112     0.00004     0.00047     0.00002
  
  S  C   2   0.02111    -0.04175    -0.07827     0.02032     0.47662    -0.01727
 PX  C   2   0.00234    -0.00444    -0.02236    -0.00225    -0.05356     0.00517
 PY  C   2  -0.00401     0.00773     0.03670    -0.00001    -0.00509    -0.00032
 PZ  C   2  -0.00013     0.00027     0.00489     0.00008     0.00067     0.00005
  
  S  C   3   0.02492    -0.04926    -0.22886     0.01218     0.31746    -0.00936
 PX  C   3  -0.00036     0.00057    -0.09836    -0.00570    -0.10629     0.00230
 PY  C   3  -0.00977     0.01893     0.07029    -0.00199    -0.05294     0.00004
 PZ  C   3  -0.00100     0.00195     0.01187    -0.00012    -0.00478     0.00010
  
  S  C   4   0.03142    -0.06116    -0.25298     0.00780     0.21095    -0.00251
 PX  C   4  -0.00849     0.01643     0.02679    -0.00399    -0.08981     0.00116
 PY  C   4  -0.00213     0.00340    -0.08829     0.00011     0.03082    -0.00421
 PZ  C   4   0.00053    -0.00108    -0.01127     0.00025     0.00834    -0.00041
  
  S  C   5   0.03657    -0.06837    -0.01899     0.00313     0.03438     0.00905
 PX  C   5  -0.00491     0.00886    -0.03144     0.00002     0.01416    -0.00214
 PY  C   5   0.00117    -0.00377    -0.11361     0.00492     0.14075    -0.00548
 PZ  C   5   0.00287    -0.00559    -0.01097     0.00097     0.02125     0.00021
  
  S  C   6   0.03076    -0.05644     0.07318    -0.00000    -0.05465     0.01120
 PX  C   6   0.00799    -0.01477     0.00623     0.00004    -0.01020     0.00279
 PY  C   6   0.00111    -0.00326    -0.07157     0.00408     0.10981    -0.00371
 PZ  C   6  -0.00635     0.01138    -0.02761     0.00091     0.03472    -0.00299
  
  S  C   7   0.01294    -0.02108     0.14452    -0.00608    -0.18139     0.00755
 PX  C   7   0.00438    -0.00722     0.04292    -0.00190    -0.05633     0.00237
 PY  C   7   0.01168    -0.02212     0.01877     0.00050    -0.01288     0.00584
 PZ  C   7   0.00108    -0.00284    -0.02446     0.00153     0.03528     0.00053
  
  S  C   8  -0.00883     0.02150     0.13839    -0.00845    -0.18952    -0.00408
 PX  C   8  -0.00238     0.00431    -0.01594     0.00052     0.01974    -0.00168
 PY  C   8   0.02165    -0.04119     0.04059     0.00011    -0.04542     0.01128
 PZ  C   8   0.00921    -0.01729     0.02750    -0.00047    -0.03285     0.00505
  
  S  S   9   0.01100    -0.01861     0.06969    -0.00330    -0.09786     0.00427
 PX  S   9  -0.00613     0.01041    -0.04909     0.00198     0.06172    -0.00309
 PY  S   9   0.00876    -0.01738    -0.02711     0.00198     0.03486     0.00346
 PZ  S   9   0.00744    -0.01346     0.02670    -0.00085    -0.03496     0.00347
  
  S  C  10  -0.06708     0.13153     0.01181    -0.00665    -0.03234    -0.02758
 PX  C  10  -0.00772     0.01515    -0.00699    -0.00046     0.00788    -0.00465
 PY  C  10   0.02429    -0.04571     0.05213    -0.00117    -0.06840     0.00679
 PZ  C  10   0.00861    -0.01601     0.02309    -0.00073    -0.03078     0.00190
  
  S  C  11  -0.07303     0.14162    -0.03953    -0.00401     0.03976    -0.02839
 PX  C  11   0.02686    -0.05183     0.01534     0.00127    -0.01570     0.00881
 PY  C  11   0.00603    -0.01075     0.02281    -0.00122    -0.03202    -0.00095
 PZ  C  11   0.00934    -0.01765     0.01381    -0.00021    -0.01793     0.00185
  
  S  C  12  -0.06277     0.11807    -0.06619     0.00046     0.08120    -0.00927
 PX  C  12   0.01426    -0.02570     0.01837    -0.00093    -0.02302    -0.00308
 PY  C  12  -0.02554     0.05040    -0.01507    -0.00191     0.01587    -0.01369
 PZ  C  12  -0.00733     0.01507    -0.00177    -0.00104     0.00091    -0.00656
  
  S  C  13  -0.03726     0.06313    -0.06164     0.00509     0.07869     0.02096
 PX  C  13  -0.02423     0.04870    -0.01675    -0.00177     0.01966    -0.01442
 PY  C  13  -0.02970     0.06080    -0.01244    -0.00341     0.01222    -0.02160
 PZ  C  13  -0.01787     0.03620    -0.00928    -0.00172     0.00991    -0.01151
  
  S  S  14  -0.04347     0.08194    -0.02588    -0.00094     0.02682    -0.00573
 PX  S  14  -0.03172     0.06114    -0.01931    -0.00137     0.02040    -0.01002
 PY  S  14   0.00349    -0.00439     0.02118    -0.00203    -0.02944    -0.00779
 PZ  S  14  -0.00622     0.01290     0.00516    -0.00119    -0.00877    -0.00531
  
  S  C  15   0.06271    -0.14082    -0.00667     0.01368     0.01506     0.07174
 PX  C  15  -0.02543     0.05308    -0.01317    -0.00158     0.01584    -0.01388
 PY  C  15  -0.03230     0.06604    -0.01849    -0.00245     0.02265    -0.01011
 PZ  C  15  -0.01442     0.02856    -0.01031    -0.00072     0.01301     0.00053
  
  S  C  16   0.08290    -0.18004     0.01604     0.00998    -0.01460     0.06763
 PX  C  16   0.01748    -0.03845    -0.00002     0.00449     0.00170     0.01836
 PY  C  16  -0.01401     0.02838    -0.00912     0.00093     0.01158     0.00183
 PZ  C  16  -0.02847     0.06024    -0.00959    -0.00187     0.01083    -0.01251
  
  S  C  17   0.08427    -0.17654     0.02882    -0.00345    -0.03253     0.01448
 PX  C  17   0.02983    -0.06182     0.00874     0.00497    -0.00975     0.00974
 PY  C  17   0.02100    -0.04686     0.00401     0.00624    -0.00367     0.02998
 PZ  C  17  -0.00119    -0.00021    -0.00293     0.00648     0.00394     0.02500
  
  S  C  18   0.07106    -0.13540     0.02796     0.00016    -0.03355    -0.05172
 PX  C  18  -0.00425     0.01150    -0.00344     0.01444     0.00359     0.00641
 PY  C  18   0.02390    -0.05788     0.00440     0.00412    -0.00367     0.04739
 PZ  C  18   0.02945    -0.06882     0.00681     0.00505    -0.00670     0.04678
  
  S  S  19   0.05604    -0.11552     0.01070     0.01401    -0.01053     0.01928
 PX  S  19  -0.03401     0.07070    -0.01051    -0.00393     0.01176    -0.00980
 PY  S  19  -0.00765     0.01103    -0.00704    -0.00417     0.00979     0.01683
 PZ  S  19   0.01928    -0.04413     0.00041     0.00232     0.00147     0.02535
  
  S  C  20  -0.01369     0.06634     0.00602    -0.01302    -0.01007    -0.15703
 PX  C  20   0.00749    -0.00074    -0.00128     0.05545    -0.00147     0.00706
 PY  C  20   0.02105    -0.05417     0.00740    -0.00946    -0.00805     0.01137
 PZ  C  20   0.02493    -0.05598     0.00743     0.01136    -0.00926     0.01270
  
  S  C  21  -0.01072     0.09796    -0.00709     0.14878    -0.00203    -0.05921
 PX  C  21   0.01725    -0.03884     0.00033     0.04410    -0.00172     0.07030
 PY  C  21  -0.00091    -0.01467     0.00499    -0.06109    -0.00311    -0.04293
 PZ  C  21   0.00670    -0.02922     0.00487    -0.03687    -0.00386    -0.01151
  
  S  C  22   0.00676     0.09187    -0.01346     0.25282     0.00135     0.03016
 PX  C  22   0.02187    -0.03351    -0.00014     0.09685    -0.00445     0.08782
 PY  C  22  -0.02072     0.03634    -0.00150    -0.03931     0.00324    -0.04470
 PZ  C  22  -0.00846     0.02032    -0.00164     0.01244     0.00088    -0.00233
  
  S  C  23   0.05635    -0.01252    -0.01026     0.34568    -0.00567     0.22394
 PX  C  23   0.00822    -0.02610     0.00057    -0.00494     0.00004     0.06139
 PY  C  23  -0.00841     0.02185    -0.00122     0.00849     0.00070    -0.02827
 PZ  C  23   0.00737     0.00272    -0.00266     0.07056    -0.00050     0.05419
  
  S  C  24   0.07017    -0.06035    -0.00795     0.28940    -0.00486     0.28185
 PX  C  24   0.00778    -0.02725     0.00191    -0.05376     0.00078     0.00247
 PY  C  24  -0.00595     0.01947    -0.00146     0.03713    -0.00037     0.00086
[...]
    Config     896  -0.06320121  0.00399439
    Config     902   0.08599036  0.00739434
    Config     913  -0.06483123  0.00420309
    Config     915   0.04872062  0.00237370
    Config     923  -0.04251684  0.00180768
    Config     959  -0.09354110  0.00874994
    Config     990   0.05490271  0.00301431
    Config    1019   0.05995654  0.00359479
    Config    1022   0.05532082  0.00306039
    Config    1031   0.05873483  0.00344978
    Config    1032  -0.08202272  0.00672773
    Config    1065  -0.04077098  0.00166227
    Config    1066   0.08449975  0.00714021
    Config    1073  -0.04984875  0.00248490
    Config    1100  -0.04440503  0.00197181
    Config    1101   0.04425176  0.00195822
    Config    1130   0.06338147  0.00401721
    Config    1147   0.05580706  0.00311443
    Config    1154  -0.06860685  0.00470690
    Config    1175  -0.04079078  0.00166389
    Config    1203   0.05729248  0.00328243
    Config    1224  -0.04062851  0.00165068
    Config    1227   0.06215625  0.00386340
    Config    1260  -0.04807922  0.00231161
    Config    1298  -0.05419243  0.00293682
    Config    1368   0.04513633  0.00203729
 Total coeff printed             0.79018467
  
State  497  8.4709     CI coeff  CI percent
    Config     139  -0.05138484  0.00264040
    Config     168   0.05209115  0.00271349
    Config     182  -0.05522752  0.00305008
    Config     190   0.11298383  0.01276535
    Config     192  -0.04062951  0.00165076
    Config     196  -0.14006270  0.01961756
    Config     199   0.07130419  0.00508429
    Config     200  -0.05507172  0.00303289
    Config     219   0.06603307  0.00436037
    Config     230   0.04949516  0.00244977
    Config     231   0.12718146  0.01617512
    Config     270  -0.08488618  0.00720566
    Config     275  -0.05721398  0.00327344
    Config     287  -0.06750542  0.00455698
    Config     292  -0.05107746  0.00260891
    Config     316   0.09048895  0.00818825
    Config     317   0.04152607  0.00172441
    Config     336   0.19683573  0.03874431
    Config     339   0.04152397  0.00172424
    Config     341   0.04352326  0.00189427
    Config     357   0.05746909  0.00330270
    Config     358  -0.04173241  0.00174159
    Config     359   0.05170815  0.00267373
    Config     371  -0.04385898  0.00192361
    Config     375  -0.35674781  0.12726900
    Config     376   0.20320627  0.04129279
    Config     378  -0.07842693  0.00615078
    Config     391   0.04785618  0.00229021
    Config     394  -0.08680394  0.00753492
    Config     401   0.10169774  0.01034243
    Config     410   0.05187350  0.00269086
    Config     414   0.04201732  0.00176546
    Config     417  -0.04706992  0.00221558
    Config     429  -0.25175316  0.06337965
    Config     431  -0.08097141  0.00655637
    Config     439  -0.04121266  0.00169848
    Config     451  -0.04118984  0.00169660
    Config     462   0.12019139  0.01444597
    Config     478   0.04122676  0.00169965
    Config     485  -0.16668230  0.02778299
    Config     486   0.35366164  0.12507656
    Config     499  -0.04164305  0.00173414
    Config     505   0.05016446  0.00251647
    Config     506   0.04967959  0.00246806
    Config     508  -0.05634257  0.00317449
    Config     511  -0.06197676  0.00384112
    Config     513  -0.06044505  0.00365360
    Config     521   0.04259236  0.00181411
    Config     552   0.09590414  0.00919760
    Config     553   0.04597881  0.00211405
    Config     562   0.04151514  0.00172351
    Config     582  -0.08696437  0.00756280
    Config     595   0.06068371  0.00368251
    Config     597   0.10197156  0.01039820
    Config     603   0.06804983  0.00463078
    Config     651  -0.04243641  0.00180085
    Config     661   0.05389168  0.00290431
    Config     678   0.07987110  0.00637939
    Config     687  -0.04834319  0.00233706
    Config     703   0.04607155  0.00212259
    Config     708   0.05535282  0.00306393
    Config     725   0.07561498  0.00571762
    Config     753   0.07128005  0.00508085
    Config     762  -0.04922490  0.00242309
    Config     785  -0.05131860  0.00263360
    Config     839  -0.04068239  0.00165506
    Config     850   0.08715927  0.00759674
    Config     851  -0.08096766  0.00655576
    Config     871   0.08267112  0.00683451
    Config     910  -0.06448187  0.00415791
    Config     923  -0.08003049  0.00640488
    Config     953  -0.06033553  0.00364038
    Config    1173  -0.05986143  0.00358339
    Config    1174   0.04360741  0.00190161
    Config    1188  -0.04352543  0.00189446
    Config    1247   0.07277264  0.00529586
    Config    1634   0.04003210  0.00160257
 Total coeff printed             0.74108837
  
State  498  8.4715     CI coeff  CI percent
    Config     110  -0.06508581  0.00423616
    Config     125  -0.05266623  0.00277373
    Config     139  -0.04651294  0.00216345
    Config     155  -0.05714516  0.00326557
    Config     156  -0.04221962  0.00178250
    Config     163   0.09010539  0.00811898
    Config     165  -0.06567351  0.00431301
    Config     171  -0.04879613  0.00238106
    Config     184  -0.04343069  0.00188622
    Config     185  -0.05283748  0.00279180
    Config     187   0.06138852  0.00376855
    Config     188  -0.06970616  0.00485895
    Config     190   0.08058529  0.00649399
    Config     193  -0.05340383  0.00285197
    Config     194   0.04869777  0.00237147
    Config     200  -0.06349534  0.00403166
    Config     218  -0.05043195  0.00254338
    Config     219   0.04235144  0.00179364
    Config     221   0.08181445  0.00669360
    Config     222   0.11640705  0.01355060
    Config     231   0.06743676  0.00454772
    Config     241  -0.08715850  0.00759660
    Config     247   0.05997185  0.00359662
    Config     261   0.12035799  0.01448605
    Config     264  -0.13061643  0.01706065
    Config     267  -0.16305096  0.02658561
    Config     273   0.09257567  0.00857025
    Config     275  -0.06987110  0.00488197
    Config     278   0.09921490  0.00984360
    Config     280   0.05942442  0.00353126
    Config     283  -0.13570455  0.01841572
    Config     284   0.08065749  0.00650563
    Config     290  -0.10222971  0.01045091
    Config     292   0.05642851  0.00318418
    Config     296   0.04666847  0.00217795
    Config     303  -0.09468810  0.00896584
    Config     311  -0.07635301  0.00582978
    Config     315   0.05581438  0.00311524
    Config     324  -0.05497885  0.00302267
    Config     326   0.05234924  0.00274044
    Config     329  -0.06556958  0.00429937
    Config     331  -0.04085847  0.00166941
    Config     334   0.07718978  0.00595826
    Config     337   0.05457336  0.00297825
    Config     339   0.05278281  0.00278603
    Config     343   0.10711812  0.01147429
    Config     348   0.04095341  0.00167718
    Config     353  -0.07454282  0.00555663
    Config     354   0.05976014  0.00357127
    Config     357   0.20645866  0.04262518
    Config     361  -0.06993434  0.00489081
    Config     369   0.05295885  0.00280464
    Config     382   0.11739604  0.01378183
    Config     389   0.05610728  0.00314803
    Config     391  -0.04664647  0.00217589
    Config     394   0.10130974  0.01026366
    Config     407  -0.04945694  0.00244599
    Config     410   0.04684027  0.00219401
    Config     414   0.04208014  0.00177074
    Config     431  -0.05175130  0.00267820
    Config     436  -0.04577279  0.00209515
    Config     439   0.04090603  0.00167330
    Config     456  -0.04197510  0.00176191
    Config     462   0.04236128  0.00179448
    Config     463   0.08200991  0.00672562
    Config     470  -0.07537971  0.00568210
    Config     485  -0.04542621  0.00206354
    Config     489   0.08690682  0.00755280
    Config     500   0.11307664  0.01278633
    Config     502  -0.04467216  0.00199560
    Config     510   0.05352089  0.00286449
    Config     513   0.05938510  0.00352659
    Config     526   0.06102387  0.00372391
    Config     540   0.05889235  0.00346831
    Config     542  -0.04114001  0.00169250
    Config     573  -0.04356697  0.00189808
    Config     576   0.12245717  0.01499576
    Config     593   0.05153778  0.00265614
    Config     595   0.05960724  0.00355302
    Config     597  -0.13575695  0.01842995
    Config     614  -0.09876192  0.00975392
    Config     619  -0.08750714  0.00765750
    Config     628  -0.08779366  0.00770773
    Config     648  -0.06492743  0.00421557
    Config     664   0.12085448  0.01460581
    Config     678   0.06748847  0.00455469
    Config     683   0.04944154  0.00244447
    Config     695  -0.04869096  0.00237081
    Config     718   0.04870469  0.00237215
    Config     721  -0.05769960  0.00332924
    Config     723   0.06741598  0.00454491
    Config     725  -0.09135399  0.00834555
    Config     740  -0.04768266  0.00227364
    Config     748   0.04436406  0.00196817
    Config     753  -0.07084295  0.00501872
    Config     758   0.05113146  0.00261443
    Config     765  -0.04496983  0.00202229
    Config     766  -0.04674674  0.00218526
    Config     778  -0.06978909  0.00487052
    Config     789  -0.04049044  0.00163948
    Config     791  -0.05615756  0.00315367
    Config     805  -0.05656448  0.00319954
    Config     807   0.06261210  0.00392028
    Config     808   0.04579853  0.00209751
    Config     812  -0.04773307  0.00227845
    Config     851   0.08179169  0.00668988
    Config     852  -0.06712513  0.00450578
    Config     856  -0.04386860  0.00192445
    Config     860  -0.05593396  0.00312861
    Config     871   0.07060646  0.00498527
    Config     881  -0.04348653  0.00189108
    Config     886   0.05117672  0.00261906
    Config     909  -0.04422587  0.00195593
    Config     910   0.06051709  0.00366232
    Config     923  -0.07011891  0.00491666
    Config     944   0.05054664  0.00255496
    Config     953   0.06641302  0.00441069
    Config     980   0.05678060  0.00322404
    Config    1002  -0.04641678  0.00215452
    Config    1008  -0.04082442  0.00166663
    Config    1022   0.04879480  0.00238093
    Config    1031  -0.04858621  0.00236062
    Config    1035  -0.04427877  0.00196061
    Config    1074  -0.04269735  0.00182306
    Config    1155  -0.04230184  0.00178945
    Config    1167   0.04956932  0.00245712
    Config    1173  -0.05247747  0.00275389
    Config    1174  -0.05248093  0.00275425
    Config    1188   0.04346595  0.00188929
    Config    1194   0.04942365  0.00244270
    Config    1231   0.05116484  0.00261784
    Config    1247  -0.06877101  0.00472945
    Config    1344  -0.04587836  0.00210482
    Config    1634  -0.04546891  0.00206742
    Config    1718  -0.04234401  0.00179301
 Total coeff printed             0.67282690
  
State  499  8.4725     CI coeff  CI percent
    Config     123  -0.06138233  0.00376779
    Config     166   0.09960486  0.00992113
    Config     178  -0.07996511  0.00639442
    Config     184  -0.21301155  0.04537392
    Config     186  -0.09123549  0.00832391
    Config     190   0.04175667  0.00174362
    Config     212  -0.05681069  0.00322745
    Config     217  -0.13073072  0.01709052
    Config     222   0.34733868  0.12064416
    Config     226   0.10749221  0.01155458
    Config     234   0.19989437  0.03995776
    Config     238  -0.04858936  0.00236093
    Config     246  -0.07593863  0.00576668
    Config     247   0.40065758  0.16052650
    Config     264  -0.09137935  0.00835019
    Config     267   0.11615883  0.01349287
    Config     268  -0.32993388  0.10885637
    Config     273   0.04868659  0.00237038
    Config     280   0.09282677  0.00861681
    Config     283   0.06496727  0.00422075
    Config     286  -0.05358754  0.00287162
    Config     292  -0.04276326  0.00182870
    Config     293   0.05462394  0.00298377
    Config     329   0.06514162  0.00424343
    Config     335  -0.04160254  0.00173077
    Config     339   0.06831687  0.00466719
    Config     340   0.05118214  0.00261961
    Config     343  -0.04244474  0.00180156
    Config     357   0.04145804  0.00171877
    Config     363  -0.04169957  0.00173885
    Config     371   0.08719147  0.00760235
    Config     375   0.09061048  0.00821026
    Config     376  -0.05783089  0.00334441
    Config     382  -0.04052974  0.00164266
    Config     386   0.04072245  0.00165832
    Config     394  -0.04611080  0.00212621
    Config     401   0.04157880  0.00172880
    Config     424   0.06493126  0.00421607
    Config     429   0.06396980  0.00409214
    Config     460  -0.07598099  0.00577311
    Config     463  -0.13140631  0.01726762
    Config     467  -0.06128667  0.00375606
    Config     486  -0.08027143  0.00644350
    Config     495  -0.08959775  0.00802776
    Config     500  -0.07221112  0.00521445
    Config     512   0.04217511  0.00177874
    Config     514   0.04244750  0.00180179
    Config     515   0.04967372  0.00246748
    Config     520  -0.04443793  0.00197473
    Config     521  -0.09943745  0.00988781
    Config     541   0.05717326  0.00326878
    Config     553   0.04090913  0.00167356
    Config     597   0.10552086  0.01113465
    Config     637   0.04672858  0.00218356
    Config     721  -0.07508004  0.00563701
    Config     725   0.07190584  0.00517045
    Config     753   0.07140764  0.00509905
    Config     771  -0.05352423  0.00286484
    Config     793  -0.04654841  0.00216675
    Config     850  -0.04547465  0.00206794
    Config     851  -0.07594807  0.00576811
    Config     910  -0.05839884  0.00341042
    Config     953  -0.05821973  0.00338954
    Config     972  -0.04229761  0.00178909
    Config    1174   0.04454272  0.00198405
    Config    1247   0.06990794  0.00488712
    Config    1334   0.05711407  0.00326202
    Config    1456   0.04030758  0.00162470
    Config    1749  -0.04105901  0.00168584
 Total coeff printed             0.77684674
  
State  500  8.4741     CI coeff  CI percent
    Config     110  -0.04642645  0.00215542
    Config     125  -0.07921785  0.00627547
    Config     143   0.04770303  0.00227558
    Config     163   0.04545964  0.00206658
    Config     165  -0.04162393  0.00173255
    Config     171  -0.04437965  0.00196955
    Config     198  -0.04859318  0.00236130
    Config     200  -0.06469338  0.00418523
    Config     207  -0.04667376  0.00217844
    Config     212  -0.06560569  0.00430411
    Config     221   0.05895438  0.00347562
    Config     246  -0.07136960  0.00509362
    Config     248   0.05734324  0.00328825
    Config     250  -0.05630505  0.00317026
    Config     264   0.07771612  0.00603980
    Config     267   0.04955352  0.00245555
    Config     283   0.04023651  0.00161898
    Config     318   0.08245927  0.00679953
    Config     321   0.20338986  0.04136743
    Config     326   0.04413292  0.00194771
    Config     331  -0.10501625  0.01102841
    Config     339  -0.05171830  0.00267478
    Config     344   0.04613810  0.00212872
    Config     346   0.16641221  0.02769302
    Config     351   0.23715034  0.05624028
    Config     353   0.05125839  0.00262742
    Config     354   0.06650661  0.00442313
    Config     364   0.05033320  0.00253343
    Config     386   0.04501683  0.00202651
    Config     391  -0.07648167  0.00584945
    Config     392   0.04581202  0.00209874
    Config     398   0.08026544  0.00644254
    Config     401   0.04069674  0.00165622
    Config     407  -0.05215951  0.00272061
    Config     413   0.05171427  0.00267437
    Config     415   0.04799778  0.00230379
    Config     418  -0.09426957  0.00888675
    Config     421   0.08094720  0.00655245
    Config     422  -0.06511434  0.00423988
    Config     456   0.15954288  0.02545393
    Config     461  -0.08812778  0.00776651
    Config     464  -0.05358064  0.00287088
    Config     469  -0.04029487  0.00162368
    Config     470  -0.05623887  0.00316281
    Config     501  -0.04229004  0.00178845
    Config     502   0.06088655  0.00370717
    Config     504  -0.09024960  0.00814499
    Config     505  -0.10680970  0.01140831
    Config     508   0.11739774  0.01378223
    Config     513   0.12789771  0.01635782
    Config     515   0.09025753  0.00814642
    Config     518  -0.07654086  0.00585850
    Config     523   0.07317366  0.00535438
    Config     532   0.09837506  0.00967765
    Config     533  -0.06636527  0.00440435
    Config     576   0.06444205  0.00415278
    Config     577   0.06031614  0.00363804
    Config     578  -0.04742376  0.00224901
    Config     590  -0.15408804  0.02374312
    Config     596   0.04189326  0.00175504
    Config     597   0.05557218  0.00308827
    Config     605   0.04771343  0.00227657
    Config     614   0.05758240  0.00331573
    Config     617  -0.04566797  0.00208556
    Config     630   0.04857088  0.00235913
    Config     631   0.06709898  0.00450227
    Config     637   0.06780764  0.00459788
    Config     642   0.04762762  0.00226839
    Config     647  -0.05789247  0.00335154
    Config     655  -0.09422399  0.00887816
    Config     664   0.07079238  0.00501156
    Config     683  -0.05065159  0.00256558
    Config     684  -0.04288941  0.00183950
    Config     687   0.15658924  0.02452019
    Config     691  -0.04985611  0.00248563
    Config     704  -0.04365910  0.00190612
    Config     706   0.04582897  0.00210029
    Config     711  -0.10664596  0.01137336
    Config     723  -0.04128838  0.00170473
    Config     732  -0.05106628  0.00260777
    Config     736   0.06773483  0.00458801
    Config     743  -0.05025891  0.00252596
    Config     744  -0.05872673  0.00344883
    Config     757  -0.06755460  0.00456362
    Config     776   0.12828701  0.01645756
    Config     777  -0.05679888  0.00322611
    Config     785   0.14033144  0.01969291
    Config     786   0.05878574  0.00345576
    Config     795   0.09925114  0.00985079
    Config     800   0.08652103  0.00748589
    Config     803   0.08845875  0.00782495
    Config     804  -0.05950694  0.00354108
    Config     805  -0.05084435  0.00258515
    Config     810  -0.04030108  0.00162418
    Config     814  -0.08759637  0.00767312
    Config     820  -0.05677126  0.00322298
    Config     827   0.04527878  0.00205017
    Config     839  -0.04806003  0.00230977
    Config     863  -0.04032840  0.00162638
    Config     871   0.04228140  0.00178772
    Config     902   0.06156406  0.00379013
    Config     913  -0.05079444  0.00258007
    Config     959   0.08769957  0.00769121
    Config     988   0.04985989  0.00248601
    Config    1019   0.06290199  0.00395666
    Config    1021   0.04056897  0.00164584
    Config    1032  -0.06643019  0.00441297
    Config    1066   0.06078266  0.00369453
    Config    1084   0.04224306  0.00178448
    Config    1101   0.04162050  0.00173227
    Config    1110   0.07434486  0.00552716
    Config    1130  -0.04688899  0.00219858
    Config    1154  -0.04799550  0.00230357
    Config    1166  -0.05778808  0.00333946
    Config    1173  -0.04842044  0.00234454
    Config    1208  -0.04012025  0.00160963
    Config    1259   0.04143775  0.00171709
    Config    1395   0.04979767  0.00247981
    Config    1412  -0.05169922  0.00267281
    Config    1442  -0.08959570  0.00802739
    Config    1470   0.04369115  0.00190892
    Config    1684  -0.05744114  0.00329948
    Config    1871  -0.05092796  0.00259366
 Total coeff printed             0.70078301
  

 **********************
 *                    *
 * JOB ENDED NORMALLY *
 *                    *
 **********************



 TOTAL JOB TIME:           953.33 SECONDS

 == MOPAC DONE ==
