 *******************************************************************************
 ** Site#: 37966        For non-commercial use only           Version 21.186W **
 *******************************************************************************
 ** Cite this program as: MOPAC2016, Version: 21.186W, James J. P. Stewart,   **
 ** Stewart Computational Chemistry, web: HTTP://OpenMOPAC.net. Days left: 253**
 *******************************************************************************
 **                                                                           **
 **                                MOPAC2016                                  **
 **                                                                           **
 *******************************************************************************

                              INDO CALCULATION RESULTS

 *******************************************************************************
 *  CALCULATION DONE:                                Mon Oct 25 10:36:55 2021  *
 *  INDO       - The INDO Hamiltonian to be used
 *  CIS        - C.I. USES 1 ELECTRON EXCITATIONS ONLY
 *  EPS=4.81   - USE ANDREAS KLAMT'S COSMO IMPLICIT SOLVATION MODEL
 *  N**2=1.4   - USED IN COSMO-CI
 *  T=         - A TIME OF 172800.0 SECONDS REQUESTED
 *  DUMP=N     - RESTART FILE WRITTEN EVERY 7200.0 SECONDS REQUESTED
 *******************************************************************************
INDO CIS EPS=4.81 N**2=1.4
 Dye114
 Calculo de Estados Excitados
   ATOM   CHEMICAL          X               Y               Z
  NUMBER   SYMBOL      (ANGSTROMS)     (ANGSTROMS)     (ANGSTROMS)
 
     1       C          0.00000000  *   0.00000000  *   0.00000000  *
     2       C          1.51998927  *   0.00000000  *   0.00000000  *
     3       C          2.06094578  *   1.42761968  *   0.00000000  *
     4       C          3.58783085  *   1.42885099  *   0.00190711  *
     5       C          4.12653945  *   2.85777415  *   0.00066631  *
     6       C          5.65369028  *   2.85889973  *   0.00369860  *
     7       C          6.18773514  *   4.28843284  *   0.00216274  *
     8       C          7.72374393  *   4.27458508  *   0.00746671  *
     9       N          8.27857161  *   5.62577161  *   0.02779762  *
    10       C          8.19329906  *   6.47584425  *   1.15222269  *
    11       C          7.89762846  *   6.16200478  *   2.47742220  *
    12       C          7.94273527  *   7.19602606  *   3.39778472  *
    13       C          8.27020942  *   8.50387048  *   3.02042961  *
    14       C          8.56065170  *   8.81710212  *   1.70253947  *
    15       C          8.51820473  *   7.80063915  *   0.75977065  *
    16       C          8.74923268  *   7.77544096  *  -0.66005680  *
    17       C          8.55691614  *   6.43388654  *  -1.09196080  *
    18       C          8.71753776  *   6.11827191  *  -2.43636584  *
    19       S          8.56284672  *   4.61520283  *  -3.25407930  *
    20       C          8.95291130  *   5.35054097  *  -4.77726647  *
    21       C          9.19512142  *   6.67979505  *  -4.67629878  *
    22       C          9.06617030  *   7.15444866  *  -3.31819328  *
    23       C          9.25617820  *   8.47334501  *  -2.88902489  *
    24       C          9.09898788  *   8.78469894  *  -1.55279653  *
    25       C          8.99211400  *   4.55384053  *  -5.96348512  *
    26       C          7.96337216  *   3.82902895  *  -6.49304327  *
    27       C          8.35012997  *   3.14515144  *  -7.69058819  *
    28       C          9.65576485  *   3.38158657  *  -8.01597423  *
    29       S         10.42705877  *   4.42174164  *  -6.89216553  *
    30       C         10.36228938  *   2.85951820  *  -9.14187630  *
    31       C         11.58749641  *   2.25447830  *  -9.13015587  *
    32       C         11.99911205  *   1.85082393  * -10.43968902  *
    33       C         11.06787822  *   2.16712525  * -11.39069587  *
    34       S          9.69831487  *   2.95011906  * -10.71964137  *
    35       C         11.15968014  *   1.90600627  * -12.79025070  *
    36       C         10.66770528  *   2.70012384  * -13.79882423  *
    37       C         10.92691367  *   2.14107343  * -15.07857191  *
    38       C         11.61125325  *   0.94512867  * -14.99696487  *
    39       S         11.92156549  *   0.50885970  * -13.38317879  *
    40       C         11.98450284  *   0.19513948  * -16.15621192  *
    41       C         12.76740085  *  -0.90488478  * -16.17112490  *
    42       C         13.05433438  *  -1.56307864  * -17.45177165  *
    43       O         12.65357616  *  -1.21939515  * -18.55527476  *
    44       O         13.84336260  *  -2.65115019  * -17.34319486  *
    45       C         13.34702341  *  -1.47427366  * -15.01192351  *
    46       N         13.83389561  *  -1.95923350  * -14.08118650  *
    47       H         11.58279116  *   0.57741490  * -17.11028638  *
    48       H         -0.41717433  *   0.50825685  *  -0.88131242  *
    49       H         -0.40919606  *  -1.02068856  *  -0.00231016  *
    50       H         -0.41711344  *   0.50429095  *   0.88361066  *
    51       H          1.90225834  *  -0.56141093  *   0.87874044  *
    52       H          1.90234222  *  -0.56133550  *  -0.87875467  *
    53       H          1.67430109  *   1.98434231  *  -0.87972347  *
    54       H          1.67211549  *   1.98535064  *   0.87811736  *
    55       H          3.97257378  *   0.87169630  *   0.88222427  *
    56       H          3.97498293  *   0.86941995  *  -0.87590074  *
    57       H          3.74223348  *   3.41434491  *  -0.88023289  *
    58       H          3.73846175  *   3.41740403  *   0.87796110  *
    59       H          6.03777862  *   2.30248980  *   0.88498034  *
    60       H          6.04117618  *   2.29974270  *  -0.87432692  *
    61       H          5.80848174  *   4.84823955  *  -0.87858344  *
    62       H          5.80430572  *   4.85185720  *   0.87956777  *
    63       H          8.11499549  *   3.72217736  *   0.89434664  *
    64       H          8.12454355  *   3.72323029  *  -0.87376214  *
    65       H          7.64137950  *   5.14652418  *   2.78454229  *
    66       H          7.71637173  *   6.98730427  *   4.44822536  *
    67       H          8.29573662  *   9.28797234  *   3.78217208  *
    68       H          8.81767323  *   9.83601007  *   1.40285731  *
    69       H          9.45249154  *   7.34205873  *  -5.49980115  *
    70       H          9.52796582  *   9.24217698  *  -3.61606314  *
    71       H          9.24404284  *   9.80471336  *  -1.18727339  *
    72       H          6.96107825  *   3.76696203  *  -6.07593241  *
    73       H          7.66766259  *   2.51192178  *  -8.25232210  *
    74       H         12.19353896  *   2.08195488  *  -8.24370579  *
    75       H         12.94988595  *   1.35685959  * -10.62859287  *
    76       H         10.15011913  *   3.64553829  * -13.65534696  *
    77       H         10.61785182  *   2.61961112  * -16.00639775  *
    78       H         14.00556566  *  -3.05076626  * -18.21006296  *
 


          CARTESIAN COORDINATES 

    NO.       ATOM           X           Y           Z

     1         C          0.0000      0.0000      0.0000
     2         C          1.5200      0.0000      0.0000
     3         C          2.0609      1.4276      0.0000
     4         C          3.5878      1.4289      0.0019
     5         C          4.1265      2.8578      0.0007
     6         C          5.6537      2.8589      0.0037
     7         C          6.1877      4.2884      0.0022
     8         C          7.7237      4.2746      0.0075
     9         N          8.2786      5.6258      0.0278
    10         C          8.1933      6.4758      1.1522
    11         C          7.8976      6.1620      2.4774
    12         C          7.9427      7.1960      3.3978
    13         C          8.2702      8.5039      3.0204
    14         C          8.5607      8.8171      1.7025
    15         C          8.5182      7.8006      0.7598
    16         C          8.7492      7.7754     -0.6601
    17         C          8.5569      6.4339     -1.0920
    18         C          8.7175      6.1183     -2.4364
    19         S          8.5628      4.6152     -3.2541
    20         C          8.9529      5.3505     -4.7773
    21         C          9.1951      6.6798     -4.6763
    22         C          9.0662      7.1544     -3.3182
    23         C          9.2562      8.4733     -2.8890
    24         C          9.0990      8.7847     -1.5528
    25         C          8.9921      4.5538     -5.9635
    26         C          7.9634      3.8290     -6.4930
    27         C          8.3501      3.1452     -7.6906
    28         C          9.6558      3.3816     -8.0160
    29         S         10.4271      4.4217     -6.8922
    30         C         10.3623      2.8595     -9.1419
    31         C         11.5875      2.2545     -9.1302
    32         C         11.9991      1.8508    -10.4397
    33         C         11.0679      2.1671    -11.3907
    34         S          9.6983      2.9501    -10.7196
    35         C         11.1597      1.9060    -12.7903
    36         C         10.6677      2.7001    -13.7988
    37         C         10.9269      2.1411    -15.0786
    38         C         11.6113      0.9451    -14.9970
    39         S         11.9216      0.5089    -13.3832
    40         C         11.9845      0.1951    -16.1562
    41         C         12.7674     -0.9049    -16.1711
    42         C         13.0543     -1.5631    -17.4518
    43         O         12.6536     -1.2194    -18.5553
    44         O         13.8434     -2.6512    -17.3432
    45         C         13.3470     -1.4743    -15.0119
    46         N         13.8339     -1.9592    -14.0812
    47         H         11.5828      0.5774    -17.1103
    48         H         -0.4172      0.5083     -0.8813
    49         H         -0.4092     -1.0207     -0.0023
    50         H         -0.4171      0.5043      0.8836
    51         H          1.9023     -0.5614      0.8787
    52         H          1.9023     -0.5613     -0.8788
    53         H          1.6743      1.9843     -0.8797
    54         H          1.6721      1.9854      0.8781
    55         H          3.9726      0.8717      0.8822
    56         H          3.9750      0.8694     -0.8759
    57         H          3.7422      3.4143     -0.8802
    58         H          3.7385      3.4174      0.8780
    59         H          6.0378      2.3025      0.8850
    60         H          6.0412      2.2997     -0.8743
    61         H          5.8085      4.8482     -0.8786
    62         H          5.8043      4.8519      0.8796
    63         H          8.1150      3.7222      0.8943
    64         H          8.1245      3.7232     -0.8738
    65         H          7.6414      5.1465      2.7845
    66         H          7.7164      6.9873      4.4482
    67         H          8.2957      9.2880      3.7822
    68         H          8.8177      9.8360      1.4029
    69         H          9.4525      7.3421     -5.4998
    70         H          9.5280      9.2422     -3.6161
    71         H          9.2440      9.8047     -1.1873
    72         H          6.9611      3.7670     -6.0759
    73         H          7.6677      2.5119     -8.2523
    74         H         12.1935      2.0820     -8.2437
    75         H         12.9499      1.3569    -10.6286
    76         H         10.1501      3.6455    -13.6553
    77         H         10.6179      2.6196    -16.0064
    78         H         14.0056     -3.0508    -18.2101

           Empirical Formula: C38 H32 N2 O2 S4  =    78 atoms



      MOLECULAR POINT GROUP   :   C1  


      RHF CALCULATION, NO. OF DOUBLY OCCUPIED LEVELS = 115

 WARNING: INDO only performs single-point calculations


 ALL CONVERGERS ARE NOW FORCED ON
 SHIFT=10, PULAY ON, CAMP-KING ON
 AND ITERATION COUNTER RESET



 Summary of symmetry occupancy in each shell:

 SHELL     
    1  115
    v  101
 TOTAL 216




    ROOT NO.    1           2           3           4           5           6

           -48.54031   -46.71642   -44.09098   -43.64731   -43.06157   -42.87873
  
  
  S  C   1   0.00128    -0.00000    -0.01068     0.00690     0.12501    -0.01708
 PX  C   1   0.00057    -0.00000    -0.00413     0.00262     0.04627    -0.00627
 PY  C   1   0.00020    -0.00000    -0.00122     0.00076     0.01291    -0.00173
 PZ  C   1   0.00000    -0.00000    -0.00000     0.00000     0.00000     0.00000
  
  S  C   2   0.00300    -0.00000    -0.01957     0.01227     0.21349    -0.02879
 PX  C   2   0.00063    -0.00000    -0.00198     0.00106     0.01418    -0.00172
 PY  C   2   0.00099    -0.00000    -0.00527     0.00321     0.05332    -0.00708
 PZ  C   2   0.00000    -0.00000    -0.00000     0.00000     0.00001    -0.00000
  
  S  C   3   0.00636    -0.00000    -0.02952     0.01768     0.28781    -0.03796
 PX  C   3   0.00225    -0.00000    -0.00657     0.00357     0.04945    -0.00613
 PY  C   3   0.00043    -0.00000     0.00116    -0.00097    -0.02247     0.00326
 PZ  C   3   0.00001    -0.00000    -0.00002     0.00001     0.00006    -0.00000
  
  S  C   4   0.01287    -0.00000    -0.03991     0.02241     0.33102    -0.04219
 PX  C   4   0.00225    -0.00000    -0.00052    -0.00034    -0.02007     0.00325
 PY  C   4   0.00396    -0.00000    -0.00816     0.00417     0.05168    -0.00612
 PZ  C   4   0.00002    -0.00000    -0.00005     0.00001    -0.00012     0.00004
  
  S  C   5   0.02636    -0.00000    -0.05130     0.02651     0.34095    -0.04120
 PX  C   5   0.00896    -0.00000    -0.00915     0.00383     0.02856    -0.00243
 PY  C   5   0.00179    -0.00000     0.00351    -0.00250    -0.04780     0.00656
 PZ  C   5   0.00011    -0.00000    -0.00029     0.00010     0.00004     0.00012
  
  S  C   6   0.05220    -0.00000    -0.06321     0.02957     0.31603    -0.03534
 PX  C   6   0.00862    -0.00000     0.00120    -0.00180    -0.04580     0.00643
 PY  C   6   0.01665    -0.00000    -0.01197     0.00470     0.03060    -0.00237
 PZ  C   6   0.00036    -0.00000    -0.00099     0.00033    -0.00044     0.00052
  
  S  C   7   0.11812    -0.00000    -0.08071     0.03277     0.25795    -0.02468
 PX  C   7   0.04449    -0.00000    -0.01489     0.00416    -0.00247     0.00187
 PY  C   7   0.01559    -0.00000     0.00343    -0.00304    -0.05534     0.00717
 PZ  C   7   0.00234    -0.00000    -0.00481     0.00163    -0.00105     0.00232
  
  S  C   8   0.21104    -0.00001    -0.09370     0.03333     0.18694    -0.01594
 PX  C   8   0.01369    -0.00000     0.00719    -0.00410    -0.04614     0.00403
 PY  C   8   0.09574    -0.00000    -0.02826     0.00790     0.00854     0.00073
 PZ  C   8   0.00304    -0.00000    -0.01224     0.00415    -0.00304     0.00595
  
  S  N   9   0.47702    -0.00001    -0.12724     0.03614     0.08461    -0.00593
 PX  N   9  -0.01334     0.00000     0.01845    -0.00698    -0.02986    -0.00058
 PY  N   9   0.10013    -0.00000    -0.00272    -0.00283    -0.05746     0.00498
 PZ  N   9   0.00122    -0.00000    -0.03416     0.01193    -0.01171     0.01906
  
  S  C  10   0.37104    -0.00001    -0.15788     0.04893    -0.09278     0.07870
 PX  C  10   0.02121    -0.00000     0.00199    -0.00163    -0.01338    -0.00030
 PY  C  10   0.00129    -0.00000    -0.00132     0.00007    -0.07868     0.02679
 PZ  C  10  -0.12655     0.00000    -0.00509     0.00595    -0.04380     0.03550
  
  S  C  11   0.15288    -0.00000    -0.12412     0.04317    -0.10228     0.09252
 PX  C  11   0.01627    -0.00000    -0.01078     0.00353    -0.01572     0.00936
 PY  C  11   0.03171    -0.00000    -0.03426     0.01203    -0.06610     0.03927
 PZ  C  11  -0.06397     0.00000     0.02779    -0.00856    -0.00134    -0.00726
  
  S  C  12   0.09398    -0.00000    -0.10331     0.03703    -0.13616     0.09992
 PX  C  12   0.00859    -0.00000    -0.00833     0.00291    -0.01333     0.00852
 PY  C  12   0.00307    -0.00000    -0.00471     0.00168    -0.01749     0.00857
 PZ  C  12  -0.04670     0.00000     0.04316    -0.01507     0.05360    -0.03874
  
  S  C  13   0.09004    -0.00000    -0.09591     0.03419    -0.14601     0.09899
 PX  C  13  -0.00030     0.00000     0.00161    -0.00063     0.00064    -0.00127
 PY  C  13  -0.03094     0.00000     0.03204    -0.01135     0.04130    -0.03000
 PZ  C  13  -0.03405     0.00000     0.02785    -0.00952     0.04343    -0.02727
  
  S  C  14   0.12415    -0.00000    -0.08593     0.02904    -0.15294     0.09001
 PX  C  14  -0.00928     0.00000     0.01103    -0.00394     0.01332    -0.01010
 PY  C  14  -0.05942     0.00000     0.04090    -0.01368     0.05775    -0.03657
 PZ  C  14  -0.01526     0.00000    -0.01633     0.00686    -0.01126     0.01624
  
  S  C  15   0.30170    -0.00001    -0.08760     0.02429    -0.15776     0.07022
 PX  C  15  -0.01344     0.00000     0.01570    -0.00547     0.00673    -0.00933
 PY  C  15  -0.10701     0.00000     0.03147    -0.00853     0.00274    -0.00451
 PZ  C  15  -0.04427    -0.00000    -0.05505     0.02181    -0.04331     0.05060
  
  S  C  16   0.30122    -0.00000     0.12733    -0.05125    -0.07539    -0.05435
 PX  C  16  -0.02703     0.00000     0.02183    -0.00691     0.00230    -0.00725
 PY  C  16  -0.10454     0.00000     0.00968    -0.00142    -0.00322     0.00518
 PZ  C  16   0.04195    -0.00000    -0.11820     0.03902    -0.02380     0.04983
  
  S  C  17   0.36633    -0.00000     0.12495    -0.04795     0.00318    -0.07197
 PX  C  17  -0.01789     0.00000     0.03603    -0.01190    -0.01198    -0.00879
 PY  C  17   0.00959     0.00000     0.06635    -0.02434    -0.04509    -0.01730
 PZ  C  17   0.12718    -0.00001    -0.13079     0.03920    -0.00607     0.03293
  
  S  C  18   0.15818     0.00001     0.32105    -0.09663     0.02495    -0.09149
 PX  C  18  -0.00235     0.00000     0.03042    -0.00907    -0.00397    -0.00608
 PY  C  18   0.03477     0.00000     0.09029    -0.03213    -0.01566    -0.03459
 PZ  C  18   0.05361    -0.00001    -0.07410     0.01517    -0.00297    -0.00470
  
  S  S  19   0.04882     0.00002     0.17869    -0.03661     0.03525    -0.00670
 PX  S  19   0.00230     0.00000     0.02781    -0.00631     0.00064    -0.00108
 PY  S  19   0.02582     0.00001     0.11070    -0.02924     0.01213    -0.01858
 PZ  S  19   0.01375    -0.00001    -0.04147     0.00133     0.00198    -0.02124
  
  S  C  20   0.03222     0.00005     0.26703    -0.02741     0.04410     0.06313
 PX  C  20   0.00005    -0.00000     0.00199    -0.00109    -0.00027    -0.00153
 PY  C  20   0.01017    -0.00001     0.05559    -0.02673     0.00011    -0.03661
 PZ  C  20   0.01134    -0.00002     0.04350    -0.03119    -0.00334    -0.05360
  
  S  C  21   0.04357     0.00003     0.28608    -0.06280     0.02862    -0.01311
 PX  C  21  -0.00400    -0.00000    -0.02544     0.00571    -0.00288     0.00153
 PY  C  21  -0.00350    -0.00001    -0.05015     0.00296    -0.01181    -0.01826
 PZ  C  21   0.02021     0.00000     0.09482    -0.03216     0.00272    -0.03313
  
  S  C  22   0.10989     0.00002     0.39667    -0.11809     0.00860    -0.10026
 PX  C  22  -0.00712    -0.00000    -0.01575     0.00464    -0.00129     0.00419
 PY  C  22  -0.00342    -0.00001    -0.04937     0.00835    -0.01447    -0.00418
 PZ  C  22   0.03912    -0.00000     0.03719    -0.01875    -0.01099    -0.03116
  
  S  C  23   0.09234     0.00001     0.26090    -0.08731    -0.01694    -0.09085
 PX  C  23  -0.01134    -0.00000    -0.02503     0.00850     0.00185     0.00913
 PY  C  23  -0.03263    -0.00000    -0.09536     0.03016     0.00039     0.02906
 PZ  C  23   0.03004    -0.00000     0.03792    -0.01562    -0.01119    -0.02075
  
  S  C  24   0.12397     0.00000     0.19974    -0.07175    -0.04147    -0.07771
 PX  C  24  -0.01353     0.00000    -0.00813     0.00315     0.00389     0.00333
 PY  C  24  -0.05836    -0.00000    -0.08133     0.02880     0.01154     0.03219
 PZ  C  24   0.01185    -0.00000    -0.04885     0.01563    -0.01053     0.01878
  
  S  C  25   0.00946     0.00015     0.18490     0.07470     0.06342     0.24988
 PX  C  25  -0.00035    -0.00000    -0.01023    -0.00462    -0.00425    -0.01752
 PY  C  25   0.00248    -0.00004     0.00142    -0.02781    -0.00858    -0.05758
 PZ  C  25   0.00314    -0.00005     0.00215    -0.03710    -0.01115    -0.07532
  
  S  C  26   0.00419     0.00017     0.13993     0.09359     0.05982     0.26677
 PX  C  26   0.00129     0.00007     0.05107     0.03746     0.02244     0.10235
 PY  C  26   0.00103    -0.00000     0.01365    -0.00183     0.00286     0.00534
 PZ  C  26   0.00075    -0.00004    -0.00675    -0.02166    -0.00740    -0.04466
  
  S  C  27   0.00207     0.00028     0.12224     0.12367     0.05798     0.28372
 PX  C  27   0.00046     0.00011     0.03310     0.04029     0.01544     0.07897
 PY  C  27   0.00062     0.00003     0.02884     0.02078     0.01356     0.06207
 PZ  C  27   0.00065    -0.00002     0.02504     0.01002     0.01186     0.05021
  
  S  C  28   0.00184     0.00056     0.12800     0.16965     0.05777     0.30149
 PX  C  28  -0.00046     0.00009    -0.02132    -0.00217    -0.01199    -0.04990
 PY  C  28   0.00029    -0.00009     0.00673    -0.00946     0.00390     0.01138
 PZ  C  28   0.00064    -0.00015     0.02196    -0.00827     0.01221     0.04552
  
  S  S  29   0.00313     0.00021     0.10654     0.08584     0.04417     0.20395
 PX  S  29  -0.00169    -0.00007    -0.06022    -0.04159    -0.02594    -0.11672
 PY  S  29   0.00020    -0.00008    -0.01756    -0.02974    -0.01001    -0.05519
 PZ  S  29   0.00099    -0.00007     0.00405    -0.02002    -0.00140    -0.01949
  
  S  C  30   0.00055     0.00154     0.09271     0.25212     0.02809     0.20585
 PX  C  30  -0.00012     0.00036     0.00309     0.04214    -0.00348    -0.00102
 PY  C  30   0.00007    -0.00025    -0.00239    -0.02805     0.00216     0.00017
 PZ  C  30   0.00019    -0.00046     0.00283    -0.03777     0.00736     0.02076
  
  S  C  31   0.00024     0.00168     0.07138     0.24162     0.01505     0.14504
 PX  C  31  -0.00010    -0.00034    -0.02020    -0.05868    -0.00582    -0.04516
 PY  C  31   0.00004     0.00007     0.00737     0.01726     0.00284     0.01858
 PZ  C  31   0.00000    -0.00070    -0.01666    -0.07738     0.00012    -0.02303
  
  S  C  32   0.00012     0.00284     0.06375     0.25964     0.00295     0.08667
 PX  C  32  -0.00005    -0.00084    -0.02300    -0.09005    -0.00214    -0.03624
 PY  C  32   0.00003     0.00033     0.01185     0.04426     0.00187     0.02252
 PZ  C  32   0.00002    -0.00069     0.00330    -0.00208     0.00551     0.03121
  
  S  C  33   0.00011     0.00554     0.06737     0.30642    -0.00969     0.02384
 PX  C  33  -0.00000     0.00024     0.00284     0.01503    -0.00073     0.00029
 PY  C  33   0.00001    -0.00028     0.00118    -0.00045     0.00189     0.01080
 PZ  C  33   0.00005    -0.00182     0.01517     0.03078     0.01294     0.08499
  
  S  S  34   0.00019     0.00215     0.05502     0.19783     0.00659     0.08469
 PX  S  34   0.00004     0.00111     0.02537     0.10383     0.00114     0.03449
 PY  S  34  -0.00001    -0.00056    -0.01042    -0.04592     0.00033    -0.01086
 PZ  S  34   0.00011    -0.00035     0.01673     0.03347     0.00908     0.05679
  
  S  C  35   0.00003     0.01522     0.05094     0.32610    -0.04690    -0.19489
 PX  C  35  -0.00000     0.00013    -0.00079    -0.00523     0.00080     0.00342
 PY  C  35   0.00000    -0.00062     0.00217     0.00945     0.00001     0.00273
 PZ  C  35   0.00001    -0.00634    -0.00119    -0.04757     0.01886     0.10199
  
  S  C  36   0.00001     0.01621     0.03938     0.28359    -0.05037    -0.22828
 PX  C  36   0.00000     0.00356     0.00742     0.05505    -0.01023    -0.04711
 PY  C  36  -0.00000    -0.00642    -0.01291    -0.09707     0.01838     0.08518
 PZ  C  36   0.00000    -0.00195     0.00238     0.00329     0.00336     0.02178
  
  S  C  37   0.00001     0.02540     0.03448     0.26822    -0.05347    -0.25228
 PX  C  37   0.00000     0.00486     0.00413     0.03292    -0.00680    -0.03248
 PY  C  37  -0.00000    -0.00821    -0.00624    -0.05035     0.01057     0.05077
 PZ  C  37   0.00000     0.00281     0.01246     0.09279    -0.01725    -0.07934
  
  S  C  38   0.00001     0.04842     0.03336     0.26429    -0.05424    -0.25865
 PX  C  38  -0.00000     0.00487    -0.00408    -0.03075     0.00578     0.02663
 PY  C  38   0.00000    -0.00819     0.00776     0.05824    -0.01088    -0.05005
 PZ  C  38   0.00000    -0.00906     0.00671     0.04760    -0.00806    -0.03559
  
  S  S  39   0.00001     0.02285     0.03014     0.21727    -0.03883    -0.17661
 PX  S  39  -0.00000    -0.00220    -0.00836    -0.06028     0.01070     0.04842
 PY  S  39   0.00001     0.00375     0.01510     0.10669    -0.01832    -0.08191
 PZ  S  39   0.00000    -0.01203    -0.00419    -0.04506     0.01232     0.06317
  
  S  C  40   0.00000     0.11362     0.01450     0.12343    -0.02805    -0.13838
 PX  C  40  -0.00000     0.02613    -0.00122    -0.00872     0.00146     0.00635
 PY  C  40   0.00000    -0.03932     0.00287     0.02149    -0.00399    -0.01827
 PZ  C  40   0.00000    -0.01438     0.00507     0.04093    -0.00864    -0.04155
  
  S  C  41   0.00000     0.22644     0.00624     0.05789    -0.01451    -0.07370
 PX  C  41  -0.00000     0.02075    -0.00184    -0.01553     0.00351     0.01733
 PY  C  41   0.00000    -0.04313     0.00307     0.02572    -0.00578    -0.02846
 PZ  C  41   0.00000    -0.07155     0.00233     0.01897    -0.00411    -0.02002
  
  S  C  42   0.00000     0.51329    -0.00346    -0.02287     0.00369     0.01620
 PX  C  42  -0.00000     0.05216    -0.00164    -0.01421     0.00343     0.01736
 PY  C  42  -0.00000    -0.09161     0.00275     0.02362    -0.00563    -0.02838
 PZ  C  42  -0.00000    -0.09197     0.00221     0.01817    -0.00403    -0.01980
  
  S  O  43   0.00000     0.41000    -0.00325    -0.02209     0.00364     0.01601
 PX  O  43   0.00000     0.06919    -0.00090    -0.00697     0.00145     0.00700
 PY  O  43  -0.00000    -0.06815     0.00109     0.00870    -0.00189    -0.00928
 PZ  O  43   0.00000     0.14625    -0.00090    -0.00557     0.00073     0.00284
  
  S  O  44   0.00000     0.57489    -0.00776    -0.06158     0.01338     0.06575
 PX  O  44  -0.00000    -0.09193     0.00104     0.00790    -0.00161    -0.00777
 PY  O  44   0.00000     0.11081    -0.00114    -0.00852     0.00169     0.00803
 PZ  O  44  -0.00000    -0.09323     0.00159     0.01305    -0.00294    -0.01457
  
  S  C  45   0.00000     0.11264     0.00436     0.04029    -0.01015    -0.05174
 PX  C  45  -0.00000    -0.01019    -0.00109    -0.00942     0.00217     0.01072
 PY  C  45   0.00000     0.00320     0.00151     0.01291    -0.00294    -0.01449
 PZ  C  45  -0.00000    -0.05375    -0.00008    -0.00120     0.00037     0.00192
  
  S  N  46   0.00000     0.03937     0.00210     0.01981    -0.00517    -0.02665
 PX  N  46  -0.00000    -0.00831    -0.00059    -0.00553     0.00141     0.00724
 PY  N  46   0.00000     0.00696     0.00068     0.00627    -0.00158    -0.00805
 PZ  N  46  -0.00000    -0.02229    -0.00076    -0.00726     0.00191     0.00989
  
  S  H  47   0.00000     0.05262     0.00532     0.04552    -0.01040    -0.05139
  
  S  H  48   0.00056    -0.00000    -0.00459     0.00296     0.05362    -0.00732
  
  S  H  49   0.00040    -0.00000    -0.00361     0.00236     0.04334    -0.00595
  
  S  H  50   0.00056    -0.00000    -0.00459     0.00296     0.05358    -0.00732
  
  S  H  51   0.00131    -0.00000    -0.00827     0.00516     0.08934    -0.01203
  
  S  H  52   0.00131    -0.00000    -0.00826     0.00516     0.08933    -0.01203
  
  S  H  53   0.00280    -0.00000    -0.01252     0.00747     0.12112    -0.01596
  
  S  H  54   0.00281    -0.00000    -0.01254     0.00748     0.12109    -0.01594
  
  S  H  55   0.00565    -0.00000    -0.01695     0.00948     0.13918    -0.01770
  
  S  H  56   0.00562    -0.00000    -0.01687     0.00945     0.13922    -0.01774
  
  S  H  57   0.01172    -0.00000    -0.02164     0.01116     0.14345    -0.01737
  
  S  H  58   0.01186    -0.00000    -0.02201     0.01129     0.14328    -0.01717
  
  S  H  59   0.02264    -0.00000    -0.02723     0.01265     0.13277    -0.01459
  
  S  H  60   0.02225    -0.00000    -0.02595     0.01223     0.13318    -0.01520
  
  S  H  61   0.05309    -0.00000    -0.03082     0.01268     0.10802    -0.01167
  
  S  H  62   0.05675    -0.00000    -0.03896     0.01540     0.10540    -0.00758
  
  S  H  63   0.07709    -0.00000    -0.04117     0.01488     0.07488    -0.00351
  
  S  H  64   0.07579    -0.00000    -0.02598     0.00991     0.07917    -0.01048
  
  S  H  65   0.05125    -0.00000    -0.04076     0.01436    -0.01247     0.02393
  
  S  H  66   0.02173    -0.00000    -0.02761     0.01009    -0.03657     0.02765
  
  S  H  67   0.02052    -0.00000    -0.02500     0.00907    -0.04025     0.02732
  
  S  H  68   0.03386    -0.00000    -0.01763     0.00577    -0.04394     0.02238
  
  S  H  69   0.01184     0.00001     0.08512    -0.01651     0.00898     0.00143
  
  S  H  70   0.02179     0.00000     0.07693    -0.02526    -0.00398    -0.02540
  
  S  H  71   0.03428     0.00000     0.04907    -0.01811    -0.01717    -0.01838
  
  S  H  72   0.00170     0.00004     0.04330     0.02374     0.01728     0.07321
  
  S  H  73   0.00050     0.00011     0.03412     0.03942     0.01625     0.08198
  
  S  H  74   0.00010     0.00042     0.02195     0.06802     0.00568     0.04771
  
  S  H  75   0.00003     0.00108     0.01790     0.07728    -0.00060     0.01737
  
  S  H  76   0.00001     0.00407     0.01209     0.08318    -0.01373    -0.06053
  
  S  H  77   0.00000     0.00903     0.00938     0.07428    -0.01520    -0.07238
  
  S  H  78   0.00000     0.24241    -0.00343    -0.02738     0.00600     0.02955




    ROOT NO.    7           8           9          10          11          12

           -42.08039   -41.75684   -40.34383   -39.61520   -39.10194   -39.03610
  
  
  S  C   1   0.11427     0.05793     0.20376     0.01820    -0.14027     0.14647
 PX  C   1   0.04027     0.02006     0.06443     0.00544    -0.04008     0.04160
 PY  C   1   0.01050     0.00510     0.01422     0.00109    -0.00734     0.00752
 PZ  C   1   0.00000     0.00000    -0.00000    -0.00000     0.00000    -0.00000
  
  S  C   2   0.18109     0.08942     0.27695     0.02297    -0.16723     0.17330
 PX  C   2   0.00514     0.00130    -0.01519    -0.00225     0.02211    -0.02372
 PY  C   2   0.04126     0.01966     0.04954     0.00352    -0.02216     0.02248
 PZ  C   2   0.00001     0.00000     0.00000     0.00000    -0.00000    -0.00000
  
  S  C   3   0.21492     0.10117     0.24205     0.01675    -0.10383     0.10512
 PX  C   3   0.02343     0.00850    -0.01647    -0.00327     0.03376    -0.03633
 PY  C   3  -0.02675    -0.01445    -0.06092    -0.00571     0.04481    -0.04686
 PZ  C   3   0.00005     0.00001     0.00001     0.00000     0.00000    -0.00000
  
  S  C   4   0.19927     0.08547     0.09651     0.00118     0.02519    -0.03053
 PX  C   4  -0.03403    -0.01911    -0.08105    -0.00711     0.05195    -0.05374
 PY  C   4   0.01661     0.00410    -0.03587    -0.00465     0.04106    -0.04342
 PZ  C   4  -0.00003    -0.00004    -0.00012    -0.00000     0.00000     0.00000
  
  S  C   5   0.14002     0.04765    -0.09057    -0.01493     0.13857    -0.14706
 PX  C   5  -0.01728    -0.01361    -0.08098    -0.00684     0.04607    -0.04699
 PY  C   5  -0.04007    -0.01905    -0.03705    -0.00158     0.00251    -0.00133
 PZ  C   5   0.00021    -0.00003    -0.00028    -0.00001    -0.00001     0.00001
  
  S  C   6   0.04895    -0.00279    -0.23811    -0.02311     0.16882    -0.17407
 PX  C   6  -0.04416    -0.02036    -0.01772     0.00139    -0.02602     0.02909
 PY  C   6  -0.02066    -0.01471    -0.06097    -0.00381     0.01728    -0.01631
 PZ  C   6   0.00057    -0.00016    -0.00060     0.00001    -0.00036     0.00040
  
  S  C   7  -0.06113    -0.05555    -0.27417    -0.01813     0.09219    -0.08952
 PX  C   7  -0.05257    -0.02567    -0.01611     0.00270    -0.03939     0.04325
 PY  C   7  -0.02434    -0.00674     0.04971     0.00603    -0.04857     0.05061
 PZ  C   7   0.00260    -0.00080    -0.00322     0.00002    -0.00130     0.00147
  
  S  C   8  -0.16519    -0.09575    -0.20307    -0.00464    -0.03383     0.04389
 PX  C   8  -0.01517    -0.00032     0.06295     0.00607    -0.04229     0.04318
 PY  C   8  -0.06961    -0.03082     0.01290     0.00537    -0.05314     0.05634
 PZ  C   8   0.00643    -0.00192    -0.00596     0.00011    -0.00253     0.00275
  
  S  N   9  -0.26765    -0.11495     0.03174     0.01471    -0.13647     0.14329
 PX  N   9   0.02046     0.01677     0.04605     0.00100     0.00899    -0.01144
 PY  N   9   0.00288     0.01628     0.12012     0.00509     0.00361    -0.00969
 PZ  N   9   0.02719    -0.00397    -0.02171     0.00042    -0.01045     0.01144
  
  S  C  10   0.07864    -0.01508    -0.00799     0.00658    -0.06415     0.06708
 PX  C  10  -0.00245     0.00403     0.03265     0.00129     0.00199    -0.00371
 PY  C  10   0.12500     0.04506     0.02405    -0.00249     0.03958    -0.04366
 PZ  C  10   0.16679     0.03697    -0.11654    -0.00766     0.02422    -0.02013
  
  S  C  11   0.21835     0.02093    -0.14353    -0.00341    -0.02868     0.03665
 PX  C  11   0.02239     0.00386    -0.00323     0.00014    -0.00270     0.00294
 PY  C  11   0.12307     0.02693    -0.03526    -0.00215     0.00703    -0.00607
 PZ  C  11   0.01779     0.01304    -0.00226    -0.00210     0.01847    -0.01912
  
  S  C  12   0.29325     0.05077    -0.14999    -0.00678     0.00185     0.00475
 PX  C  12   0.02543     0.00512    -0.00843    -0.00046     0.00126    -0.00103
 PY  C  12   0.03327     0.00941    -0.00491    -0.00090     0.00791    -0.00832
 PZ  C  12  -0.10664    -0.01784     0.04620     0.00181     0.00081    -0.00265
  
  S  C  13   0.30448     0.05983    -0.12932    -0.00730     0.01954    -0.01544
 PX  C  13  -0.00299     0.00011     0.00468     0.00008     0.00173    -0.00213
 PY  C  13  -0.08480    -0.01422     0.04055     0.00158     0.00199    -0.00389
 PZ  C  13  -0.08074    -0.01700     0.02089     0.00145    -0.00815     0.00819
  
  S  C  14   0.28287     0.06555    -0.06553    -0.00626     0.04315    -0.04426
 PX  C  14  -0.02797    -0.00439     0.01397     0.00049     0.00112    -0.00178
 PY  C  14  -0.09979    -0.01946     0.02370     0.00113    -0.00352     0.00316
 PZ  C  14   0.04636     0.00300    -0.05166    -0.00137    -0.01143     0.01478
  
  S  C  15   0.17980     0.05285     0.07601     0.00058     0.04000    -0.04785
 PX  C  15  -0.01399     0.00204     0.01403    -0.00037     0.00986    -0.01101
 PY  C  15   0.04631     0.01957    -0.03669    -0.00511     0.03588    -0.03630
 PZ  C  15   0.13764     0.01229    -0.11436    -0.00307    -0.01916     0.02520
  
  S  C  16   0.00260     0.08076     0.21478    -0.00532     0.14504    -0.16204
 PX  C  16   0.01006     0.00935    -0.00668    -0.00217     0.01747    -0.01786
 PY  C  16   0.05628     0.01740    -0.04062    -0.00509     0.03699    -0.03773
 PZ  C  16   0.00623    -0.03391     0.00423     0.00766    -0.06270     0.06376
  
  S  C  17  -0.12418     0.01729     0.14105     0.00194     0.02395    -0.02854
 PX  C  17   0.02375     0.01933     0.01018    -0.00212     0.02308    -0.02440
 PY  C  17   0.05425     0.05227     0.07501    -0.00496     0.08284    -0.09075
 PZ  C  17  -0.07700    -0.04757     0.07151     0.00930    -0.04825     0.04558
  
  S  C  18   0.02199     0.04875    -0.08518    -0.00385    -0.03606     0.04702
 PX  C  18   0.01501     0.00895    -0.00779    -0.00073     0.00099    -0.00033
 PY  C  18   0.01901     0.04327     0.03929    -0.00569     0.06418    -0.06773
 PZ  C  18  -0.06609     0.00065     0.10551    -0.00178     0.06805    -0.07645
  
  S  S  19   0.03825    -0.02848    -0.14001     0.00646    -0.11979     0.13069
 PX  S  19   0.01047    -0.00122    -0.01840     0.00099    -0.01815     0.01983
 PY  S  19   0.02644     0.00264    -0.07871     0.00178    -0.06356     0.07174
 PZ  S  19  -0.03281     0.01965     0.02644    -0.00436     0.03459    -0.03411
  
  S  C  20   0.09718    -0.10074    -0.18463     0.01801    -0.18721     0.19289
 PX  C  20   0.00120     0.00155    -0.00339    -0.00009    -0.00280     0.00342
 PY  C  20   0.01764     0.03041    -0.06089    -0.00194    -0.04027     0.04974
 PZ  C  20   0.00928     0.04843    -0.05574    -0.00436    -0.02997     0.04116
  
  S  C  21   0.09674    -0.01806    -0.20055     0.00754    -0.15917     0.17470
 PX  C  21  -0.00815     0.00173     0.01909    -0.00076     0.01604    -0.01763
 PY  C  21  -0.02058     0.02985     0.05309    -0.00580     0.06332    -0.06586
 PZ  C  21   0.02501     0.02718    -0.05369    -0.00249    -0.02293     0.03004
  
  S  C  22   0.09272     0.07989    -0.12142    -0.00797    -0.01463     0.02649
 PX  C  22  -0.00108    -0.00190     0.00446     0.00002     0.00342    -0.00402
 PY  C  22  -0.01688     0.02018     0.08319    -0.00527     0.09297    -0.10171
 PZ  C  22  -0.01337     0.03684     0.07431    -0.00640     0.08998    -0.09670
  
  S  C  23   0.05319     0.09969     0.03623    -0.01508     0.14282    -0.14818
 PX  C  23  -0.00335    -0.00949    -0.00641     0.00130    -0.01342     0.01405
 PY  C  23  -0.01672    -0.02502     0.01284     0.00278    -0.00991     0.00806
 PZ  C  23   0.00028     0.02788     0.05508    -0.00451     0.06955    -0.07559
  
  S  C  24   0.04322     0.10403     0.12497    -0.01504     0.19664    -0.21115
 PX  C  24  -0.00057    -0.00480    -0.01181     0.00033    -0.00838     0.00935
 PY  C  24  -0.00452    -0.03431    -0.04515     0.00412    -0.05404     0.05781
 PZ  C  24  -0.00216    -0.01224     0.01888     0.00311    -0.01519     0.01385
  
  S  C  25   0.06808    -0.25484     0.01005     0.02597    -0.04818     0.02033
 PX  C  25  -0.00484     0.02131    -0.00423    -0.00277     0.00130     0.00261
 PY  C  25   0.00387     0.04662    -0.05056    -0.00169    -0.04051     0.04919
 PZ  C  25   0.00586     0.05866    -0.06617    -0.00146    -0.05441     0.06477
  
  S  C  26   0.04681    -0.25648     0.07655     0.02208     0.02036    -0.05383
 PX  C  26   0.01586    -0.09426     0.03133     0.00716     0.01113    -0.02236
 PY  C  26   0.00722    -0.01160    -0.01237     0.00261    -0.01683     0.01572
 PZ  C  26   0.00214     0.03171    -0.03361     0.00006    -0.02972     0.03388
  
  S  C  27   0.02120    -0.21460     0.10829     0.00810     0.06969    -0.08932
 PX  C  27   0.00048    -0.04318     0.02778    -0.00177     0.02181    -0.02128
 PY  C  27   0.01066    -0.06321     0.02298     0.00562     0.00922    -0.01846
 PZ  C  27   0.01511    -0.06972     0.01942     0.00901     0.00247    -0.01610
  
  S  C  28  -0.00888    -0.13001     0.09808    -0.01222     0.08227    -0.07257
 PX  C  28  -0.01907     0.08681    -0.02919    -0.01129    -0.01063     0.02872
 PY  C  28   0.01292    -0.04443     0.00819     0.00777    -0.00284    -0.00825
 PZ  C  28   0.02641    -0.10416     0.02677     0.01552     0.00261    -0.02574
  
  S  S  29   0.02314    -0.15568     0.05176     0.00715     0.02094    -0.03200
 PX  S  29  -0.01950     0.10970    -0.03386    -0.00870    -0.01036     0.02357
 PY  S  29   0.00242     0.02821    -0.02595     0.00184    -0.02237     0.02234
 PZ  S  29   0.01188    -0.01253    -0.01880     0.00637    -0.02500     0.01900
  
  S  C  30  -0.09936     0.20798     0.00423    -0.05657     0.05288     0.02268
 PX  C  30  -0.02796     0.09197    -0.02336    -0.01369    -0.00709     0.02714
 PY  C  30   0.01788    -0.05835     0.01453     0.00816     0.00463    -0.01633
 PZ  C  30   0.02707    -0.09943     0.03021     0.00857     0.01680    -0.02890
  
  S  C  31  -0.11014     0.27795    -0.03075    -0.05834     0.02546     0.05479
 PX  C  31   0.02470    -0.05481     0.00084     0.01411    -0.01193    -0.00700
 PY  C  31  -0.00654     0.01070     0.00283    -0.00483     0.00672    -0.00021
 PZ  C  31   0.03744    -0.10917     0.02198     0.01408     0.00603    -0.02470
  
  S  C  32  -0.10638     0.29425    -0.05023    -0.03187    -0.01222     0.05192
 PX  C  32   0.03862    -0.10456     0.01627     0.01371     0.00110    -0.01834
 PY  C  32  -0.02096     0.05576    -0.00804    -0.01011     0.00211     0.01151
 PZ  C  32  -0.01230     0.02643     0.00026    -0.02177     0.01755     0.01576
  
  S  C  33  -0.08670     0.25281    -0.05011     0.01656    -0.04849     0.01375
 PX  C  33  -0.00542     0.01715    -0.00442    -0.00019    -0.00343     0.00354
 PY  C  33  -0.00436     0.00947    -0.00002    -0.00621     0.00488     0.00421
 PZ  C  33  -0.04889     0.12212    -0.01370    -0.05166     0.02871     0.04665
  
  S  S  34  -0.07353     0.18749    -0.02186    -0.02060     0.00207     0.02129
 PX  S  34  -0.04241     0.11704    -0.01952    -0.01204    -0.00478     0.01911
 PY  S  34   0.01792    -0.05119     0.00962     0.00329     0.00461    -0.00785
 PZ  S  34  -0.02189     0.04198     0.00420    -0.02346     0.02289     0.01119
  
  S  C  35   0.02309    -0.01952    -0.01671     0.12757    -0.09967    -0.08654
 PX  C  35  -0.00052     0.00066     0.00038    -0.00623     0.00552     0.00576
 PY  C  35  -0.00416     0.01210    -0.00282     0.00702    -0.00861    -0.00560
 PZ  C  35  -0.04512     0.11121    -0.01496    -0.04341     0.01522     0.03942
  
  S  C  36   0.05381    -0.10493    -0.00016     0.13401    -0.09223    -0.10337
 PX  C  36   0.01213    -0.02485     0.00091     0.02327    -0.01415    -0.01722
 PY  C  36  -0.02259     0.04698    -0.00216    -0.04126     0.02477     0.03103
 PZ  C  36  -0.01406     0.03787    -0.00739     0.00248    -0.00801     0.00242
  
  S  C  37   0.07354    -0.16075     0.01403     0.07440    -0.04184    -0.06612
 PX  C  37   0.01011    -0.02288     0.00294    -0.00377     0.00612     0.00314
 PY  C  37  -0.01619     0.03705    -0.00514     0.01124    -0.01304    -0.00826
 PZ  C  37   0.01997    -0.04003    -0.00002     0.06335    -0.03893    -0.04502
  
  S  C  38   0.08003    -0.18090     0.02355    -0.04046     0.05754     0.03516
 PX  C  38  -0.00660     0.01284     0.00107    -0.04174     0.03529     0.03879
 PY  C  38   0.01231    -0.02388    -0.00194     0.07630    -0.06066    -0.06700
 PZ  C  38   0.00652    -0.00965    -0.00422     0.08102    -0.04604    -0.04968
  
  S  S  39   0.04316    -0.08695     0.00435     0.04167    -0.00052    -0.00724
 PX  S  39  -0.01124     0.02159     0.00048    -0.03189     0.02825     0.03039
 PY  S  39   0.01767    -0.03236    -0.00184     0.05554    -0.04755    -0.04981
 PZ  S  39  -0.02518     0.06173    -0.01045     0.01870    -0.03516    -0.02380
  
  S  C  40   0.05068    -0.12426     0.02899    -0.27467     0.15395     0.15383
 PX  C  40  -0.00083     0.00032     0.00243    -0.05033     0.03181     0.03544
 PY  C  40   0.00417    -0.00733    -0.00253     0.07551    -0.03580    -0.04280
 PZ  C  40   0.01338    -0.03071     0.00396     0.02474     0.04604     0.03700
  
  S  C  41   0.03060    -0.07905     0.02391    -0.25078     0.22868     0.23090
 PX  C  41  -0.00639     0.01578    -0.00412     0.07038     0.01955     0.01464
 PY  C  41   0.01040    -0.02557     0.00636    -0.09205    -0.00914    -0.00417
 PZ  C  41   0.00693    -0.01656     0.00278     0.03469     0.08940     0.07987
  
  S  C  42  -0.00301     0.00451     0.00315    -0.13312    -0.04980    -0.03414
 PX  C  42  -0.00741     0.01973    -0.00850     0.22106     0.06367     0.04150
 PY  C  42   0.01185    -0.03120     0.01236    -0.28346    -0.04968    -0.02361
 PZ  C  42   0.00713    -0.01724     0.00203     0.13750     0.19968     0.17415
  
  S  O  43  -0.00259     0.00249     0.00843    -0.45663    -0.30377    -0.24392
 PX  O  43  -0.00239     0.00573    -0.00104    -0.01069    -0.03145    -0.02812
 PY  O  43   0.00341    -0.00847     0.00218    -0.01477     0.02817     0.02712
 PZ  O  43   0.00024    -0.00206     0.00360    -0.14967    -0.08062    -0.06243
  
  S  O  44  -0.02492     0.06352    -0.02284     0.51644     0.09600     0.04829
 PX  O  44   0.00266    -0.00646     0.00181    -0.03546    -0.00733    -0.00435
 PY  O  44  -0.00261     0.00619    -0.00160     0.03679     0.01727     0.01370
 PZ  O  44   0.00569    -0.01459     0.00475    -0.06617     0.03458     0.03776
  
  S  C  45   0.02194    -0.05731     0.01798    -0.10545     0.35734     0.34654
 PX  C  45  -0.00391     0.00950    -0.00196     0.02461     0.01730     0.01660
 PY  C  45   0.00526    -0.01280     0.00276    -0.03557    -0.01705    -0.01579
 PZ  C  45  -0.00072     0.00161     0.00027    -0.00638     0.03513     0.03634
  
  S  N  46   0.01201    -0.03229     0.01167    -0.06221     0.29979     0.29236
 PX  N  46  -0.00315     0.00832    -0.00276     0.01663    -0.05980    -0.05829
 PY  N  46   0.00344    -0.00904     0.00295    -0.01937     0.05972     0.05836
 PZ  N  46  -0.00447     0.01199    -0.00423     0.01765    -0.11265    -0.10912
  
  S  H  47   0.01894    -0.04656     0.01115    -0.12486     0.03349     0.03647
  
  S  H  48   0.04888     0.02477     0.08691     0.00776    -0.05982     0.06246
  
  S  H  49   0.04062     0.02077     0.07603     0.00694    -0.05439     0.05691
  
  S  H  50   0.04886     0.02475     0.08687     0.00776    -0.05980     0.06244
  
  S  H  51   0.07513     0.03699     0.11314     0.00932    -0.06754     0.06995
  
  S  H  52   0.07512     0.03699     0.11314     0.00932    -0.06754     0.06995
  
  S  H  53   0.08975     0.04215     0.09984     0.00688    -0.04252     0.04304
  
  S  H  54   0.08975     0.04214     0.09982     0.00688    -0.04254     0.04305
  
  S  H  55   0.08313     0.03554     0.03958     0.00047     0.01034    -0.01251
  
  S  H  56   0.08309     0.03556     0.03965     0.00048     0.01036    -0.01253
  
  S  H  57   0.05830     0.01985    -0.03703    -0.00610     0.05646    -0.05990
  
  S  H  58   0.05855     0.01980    -0.03727    -0.00609     0.05632    -0.05974
  
  S  H  59   0.02085    -0.00120    -0.09862    -0.00948     0.06875    -0.07082
  
  S  H  60   0.02009    -0.00106    -0.09789    -0.00948     0.06905    -0.07116
  
  S  H  61  -0.02683    -0.02243    -0.10962    -0.00732     0.03775    -0.03675
  
  S  H  62  -0.02136    -0.02329    -0.11464    -0.00730     0.03579    -0.03453
  
  S  H  63  -0.05510    -0.03663    -0.09113    -0.00258    -0.00973     0.01384
  
  S  H  64  -0.06335    -0.03526    -0.08617    -0.00259    -0.00894     0.01302
  
  S  H  65   0.04548    -0.00276    -0.05792    -0.00118    -0.01384     0.01728
  
  S  H  66   0.08360     0.01436    -0.04821    -0.00224     0.00045     0.00183
  
  S  H  67   0.08762     0.01768    -0.04009    -0.00242     0.00721    -0.00593
  
  S  H  68   0.08029     0.02230    -0.01056    -0.00236     0.02262    -0.02401
  
  S  H  69   0.03041    -0.01018    -0.05780     0.00274    -0.04636     0.05008
  
  S  H  70   0.01934     0.02850     0.00230    -0.00455     0.03961    -0.04071
  
  S  H  71   0.02044     0.03215     0.04082    -0.00480     0.06641    -0.07179
  
  S  H  72   0.01583    -0.07443     0.01575     0.00736    -0.00118    -0.00895
  
  S  H  73   0.00272    -0.05296     0.03188     0.00032     0.02365    -0.02684
  
  S  H  74  -0.03055     0.07315    -0.00555    -0.01814     0.01115     0.01420
  
  S  H  75  -0.02852     0.08121    -0.01536    -0.00481    -0.00756     0.01293
  
  S  H  76   0.01204    -0.02091    -0.00190     0.04144    -0.03109    -0.03211
  
  S  H  77   0.02209    -0.04938     0.00532     0.01037    -0.00709    -0.01464
  
  S  H  78  -0.01128     0.02877    -0.01002     0.20184     0.00930    -0.00758




    ROOT NO.   13          14          15          16          17          18

           -36.72953   -36.24778   -34.74516   -34.22441   -33.00123   -32.59366
  
  
  S  C   1   0.25641     0.03057    -0.20451    -0.17699     0.01336    -0.17610
 PX  C   1   0.05484     0.00601    -0.02777    -0.01979     0.00066    -0.00442
 PY  C   1   0.00377     0.00020     0.00428     0.00546    -0.00075     0.01104
 PZ  C   1  -0.00000    -0.00000     0.00001     0.00001    -0.00002    -0.00001
  
  S  C   2   0.22046     0.02416    -0.11623    -0.08667     0.00409    -0.04161
 PX  C   2  -0.07842    -0.01020     0.08444     0.07741    -0.00647     0.08843
 PY  C   2  -0.00078    -0.00107     0.02663     0.02856    -0.00310     0.04386
 PZ  C   2  -0.00001    -0.00000     0.00003     0.00004    -0.00008    -0.00004
  
  S  C   3   0.00374    -0.00335     0.09042     0.09504    -0.00972     0.13385
 PX  C   3  -0.11030    -0.01372     0.09457     0.07986    -0.00523     0.06417
 PY  C   3  -0.07602    -0.00862     0.04402     0.03277    -0.00152     0.01201
 PZ  C   3  -0.00004    -0.00001     0.00009     0.00012    -0.00027    -0.00012
  
  S  C   4  -0.22404    -0.02854     0.19793     0.16485    -0.00986     0.12184
 PX  C   4  -0.03802    -0.00261    -0.02596    -0.03556     0.00519    -0.07138
 PY  C   4  -0.07473    -0.00800     0.02526     0.01133     0.00093    -0.02464
 PZ  C   4   0.00013     0.00002    -0.00000     0.00015    -0.00083    -0.00062
  
  S  C   5  -0.24656    -0.02573     0.07008     0.02657     0.00285    -0.07523
 PX  C   5   0.01907     0.00505    -0.08180    -0.08034     0.00700    -0.08696
 PY  C   5   0.06623     0.00904    -0.07192    -0.06145     0.00278    -0.04685
 PZ  C   5   0.00026     0.00003     0.00023     0.00071    -0.00270    -0.00182
  
  S  C   6  -0.04173     0.00250    -0.14107    -0.14508     0.01509    -0.15300
 PX  C   6   0.11439     0.01325    -0.05277    -0.02838     0.00095     0.03925
 PY  C   6   0.06813     0.00947    -0.06684    -0.05128     0.00038    -0.01376
 PZ  C   6   0.00114     0.00013     0.00078     0.00237    -0.00838    -0.00515
  
  S  C   7   0.19403     0.02726    -0.18006    -0.13102    -0.00149    -0.01428
 PX  C   7   0.09462     0.00873     0.01752     0.03899    -0.00314     0.09762
 PY  C   7   0.01557    -0.00086     0.05504     0.05787    -0.01185     0.05255
 PZ  C   7   0.00408     0.00045     0.00289     0.00826    -0.02794    -0.01724
  
  S  C   8   0.28249     0.02916    -0.01939     0.04160     0.00923     0.20756
 PX  C   8  -0.03632    -0.00728     0.08237     0.06837     0.01072     0.04118
 PY  C   8   0.02122    -0.00119     0.07082     0.07077    -0.00938     0.05103
 PZ  C   8   0.00643     0.00096     0.00262     0.01648    -0.07193    -0.04188
  
  S  N   9   0.01165    -0.00570     0.12162     0.10946    -0.00807     0.07923
 PX  N   9  -0.06635    -0.00673    -0.00113    -0.01947     0.02647    -0.03391
 PY  N   9  -0.18905    -0.01866    -0.02550    -0.06631    -0.01382    -0.16036
 PZ  N   9   0.00446     0.00063    -0.00031     0.02270    -0.16560    -0.10525
  
  S  C  10  -0.06510    -0.01057     0.05691     0.04838    -0.19819    -0.22055
 PX  C  10  -0.04911    -0.00453    -0.01869    -0.03161     0.02047    -0.00373
 PY  C  10  -0.08475    -0.00618    -0.07764    -0.10619     0.07434    -0.00915
 PZ  C  10   0.12848     0.01193     0.04629     0.07372    -0.04140    -0.02302
  
  S  C  11   0.13702     0.00881     0.14965     0.19440    -0.21969    -0.21360
 PX  C  11  -0.00542    -0.00095     0.00415     0.00077    -0.00422    -0.00917
 PY  C  11   0.00812    -0.00010     0.01431     0.00647     0.02692    -0.00910
 PZ  C  11   0.01935     0.00258     0.00653     0.01129     0.05516     0.03611
  
  S  C  12   0.14148     0.01038     0.12491     0.15086    -0.00571    -0.03118
 PX  C  12   0.00187     0.00007    -0.00225    -0.00581     0.01780     0.01678
 PY  C  12  -0.00745    -0.00025    -0.02926    -0.04570     0.11002     0.11498
 PZ  C  12  -0.02327    -0.00122    -0.01752    -0.01707     0.02372     0.03375
  
  S  C  13   0.09054     0.00772     0.01335    -0.00050     0.20301     0.21854
 PX  C  13  -0.00864    -0.00050    -0.01529    -0.01931     0.01383     0.02016
 PY  C  13  -0.03261    -0.00185    -0.04326    -0.05093     0.03477     0.06015
 PZ  C  13   0.01082     0.00058     0.03947     0.05342    -0.04007    -0.04807
  
  S  C  14  -0.01307     0.00191    -0.13112    -0.16044     0.19376     0.24925
 PX  C  14  -0.00821    -0.00033    -0.00806    -0.00568    -0.00962    -0.00295
 PY  C  14   0.01295     0.00163     0.00926     0.01821     0.00493     0.03121
 PZ  C  14   0.05962     0.00336     0.05969     0.05520     0.06102     0.05029
  
  S  C  15  -0.18587    -0.01306    -0.17328    -0.20367     0.00994    -0.02019
 PX  C  15  -0.00423     0.00075    -0.01804    -0.01325     0.00806     0.02221
 PY  C  15   0.06124     0.00908    -0.05646    -0.04106     0.07653     0.15686
 PZ  C  15   0.07922     0.00408     0.04706     0.03181     0.04059     0.04038
  
  S  C  16  -0.09783     0.00388    -0.16225    -0.10115    -0.02920     0.01479
 PX  C  16   0.03625     0.00485    -0.00081     0.01812    -0.01637     0.02160
 PY  C  16   0.07333     0.01181    -0.05645    -0.00313    -0.08044     0.07279
 PZ  C  16  -0.14776    -0.01711    -0.05710    -0.11224     0.00486    -0.05274
  
  S  C  17  -0.04309    -0.00573     0.06059     0.01799     0.23025     0.05837
 PX  C  17   0.00609     0.00148    -0.00318     0.00101     0.00355    -0.00889
 PY  C  17  -0.03420     0.00329    -0.07413    -0.03672    -0.08135    -0.07569
 PZ  C  17  -0.13360    -0.01187    -0.04523    -0.04340    -0.10220    -0.05808
  
  S  C  18   0.04983    -0.00936     0.13710     0.00352     0.31137     0.03683
 PX  C  18   0.00044    -0.00082     0.00452    -0.00194    -0.01499    -0.02254
 PY  C  18   0.05114     0.00737     0.01422     0.03575    -0.03219    -0.03814
 PZ  C  18   0.04412     0.01165    -0.00106     0.05622     0.05683     0.08479
  
  S  S  19  -0.06661    -0.01370     0.00501    -0.05092     0.13298     0.06727
 PX  S  19  -0.01708    -0.00309     0.00037    -0.01052     0.00279    -0.00497
 PY  S  19  -0.03100    -0.01170     0.03881    -0.03813     0.09246    -0.01086
 PZ  S  19   0.06433     0.00197     0.06253     0.01332     0.09670     0.00399
  
  S  C  20  -0.19066    -0.01007    -0.15833    -0.04755    -0.15093     0.08317
 PX  C  20  -0.00302    -0.00131     0.00137    -0.00681    -0.01503    -0.01018
 PY  C  20  -0.01584    -0.01408     0.05186    -0.05496     0.01326    -0.08300
 PZ  C  20   0.00535    -0.01600     0.09089    -0.05887     0.11703    -0.07298
  
  S  C  21  -0.11174    -0.02159    -0.01360    -0.07836    -0.12578    -0.09837
 PX  C  21   0.01202     0.00237    -0.00011     0.00928    -0.00979     0.00112
 PY  C  21   0.07490     0.00610     0.05185     0.03407     0.00194    -0.04562
 PZ  C  21   0.01542    -0.00837     0.06798    -0.02220     0.06210    -0.06730
  
  S  C  22   0.08262    -0.00534     0.11700     0.01927    -0.00055    -0.12635
 PX  C  22   0.00241     0.00111    -0.00613     0.00485    -0.03897    -0.00897
 PY  C  22   0.08483     0.01780    -0.02042     0.07702    -0.14243     0.00689
 PZ  C  22   0.08424     0.01392     0.01602     0.06187     0.06758     0.06021
  
  S  C  23   0.20015     0.02669     0.02506     0.13194    -0.22865    -0.02017
 PX  C  23  -0.01319    -0.00180    -0.00215    -0.00675    -0.00404    -0.00278
 PY  C  23  -0.02681     0.00074    -0.04246    -0.01030    -0.04001     0.04081
 PZ  C  23   0.04709     0.01170    -0.03704     0.02889    -0.02348     0.06527
  
  S  C  24   0.13844     0.03101    -0.11392     0.05497    -0.20394     0.10303
 PX  C  24   0.00815     0.00011     0.01134     0.01134    -0.01222    -0.00362
 PY  C  24  -0.02582    -0.00529     0.00443    -0.01313    -0.01513     0.00106
 PZ  C  24  -0.08380    -0.00752    -0.06169    -0.08433     0.05686     0.02102
  
  S  C  25  -0.09396     0.03342    -0.22288     0.11192    -0.16808     0.16438
 PX  C  25   0.00574    -0.00708     0.03237    -0.03243     0.00370    -0.02805
 PY  C  25  -0.04295    -0.01007    -0.02356    -0.03600    -0.05862     0.01456
 PZ  C  25  -0.06007    -0.01050    -0.04694    -0.03268    -0.06932     0.04329
  
  S  C  26  -0.00536     0.04085    -0.12564     0.14470    -0.01253     0.07883
 PX  C  26   0.00290     0.01112    -0.02561     0.03088    -0.00618     0.01368
 PY  C  26  -0.02652     0.00277    -0.04978     0.01296    -0.05460     0.04673
 PZ  C  26  -0.03970    -0.00168    -0.05920     0.00323    -0.07339     0.06390
  
  S  C  27   0.07428     0.01017     0.09285     0.00651     0.13662    -0.10659
 PX  C  27   0.02504    -0.00881     0.06382    -0.04748     0.02856    -0.04557
 PY  C  27   0.00452     0.01110    -0.02455     0.03700     0.00266     0.01238
 PZ  C  27  -0.00611     0.02042    -0.06823     0.07760    -0.01189     0.04408
  
  S  C  28   0.09284    -0.03813     0.23268    -0.16914     0.10577    -0.14868
 PX  C  28  -0.01135    -0.02273     0.02632    -0.06583    -0.05331     0.02496
 PY  C  28  -0.00706     0.01560    -0.04677     0.05032    -0.00785     0.02105
 PZ  C  28  -0.00349     0.03051    -0.07504     0.09668     0.00685     0.02648
  
  S  S  29   0.00792     0.00287     0.00224    -0.01100    -0.03099     0.00648
 PX  S  29  -0.00061    -0.01334     0.03356    -0.03725     0.01080    -0.01531
 PY  S  29  -0.02633     0.00519    -0.05037     0.02542    -0.03374     0.03004
 PZ  S  29  -0.03561     0.01309    -0.08598     0.05286    -0.05213     0.05500
  
  S  C  30   0.04912    -0.09297     0.22200    -0.24862    -0.02830    -0.03924
 PX  C  30  -0.01803    -0.01344    -0.03773     0.00681    -0.07059     0.07993
 PY  C  30   0.01114     0.00585     0.02733    -0.01303     0.03297    -0.04164
 PZ  C  30   0.02876    -0.00685     0.08864    -0.07254     0.03457    -0.05720
  
  S  C  31   0.00449    -0.07846     0.07173    -0.12955    -0.12624     0.11073
 PX  C  31  -0.01168     0.02362    -0.05968     0.06815     0.00372     0.01858
 PY  C  31   0.00844    -0.01162     0.03934    -0.04275     0.00114    -0.01596
 PZ  C  31   0.01859     0.00048     0.06600    -0.05733     0.02751    -0.05010
  
  S  C  32  -0.03654     0.00528    -0.13301     0.12233    -0.04332     0.09034
 PX  C  32   0.00835     0.00457     0.02261    -0.01689     0.00790    -0.01155
 PY  C  32  -0.00259    -0.00988    -0.00079    -0.00778    -0.01679     0.01616
 PZ  C  32   0.01028    -0.04986     0.06659    -0.10249    -0.08198     0.06815
  
  S  C  33  -0.04781     0.09949    -0.20137     0.25024     0.11668    -0.07356
 PX  C  33  -0.00650     0.00590    -0.03287     0.03594    -0.00399     0.01898
 PY  C  33   0.00313    -0.01105     0.02032    -0.02778    -0.01155     0.00356
 PZ  C  33   0.00128    -0.07341     0.02669    -0.06952    -0.10465     0.10804
  
  S  S  34  -0.00226    -0.00256     0.00516    -0.00064     0.03468    -0.04793
 PX  S  34  -0.01193     0.00245    -0.03575     0.03179    -0.00335     0.00930
 PY  S  34   0.00774    -0.00670     0.02838    -0.02981    -0.00434    -0.00214
 PZ  S  34   0.01873    -0.04741     0.08693    -0.10525    -0.03388     0.01216
  
  S  C  35  -0.02908     0.18061    -0.11430     0.18349     0.17006    -0.15936
 PX  C  35   0.00061    -0.01251    -0.00198    -0.00118    -0.01280     0.01809
 PY  C  35  -0.00388     0.02379    -0.01207     0.02042     0.02585    -0.02930
 PZ  C  35  -0.01746     0.00483    -0.10255     0.12892     0.06077    -0.03576
  
  S  C  36  -0.00490     0.13044     0.02611    -0.00890     0.04949    -0.07076
 PX  C  36   0.00031     0.01508     0.00690    -0.00591     0.00106    -0.00255
 PY  C  36  -0.00157    -0.02345    -0.01799     0.01875     0.00393    -0.00010
 PZ  C  36  -0.01273     0.04592    -0.06940     0.10364     0.08887    -0.08156
  
  S  C  37   0.02007    -0.03851     0.11468    -0.16255    -0.12835     0.11502
 PX  C  37   0.00395    -0.02838     0.00881    -0.01615    -0.02138     0.02412
 PY  C  37  -0.00719     0.05551    -0.01452     0.02821     0.03979    -0.04545
 PZ  C  37  -0.00238     0.07184     0.01817    -0.00966     0.02519    -0.03749
  
  S  C  38   0.02778    -0.19318     0.06374    -0.11094    -0.12657     0.13335
 PX  C  38  -0.00108    -0.03019    -0.02860     0.03660     0.02371    -0.01934
 PY  C  38   0.00114     0.06077     0.04927    -0.06158    -0.03688     0.02849
 PZ  C  38  -0.00720     0.11361     0.01635    -0.00457     0.02929    -0.03988
  
  S  S  39  -0.00297     0.03481    -0.01308     0.02531     0.02247    -0.01615
 PX  S  39   0.00001    -0.01401    -0.00063    -0.00371    -0.01061     0.01209
 PY  S  39  -0.00223     0.03548    -0.00580     0.01598     0.02344    -0.02404
 PZ  S  39  -0.01222     0.06204    -0.04606     0.06884     0.05557    -0.04982
  
  S  C  40   0.02586    -0.34473    -0.05881     0.04650    -0.01331     0.03028
 PX  C  40  -0.00200    -0.01807    -0.03313     0.04858     0.04965    -0.05209
 PY  C  40   0.00419     0.01518     0.05033    -0.07522    -0.07874     0.08302
 PZ  C  40   0.00580    -0.04488     0.01376    -0.02603    -0.03472     0.03870
  
  S  C  41   0.00730    -0.21819    -0.11520     0.14981     0.12789    -0.12934
 PX  C  41  -0.00570     0.06705     0.00772    -0.00331     0.01034    -0.01524
 PY  C  41   0.00763    -0.09069    -0.00926     0.00213    -0.01782     0.02520
 PZ  C  41  -0.00167     0.01534     0.00754    -0.01205    -0.01595     0.01848
  
  S  C  42  -0.00292     0.00516    -0.02340     0.03752     0.04583    -0.05132
 PX  C  42   0.00485    -0.03834     0.00300    -0.00712    -0.00974     0.01054
 PY  C  42  -0.00490     0.02005    -0.01797     0.02774     0.02937    -0.03108
 PZ  C  42   0.00967    -0.17082    -0.06932     0.08943     0.07912    -0.08205
  
  S  O  43  -0.01888     0.24277     0.05720    -0.06407    -0.04186     0.03947
 PX  O  43  -0.00154     0.02731     0.01038    -0.01296    -0.01048     0.01051
 PY  O  43   0.00130    -0.02915    -0.01372     0.01778     0.01537    -0.01571
 PZ  O  43  -0.00434     0.04628     0.00435    -0.00215     0.00330    -0.00477
  
  S  O  44   0.01329    -0.10526     0.00734    -0.01885    -0.02915     0.03317
 PX  O  44  -0.00035     0.00456     0.00334    -0.00557    -0.00825     0.00992
 PY  O  44   0.00018    -0.00837    -0.00883     0.01401     0.01852    -0.02159
 PZ  O  44  -0.00155    -0.01016    -0.02083     0.03107     0.03482    -0.03846
  
  S  C  45  -0.03231     0.28323     0.01336    -0.00044     0.01997    -0.02504
 PX  C  45  -0.01189     0.14983     0.03714    -0.04293    -0.03020     0.02896
 PY  C  45   0.01223    -0.15335    -0.03640     0.04109     0.02674    -0.02471
 PZ  C  45  -0.02075     0.26651     0.07499    -0.09182    -0.07557     0.07705
  
  S  N  46  -0.04820     0.51978     0.09353    -0.10095    -0.06458     0.06117
 PX  N  46   0.00794    -0.08222    -0.01336     0.01409     0.00878    -0.00833
 PY  N  46  -0.00782     0.08084     0.01346    -0.01448    -0.00972     0.00953
 PZ  N  46   0.01570    -0.16273    -0.02440     0.02403     0.01124    -0.00911
  
  S  H  47   0.01056    -0.13246    -0.01643     0.00796    -0.01685     0.02425
  
  S  H  48   0.10991     0.01313    -0.08878    -0.07722     0.00593    -0.07855
  
  S  H  49   0.10800     0.01312    -0.09327    -0.08255     0.00660    -0.08850
  
  S  H  50   0.10989     0.01313    -0.08878    -0.07722     0.00590    -0.07859
  
  S  H  51   0.08689     0.00946    -0.04438    -0.03264     0.00143    -0.01400
  
  S  H  52   0.08690     0.00947    -0.04442    -0.03269     0.00153    -0.01395
  
  S  H  53   0.00202    -0.00127     0.03520     0.03693    -0.00368     0.05165
  
  S  H  54   0.00208    -0.00126     0.03519     0.03698    -0.00401     0.05140
  
  S  H  55  -0.08989    -0.01142     0.07875     0.06559    -0.00423     0.04847
  
  S  H  56  -0.09001    -0.01143     0.07868     0.06533    -0.00318     0.04918
  
  S  H  57  -0.09931    -0.01034     0.02771     0.01006     0.00230    -0.02976
  
  S  H  58  -0.09884    -0.01029     0.02809     0.01107    -0.00120    -0.03198
  
  S  H  59  -0.01523     0.00118    -0.05573    -0.05604     0.00207    -0.06078
  
  S  H  60  -0.01648     0.00103    -0.05665    -0.05889     0.01246    -0.05430
  
  S  H  61   0.07298     0.01031    -0.07184    -0.05616     0.01356    -0.00179
  
  S  H  62   0.07893     0.01091    -0.06677    -0.04394    -0.02403    -0.02585
  
  S  H  63   0.12253     0.01300    -0.01007     0.02262    -0.02886     0.06508
  
  S  H  64   0.11581     0.01180    -0.01152     0.00483     0.05141     0.11207
  
  S  H  65   0.07204     0.00552     0.06420     0.09271    -0.11307    -0.09028
  
  S  H  66   0.05698     0.00441     0.05453     0.06938    -0.00367    -0.01148
  
  S  H  67   0.03530     0.00323     0.00449    -0.00011     0.09752     0.11197
  
  S  H  68  -0.00841     0.00151    -0.07055    -0.07751     0.08386     0.13099
  
  S  H  69  -0.03461    -0.00483    -0.01726    -0.01655    -0.08952    -0.03606
  
  S  H  70   0.06860     0.00885     0.00893     0.04907    -0.12019    -0.01885
  
  S  H  71   0.03999     0.01113    -0.06531     0.00334    -0.09473     0.05802
  
  S  H  72  -0.01147     0.01415    -0.05960     0.05587    -0.01603     0.04384
  
  S  H  73   0.02844    -0.00114     0.05065    -0.01383     0.06007    -0.05332
  
  S  H  74   0.00613    -0.03031     0.04282    -0.06459    -0.04902     0.03943
  
  S  H  75  -0.01442     0.01208    -0.06067     0.06362    -0.00561     0.02846
  
  S  H  76  -0.00414     0.05262    -0.00231     0.01334     0.03240    -0.04025
  
  S  H  77   0.00866    -0.03482     0.04277    -0.06567    -0.06163     0.05913
  
  S  H  78   0.00499    -0.02481     0.01628    -0.02687    -0.03319     0.03722




    ROOT NO.   19          20          21          22          23          24

           -32.22793   -31.02677   -30.39977   -29.80888   -29.31154   -29.12439
  
  
  S  C   1   0.14665     0.03516     0.19317    -0.03070     0.07617     0.25016
 PX  C   1   0.00043    -0.00278    -0.02473     0.00549    -0.01719    -0.06111
 PY  C   1  -0.01027    -0.00327    -0.02022     0.00352    -0.00924    -0.03093
 PZ  C   1  -0.00001     0.00000    -0.00002     0.00001     0.00000     0.00003
  
  S  C   2   0.02617    -0.00064    -0.02386     0.00691    -0.02396    -0.08721
 PX  C   2  -0.07528    -0.01906    -0.10625     0.01697    -0.04207    -0.13782
 PY  C   2  -0.03907    -0.01100    -0.06385     0.01048    -0.02619    -0.08594
 PZ  C   2  -0.00004     0.00000    -0.00007     0.00002     0.00001     0.00007
  
  S  C   3  -0.11667    -0.03041    -0.16925     0.02669    -0.06443    -0.20872
 PX  C   3  -0.04902    -0.00741    -0.02549     0.00153     0.00176     0.01294
 PY  C   3  -0.00576     0.00240     0.02442    -0.00560     0.01776     0.06296
 PZ  C   3  -0.00012     0.00002    -0.00020     0.00007     0.00004     0.00022
  
  S  C   4  -0.08994    -0.01143    -0.02955    -0.00049     0.01167     0.05158
 PX  C   4   0.06533     0.01881     0.10869    -0.01756     0.04267     0.13846
 PY  C   4   0.02692     0.01125     0.07243    -0.01271     0.03349     0.11142
 PZ  C   4  -0.00021     0.00008    -0.00044     0.00017     0.00011     0.00060
  
  S  C   5   0.07762     0.02824     0.16874    -0.02743     0.06756     0.21837
 PX  C   5   0.06982     0.01184     0.04406    -0.00326    -0.00088    -0.01415
 PY  C   5   0.03297     0.00291    -0.00301     0.00353    -0.01419    -0.05407
 PZ  C   5  -0.00076     0.00020    -0.00140     0.00050     0.00028     0.00155
  
  S  C   6   0.12204     0.01854     0.06183    -0.00335    -0.00759    -0.04266
 PX  C   6  -0.04256    -0.01793    -0.10879     0.01759    -0.04323    -0.13819
 PY  C   6   0.00071    -0.00671    -0.05839     0.01190    -0.03237    -0.10953
 PZ  C   6  -0.00275     0.00061    -0.00405     0.00138     0.00066     0.00379
  
  S  C   7  -0.01945    -0.01620    -0.13780     0.02600    -0.06809    -0.22688
 PX  C   7  -0.08395    -0.01423    -0.05723     0.00368    -0.00035     0.01243
 PY  C   7  -0.04614    -0.00276    -0.00467    -0.00137     0.01095     0.04142
 PZ  C   7  -0.00863     0.00202    -0.01224     0.00430     0.00216     0.01186
  
  S  C   8  -0.16925    -0.02672    -0.08710     0.00014     0.00896     0.05314
 PX  C   8  -0.00914     0.00717     0.08516    -0.01889     0.04492     0.14952
 PY  C   8  -0.04008     0.01280     0.08076    -0.01594     0.03439     0.10366
 PZ  C   8  -0.02944     0.00950    -0.02342     0.01047     0.00491     0.02358
  
  S  N   9  -0.07167     0.04486     0.21810    -0.04203     0.04926     0.10085
 PX  N   9   0.05529    -0.00010     0.03023    -0.00652    -0.00561    -0.02935
 PY  N   9   0.10232     0.02918     0.05457     0.00192    -0.03597    -0.16245
 PZ  N   9  -0.08733     0.04040    -0.06729     0.03914     0.01143     0.06650
  
  S  C  10  -0.01939     0.06617    -0.09172     0.07947    -0.00232     0.08098
 PX  C  10  -0.00212     0.01469     0.02347     0.00003    -0.00487    -0.02554
 PY  C  10   0.01407     0.01860    -0.05026     0.02953    -0.03493    -0.08336
 PZ  C  10   0.05065    -0.04917    -0.13974     0.02831     0.00425     0.09957
  
  S  C  11   0.15333    -0.09425    -0.19681     0.01163     0.01028     0.09296
 PX  C  11  -0.00338     0.01018    -0.00078     0.00980    -0.00023     0.01251
 PY  C  11   0.04860    -0.00859     0.01561    -0.00536    -0.01176    -0.04800
 PZ  C  11   0.08193    -0.06416     0.04263    -0.06502    -0.00394    -0.09977
  
  S  C  12   0.21693    -0.13212     0.08140    -0.11858    -0.00165    -0.16846
 PX  C  12  -0.00785     0.00938     0.02120     0.00150    -0.00067    -0.00242
 PY  C  12  -0.04581     0.03663     0.15436    -0.02598    -0.00145    -0.06663
 PZ  C  12  -0.00564    -0.01096     0.05994    -0.03903     0.00409    -0.05616
  
  S  C  13  -0.00011     0.00797     0.29187    -0.08496     0.00606    -0.12222
 PX  C  13  -0.03177     0.01853    -0.00024     0.01413     0.00179     0.02756
 PY  C  13  -0.08469     0.04268     0.02829     0.01844     0.00836     0.05074
 PZ  C  13   0.08644    -0.05718     0.03593    -0.06036    -0.00004    -0.09820
  
  S  C  14  -0.22251     0.10018     0.05430     0.04949     0.01494     0.12905
 PX  C  14  -0.00871    -0.00321    -0.01732     0.00034     0.00300     0.01248
 PY  C  14   0.00020    -0.01547     0.04979    -0.03054     0.01269    -0.00020
 PZ  C  14   0.05315     0.00202     0.16263    -0.03751    -0.00185    -0.07023
  
  S  C  15  -0.14623     0.06903    -0.16280     0.07728    -0.01867     0.03042
 PX  C  15  -0.01183    -0.01170    -0.00824    -0.01051     0.00545     0.00760
 PY  C  15  -0.09672    -0.01315    -0.03181    -0.00567     0.02493     0.10626
 PZ  C  15  -0.03540     0.05929     0.02886     0.05436     0.00029     0.08838
  
  S  C  16   0.02786    -0.12678    -0.15916    -0.05685     0.00132    -0.04938
 PX  C  16  -0.01090    -0.01843    -0.01056    -0.00923     0.01213     0.03744
 PY  C  16  -0.13600    -0.03210    -0.09053    -0.01480     0.04812     0.15611
 PZ  C  16  -0.08524     0.07482    -0.02649     0.03393    -0.01350    -0.03551
  
  S  C  17   0.25976    -0.08012     0.06106    -0.03528    -0.03011    -0.09743
 PX  C  17   0.02547    -0.01301    -0.02759     0.00448    -0.00412     0.00111
 PY  C  17   0.02137    -0.03480    -0.09008     0.00031    -0.02373    -0.08816
 PZ  C  17  -0.08951     0.04281     0.12075    -0.04017     0.00611    -0.09007
  
  S  C  18   0.21642    -0.01333    -0.13950     0.06847    -0.01206     0.09675
 PX  C  18  -0.01430     0.01901    -0.00083     0.00928    -0.00461    -0.00815
 PY  C  18   0.02008     0.02922     0.03535     0.02181    -0.03401    -0.08260
 PZ  C  18   0.11811    -0.08089     0.06294    -0.03896    -0.01303    -0.03764
  
  S  S  19   0.08627    -0.09592    -0.16701     0.00396     0.06688     0.18985
 PX  S  19   0.00004    -0.00794    -0.01380    -0.00564     0.00295     0.01340
 PY  S  19   0.02658     0.00581    -0.08204     0.01904     0.01283     0.06754
 PZ  S  19   0.01793     0.05102    -0.00205     0.02721    -0.02543     0.00270
  
  S  C  20   0.00235    -0.20744     0.00303    -0.12526     0.04641     0.02336
 PX  C  20  -0.02210    -0.00316     0.02444    -0.02931    -0.02475    -0.02741
 PY  C  20  -0.09445     0.08839     0.01183    -0.00623    -0.02301    -0.05976
 PZ  C  20  -0.02621     0.08729    -0.11014     0.05559     0.01983     0.07206
  
  S  C  21  -0.18851     0.09214     0.11603    -0.04497    -0.02851    -0.14445
 PX  C  21  -0.00496     0.00418     0.02221    -0.00516    -0.00948    -0.01577
 PY  C  21  -0.04429     0.12516     0.07313     0.06218    -0.02804    -0.06073
 PZ  C  21  -0.03180     0.11067    -0.03982     0.07309    -0.00487     0.01785
  
  S  C  22  -0.09484     0.21422     0.08290     0.10341    -0.04967    -0.08904
 PX  C  22  -0.03761     0.02057     0.04171    -0.00477    -0.00320    -0.02240
 PY  C  22  -0.07379     0.03767     0.15831    -0.00826    -0.00938    -0.06590
 PZ  C  22   0.14015    -0.08258    -0.05898     0.01059     0.00241     0.05923
  
  S  C  23  -0.17273     0.10736     0.21552     0.01177     0.01093    -0.00859
 PX  C  23  -0.01301     0.00777     0.01034    -0.00163     0.00152    -0.00112
 PY  C  23  -0.02902    -0.05939    -0.01122    -0.04726     0.03864     0.07167
 PZ  C  23   0.04448    -0.11889    -0.07396    -0.04873     0.03656     0.09423
  
  S  C  24  -0.12065    -0.13607    -0.05752    -0.09288     0.08127     0.16855
 PX  C  24  -0.01370     0.01540     0.02888     0.00214     0.00312     0.00621
 PY  C  24  -0.06133     0.03134     0.02965    -0.00134     0.01839     0.04387
 PZ  C  24   0.01174    -0.05488    -0.13488    -0.01564     0.00346     0.01618
  
  S  C  25   0.11255    -0.16346     0.08831    -0.04183    -0.02228    -0.01969
 PX  C  25  -0.04037    -0.03468     0.02293    -0.08753    -0.07901    -0.02027
 PY  C  25  -0.02447    -0.09318     0.02904    -0.08666     0.00290    -0.01834
 PZ  C  25   0.00617    -0.12560     0.00332    -0.06564     0.05283     0.02004
  
  S  C  26   0.11441     0.13023    -0.02230     0.21247     0.10984     0.01112
 PX  C  26   0.01502    -0.00549     0.01851    -0.01777    -0.05214    -0.00888
 PY  C  26   0.02552    -0.07877     0.03481    -0.03645    -0.01990    -0.00514
 PZ  C  26   0.03504    -0.11582     0.03449    -0.03943    -0.00295     0.00811
  
  S  C  27  -0.04966     0.20480    -0.09501     0.08965     0.11490     0.00885
 PX  C  27  -0.04997    -0.04133     0.00466    -0.09556    -0.05872    -0.00126
 PY  C  27   0.02211     0.03253     0.00602     0.03245    -0.02112    -0.00571
 PZ  C  27   0.06097     0.06675     0.00699     0.10421    -0.01605    -0.00135
  
  S  C  28  -0.14849    -0.06500    -0.02426    -0.17139    -0.06845     0.01711
 PX  C  28  -0.00752    -0.13804     0.04813    -0.06215    -0.08940     0.01124
 PY  C  28   0.02646     0.02123     0.01614     0.01137    -0.04698    -0.01147
 PZ  C  28   0.04880     0.09009     0.00762     0.07169    -0.07935    -0.00686
  
  S  S  29  -0.01841    -0.10975     0.07419    -0.13428    -0.20026    -0.02343
 PX  S  29  -0.01477     0.00042    -0.02353     0.01682     0.04755     0.01745
 PY  S  29   0.02033    -0.00542     0.00931     0.00847     0.04654    -0.01524
 PZ  S  29   0.04340    -0.01334     0.02133     0.01396     0.03055    -0.01816
  
  S  C  30  -0.08488    -0.19629     0.02098    -0.10097     0.06089     0.00590
 PX  C  30   0.07111    -0.00642     0.03985     0.12231    -0.11032     0.01760
 PY  C  30  -0.04086    -0.01946    -0.00965    -0.07505     0.01086    -0.00321
 PZ  C  30  -0.06367    -0.06109     0.00468    -0.06832    -0.15684     0.04349
  
  S  C  31   0.07956    -0.06350     0.06473     0.19832    -0.23538     0.06020
 PX  C  31   0.03401     0.07554    -0.00424     0.06347    -0.09273     0.01684
 PY  C  31  -0.02579    -0.05446     0.00589    -0.04333     0.03496    -0.00650
 PZ  C  31  -0.06018    -0.08426     0.00812    -0.07071    -0.04406     0.01739
  
  S  C  32   0.11450     0.18090    -0.01010     0.13267    -0.20702     0.04101
 PX  C  32  -0.01162    -0.00817     0.00449     0.01102    -0.10007     0.02743
 PY  C  32   0.01235    -0.00838     0.00636     0.02177     0.04607    -0.01402
 PZ  C  32   0.04575    -0.05665     0.04405     0.15092    -0.06059     0.01533
  
  S  C  33  -0.03012     0.11994    -0.05767    -0.15388     0.13459    -0.04561
 PX  C  33   0.02956     0.07254    -0.00970     0.01737    -0.16523     0.04293
 PY  C  33  -0.00446    -0.04190     0.01196     0.02533     0.10972    -0.03223
 PZ  C  33   0.09507     0.04581     0.01429     0.13031     0.02835    -0.01165
  
  S  S  34  -0.05237    -0.05021    -0.02379    -0.11551     0.37434    -0.09181
 PX  S  34   0.01095     0.00697    -0.00207    -0.00397     0.10935    -0.03371
 PY  S  34  -0.00635    -0.01697     0.00538     0.00419    -0.05065     0.01547
 PZ  S  34  -0.00512    -0.04061     0.00196    -0.00790     0.01473     0.01088
  
  S  C  35  -0.13025    -0.04861    -0.01816    -0.15354    -0.08194     0.03255
 PX  C  35   0.02123     0.05049    -0.01469    -0.03598    -0.11322     0.03834
 PY  C  35  -0.02997    -0.06058     0.01949     0.06003     0.15790    -0.05765
 PZ  C  35  -0.00954     0.10598    -0.05075    -0.14792     0.07219    -0.02653
  
  S  C  36  -0.08292    -0.20920     0.07828     0.23147     0.15330    -0.06179
 PX  C  36  -0.00315    -0.00256    -0.00031    -0.01172    -0.05860     0.02187
 PY  C  36   0.00264     0.00817    -0.00138     0.01329     0.08811    -0.03398
 PZ  C  36  -0.06490    -0.00446    -0.02381    -0.14403    -0.01561     0.01237
  
  S  C  37   0.08937    -0.00345     0.03529     0.21710     0.16813    -0.07113
 PX  C  37   0.02451     0.05077    -0.01946    -0.06217    -0.03740     0.01620
 PY  C  37  -0.04658    -0.09763     0.03757     0.11838     0.05635    -0.02548
 PZ  C  37  -0.04446    -0.10625     0.03777     0.08627    -0.07468     0.02729
  
  S  C  38   0.12618     0.19321    -0.06276    -0.16189    -0.02171     0.01498
 PX  C  38  -0.01310     0.01554    -0.01375    -0.06652    -0.02902     0.01361
 PY  C  38   0.01748    -0.03676     0.02736     0.12303     0.03261    -0.01731
 PZ  C  38  -0.04453    -0.08860     0.02884     0.04483    -0.17901     0.06737
  
  S  S  39  -0.00604     0.07580    -0.04439    -0.20891    -0.32113     0.12491
 PX  S  39   0.01163     0.01064    -0.00070     0.01358     0.05144    -0.01963
 PY  S  39  -0.02112    -0.01217    -0.00021    -0.02349    -0.10520     0.03785
 PZ  S  39  -0.03928    -0.02060     0.00333     0.01117     0.01504    -0.01147
  
[...]
    Config     827  -0.05112431  0.00261370
    Config     839   0.04363888  0.00190435
    Config     854   0.05928201  0.00351436
    Config     865   0.04135326  0.00171009
    Config     866  -0.05493877  0.00301827
    Config     931  -0.04569371  0.00208792
    Config     950  -0.07018529  0.00492597
    Config     952  -0.04333862  0.00187824
    Config    1018   0.04824672  0.00232775
    Config    1023  -0.05099114  0.00260010
    Config    1037   0.04170880  0.00173962
    Config    1058  -0.06029748  0.00363579
 Total coeff printed             0.72968158
  
State  497 10.5294     CI coeff  CI percent
    Config     125  -0.10400323  0.01081667
    Config     168  -0.05296148  0.00280492
    Config     169   0.04473299  0.00200104
    Config     170  -0.08146326  0.00663626
    Config     180  -0.06141983  0.00377240
    Config     194  -0.04218803  0.00177983
    Config     206  -0.11762798  0.01383634
    Config     207  -0.04580982  0.00209854
    Config     219   0.08055911  0.00648977
    Config     226  -0.07643053  0.00584163
    Config     230  -0.04001000  0.00160080
    Config     231   0.04783954  0.00228862
    Config     244   0.06435095  0.00414104
    Config     245  -0.05792690  0.00335553
    Config     252   0.04732662  0.00223981
    Config     255   0.04912869  0.00241363
    Config     257  -0.06660453  0.00443616
    Config     267   0.04562190  0.00208136
    Config     268  -0.04130113  0.00170578
    Config     277  -0.04165439  0.00173509
    Config     282   0.07175390  0.00514862
    Config     297  -0.05288124  0.00279643
    Config     302  -0.09990639  0.00998129
    Config     303   0.17432898  0.03039059
    Config     304   0.04837248  0.00233990
    Config     308  -0.05411272  0.00292819
    Config     311  -0.05564897  0.00309681
    Config     314   0.08945704  0.00800256
    Config     317  -0.04017827  0.00161429
    Config     319   0.13535344  0.01832055
    Config     335  -0.04045649  0.00163673
    Config     337   0.04454745  0.00198447
    Config     338   0.06087575  0.00370586
    Config     342  -0.06014213  0.00361708
    Config     343   0.04827064  0.00233005
    Config     345  -0.05437750  0.00295691
    Config     353  -0.09250355  0.00855691
    Config     355  -0.09330343  0.00870553
    Config     363  -0.05389226  0.00290438
    Config     364  -0.11247761  0.01265121
    Config     366   0.09307293  0.00866257
    Config     367  -0.04089190  0.00167215
    Config     368  -0.04149784  0.00172207
    Config     371  -0.17958961  0.03225243
    Config     372   0.04743152  0.00224975
    Config     379  -0.05009620  0.00250963
    Config     382  -0.06695509  0.00448298
    Config     383  -0.07820559  0.00611611
    Config     384   0.09172976  0.00841435
    Config     389  -0.08596802  0.00739050
    Config     391   0.04698608  0.00220769
    Config     401  -0.06535445  0.00427120
    Config     405   0.04237513  0.00179565
    Config     407   0.05164654  0.00266737
    Config     409   0.05310586  0.00282023
    Config     411   0.04270729  0.00182391
    Config     416   0.06772353  0.00458648
    Config     418  -0.04240013  0.00179777
    Config     425   0.07211964  0.00520124
    Config     428   0.04151238  0.00172328
    Config     442  -0.04143334  0.00171672
    Config     445  -0.04102042  0.00168268
    Config     448  -0.08957268  0.00802327
    Config     463   0.05864447  0.00343917
    Config     464   0.05084914  0.00258563
    Config     466   0.05317132  0.00282719
    Config     477   0.04282236  0.00183375
    Config     481   0.06039169  0.00364716
    Config     484  -0.05981256  0.00357754
    Config     486   0.04821892  0.00232506
    Config     489   0.04010141  0.00160812
    Config     507   0.04308363  0.00185620
    Config     510   0.06358010  0.00404243
    Config     515  -0.04944563  0.00244487
    Config     520  -0.05324080  0.00283458
    Config     521  -0.07263558  0.00527593
    Config     530  -0.06996546  0.00489517
    Config     531   0.05099797  0.00260079
    Config     532  -0.05767858  0.00332682
    Config     535  -0.04722574  0.00223027
    Config     538  -0.04007391  0.00160592
    Config     543   0.04766124  0.00227159
    Config     544  -0.09799851  0.00960371
    Config     549  -0.07038084  0.00495346
    Config     552  -0.04285644  0.00183667
    Config     556  -0.12010595  0.01442544
    Config     559   0.04335751  0.00187987
    Config     562   0.04243018  0.00180032
    Config     569  -0.04721453  0.00222921
    Config     572   0.04597940  0.00211411
    Config     578   0.04066228  0.00165342
    Config     579  -0.07748129  0.00600335
    Config     587   0.09675071  0.00936070
    Config     590   0.08063719  0.00650236
    Config     600   0.04442303  0.00197341
    Config     601   0.07447636  0.00554673
    Config     604  -0.07093123  0.00503124
    Config     605   0.06396256  0.00409121
    Config     607   0.09837334  0.00967731
    Config     610  -0.06361018  0.00404626
    Config     612   0.07975007  0.00636007
    Config     621  -0.04587406  0.00210443
    Config     626   0.04022996  0.00161845
    Config     627   0.05055287  0.00255559
    Config     628  -0.04835791  0.00233849
    Config     637   0.09215742  0.00849299
    Config     641   0.04843926  0.00234636
    Config     643   0.05569376  0.00310179
    Config     649   0.06063190  0.00367623
    Config     653   0.06796010  0.00461858
    Config     659  -0.06988865  0.00488442
    Config     672  -0.05897280  0.00347779
    Config     676  -0.05967224  0.00356078
    Config     690  -0.05048276  0.00254851
    Config     693   0.04832295  0.00233511
    Config     694  -0.04797431  0.00230153
    Config     696  -0.05807953  0.00337323
    Config     710  -0.04031609  0.00162539
    Config     711  -0.05912709  0.00349601
    Config     713   0.04955677  0.00245587
    Config     718   0.06291607  0.00395843
    Config     722  -0.05537648  0.00306655
    Config     723  -0.04819035  0.00232231
    Config     726   0.04014488  0.00161161
    Config     729   0.04246158  0.00180299
    Config     731   0.07474686  0.00558709
    Config     738   0.05603241  0.00313963
    Config     742   0.04148458  0.00172097
    Config     755   0.04131955  0.00170731
    Config     764   0.04241727  0.00179922
    Config     767   0.04992727  0.00249273
    Config     782   0.06041918  0.00365048
    Config     797   0.04781410  0.00228619
    Config     798   0.10760705  0.01157928
    Config     823   0.05320710  0.00283100
    Config     830   0.04867817  0.00236956
    Config     843  -0.05323474  0.00283394
    Config     848  -0.08030125  0.00644829
    Config     849  -0.04395826  0.00193233
    Config     853   0.04962956  0.00246309
    Config     882   0.06330190  0.00400713
    Config     902   0.07819177  0.00611395
    Config     918  -0.04902602  0.00240355
    Config     931   0.05498425  0.00302327
    Config     941   0.04784175  0.00228883
    Config     950   0.08890217  0.00790360
    Config     990   0.04065217  0.00165260
    Config    1008  -0.04681900  0.00219202
    Config    1019   0.05316041  0.00282603
    Config    1028   0.07666556  0.00587761
    Config    1044   0.06301605  0.00397102
    Config    1058   0.07856611  0.00617263
    Config    1065  -0.05269915  0.00277720
    Config    1082   0.05146710  0.00264886
    Config    1107  -0.04344989  0.00188789
    Config    1129  -0.04040033  0.00163219
    Config    1155  -0.04835743  0.00233844
    Config    1266   0.04918956  0.00241961
    Config    1396  -0.05038597  0.00253875
 Total coeff printed             0.67704040
  
State  498 10.5378     CI coeff  CI percent
    Config     125  -0.04249371  0.00180572
    Config     128   0.06621285  0.00438414
    Config     139  -0.05407207  0.00292379
    Config     145   0.04815690  0.00231909
    Config     170   0.05628061  0.00316751
    Config     185   0.04663768  0.00217507
    Config     206   0.10515835  0.01105828
    Config     219  -0.05207148  0.00271144
    Config     232   0.05785812  0.00334756
    Config     233   0.04443271  0.00197427
    Config     235   0.11921905  0.01421318
    Config     242  -0.07885800  0.00621858
    Config     248   0.07199745  0.00518363
    Config     264   0.07940754  0.00630556
    Config     265   0.06780410  0.00459740
    Config     268  -0.11348939  0.01287984
    Config     269  -0.11514629  0.01325867
    Config     271  -0.05745577  0.00330116
    Config     277   0.07814843  0.00610718
    Config     282   0.05866583  0.00344168
    Config     285  -0.10890668  0.01186067
    Config     289   0.08833368  0.00780284
    Config     297  -0.07010492  0.00491470
    Config     299   0.07449716  0.00554983
    Config     307   0.05220530  0.00272539
    Config     311  -0.11537974  0.01331248
    Config     314   0.07980245  0.00636843
    Config     318   0.07093546  0.00503184
    Config     331   0.04259528  0.00181436
    Config     338   0.05641273  0.00318240
    Config     339  -0.13631652  0.01858219
    Config     342   0.04178182  0.00174572
    Config     345  -0.15955919  0.02545914
    Config     351   0.04190416  0.00175596
    Config     353  -0.04170275  0.00173912
    Config     355   0.05235977  0.00274155
    Config     356   0.04522838  0.00204561
    Config     364  -0.04328078  0.00187323
    Config     370   0.05750264  0.00330655
    Config     371  -0.07063977  0.00498998
    Config     372   0.14077646  0.01981801
    Config     376  -0.07308227  0.00534102
    Config     382  -0.04941319  0.00244166
    Config     385  -0.09842628  0.00968773
    Config     396  -0.04437136  0.00196882
    Config     401   0.17269820  0.02982467
    Config     407  -0.05092597  0.00259345
    Config     411   0.04738214  0.00224507
    Config     419  -0.06557910  0.00430062
    Config     423   0.05930440  0.00351701
    Config     424   0.04390990  0.00192808
    Config     427  -0.04450502  0.00198070
    Config     433  -0.04108710  0.00168815
    Config     440   0.09625648  0.00926531
    Config     443   0.04564385  0.00208336
    Config     445  -0.13825289  0.01911386
    Config     446   0.05265610  0.00277266
    Config     451   0.05783320  0.00334468
    Config     457   0.11466280  0.01314756
    Config     463   0.12036087  0.01448674
    Config     466   0.05527702  0.00305555
    Config     477  -0.06108967  0.00373195
    Config     479  -0.11428842  0.01306184
    Config     481  -0.05027127  0.00252720
    Config     482  -0.06017443  0.00362096
    Config     483  -0.07020071  0.00492814
    Config     489   0.06311624  0.00398366
    Config     492   0.13029502  0.01697679
    Config     493  -0.09782263  0.00956927
    Config     501   0.04330611  0.00187542
    Config     513  -0.10296157  0.01060108
    Config     514   0.07596270  0.00577033
    Config     515   0.07976990  0.00636324
    Config     530   0.04434516  0.00196649
    Config     534  -0.06414822  0.00411499
    Config     535   0.04231615  0.00179066
    Config     536  -0.06406059  0.00410376
    Config     544  -0.06856627  0.00470133
    Config     554   0.04438899  0.00197038
    Config     556   0.08335607  0.00694823
    Config     559   0.04491634  0.00201748
    Config     561   0.04607948  0.00212332
    Config     574  -0.06533074  0.00426811
    Config     583  -0.04911040  0.00241183
    Config     587   0.15934070  0.02538946
    Config     590  -0.06907816  0.00477179
    Config     594   0.07416652  0.00550067
    Config     607   0.08920062  0.00795675
    Config     612   0.19943955  0.03977614
    Config     615  -0.05173513  0.00267652
    Config     619  -0.04309641  0.00185730
    Config     627  -0.06487838  0.00420920
    Config     628   0.05111752  0.00261300
    Config     637   0.05376535  0.00289071
    Config     642   0.08992939  0.00808729
    Config     660  -0.05635973  0.00317642
    Config     664   0.08371267  0.00700781
    Config     665   0.04029183  0.00162343
    Config     681  -0.05220419  0.00272528
    Config     690   0.04819062  0.00232234
    Config     694   0.04243526  0.00180075
    Config     755   0.05176160  0.00267926
    Config     781  -0.06456967  0.00416924
    Config     782  -0.07639698  0.00583650
    Config     784   0.07600343  0.00577652
    Config     785   0.04013240  0.00161061
    Config     786   0.04080009  0.00166465
    Config     795  -0.05663072  0.00320704
    Config     798  -0.08987476  0.00807747
    Config     805  -0.04039543  0.00163179
    Config     809   0.05828831  0.00339753
    Config     822   0.04758433  0.00226427
    Config     843   0.07158658  0.00512464
    Config     873  -0.05515883  0.00304250
    Config     894  -0.04053605  0.00164317
    Config     915  -0.07358671  0.00541500
    Config     922  -0.04028495  0.00162288
    Config     941  -0.05437990  0.00295717
    Config     947   0.06356869  0.00404098
    Config     950  -0.07494022  0.00561604
    Config     985  -0.06851575  0.00469441
    Config     990  -0.04740770  0.00224749
    Config     995   0.04801891  0.00230582
    Config    1015  -0.04817056  0.00232040
    Config    1058  -0.06542539  0.00428048
    Config    1105   0.04665739  0.00217691
    Config    1156  -0.04712224  0.00222051
    Config    1178  -0.04672436  0.00218317
    Config    1396   0.04053284  0.00164291
 Total coeff printed             0.73044111
  
State  499 10.5427     CI coeff  CI percent
    Config     129   0.04231685  0.00179072
    Config     146  -0.04399830  0.00193585
    Config     216   0.07300660  0.00532996
    Config     234  -0.04561175  0.00208043
    Config     273  -0.21938855  0.04813133
    Config     274  -0.04702855  0.00221168
    Config     315   0.36429204  0.13270869
    Config     322  -0.06032950  0.00363965
    Config     348   0.05415015  0.00293224
    Config     376  -0.07284922  0.00530701
    Config     392   0.31071153  0.09654165
    Config     399  -0.05648104  0.00319011
    Config     409   0.04168816  0.00173790
    Config     422  -0.17892409  0.03201383
    Config     424   0.05120664  0.00262212
    Config     446   0.04470047  0.00199813
    Config     454  -0.23605991  0.05572428
    Config     459   0.29840491  0.08904549
    Config     465   0.06755424  0.00456358
    Config     480  -0.04214597  0.00177628
    Config     506   0.04012801  0.00161026
    Config     517  -0.07154964  0.00511935
    Config     522  -0.14341074  0.02056664
    Config     549  -0.05340073  0.00285164
    Config     550   0.04207188  0.00177004
    Config     551  -0.54072917  0.29238804
    Config     585   0.05001550  0.00250155
    Config     586   0.04804848  0.00230866
    Config     590  -0.05392323  0.00290771
    Config     622   0.10825830  0.01171986
    Config     673  -0.04121874  0.00169898
    Config     676  -0.05459094  0.00298017
    Config     705  -0.04884800  0.00238613
    Config     766  -0.06384334  0.00407597
    Config     784  -0.04036020  0.00162895
    Config     807   0.04260245  0.00181497
    Config    1575  -0.06037573  0.00364523
 Total coeff printed             0.85725509
  
State  500 10.5476     CI coeff  CI percent
    Config     128   0.04224942  0.00178501
    Config     156   0.07952860  0.00632480
    Config     157  -0.04204563  0.00176783
    Config     161   0.04557671  0.00207724
    Config     194   0.05553907  0.00308459
    Config     206  -0.09335199  0.00871459
    Config     219   0.05741668  0.00329668
    Config     230  -0.08482648  0.00719553
    Config     232  -0.09229598  0.00851855
    Config     233   0.04405858  0.00194116
    Config     235   0.18552655  0.03442010
    Config     248  -0.08032082  0.00645143
    Config     257   0.05326698  0.00283737
    Config     264  -0.07316344  0.00535289
    Config     268  -0.17861658  0.03190388
    Config     269   0.06697735  0.00448596
    Config     271  -0.04473261  0.00200101
    Config     277   0.08634061  0.00745470
    Config     282   0.07566147  0.00572466
    Config     284  -0.04306947  0.00185498
    Config     285   0.07450652  0.00555122
    Config     288  -0.05723865  0.00327626
    Config     289   0.15685447  0.02460332
    Config     292  -0.04265317  0.00181929
    Config     296  -0.05435766  0.00295476
    Config     297   0.06031299  0.00363766
    Config     299  -0.04816559  0.00231992
    Config     307  -0.10151885  0.01030608
    Config     311  -0.05061422  0.00256180
    Config     318   0.06018218  0.00362189
    Config     319  -0.07910363  0.00625738
    Config     331  -0.04117901  0.00169571
    Config     334  -0.04033975  0.00162730
    Config     338  -0.05016778  0.00251681
    Config     339  -0.11096756  0.01231380
    Config     341   0.07031028  0.00494354
    Config     342  -0.05690852  0.00323858
    Config     344   0.04856895  0.00235894
    Config     345  -0.23988785  0.05754618
    Config     352   0.04328120  0.00187326
    Config     370  -0.04113266  0.00169190
    Config     372   0.20800575  0.04326639
    Config     383   0.04645217  0.00215780
    Config     384   0.04110071  0.00168927
    Config     385  -0.08683328  0.00754002
    Config     389   0.04334202  0.00187853
    Config     390   0.11969964  0.01432800
    Config     401  -0.10131637  0.01026501
    Config     404   0.04111427  0.00169038
    Config     411  -0.04332432  0.00187700
    Config     425  -0.05494070  0.00301848
    Config     440   0.07056539  0.00497947
    Config     445  -0.22847440  0.05220055
    Config     446  -0.07845926  0.00615586
    Config     457   0.19652773  0.03862315
    Config     463   0.19532659  0.03815248
    Config     466  -0.05459048  0.00298012
    Config     477  -0.06553127  0.00429435
    Config     479  -0.18012877  0.03244637
    Config     485   0.04603110  0.00211886
    Config     489  -0.04885944  0.00238724
    Config     492   0.04677605  0.00218800
    Config     493   0.08319022  0.00692061
    Config     513   0.04346854  0.00188951
    Config     515  -0.06804143  0.00462964
    Config     534  -0.07236729  0.00523702
    Config     556  -0.08899751  0.00792056
    Config     557   0.04213086  0.00177501
    Config     561   0.06868362  0.00471744
    Config     569   0.05342534  0.00285427
    Config     583   0.06026861  0.00363230
    Config     587  -0.11909250  0.01418302
    Config     598  -0.05087403  0.00258817
    Config     607  -0.05930583  0.00351718
    Config     612  -0.15892816  0.02525816
    Config     628  -0.04416429  0.00195048
    Config     642  -0.05672750  0.00321801
    Config     664   0.05197715  0.00270162
    Config     676   0.04912983  0.00241374
    Config     693  -0.04319533  0.00186584
    Config     753   0.04540484  0.00206160
    Config     784  -0.06007151  0.00360859
    Config     797   0.04381908  0.00192011
    Config     798  -0.15044344  0.02263323
    Config     810   0.04126002  0.00170239
    Config     861  -0.04637691  0.00215082
    Config     915   0.04721412  0.00222917
    Config     920   0.05499106  0.00302402
    Config     947  -0.08239275  0.00678856
    Config     950  -0.12606329  0.01589195
    Config    1014  -0.04370039  0.00190972
    Config    1058  -0.10945439  0.01198026
    Config    1396   0.06714233  0.00450809
 Total coeff printed             0.75582703
  

 **********************
 *                    *
 * JOB ENDED NORMALLY *
 *                    *
 **********************



 TOTAL JOB TIME:           236.24 SECONDS

 == MOPAC DONE ==
