 *******************************************************************************
 ** Site#: 4824         For non-commercial use only    Version 21.013L 64BITS **
 *******************************************************************************
 ** Cite this program as: MOPAC2016, Version: 21.013L, James J. P. Stewart,   **
 ** Stewart Computational Chemistry, web: HTTP://OpenMOPAC.net. Days left:  83**
 *******************************************************************************
 **                                                                           **
 **                                MOPAC2016                                  **
 **                                                                           **
 *******************************************************************************

                              INDO CALCULATION RESULTS

 *******************************************************************************
 *  CALCULATION DONE:                                Fri Oct 22 08:45:43 2021  *
 *  INDO       - The INDO Hamiltonian to be used
 *  CIS        - C.I. USES 1 ELECTRON EXCITATIONS ONLY
 *  EPS=  8.93 - USE ANDREAS KLAMT'S COSMO IMPLICIT SOLVATION MODEL
 *  n**2 =  1.420 for COSMO-CI
 *  T=         - A TIME OF 172800.0 SECONDS REQUESTED
 *  DUMP=N     - RESTART FILE WRITTEN EVERY 7200.0 SECONDS REQUESTED
 *******************************************************************************
INDO CIS EPS=8.93 N**2=1.42
 Dye127
 Calculo dos Estados Excitados
   ATOM   CHEMICAL          X               Y               Z
  NUMBER   SYMBOL      (ANGSTROMS)     (ANGSTROMS)     (ANGSTROMS)
 
     1       N          0.00000000  *   0.00000000  *   0.00000000  *
     2       C          1.15636457  *   0.00000000  *   0.00000000  *
     3       C          2.57424114  *  -0.01517691  *   0.00000000  *
     4       C          3.31457256  *   1.10829049  *  -0.03593759  *
     5       C          2.73662511  *   2.43991962  *  -0.02267865  *
     6       C          1.71807053  *   2.75883835  *   0.88800678  *
     7       C          1.14419778  *   4.01814908  *   0.91626819  *
     8       C          1.61071486  *   4.95509085  *  -0.00376906  *
     9       C          2.66712157  *   4.64917716  *  -0.90923942  *
    10       C          3.23527873  *   3.39015418  *  -0.91277601  *
    11       C          2.92429162  *   5.83975140  *  -1.67998778  *
    12       C          3.82237311  *   6.12756377  *  -2.69502554  *
    13       C          3.80150752  *   7.39806660  *  -3.25109348  *
    14       C          2.89309425  *   8.36624337  *  -2.81064719  *
    15       C          1.98343682  *   8.10537897  *  -1.79715271  *
    16       C          2.01755727  *   6.83588933  *  -1.22883224  *
    17       N          1.22161845  *   6.28914840  *  -0.19868221  *
    18       C          0.17945011  *   6.95969398  *   0.48842044  *
    19       C         -1.07332790  *   6.35464996  *   0.59017025  *
    20       C         -2.10056091  *   7.00225860  *   1.27775327  *
    21       C         -1.84829007  *   8.24181370  *   1.82691737  *
    22       C         -0.58372348  *   8.85241459  *   1.70918267  *
    23       C          0.44402505  *   8.22097303  *   1.05012254  *
    24       C         -0.58488046  *  10.21887660  *   2.36499214  *
    25       C         -0.37531310  *  11.25988632  *   1.26268389  *
    26       C         -0.44076329  *  12.69606758  *   1.74611470  *
    27       C          0.43446124  *  10.28800366  *   3.50349865  *
    28       C          1.87340696  *  10.40352702  *   3.03232049  *
    29       C         -1.98688968  *  10.28145491  *   2.93633490  *
    30       C         -2.71247200  *   9.12092508  *   2.59304865  *
    31       C         -4.01486679  *   8.93500213  *   3.00493120  *
    32       C         -4.61113371  *   9.91752966  *   3.79499061  *
    33       C         -3.87950598  *  11.04672599  *   4.16395461  *
    34       C         -2.55303137  *  11.24639047  *   3.73683537  *
    35       N         -4.48226368  *  12.00972337  *   5.00761732  *
    36       C         -5.12175031  *  11.73862124  *   6.23506643  *
    37       C         -5.29539038  *  10.52662303  *   6.89630164  *
    38       C         -5.96216245  *  10.56122704  *   8.11159826  *
    39       C         -6.43481862  *  11.75883185  *   8.65735764  *
    40       C         -6.24648890  *  12.96828636  *   8.00447759  *
    41       C         -5.58404227  *  12.96343312  *   6.78799594  *
    42       C         -5.21637595  *  14.01196316  *   5.86994379  *
    43       C         -4.54153141  *  13.39915443  *   4.77925912  *
    44       C         -4.08765977  *  14.14000184  *   3.69273596  *
    45       C         -4.29375805  *  15.51063001  *   3.73239520  *
    46       C         -4.93827508  *  16.12603251  *   4.80988514  *
    47       C         -5.40976556  *  15.38337351  *   5.88276764  *
    48       C          3.23924180  *  -1.32501163  *   0.00715935  *
    49       O          4.44403670  *  -1.52937591  *  -0.03985517  *
    50       O          2.39074831  *  -2.37031688  *   0.07610507  *
    51       H          4.41261320  *   1.05232028  *  -0.08846735  *
    52       H          1.38152784  *   2.00856825  *   1.61199492  *
    53       H          0.36335602  *   4.26613790  *   1.63908285  *
    54       H          4.04608116  *   3.15225884  *  -1.60724906  *
    55       H          4.52398624  *   5.36567949  *  -3.04359518  *
    56       H          4.50282256  *   7.64913887  *  -4.05194632  *
    57       H          2.89889213  *   9.35475144  *  -3.28115548  *
    58       H          1.26447403  *   8.86049891  *  -1.47260828  *
    59       H         -1.26527976  *   5.38110373  *   0.12662865  *
    60       H         -3.08435011  *   6.53465761  *   1.36971343  *
    61       H          1.44020982  *   8.67779456  *   0.99340066  *
    62       H          0.59392927  *  11.07259092  *   0.75210175  *
    63       H         -1.13407409  *  11.10487252  *   0.46367414  *
    64       H         -0.08668038  *  13.39342898  *   0.97082175  *
    65       H         -1.46553123  *  13.01115843  *   1.98678455  *
    66       H          0.17431889  *  12.88996860  *   2.63516385  *
    67       H          0.19820826  *  11.13395951  *   4.18363743  *
    68       H          0.31890012  *   9.38670849  *   4.14500224  *
    69       H          2.10320275  *  11.38434095  *   2.59193557  *
    70       H          2.57841085  *  10.27209421  *   3.86730389  *
    71       H          2.14061228  *   9.64537547  *   2.27871122  *
    72       H         -4.57226438  *   8.03808670  *   2.72267269  *
    73       H         -5.65080853  *   9.79532759  *   4.11642266  *
    74       H         -1.99360608  *  12.12953410  *   4.05975980  *
    75       H         -4.91411835  *   9.58937733  *   6.48630026  *
    76       H         -6.12100379  *   9.62707406  *   8.65970687  *
    77       H         -6.95805515  *  11.73845567  *   9.61732514  *
    78       H         -6.60674668  *  13.90735226  *   8.43173470  *
    79       H         -3.60623582  *  13.66260675  *   2.83758223  *
    80       H         -3.94633318  *  16.12683325  *   2.89707080  *
    81       H         -5.07661722  *  17.21068136  *   4.80092576  *
    82       H         -5.92434926  *  15.85917468  *   6.72124488  *
    83       H          2.87239525  *  -3.21027447  *   0.07513090  *
 


          CARTESIAN COORDINATES 

    NO.       ATOM           X           Y           Z

     1         N          0.0000      0.0000      0.0000
     2         C          1.1564      0.0000      0.0000
     3         C          2.5742     -0.0152      0.0000
     4         C          3.3146      1.1083     -0.0359
     5         C          2.7366      2.4399     -0.0227
     6         C          1.7181      2.7588      0.8880
     7         C          1.1442      4.0181      0.9163
     8         C          1.6107      4.9551     -0.0038
     9         C          2.6671      4.6492     -0.9092
    10         C          3.2353      3.3902     -0.9128
    11         C          2.9243      5.8398     -1.6800
    12         C          3.8224      6.1276     -2.6950
    13         C          3.8015      7.3981     -3.2511
    14         C          2.8931      8.3662     -2.8106
    15         C          1.9834      8.1054     -1.7972
    16         C          2.0176      6.8359     -1.2288
    17         N          1.2216      6.2891     -0.1987
    18         C          0.1795      6.9597      0.4884
    19         C         -1.0733      6.3546      0.5902
    20         C         -2.1006      7.0023      1.2778
    21         C         -1.8483      8.2418      1.8269
    22         C         -0.5837      8.8524      1.7092
    23         C          0.4440      8.2210      1.0501
    24         C         -0.5849     10.2189      2.3650
    25         C         -0.3753     11.2599      1.2627
    26         C         -0.4408     12.6961      1.7461
    27         C          0.4345     10.2880      3.5035
    28         C          1.8734     10.4035      3.0323
    29         C         -1.9869     10.2815      2.9363
    30         C         -2.7125      9.1209      2.5930
    31         C         -4.0149      8.9350      3.0049
    32         C         -4.6111      9.9175      3.7950
    33         C         -3.8795     11.0467      4.1640
    34         C         -2.5530     11.2464      3.7368
    35         N         -4.4823     12.0097      5.0076
    36         C         -5.1218     11.7386      6.2351
    37         C         -5.2954     10.5266      6.8963
    38         C         -5.9622     10.5612      8.1116
    39         C         -6.4348     11.7588      8.6574
    40         C         -6.2465     12.9683      8.0045
    41         C         -5.5840     12.9634      6.7880
    42         C         -5.2164     14.0120      5.8699
    43         C         -4.5415     13.3992      4.7793
    44         C         -4.0877     14.1400      3.6927
    45         C         -4.2938     15.5106      3.7324
    46         C         -4.9383     16.1260      4.8099
    47         C         -5.4098     15.3834      5.8828
    48         C          3.2392     -1.3250      0.0072
    49         O          4.4440     -1.5294     -0.0399
    50         O          2.3907     -2.3703      0.0761
    51         H          4.4126      1.0523     -0.0885
    52         H          1.3815      2.0086      1.6120
    53         H          0.3634      4.2661      1.6391
    54         H          4.0461      3.1523     -1.6072
    55         H          4.5240      5.3657     -3.0436
    56         H          4.5028      7.6491     -4.0519
    57         H          2.8989      9.3548     -3.2812
    58         H          1.2645      8.8605     -1.4726
    59         H         -1.2653      5.3811      0.1266
    60         H         -3.0844      6.5347      1.3697
    61         H          1.4402      8.6778      0.9934
    62         H          0.5939     11.0726      0.7521
    63         H         -1.1341     11.1049      0.4637
    64         H         -0.0867     13.3934      0.9708
    65         H         -1.4655     13.0112      1.9868
    66         H          0.1743     12.8900      2.6352
    67         H          0.1982     11.1340      4.1836
    68         H          0.3189      9.3867      4.1450
    69         H          2.1032     11.3843      2.5919
    70         H          2.5784     10.2721      3.8673
    71         H          2.1406      9.6454      2.2787
    72         H         -4.5723      8.0381      2.7227
    73         H         -5.6508      9.7953      4.1164
    74         H         -1.9936     12.1295      4.0598
    75         H         -4.9141      9.5894      6.4863
    76         H         -6.1210      9.6271      8.6597
    77         H         -6.9581     11.7385      9.6173
    78         H         -6.6067     13.9074      8.4317
    79         H         -3.6062     13.6626      2.8376
    80         H         -3.9463     16.1268      2.8971
    81         H         -5.0766     17.2107      4.8009
    82         H         -5.9243     15.8592      6.7212
    83         H          2.8724     -3.2103      0.0751

           Empirical Formula: C45 H33 N3 O2  =    83 atoms



      MOLECULAR POINT GROUP   :   C1  


      RHF CALCULATION, NO. OF DOUBLY OCCUPIED LEVELS = 120

 WARNING: INDO only performs single-point calculations

 Summary of symmetry occupancy in each shell:

 SHELL     
    1  120
    v  113
 TOTAL 233




    ROOT NO.    1           2           3           4           5           6

           -48.87155   -48.63909   -47.71483   -46.81078   -43.66426   -43.30767
  
  
  S  N   1   0.00449    -0.00409    -0.00434     0.04027     0.05465    -0.02744
 PX  N   1   0.00262    -0.00239    -0.00255     0.02487     0.02946    -0.01464
 PY  N   1   0.00082    -0.00071    -0.00053    -0.00366     0.00827    -0.00381
 PZ  N   1   0.00019    -0.00017    -0.00014     0.00032     0.00146    -0.00071
  
  S  C   2   0.01054    -0.00965    -0.01047     0.11507     0.09985    -0.04889
 PX  C   2   0.00334    -0.00308    -0.00355     0.05011     0.01923    -0.00872
 PY  C   2   0.00273    -0.00236    -0.00164    -0.02097     0.03023    -0.01369
 PZ  C   2   0.00041    -0.00036    -0.00031     0.00093     0.00304    -0.00149
  
  S  C   3   0.01577    -0.01457    -0.01679     0.23061     0.12342    -0.05961
 PX  C   3   0.00027    -0.00032    -0.00085     0.03216    -0.00528     0.00253
 PY  C   3   0.00466    -0.00399    -0.00225    -0.07541     0.07261    -0.03256
 PZ  C   3   0.00013    -0.00011    -0.00009     0.00047     0.00068    -0.00043
  
  S  C   4   0.02579    -0.02314    -0.02201     0.12047     0.21408    -0.09667
 PX  C   4  -0.00654     0.00582     0.00529    -0.01884    -0.05645     0.02619
 PY  C   4   0.00847    -0.00731    -0.00516    -0.04555     0.05375    -0.02134
 PZ  C   4   0.00008    -0.00007    -0.00008     0.00155     0.00214    -0.00161
  
  S  C   5   0.07168    -0.06256    -0.05097     0.05768     0.37323    -0.15767
 PX  C   5  -0.01026     0.00877     0.00647    -0.00083    -0.03433     0.01677
 PY  C   5   0.02624    -0.02246    -0.01636    -0.01631     0.05416    -0.01702
 PZ  C   5  -0.00140     0.00124     0.00101     0.00203     0.00359    -0.00564
  
  S  C   6   0.07009    -0.06036    -0.04655     0.03597     0.31205    -0.14213
 PX  C   6   0.00902    -0.00814    -0.00740     0.00881     0.05806    -0.02126
 PY  C   6   0.02423    -0.02037    -0.01388    -0.00782     0.04436    -0.02114
 PZ  C   6  -0.02058     0.01787     0.01413    -0.00862    -0.08468     0.03426
  
  S  C   7   0.11037    -0.09135    -0.05910     0.01049     0.22015    -0.12515
 PX  C   7   0.02355    -0.02092    -0.01758     0.00490     0.08450    -0.02758
 PY  C   7   0.02715    -0.02086    -0.00848    -0.00881    -0.05939     0.01107
 PZ  C   7  -0.03771     0.03176     0.02192    -0.00144    -0.05995     0.02584
  
  S  C   8   0.26714    -0.22028    -0.13810    -0.01068     0.14631    -0.07417
 PX  C   8   0.01551    -0.01543    -0.01725     0.00175     0.05627     0.01568
 PY  C   8   0.07786    -0.06156    -0.03028    -0.01688    -0.14412     0.04909
 PZ  C   8  -0.04912     0.04184     0.02972     0.00570     0.01087    -0.03642
  
  S  C   9   0.21193    -0.17909    -0.12499    -0.00316     0.20013    -0.00986
 PX  C   9  -0.05031     0.04160     0.02621     0.00349    -0.01397     0.01217
 PY  C   9   0.06150    -0.05051    -0.03038    -0.01494    -0.10928     0.07659
 PZ  C   9   0.02278    -0.01900    -0.01262     0.00298     0.06228    -0.04562
  
  S  C  10   0.08968    -0.07753    -0.06007     0.02387     0.28921    -0.09472
 PX  C  10  -0.02911     0.02497     0.01869    -0.00421    -0.08131     0.03160
 PY  C  10   0.02664    -0.02250    -0.01545    -0.01020    -0.01094     0.02155
 PZ  C  10   0.01673    -0.01450    -0.01142     0.00771     0.08272    -0.03960
  
  S  C  11   0.20912    -0.17604    -0.12055    -0.02000    -0.03288     0.19822
 PX  C  11  -0.06155     0.05078     0.03160     0.00591     0.00791    -0.00155
 PY  C  11   0.01070    -0.00855    -0.00460    -0.00456    -0.06636     0.07626
 PZ  C  11   0.05528    -0.04567    -0.02856    -0.00374     0.02175    -0.03330
  
  S  C  12   0.08365    -0.07152    -0.05247    -0.01001    -0.05552     0.19901
 PX  C  12  -0.03161     0.02681     0.01896     0.00380     0.01853    -0.05581
 PY  C  12   0.01109    -0.00941    -0.00674    -0.00258    -0.03274     0.05936
 PZ  C  12   0.02596    -0.02200    -0.01549    -0.00256    -0.00342     0.02778
  
  S  C  13   0.06018    -0.05145    -0.03783    -0.00879    -0.07626     0.20135
 PX  C  13  -0.01910     0.01619     0.01148     0.00277     0.02314    -0.05408
 PY  C  13  -0.00891     0.00771     0.00592     0.00104     0.00348    -0.01970
 PZ  C  13   0.02270    -0.01930    -0.01384    -0.00317    -0.02417     0.06158
  
  S  C  14   0.06361    -0.05341    -0.03670    -0.00937    -0.08787     0.19728
 PX  C  14  -0.00383     0.00273     0.00059     0.00043     0.00441     0.00219
 PY  C  14  -0.02741     0.02338     0.01693     0.00391     0.03076    -0.07643
 PZ  C  14   0.01659    -0.01354    -0.00824    -0.00224    -0.01879     0.03301
  
  S  C  15   0.10799    -0.08694    -0.04957    -0.01382    -0.11442     0.17573
 PX  C  15   0.00769    -0.00804    -0.00966    -0.00163    -0.01335     0.06096
 PY  C  15  -0.04800     0.04007     0.02622     0.00587     0.03341    -0.05563
 PZ  C  15   0.01590    -0.01112    -0.00166    -0.00117    -0.00384    -0.03523
  
  S  C  16   0.26368    -0.21568    -0.13026    -0.02864    -0.13092     0.17846
 PX  C  16  -0.01802     0.01195    -0.00082     0.00144     0.01296     0.06502
 PY  C  16  -0.07606     0.06452     0.04484     0.00639    -0.02054     0.00431
 PZ  C  16   0.05144    -0.03993    -0.01777    -0.00417    -0.00387    -0.06842
  
  S  N  17   0.36114    -0.28691    -0.14901    -0.03505    -0.14488    -0.03023
 PX  N  17   0.03954    -0.03724    -0.03572    -0.00394     0.02353     0.05422
 PY  N  17  -0.02823     0.02707     0.02696     0.00110    -0.04877    -0.00365
 PZ  N  17  -0.02919     0.02723     0.02543     0.00369    -0.00079    -0.04988
  
  S  C  18   0.20822    -0.12733     0.03038    -0.01540    -0.19999    -0.19311
 PX  C  18   0.03490    -0.04066    -0.05282    -0.00592     0.00446     0.04900
 PY  C  18  -0.01883     0.02772     0.04508     0.00356    -0.01672    -0.01990
 PZ  C  18  -0.02128     0.02766     0.04039     0.00421    -0.00190    -0.03448
  
  S  C  19   0.11783    -0.05709     0.06168    -0.00579    -0.14017    -0.18418
 PX  C  19   0.03806    -0.02908    -0.01091    -0.00368    -0.02665    -0.02262
 PY  C  19   0.02824    -0.00479     0.04060    -0.00029    -0.05083    -0.06110
 PZ  C  19   0.00410     0.00550     0.02375     0.00109    -0.01471    -0.02751
  
  S  C  20   0.08951    -0.01597     0.11560    -0.00002    -0.10864    -0.15521
 PX  C  20   0.03310    -0.01152     0.03284    -0.00086    -0.05115    -0.07090
 PY  C  20   0.02359     0.00289     0.04607     0.00115    -0.01440    -0.02102
 PZ  C  20   0.00115     0.00519     0.01230     0.00089     0.01069     0.01305
  
  S  C  21   0.15288     0.00904     0.26421     0.00596    -0.07390    -0.12052
 PX  C  21   0.03006    -0.00735     0.04468     0.00013    -0.04432    -0.06775
 PY  C  21   0.02708     0.01664     0.07155     0.00355     0.04283     0.05013
 PZ  C  21   0.00391     0.01120     0.02170     0.00179     0.03765     0.04938
  
  S  C  22   0.17743     0.00368     0.30802     0.00666    -0.09338    -0.15732
 PX  C  22  -0.02297    -0.01023    -0.05557    -0.00236    -0.01162    -0.00695
 PY  C  22   0.00295     0.01784     0.04148     0.00344     0.05771     0.06266
 PZ  C  22   0.00787     0.01255     0.03745     0.00251     0.03389     0.03415
  
  S  C  23   0.14670    -0.05038     0.13005    -0.00422    -0.15403    -0.17390
 PX  C  23  -0.02753    -0.00401    -0.06170    -0.00169     0.03609     0.06544
 PY  C  23  -0.02391     0.02828     0.03149     0.00446     0.04253     0.03206
 PZ  C  23  -0.00510     0.01734     0.03729     0.00315     0.01321    -0.00837
  
  S  C  24   0.16826     0.03682     0.34742     0.01191     0.02584    -0.01967
 PX  C  24  -0.02077    -0.00992    -0.04065    -0.00169    -0.01990    -0.02923
 PY  C  24  -0.02183     0.00042    -0.03996    -0.00082     0.01738     0.02568
 PZ  C  24  -0.00388     0.00369    -0.00642     0.00016     0.01571     0.02342
  
  S  C  25   0.09399     0.02058     0.19785     0.00693     0.01738    -0.01472
 PX  C  25  -0.00756    -0.00376    -0.01583    -0.00068    -0.00691    -0.00827
 PY  C  25  -0.02343    -0.00222    -0.04724    -0.00137     0.00593     0.01399
 PZ  C  25   0.02565     0.00735     0.05535     0.00209     0.00991     0.00262
  
  S  C  26   0.04821     0.01540     0.10105     0.00388     0.02158     0.00691
 PX  C  26  -0.00217    -0.00241    -0.00199    -0.00013    -0.00327    -0.00535
 PY  C  26  -0.02105    -0.00508    -0.04570    -0.00168    -0.00671     0.00017
 PZ  C  26   0.00287     0.00202     0.00449     0.00021     0.00281     0.00357
  
  S  C  27   0.09218     0.01974     0.19435     0.00678     0.01508    -0.01815
 PX  C  27  -0.02050    -0.00716    -0.04280    -0.00166    -0.01112    -0.01046
 PY  C  27  -0.00458     0.00100    -0.00821    -0.00010     0.00594     0.00819
 PZ  C  27  -0.02797    -0.00426    -0.05879    -0.00192     0.00063     0.01223
  
  S  C  28   0.05000     0.00645     0.10313     0.00328    -0.00279    -0.02675
 PX  C  28  -0.02097    -0.00409    -0.04512    -0.00157    -0.00200     0.00736
 PY  C  28  -0.00358     0.00100    -0.00454     0.00003     0.00418     0.00501
 PZ  C  28  -0.00473     0.00068    -0.00706    -0.00007     0.00339     0.00450
  
  S  C  29   0.16320     0.07003     0.29969     0.01161     0.11501     0.15264
 PX  C  29   0.00675    -0.01526     0.03958     0.00090    -0.03890    -0.08317
 PY  C  29  -0.02476    -0.00053    -0.05673    -0.00174     0.00324     0.00970
 PZ  C  29  -0.01444     0.00643    -0.04348    -0.00119     0.01835     0.04013
  
  S  C  30   0.14419     0.05586     0.26069     0.00957     0.08854     0.12979
 PX  C  30   0.03412    -0.00221     0.07932     0.00225    -0.02544    -0.05768
 PY  C  30   0.02097     0.01776     0.03464     0.00189     0.04344     0.06653
 PZ  C  30  -0.00006     0.01108    -0.00901     0.00024     0.03380     0.05901
  
  S  C  31   0.07743     0.05154     0.11158     0.00488     0.10111     0.17371
 PX  C  31   0.02572     0.00970     0.04942     0.00188     0.02031     0.03020
 PY  C  31   0.02356     0.02165     0.02653     0.00144     0.04166     0.07175
 PZ  C  31   0.00371     0.00894    -0.00432     0.00008     0.01545     0.02855
  
  S  C  32   0.09020     0.09826     0.05515     0.00344     0.11567     0.20893
 PX  C  32   0.02847     0.02184     0.03847     0.00185     0.04536     0.07759
 PY  C  32   0.02155     0.03484    -0.01290    -0.00013     0.01138     0.02367
 PZ  C  32   0.00332     0.01481    -0.02384    -0.00082    -0.01090    -0.01584
  
  S  C  33   0.15066     0.19509     0.01856     0.00295     0.13260     0.24488
 PX  C  33  -0.00724    -0.02755     0.04169     0.00143     0.01676     0.02153
 PY  C  33   0.01723     0.04459    -0.05113    -0.00169    -0.02458    -0.03746
 PZ  C  33   0.01475     0.04014    -0.04817    -0.00160    -0.02079    -0.02925
  
  S  C  34   0.11709     0.10363     0.11924     0.00587     0.12378     0.20156
 PX  C  34  -0.01713    -0.03743     0.02820     0.00057    -0.02525    -0.05632
 PY  C  34  -0.02349    -0.00546    -0.05757    -0.00234    -0.03769    -0.05911
 PZ  C  34  -0.00752     0.01058    -0.04427    -0.00158    -0.01176    -0.01132
  
  S  N  35   0.24010     0.39088    -0.16535    -0.00288     0.03750     0.09412
 PX  N  35  -0.01417    -0.02818     0.02320     0.00074     0.01712     0.02979
 PY  N  35   0.02352     0.04525    -0.03473    -0.00108    -0.02705    -0.04981
 PZ  N  35   0.02129     0.04140    -0.03248    -0.00101    -0.02372    -0.04133
  
  S  C  36   0.17366     0.29258    -0.14653    -0.00327    -0.02913    -0.04032
 PX  C  36   0.01687     0.02615    -0.00780    -0.00002     0.01432     0.03024
 PY  C  36   0.04314     0.07536    -0.04348    -0.00111    -0.01719    -0.02910
 PZ  C  36  -0.04072    -0.06499     0.02396     0.00028    -0.02328    -0.05076
  
  S  C  37   0.07090     0.11947    -0.06043    -0.00139    -0.02342    -0.04061
 PX  C  37   0.00151     0.00133     0.00213     0.00013     0.00877     0.01769
 PY  C  37   0.03159     0.05449    -0.03015    -0.00075    -0.01391    -0.02423
 PZ  C  37  -0.01208    -0.01817     0.00409    -0.00005    -0.01358    -0.02835
  
  S  C  38   0.04155     0.07255    -0.04266    -0.00116    -0.03602    -0.06900
 PX  C  38   0.00453     0.00764    -0.00386    -0.00009    -0.00119    -0.00187
 PY  C  38   0.01623     0.02865    -0.01751    -0.00049    -0.01515    -0.02891
 PZ  C  38  -0.01274    -0.02177     0.01172     0.00029     0.00602     0.01076
  
  S  C  39   0.03931     0.06942    -0.04262    -0.00120    -0.04073    -0.07892
 PX  C  39   0.00952     0.01671    -0.00999    -0.00027    -0.00806    -0.01528
 PY  C  39   0.00163     0.00296    -0.00200    -0.00006    -0.00195    -0.00383
 PZ  C  39  -0.01778    -0.03122     0.01871     0.00051     0.01514     0.02872
  
  S  C  40   0.05457     0.09599    -0.05787    -0.00159    -0.04782    -0.09171
 PX  C  40   0.01303     0.02269    -0.01309    -0.00034    -0.00774    -0.01417
 PY  C  40  -0.01332    -0.02341     0.01410     0.00039     0.01237     0.02346
 PZ  C  40  -0.02047    -0.03560     0.02039     0.00053     0.01100     0.01991
  
  S  C  41   0.13647     0.23554    -0.13089    -0.00329    -0.06210    -0.11126
 PX  C  41   0.02658     0.04487    -0.02247    -0.00049    -0.00075     0.00160
 PY  C  41  -0.01942    -0.03297     0.01708     0.00040     0.00497     0.00664
 PZ  C  41  -0.04360    -0.07356     0.03668     0.00080    -0.00011    -0.00508
  
  S  C  42   0.13678     0.23552    -0.12969    -0.00323    -0.06165    -0.11758
 PX  C  42   0.01597     0.02680    -0.01316    -0.00029    -0.00204    -0.00359
 PY  C  42  -0.04904    -0.08294     0.04182     0.00092     0.00019    -0.00878
 PZ  C  42  -0.01796    -0.03013     0.01484     0.00033     0.00431     0.00986
  
  S  C  43   0.17443     0.29222    -0.14302    -0.00312    -0.02871    -0.04960
 PX  C  43  -0.01428    -0.02662     0.01876     0.00055     0.01256     0.02264
 PY  C  43  -0.04624    -0.07406     0.02802     0.00036    -0.02525    -0.05962
 PZ  C  43   0.03760     0.06623    -0.03921    -0.00102    -0.01498    -0.02370
  
  S  C  44   0.07240     0.11940    -0.05534    -0.00118    -0.02256    -0.05122
 PX  C  44  -0.01218    -0.02212     0.01435     0.00040     0.00919     0.01833
 PY  C  44  -0.01355    -0.01993     0.00366    -0.00008    -0.01469    -0.03217
 PZ  C  44   0.02835     0.04891    -0.02690    -0.00066    -0.01215    -0.02421
  
  S  C  45   0.04230     0.07260    -0.04014    -0.00104    -0.03517    -0.07868
 PX  C  45  -0.00550    -0.00995     0.00652     0.00019     0.00620     0.01320
 PY  C  45  -0.01468    -0.02456     0.01218     0.00028     0.00664     0.01471
 PZ  C  45   0.01451     0.02550    -0.01529    -0.00042    -0.01328    -0.02858
  
  S  C  46   0.03970     0.06942    -0.04111    -0.00112    -0.04001    -0.08804
 PX  C  46   0.00201     0.00338    -0.00172    -0.00004    -0.00131    -0.00311
 PY  C  46  -0.02029    -0.03531     0.02044     0.00054     0.01685     0.03630
 PZ  C  46   0.00123     0.00231    -0.00171    -0.00005    -0.00160    -0.00292
  
  S  C  47   0.05489     0.09600    -0.05663    -0.00153    -0.04721    -0.09986
 PX  C  47   0.00957     0.01660    -0.00949    -0.00025    -0.00740    -0.01602
 PY  C  47  -0.02312    -0.04008     0.02270     0.00058     0.01228     0.02359
 PZ  C  47  -0.01219    -0.02118     0.01221     0.00032     0.01090     0.02431
  
  S  C  48   0.01058    -0.01049    -0.01767     0.51160    -0.04392     0.01646
 PX  C  48  -0.00004    -0.00000    -0.00031     0.01821    -0.00374     0.00153
 PY  C  48   0.00009     0.00016     0.00222    -0.13671     0.06541    -0.03014
 PZ  C  48   0.00003    -0.00003    -0.00008     0.00329    -0.00144     0.00066
  
  S  O  49   0.00736    -0.00740    -0.01326     0.40985    -0.04788     0.01906
 PX  O  49  -0.00305     0.00308     0.00558    -0.17498     0.02250    -0.00914
 PY  O  49   0.00062    -0.00057    -0.00062     0.00449     0.01100    -0.00534
 PZ  O  49   0.00012    -0.00012    -0.00023     0.00761    -0.00124     0.00052
  
  S  O  50   0.00849    -0.00869    -0.01681     0.56949    -0.11690     0.05123
 PX  O  50   0.00222    -0.00229    -0.00454     0.15728    -0.03377     0.01485
 PY  O  50   0.00136    -0.00135    -0.00227     0.06474    -0.00296     0.00070
 PZ  O  50  -0.00014     0.00014     0.00028    -0.00936     0.00172    -0.00074
  
  S  H  51   0.00876    -0.00790    -0.00773     0.05231     0.07006    -0.03121
  
  S  H  52   0.01751    -0.01516    -0.01210     0.01876     0.10052    -0.04776
  
  S  H  53   0.03837    -0.03009    -0.01506     0.00169     0.04614    -0.04481
  
  S  H  54   0.02464    -0.02143    -0.01702     0.00917     0.08406    -0.02261
  
  S  H  55   0.02264    -0.01949    -0.01472    -0.00216    -0.00708     0.05227
  
  S  H  56   0.01360    -0.01170    -0.00884    -0.00208    -0.02005     0.05470
  
  S  H  57   0.01473    -0.01227    -0.00824    -0.00226    -0.02424     0.05309
  
  S  H  58   0.03925    -0.02864    -0.00902    -0.00443    -0.04370     0.03629
  
  S  H  59   0.04312    -0.02647     0.00623    -0.00261    -0.03690    -0.05526
  
  S  H  60   0.02382    -0.00262     0.03249     0.00021    -0.02503    -0.03655
  
  S  H  61   0.05873    -0.02265     0.04425    -0.00212    -0.05162    -0.04626
  
  S  H  62   0.03905     0.00566     0.07920     0.00252    -0.00033    -0.01503
  
  S  H  63   0.04081     0.00867     0.08407     0.00287     0.00605    -0.00625
  
  S  H  64   0.01457     0.00451     0.03089     0.00119     0.00643     0.00120
  
  S  H  65   0.02425     0.01117     0.04475     0.00179     0.01361     0.01019
  
  S  H  66   0.02351     0.00765     0.04897     0.00188     0.01046     0.00326
  
  S  H  67   0.03671     0.01070     0.07625     0.00283     0.01308     0.00306
  
  S  H  68   0.03960     0.00814     0.08186     0.00279     0.00486    -0.00828
  
  S  H  69   0.02187     0.00328     0.04579     0.00151     0.00026    -0.01030
  
  S  H  70   0.01511     0.00193     0.03140     0.00101    -0.00087    -0.00867
  
  S  H  71   0.02977     0.00015     0.05288     0.00124    -0.00949    -0.02040
  
  S  H  72   0.02124     0.01229     0.03176     0.00128     0.02367     0.04168
  
  S  H  73   0.03122     0.04046     0.00409     0.00064     0.03160     0.05961
  
  S  H  74   0.04522     0.04357     0.03721     0.00191     0.03679     0.05692
  
  S  H  75   0.02546     0.04065    -0.01585    -0.00025     0.00141     0.00415
  
  S  H  76   0.00960     0.01674    -0.00987    -0.00027    -0.00924    -0.01796
  
  S  H  77   0.00888     0.01579    -0.00996    -0.00029    -0.01100    -0.02166
  
  S  H  78   0.01472     0.02603    -0.01602    -0.00045    -0.01460    -0.02851
  
  S  H  79   0.02725     0.04087    -0.01096    -0.00006     0.00203     0.00044
  
  S  H  80   0.00988     0.01678    -0.00900    -0.00023    -0.00896    -0.02063
  
  S  H  81   0.00897     0.01578    -0.00960    -0.00027    -0.01080    -0.02412
  
  S  H  82   0.01479     0.02603    -0.01576    -0.00044    -0.01445    -0.03046
  
  S  H  83   0.00343    -0.00353    -0.00695     0.23981    -0.05261     0.02325




    ROOT NO.    7           8           9          10          11          12

           -42.91577   -42.65050   -41.53804   -41.12609   -39.65754   -39.17873
  
  
  S  N   1   0.00063     0.01254     0.05837     0.02808    -0.01499     0.37565
 PX  N   1   0.00035     0.00670     0.03003     0.01425    -0.00679     0.17664
 PY  N   1   0.00008     0.00147     0.00501     0.00211    -0.00837     0.00193
 PZ  N   1   0.00001     0.00021     0.00077     0.00031     0.00022     0.00094
  
  S  C   2   0.00122     0.02256     0.09560     0.04444    -0.04364     0.45147
 PX  C   2   0.00029     0.00430     0.01276     0.00495    -0.02201    -0.05013
 PY  C   2   0.00032     0.00558     0.01849     0.00782    -0.03495     0.00612
 PZ  C   2   0.00001     0.00042     0.00155     0.00063     0.00110     0.00223
  
  S  C   3   0.00171     0.02923     0.11784     0.05404    -0.19615     0.30122
 PX  C   3   0.00003    -0.00021    -0.00023     0.00027    -0.10198    -0.10085
 PY  C   3   0.00089     0.01437     0.04746     0.02014    -0.06303     0.05050
 PZ  C   3  -0.00002    -0.00007    -0.00009    -0.00006     0.00482     0.00186
  
  S  C   4   0.00293     0.04561     0.15355     0.06593    -0.22022     0.19724
 PX  C   4  -0.00061    -0.01090    -0.03816    -0.01641     0.01778    -0.08689
 PY  C   4   0.00064     0.00840     0.01135     0.00164     0.08781    -0.03309
 PZ  C   4  -0.00006    -0.00006     0.00177     0.00099    -0.00234     0.00792
  
  S  C   5   0.00432     0.06400     0.15761     0.05780     0.00119     0.02373
 PX  C   5   0.00024    -0.00097    -0.00254    -0.00038    -0.02649     0.00727
 PY  C   5   0.00046     0.00361    -0.02188    -0.01444     0.10046    -0.13804
 PZ  C   5  -0.00053    -0.00240     0.00344     0.00256    -0.00450     0.02061
  
  S  C   6   0.00132     0.03754     0.10292     0.03677     0.06342    -0.02617
 PX  C   6   0.00126     0.01346     0.02676     0.00962    -0.00486     0.00507
 PY  C   6  -0.00078    -0.00370    -0.01845    -0.01028     0.06224    -0.10050
 PZ  C   6  -0.00094    -0.01309    -0.02488    -0.00792    -0.01701     0.01734
  
  S  C   7  -0.00489    -0.01418     0.00510     0.00080     0.09528    -0.10418
 PX  C   7   0.00163     0.01515     0.01059     0.00113     0.03440    -0.04439
 PY  C   7  -0.00370    -0.03040    -0.04975    -0.01592    -0.01902     0.01096
 PZ  C   7   0.00040     0.00023     0.00990     0.00527    -0.02564     0.03613
  
  S  C   8  -0.00682    -0.05009    -0.14388    -0.05552     0.05653    -0.09148
 PX  C   8   0.00622     0.03859     0.00965    -0.00451     0.03177    -0.05340
 PY  C   8  -0.00524    -0.05206    -0.10559    -0.03161    -0.08166     0.09766
 PZ  C   8  -0.00345    -0.01295     0.03532     0.01807     0.00602     0.00695
  
  S  C   9   0.00912     0.05454    -0.03649    -0.03327     0.10345    -0.17279
 PX  C   9   0.00243     0.01937     0.04982     0.01745    -0.00054     0.00217
 PY  C   9   0.00199    -0.00524    -0.06432    -0.02616    -0.04247     0.04542
 PZ  C   9  -0.00322    -0.01652    -0.02155    -0.00591     0.01995    -0.02386
  
  S  C  10   0.00637     0.06186     0.08481     0.02089     0.08520    -0.12932
 PX  C  10  -0.00068    -0.00944    -0.00842    -0.00059    -0.03492     0.04180
 PY  C  10   0.00152     0.00364    -0.03213    -0.01744     0.04103    -0.06323
 PZ  C  10  -0.00003     0.00721     0.02045     0.00740     0.01819    -0.01891
  
  S  C  11   0.02676     0.14968     0.08672     0.00174     0.03445    -0.06611
 PX  C  11   0.00225     0.02207     0.06829     0.02366     0.01565    -0.01361
 PY  C  11   0.00839     0.05021     0.07838     0.02492    -0.01851     0.03978
 PZ  C  11  -0.00604    -0.04460    -0.10296    -0.03431    -0.00737    -0.00406
  
  S  C  12   0.02922     0.17969     0.22116     0.05335     0.03927    -0.04565
 PX  C  12  -0.00762    -0.04509    -0.04630    -0.00975    -0.00595     0.00725
 PY  C  12   0.00801     0.05003     0.07649     0.02258     0.00036     0.01069
 PZ  C  12   0.00384     0.02151     0.01061    -0.00065     0.00560    -0.01187
  
  S  C  13   0.02910     0.18174     0.25386     0.06900     0.02723    -0.01363
 PX  C  13  -0.00752    -0.04623    -0.06152    -0.01679    -0.00333    -0.00195
 PY  C  13  -0.00291    -0.01762    -0.01816    -0.00311    -0.00590     0.01000
 PZ  C  13   0.00865     0.05301     0.06805     0.01779     0.00588    -0.00258
  
  S  C  14   0.02793     0.17404     0.24770     0.07145     0.01364     0.01126
 PX  C  14   0.00060     0.00418     0.00640     0.00039     0.00553    -0.00867
 PY  C  14  -0.01065    -0.06534    -0.08560    -0.02235    -0.00697     0.00226
 PZ  C  14   0.00434     0.02618     0.03324     0.01021    -0.00233     0.00771
  
  S  C  15   0.02227     0.13400     0.18150     0.05856    -0.01799     0.05272
 PX  C  15   0.00919     0.05725     0.07418     0.01772     0.01214    -0.01110
 PY  C  15  -0.00601    -0.03284    -0.02926    -0.00551     0.00774    -0.01251
 PZ  C  15  -0.00623    -0.04076    -0.05970    -0.01343    -0.01624     0.01808
  
  S  C  16   0.01633     0.07752     0.01419    -0.00324    -0.04737     0.06402
 PX  C  16   0.01208     0.07711     0.08902     0.01838     0.03266    -0.04473
 PY  C  16   0.00265     0.02723     0.10225     0.04230    -0.00134     0.02450
 PZ  C  16  -0.01320    -0.08867    -0.13528    -0.03598    -0.03213     0.03401
  
  S  N  17  -0.02163    -0.16286    -0.25154    -0.06606    -0.11338     0.14670
 PX  N  17   0.00836     0.04128    -0.03825    -0.02373     0.00973    -0.02929
 PY  N  17  -0.00159    -0.00452     0.04616     0.02681    -0.02446     0.04752
 PZ  N  17  -0.00658    -0.03274     0.01736     0.01409     0.00118     0.00805
  
  S  C  18  -0.03858    -0.20920     0.04661     0.05485    -0.05500     0.10173
 PX  C  18   0.00549     0.01271    -0.11501    -0.02979    -0.04192     0.05531
 PY  C  18   0.00074     0.01773     0.06940     0.03305     0.01605    -0.01865
 PZ  C  18  -0.00230     0.00008     0.06848     0.02474     0.02681    -0.03502
  
  S  C  19  -0.03530    -0.17713     0.14979     0.05527     0.00779     0.00793
 PX  C  19  -0.00468    -0.03097    -0.03290     0.00265    -0.02191     0.03548
 PY  C  19  -0.01037    -0.04552     0.07742     0.02676     0.01042    -0.01012
 PZ  C  19  -0.00425    -0.01573     0.04919     0.01228     0.01433    -0.01909
  
  S  C  20  -0.03261    -0.14785     0.22471     0.03151     0.04668    -0.05958
 PX  C  20  -0.01037    -0.04747     0.06483     0.03327     0.00904    -0.00621
 PY  C  20  -0.00503    -0.01772     0.04884    -0.00532     0.01421    -0.02378
 PZ  C  20   0.00082     0.00645     0.00265    -0.01452     0.00447    -0.01042
  
  S  C  21  -0.02749    -0.10316     0.23152    -0.02443     0.06593    -0.10606
 PX  C  21  -0.00111     0.00467     0.02855     0.05310     0.00829    -0.00777
 PY  C  21   0.00922     0.05283    -0.04538    -0.04069     0.00029    -0.01191
 PZ  C  21   0.00465     0.02360    -0.03186    -0.04043    -0.00250    -0.00374
  
  S  C  22  -0.00523     0.02161     0.11364     0.07573     0.04154    -0.06225
 PX  C  22   0.00609     0.02642    -0.05599     0.04752    -0.02324     0.04470
 PY  C  22   0.02079     0.10888    -0.11126    -0.01233    -0.01018     0.00601
 PZ  C  22   0.00789     0.04385    -0.03707    -0.02299     0.00278    -0.01203
  
  S  C  23  -0.01826    -0.07345     0.08760     0.10356    -0.01282     0.03823
 PX  C  23   0.00863     0.03214    -0.08073    -0.02566    -0.02310     0.03112
 PY  C  23   0.01379     0.08056    -0.02996     0.00665     0.01367    -0.02520
 PZ  C  23   0.00396     0.02959     0.00871     0.01167     0.01631    -0.02591
  
  S  C  24   0.03852     0.22689    -0.14609     0.06343    -0.00113    -0.00658
 PX  C  24   0.00705     0.04226    -0.04691     0.06498    -0.01291     0.02820
 PY  C  24   0.00960     0.03206    -0.06841     0.01494    -0.02099     0.03678
 PZ  C  24   0.00074    -0.00245    -0.01487    -0.01616    -0.00560     0.00808
  
  S  C  25   0.03856     0.20424    -0.17308     0.09044    -0.02231     0.03673
 PX  C  25   0.00021     0.00564    -0.00759     0.01638    -0.00338     0.00785
 PY  C  25  -0.00011    -0.01485    -0.00947    -0.00481    -0.00811     0.01536
 PZ  C  25   0.01035     0.05311    -0.04723     0.01674    -0.00559     0.00812
  
  S  C  26   0.03108     0.13650    -0.14229     0.06136    -0.02672     0.04655
 PX  C  26  -0.00094     0.00657    -0.00416     0.00785    -0.00056     0.00155
 PY  C  26  -0.00933    -0.05158     0.04694    -0.02114     0.00665    -0.01074
 PZ  C  26   0.00129     0.00140    -0.00354    -0.00122    -0.00083     0.00118
  
  S  C  27   0.03561     0.20377    -0.17400     0.09891    -0.02304     0.03935
 PX  C  27  -0.00199    -0.00800    -0.00030     0.01807    -0.00472     0.01186
 PY  C  27   0.00304     0.00955    -0.02013     0.00376    -0.00604     0.01064
 PZ  C  27  -0.00929    -0.05606     0.03974    -0.02874     0.00307    -0.00497
  
  S  C  28   0.02484     0.14619    -0.13318     0.09717    -0.02419     0.04607
 PX  C  28  -0.00930    -0.05365     0.04533    -0.02910     0.00590    -0.01038
 PY  C  28   0.00072     0.00133    -0.00479    -0.00251    -0.00091     0.00129
 PZ  C  28  -0.00063    -0.00437     0.00138    -0.00491     0.00037    -0.00085
  
  S  C  29   0.00368    -0.00542    -0.03077    -0.14756    -0.00888     0.00076
 PX  C  29   0.01908     0.12124    -0.05106     0.08757     0.01113    -0.02015
 PY  C  29   0.00911     0.01671    -0.05389     0.03665    -0.01972     0.03800
 PZ  C  29  -0.00438    -0.04156    -0.00679    -0.01724    -0.01467     0.02772
  
  S  C  30  -0.02510    -0.12007     0.11112    -0.20921     0.01858    -0.04446
 PX  C  30   0.00937     0.06011     0.00623     0.03774     0.02192    -0.04075
 PY  C  30   0.00120    -0.00638    -0.03546    -0.04306    -0.01586     0.02360
 PZ  C  30  -0.00396    -0.02911    -0.01889    -0.03992    -0.01647     0.02750
  
  S  C  31  -0.03469    -0.16633     0.07351    -0.20000    -0.01478     0.02088
 PX  C  31  -0.00361    -0.02752     0.02462    -0.05061     0.00407    -0.01041
 PY  C  31  -0.00944    -0.05061     0.00009    -0.05499    -0.01312     0.02173
 PZ  C  31  -0.00519    -0.01811    -0.00902    -0.01104    -0.00882     0.01610
  
  S  C  32  -0.04806    -0.18888     0.02706    -0.11593    -0.02978     0.05357
 PX  C  32  -0.00745    -0.06206     0.01125    -0.06807    -0.01101     0.01752
 PY  C  32  -0.00457    -0.02319    -0.01333     0.04495    -0.00226     0.00660
 PZ  C  32  -0.00620     0.01062    -0.01197     0.05337     0.00293    -0.00277
  
  S  C  33  -0.03333    -0.22437    -0.01362     0.02099    -0.02924     0.05802
 PX  C  33   0.01232     0.00278    -0.00150    -0.06962    -0.00848     0.01160
 PY  C  33   0.02112     0.01757    -0.02192     0.12320     0.01126    -0.01585
 PZ  C  33  -0.00862     0.00938    -0.01190     0.10279     0.01034    -0.01441
  
  S  C  34   0.00290    -0.10752    -0.04551    -0.08042    -0.03482     0.05832
 PX  C  34   0.01036     0.08600    -0.02437     0.00458     0.00484    -0.01177
 PY  C  34   0.01388     0.03287    -0.00982     0.07786     0.00721    -0.00869
 PZ  C  34  -0.00234    -0.01680     0.00634     0.04298     0.00297    -0.00168
  
  S  N  35  -0.01781    -0.14283    -0.04283     0.33894     0.02019    -0.02431
 PX  N  35   0.01346    -0.02528    -0.00268    -0.01608    -0.00806     0.01572
 PY  N  35   0.05199     0.03487    -0.00035     0.02846     0.01214    -0.02402
 PZ  N  35  -0.03367     0.03976     0.00109     0.02481     0.01112    -0.02181
  
  S  C  36  -0.22313     0.06067    -0.00702     0.05822     0.00973    -0.01627
 PX  C  36   0.04610    -0.04947    -0.00955     0.08491     0.00540    -0.00699
 PY  C  36   0.03411     0.01261    -0.00331     0.05859     0.01374    -0.02639
 PZ  C  36  -0.09485     0.09118     0.01752    -0.16991    -0.01309     0.01884
  
  S  C  37  -0.26091     0.09744     0.01008    -0.12753    -0.01469     0.02602
 PX  C  37   0.03738    -0.03006    -0.00447     0.04579     0.00342    -0.00499
 PY  C  37  -0.08910     0.04176     0.00235    -0.03034    -0.00114     0.00115
 PZ  C  37  -0.04374     0.04649     0.00726    -0.07550    -0.00560     0.00808
  
  S  C  38  -0.26902     0.14000     0.01829    -0.21014    -0.02057     0.03404
 PX  C  38  -0.01623     0.00497     0.00036    -0.00489    -0.00061     0.00116
 PY  C  38  -0.09250     0.05323     0.00644    -0.07095    -0.00546     0.00808
 PZ  C  38   0.05459    -0.02290    -0.00242     0.02797     0.00264    -0.00442
  
  S  C  39  -0.26179     0.15089     0.02023    -0.22408    -0.01974     0.03100
 PX  C  39  -0.05218     0.02865     0.00344    -0.03797    -0.00304     0.00464
 PY  C  39   0.00321     0.00334     0.00055    -0.00096     0.00116    -0.00279
 PZ  C  39   0.09410    -0.05288    -0.00641     0.06923     0.00523    -0.00771
  
  S  C  40  -0.23148     0.15435     0.02076    -0.20424    -0.01287     0.01676
 PX  C  40  -0.02950     0.02049     0.00207    -0.01675     0.00020    -0.00130
 PY  C  40   0.10228    -0.04966    -0.00547     0.06910     0.00668    -0.01097
 PZ  C  40   0.02802    -0.02480    -0.00242     0.01306    -0.00207     0.00518
  
  S  C  41  -0.16847     0.13986     0.01275    -0.07874     0.00792    -0.02072
 PX  C  41   0.02954    -0.01634    -0.00506     0.05926     0.00741    -0.01249
 PY  C  41   0.11842    -0.02924     0.00157     0.01456     0.00262    -0.00527
 PZ  C  41  -0.08414     0.03802     0.00871    -0.11240    -0.01422     0.02413
  
  S  C  42   0.19912     0.07542     0.02408    -0.08315     0.00862    -0.02168
 PX  C  42   0.04365    -0.00701    -0.00005     0.01011     0.00102    -0.00127
 PY  C  42   0.10069     0.00752     0.01672    -0.12962    -0.01558     0.02660
 PZ  C  42  -0.10699     0.01059    -0.00459     0.01453     0.00188    -0.00401
  
  S  C  43   0.23208    -0.01182     0.00065     0.05597     0.00975    -0.01620
 PX  C  43  -0.00524    -0.01758    -0.00425     0.00037    -0.00505     0.01055
 PY  C  43   0.12698     0.05874     0.02860    -0.19566    -0.01439     0.02090
 PZ  C  43  -0.02532     0.01713    -0.00152     0.05015     0.01231    -0.02358
  
  S  C  44   0.27601     0.01313     0.01767    -0.12962    -0.01501     0.02674
 PX  C  44  -0.05289    -0.00780    -0.00738     0.02811     0.00077    -0.00075
 PY  C  44   0.05988     0.02820     0.01513    -0.08839    -0.00585     0.00854
 PZ  C  44   0.08656     0.00724     0.00795    -0.03015    -0.00075     0.00068
  
  S  C  45   0.29297     0.04318     0.03381    -0.21611    -0.01988     0.03322
 PX  C  45  -0.03855    -0.00771    -0.00582     0.03019     0.00183    -0.00261
 PY  C  45  -0.06594    -0.00568    -0.00469     0.03215     0.00304    -0.00514
 PZ  C  45   0.09081     0.01618     0.01189    -0.06584    -0.00444     0.00659
  
  S  C  46   0.28823     0.05297     0.03852    -0.23141    -0.01852     0.02930
 PX  C  46   0.01681     0.00097     0.00143    -0.01028    -0.00133     0.00250
 PY  C  46  -0.11705    -0.02061    -0.01414     0.08104     0.00551    -0.00818
 PZ  C  46  -0.00315     0.00318     0.00065    -0.00018     0.00117    -0.00272
  
  S  C  47   0.26062     0.06641     0.03750    -0.21096    -0.01170     0.01510
 PX  C  47   0.05751     0.00788     0.00643    -0.03608    -0.00263     0.00411
 PY  C  47  -0.03737    -0.01596    -0.00461     0.01515    -0.00246     0.00601
 PZ  C  47  -0.09862    -0.01089    -0.01102     0.06418     0.00555    -0.00920
  
  S  C  48  -0.00035    -0.00479    -0.00345     0.00087    -0.13665    -0.05070
 PX  C  48   0.00004     0.00035     0.00670     0.00490    -0.34282    -0.23828
 PY  C  48   0.00088     0.01447     0.05751     0.02684    -0.19886     0.07421
 PZ  C  48  -0.00003    -0.00040    -0.00181    -0.00093     0.02047     0.00801
  
  S  O  49  -0.00036    -0.00562    -0.00412     0.00215    -0.49509    -0.34412
 PX  O  49   0.00020     0.00307     0.00556     0.00122     0.13305     0.10269
 PY  O  49   0.00018     0.00294     0.01337     0.00660    -0.08774    -0.00914
 PZ  O  49  -0.00001    -0.00021    -0.00058    -0.00022    -0.00345    -0.00429
  
  S  O  50  -0.00146    -0.02322    -0.08670    -0.04057     0.51228     0.08839
 PX  O  50  -0.00041    -0.00659    -0.02379    -0.01081     0.07677    -0.02663
 PY  O  50  -0.00001     0.00005     0.00285     0.00166     0.00982     0.04257
 PZ  O  50   0.00002     0.00031     0.00105     0.00046    -0.00421    -0.00043
  
  S  H  51   0.00107     0.01575     0.05239     0.02256    -0.10420     0.04272
  
  S  H  52   0.00044     0.01359     0.04638     0.01849     0.00066     0.04030
  
  S  H  53  -0.00405    -0.01995    -0.00135     0.00105     0.02233    -0.01953
  
  S  H  54   0.00284     0.02482     0.03660     0.00995     0.01633    -0.03339
  
  S  H  55   0.00827     0.05160     0.06373     0.01489     0.01656    -0.02258
  
  S  H  56   0.00808     0.05106     0.07505     0.02082     0.00912    -0.00504
  
  S  H  57   0.00767     0.04839     0.07284     0.02194     0.00392     0.00466
  
  S  H  58   0.00442     0.02716     0.04430     0.02126    -0.01355     0.02966
  
  S  H  59  -0.01118    -0.05965     0.02815     0.01119    -0.00105     0.00810
  
  S  H  60  -0.01020    -0.04702     0.06931    -0.00112     0.01544    -0.02111
  
  S  H  61  -0.00057     0.00415    -0.00696     0.04479    -0.01646     0.03199
  
  S  H  62   0.01608     0.08959    -0.07411     0.05048    -0.01090     0.01960
  
  S  H  63   0.01363     0.07227    -0.05635     0.02882    -0.00577     0.00886
  
  S  H  64   0.01092     0.04778    -0.05081     0.02356    -0.01017     0.01818
  
  S  H  65   0.01674     0.05159    -0.05947     0.01916    -0.01227     0.02113
  
  S  H  66   0.01517     0.06752    -0.07103     0.03181    -0.01353     0.02376
  
  S  H  67   0.01585     0.08266    -0.07994     0.03617    -0.01280     0.02167
  
  S  H  68   0.01217     0.07257    -0.05770     0.03371    -0.00631     0.01050
  
  S  H  69   0.01203     0.06874    -0.06459     0.04446    -0.01205     0.02276
  
  S  H  70   0.00834     0.04928    -0.04677     0.03424    -0.00919     0.01775
  
  S  H  71   0.01047     0.06416    -0.05552     0.04975    -0.01155     0.02258
  
  S  H  72  -0.01152    -0.05109     0.03223    -0.05913    -0.00107     0.00091
  
  S  H  73  -0.02381    -0.05752     0.00649    -0.01753    -0.00845     0.01656
  
  S  H  74   0.01408    -0.01409    -0.03662     0.00313    -0.01313     0.02301
  
  S  H  75  -0.07414     0.01043     0.00207    -0.02755    -0.00562     0.01098
  
  S  H  76  -0.07473     0.03835     0.00539    -0.06301    -0.00680     0.01163
  
  S  H  77  -0.07211     0.04241     0.00605    -0.06793    -0.00643     0.01036
  
  S  H  78  -0.05558     0.04521     0.00709    -0.06467    -0.00382     0.00464
  
  S  H  79   0.07509    -0.00558    -0.00254    -0.02472    -0.00663     0.01264
  
  S  H  80   0.08124     0.01180     0.00935    -0.06451    -0.00668     0.01152
  
  S  H  81   0.07946     0.01514     0.01137    -0.07008    -0.00605     0.00981
  
  S  H  82   0.06458     0.02348     0.01143    -0.06644    -0.00349     0.00415
  
  S  H  83  -0.00066    -0.01057    -0.03987    -0.01860     0.19485     0.00011




    ROOT NO.   13          14          15          16          17          18

           -37.98836   -36.44773   -36.10748   -35.92329   -35.44031   -33.88466
  
  
  S  N   1  -0.17791     0.46617     0.24172     0.03635    -0.01960     0.10604
 PX  N   1  -0.07831     0.18090     0.08926     0.01351    -0.00557     0.03251
 PY  N   1   0.00118    -0.00475     0.00082    -0.00042    -0.00263    -0.00068
 PZ  N   1   0.00046    -0.00053     0.00127    -0.00010    -0.00124    -0.00135
  
  S  C   2  -0.17724     0.27218     0.10304     0.01673     0.00689     0.00255
 PX  C   2   0.05208    -0.29209    -0.18339    -0.02631     0.02813    -0.11124
 PY  C   2   0.00267    -0.01745    -0.00201    -0.00135    -0.00566     0.00164
 PZ  C   2   0.00102    -0.00125     0.00274    -0.00021    -0.00276    -0.00310
  
  S  C   3  -0.09717    -0.15266    -0.16936    -0.02107     0.05369    -0.14243
 PX  C   3   0.02368    -0.06449    -0.03894    -0.00503     0.00735    -0.00705
 PY  C   3  -0.00115    -0.07277    -0.04233    -0.00570     0.00292     0.00883
 PZ  C   3   0.00113     0.00008     0.00411    -0.00013    -0.00344    -0.00416
  
  S  C   4  -0.02802    -0.26492    -0.20607    -0.02284     0.05014    -0.01786
 PX  C   4   0.01309     0.04884     0.02917     0.00542     0.00068     0.03051
 PY  C   4   0.04243    -0.01255     0.02143     0.00481    -0.01284     0.09731
 PZ  C   4  -0.00023    -0.00306     0.00706    -0.00104    -0.00822    -0.01750
  
  S  C   5   0.07690    -0.15860    -0.04888    -0.00309    -0.01146     0.11671
 PX  C   5  -0.01429    -0.03088    -0.07054    -0.00022     0.04479     0.06152
 PY  C   5   0.04385     0.10042     0.08405     0.01297    -0.01672     0.04772
 PZ  C   5   0.00664    -0.00899     0.04288    -0.00415    -0.04106    -0.06973
  
  S  C   6   0.10592    -0.03802     0.16858    -0.00497    -0.13556    -0.09369
 PX  C   6   0.00504    -0.04178    -0.04568     0.00102     0.01866     0.05507
 PY  C   6   0.04471     0.05318     0.09345     0.00257    -0.04376    -0.04226
 PZ  C   6  -0.01709     0.01142     0.00353    -0.00213    -0.00087    -0.03457
  
  S  C   7   0.11889     0.03939     0.26888    -0.01267    -0.16796    -0.21176
 PX  C   7   0.01552     0.01711     0.02368     0.00571    -0.01658     0.00837
 PY  C   7  -0.01845     0.00006    -0.01375    -0.00623     0.01573    -0.02171
 PZ  C   7  -0.00895    -0.01911    -0.02163    -0.00132     0.00885     0.00644
  
  S  C   8  -0.02452     0.07265     0.08373    -0.00671    -0.04948    -0.15397
 PX  C   8  -0.04443     0.05842    -0.08502     0.01636     0.06653     0.06805
 PY  C   8  -0.08116    -0.05099    -0.08250    -0.00850     0.02575    -0.01431
 PZ  C   8   0.07850    -0.03497     0.11980    -0.00912    -0.08082    -0.05482
  
  S  C   9  -0.08665     0.17684    -0.15229     0.02579     0.16688     0.10950
 PX  C   9   0.01766    -0.00253    -0.02962     0.00353     0.03782     0.07522
 PY  C   9  -0.09523     0.02070    -0.08152    -0.00295     0.04188    -0.07821
 PZ  C   9   0.02462    -0.00612     0.06514    -0.00133    -0.05637    -0.03776
  
  S  C  10   0.04234     0.02434    -0.09325     0.01909     0.10268     0.24573
 PX  C  10  -0.01649    -0.02213    -0.02472    -0.00386     0.01062    -0.00480
 PY  C  10  -0.02758     0.10173    -0.00860     0.00951     0.04307     0.00000
 PZ  C  10   0.03015    -0.02198     0.03026    -0.00005    -0.03060     0.00623
  
  S  C  11  -0.10931     0.13098    -0.18861     0.01228     0.18106     0.03413
 PX  C  11   0.04816     0.00777     0.02720    -0.00137     0.01122     0.01722
 PY  C  11   0.03485    -0.05470     0.05898    -0.00833    -0.06430    -0.04335
 PZ  C  11  -0.06244     0.01616    -0.05280     0.00595     0.01672     0.00433
  
  S  C  12   0.02231     0.07357    -0.03933    -0.00289     0.10108    -0.00987
 PX  C  12   0.00642    -0.01358     0.01812    -0.00057    -0.01844    -0.00140
 PY  C  12   0.03706    -0.02646     0.05787    -0.00718    -0.04643    -0.04380
 PZ  C  12  -0.02305     0.02520    -0.04403     0.00402     0.03897     0.02162
  
  S  C  13   0.08661    -0.00567     0.09296    -0.01442    -0.03274    -0.07746
 PX  C  13  -0.01967     0.01257    -0.02617     0.00260     0.02337     0.00955
 PY  C  13   0.01020    -0.02674     0.03373    -0.00131    -0.04533    -0.00632
 PZ  C  13   0.01451    -0.00013     0.01000    -0.00176    -0.00214    -0.00596
  
  S  C  14   0.10887    -0.06707     0.15057    -0.01316    -0.12402    -0.04899
 PX  C  14  -0.00223     0.01712    -0.00628    -0.00216     0.01961    -0.02393
 PY  C  14  -0.02023     0.00118    -0.01732     0.00356     0.00445     0.01794
 PZ  C  14   0.01206    -0.01757     0.01424     0.00104    -0.02146     0.01641
  
  S  C  15   0.09214    -0.11367     0.12484    -0.00111    -0.14560     0.04824
 PX  C  15   0.01540     0.00495     0.02080    -0.00427    -0.00886    -0.03137
 PY  C  15   0.00784     0.01069     0.01119     0.00041     0.00007    -0.00522
 PZ  C  15  -0.01594    -0.01108    -0.02527     0.00692     0.00778     0.03954
  
  S  C  16  -0.05477    -0.05952    -0.04320     0.00473    -0.03148     0.03811
 PX  C  16  -0.00941     0.05810    -0.03313     0.00169     0.05123    -0.02413
 PY  C  16   0.10584    -0.07334     0.11709    -0.00126    -0.09594     0.04246
 PZ  C  16  -0.03601    -0.02523    -0.02090     0.00329    -0.00845     0.01504
  
  S  N  17  -0.02821    -0.14092     0.05775    -0.01851    -0.10607    -0.02946
 PX  N  17  -0.10056     0.05039    -0.10082     0.01453     0.04490    -0.01440
 PY  N  17   0.06212    -0.06822     0.02821     0.00966    -0.03477     0.12577
 PZ  N  17   0.07161    -0.02146     0.08025    -0.00621    -0.03471    -0.00897
  
  S  C  18   0.19903    -0.07862     0.10253    -0.01903    -0.01068     0.12626
 PX  C  18  -0.02387    -0.08826     0.04405     0.02346    -0.10641     0.04982
 PY  C  18   0.01386     0.02816    -0.05852     0.03357     0.02585     0.13714
 PZ  C  18   0.01712     0.05320    -0.03481     0.01157     0.04799     0.02577
  
  S  C  19   0.15820     0.05389     0.03901    -0.06662     0.15341    -0.11853
 PX  C  19   0.03994    -0.04640     0.05083     0.00220    -0.05998     0.06521
 PY  C  19   0.02936     0.02966    -0.03343    -0.00587     0.05193     0.03550
 PZ  C  19   0.00465     0.03280    -0.02592    -0.00341     0.04279    -0.01666
  
  S  C  20   0.02918     0.10771    -0.05519    -0.05506     0.20682    -0.22752
 PX  C  20   0.05052     0.03153    -0.01441    -0.01503     0.03926     0.03139
 PY  C  20  -0.05141     0.00793    -0.02838     0.00188    -0.01171    -0.00962
 PZ  C  20  -0.04319    -0.00656    -0.00804     0.00960    -0.02079    -0.01882
  
  S  C  21  -0.19228     0.04736    -0.08215    -0.02972    -0.01434    -0.14906
 PX  C  21   0.02474     0.02565    -0.03880     0.00307    -0.03672     0.12061
 PY  C  21  -0.12136    -0.05497     0.01174     0.00404    -0.15138     0.05282
 PZ  C  21  -0.07071    -0.03713     0.01887     0.01807    -0.06650    -0.01864
  
  S  C  22  -0.09139     0.03501    -0.09942     0.05369    -0.12126     0.15694
 PX  C  22   0.13477     0.00421     0.01174     0.07561     0.05634     0.09858
 PY  C  22  -0.06418    -0.03627     0.01987    -0.00625    -0.08467    -0.02429
 PZ  C  22  -0.07511    -0.01906     0.00242     0.02865    -0.06633    -0.05724
  
  S  C  23   0.14728    -0.00741    -0.02104     0.09195    -0.01211     0.29601
 PX  C  23   0.00115    -0.04505     0.04080     0.02021    -0.02637    -0.02668
 PY  C  23  -0.04660     0.02337    -0.03515     0.03345    -0.01466    -0.01182
 PZ  C  23  -0.02311     0.03248    -0.03369     0.03295     0.00449    -0.00989
  
  S  C  24  -0.06810    -0.01644    -0.01016    -0.01216    -0.11882     0.03296
 PX  C  24   0.11854     0.02986    -0.01254     0.12341     0.09058    -0.02918
 PY  C  24   0.10018     0.00787     0.04212    -0.11143     0.11607    -0.03699
 PZ  C  24   0.00968    -0.00937     0.00910     0.10988    -0.00912    -0.03255
  
  S  C  25   0.09378     0.02024     0.04223    -0.33371     0.13689    -0.02353
 PX  C  25   0.03517     0.00788    -0.00421     0.06099     0.03005    -0.01567
 PY  C  25   0.05220     0.01012     0.02602    -0.10867     0.09652    -0.04966
 PZ  C  25   0.01344    -0.00014     0.00644    -0.00732     0.00408    -0.01093
  
  S  C  26   0.13690     0.03089     0.06105    -0.39032     0.22293    -0.08237
 PX  C  26   0.00855     0.00164     0.00010     0.02493     0.01444    -0.01508
 PY  C  26  -0.02497    -0.00273    -0.01302     0.06666    -0.03142     0.00737
 PZ  C  26   0.00151    -0.00081    -0.00293     0.03614    -0.01251     0.00214
  
  S  C  27   0.11330     0.01555    -0.01174     0.34588     0.04077    -0.11275
 PX  C  27   0.05925     0.01498    -0.00606     0.11204     0.06719    -0.05449
 PY  C  27   0.03065     0.00404     0.01369    -0.04180     0.04304    -0.02255
 PZ  C  27  -0.01258    -0.00304     0.00438    -0.01114     0.00181    -0.00747
  
  S  C  28   0.16209     0.02830    -0.01378     0.39541     0.12089    -0.14772
 PX  C  28  -0.03208    -0.00618     0.00340    -0.06718    -0.01438     0.02198
 PY  C  28   0.00359     0.00196     0.00619    -0.03390     0.01719    -0.01774
 PZ  C  28  -0.00130     0.00089    -0.00064     0.03273     0.00184    -0.02512
  
  S  C  29  -0.10508    -0.07418     0.06925    -0.06950    -0.10117     0.09473
 PX  C  29  -0.05371     0.01253    -0.03635    -0.02577    -0.08219    -0.02534
 PY  C  29   0.12680     0.02461     0.00934    -0.05457     0.07241     0.06132
 PZ  C  29   0.08684     0.00621     0.01499     0.04152     0.05699     0.04070
  
  S  C  30  -0.20073    -0.07717     0.06343     0.02678    -0.01523    -0.13113
 PX  C  30  -0.12204     0.00245    -0.04835    -0.04800    -0.15689     0.03129
 PY  C  30   0.02577    -0.02767     0.03470    -0.00917    -0.02266     0.10386
 PZ  C  30   0.05869    -0.01621     0.03572     0.03120     0.04464     0.04048
  
  S  C  31   0.02044    -0.05290     0.09892     0.10628     0.19645    -0.14205
 PX  C  31  -0.05218    -0.02246     0.02027    -0.00197    -0.00863    -0.02464
 PY  C  31   0.04688    -0.01165     0.02543     0.02384     0.03540     0.04635
 PZ  C  31   0.04692     0.00311     0.00465     0.01807     0.02172     0.03288
  
  S  C  32   0.15925     0.01633     0.01436     0.10006     0.13802    -0.02342
 PX  C  32   0.03258    -0.01598     0.03216     0.02011     0.04417     0.03041
 PY  C  32   0.04020     0.03580    -0.05168    -0.02001    -0.05658     0.04775
 PZ  C  32   0.01298     0.03016    -0.04770    -0.01643    -0.05425     0.00726
  
  S  C  33   0.21457     0.09142    -0.09999     0.00772    -0.02519     0.10635
 PX  C  33   0.00516    -0.02806     0.04709    -0.02106     0.02450     0.07516
 PY  C  33  -0.01268     0.04262    -0.07209    -0.05460    -0.09827     0.00827
 PZ  C  33  -0.00971     0.03742    -0.06436    -0.01269    -0.06953    -0.03897
  
  S  C  34   0.14031     0.01123     0.01545    -0.07339     0.00183     0.18718
 PX  C  34  -0.05716    -0.02730     0.03242    -0.02752    -0.00488    -0.02628
 PY  C  34   0.00907     0.03515    -0.04702    -0.03036    -0.02441    -0.02540
 PZ  C  34   0.02338     0.02848    -0.04034     0.02284    -0.01724    -0.00690
  
  S  N  35   0.00097     0.06975    -0.11486    -0.02676    -0.12133    -0.03472
 PX  N  35   0.06278     0.03913    -0.04936    -0.01842    -0.03616     0.04068
 PY  N  35  -0.09981    -0.06325     0.08225    -0.00776     0.04277     0.00413
 PZ  N  35  -0.08851    -0.05563     0.07040     0.02021     0.04688    -0.05121
  
  S  C  36  -0.04150    -0.00053    -0.01206     0.00769    -0.02687    -0.09727
 PX  C  36  -0.00591     0.01082    -0.01935    -0.00142    -0.02114    -0.01319
 PY  C  36  -0.11151    -0.08824     0.12486     0.01360     0.10015     0.05231
 PZ  C  36   0.03596     0.00126     0.00512    -0.00516     0.01026     0.01521
  
  S  C  37   0.10489     0.09646    -0.14492    -0.01576    -0.13368    -0.14041
 PX  C  37  -0.01136    -0.00510     0.00661     0.00547     0.00773    -0.00151
 PY  C  37   0.00033     0.00106    -0.00246    -0.00205    -0.00502    -0.00805
 PZ  C  37   0.01744     0.00760    -0.00995    -0.01181    -0.01451     0.00728
  
  S  C  38   0.11541     0.08972    -0.13022    -0.03209    -0.12426    -0.06612
 PX  C  38   0.00584     0.00733    -0.01193     0.00011    -0.01196    -0.02442
 PY  C  38   0.01871     0.00552    -0.00482    -0.00612    -0.00192     0.02429
 PZ  C  38  -0.01630    -0.01522     0.02348     0.00099     0.02217     0.03887
  
  S  C  39   0.08746     0.04468    -0.05538    -0.02565    -0.04247     0.06260
 PX  C  39   0.01255     0.00733    -0.01008    -0.00330    -0.00940    -0.00551
 PY  C  39  -0.01861    -0.02640     0.04290     0.00766     0.04763     0.05351
 PZ  C  39  -0.01801    -0.00647     0.00720     0.00386     0.00461    -0.00348
  
  S  C  40   0.01362    -0.03816     0.07239     0.00444     0.09039     0.14674
 PX  C  40  -0.01183    -0.01397     0.02102     0.00425     0.01990     0.00467
 PY  C  40  -0.03668    -0.02850     0.04112     0.01394     0.04064     0.00946
 PZ  C  40   0.03096     0.03282    -0.04891    -0.01153    -0.04690    -0.01061
  
  S  C  41  -0.12485    -0.12851     0.19110     0.03603     0.17810     0.08657
 PX  C  41  -0.03850    -0.01622     0.01726     0.00416     0.00448    -0.03073
 PY  C  41  -0.02895    -0.03791     0.06005     0.01680     0.06588     0.05252
 PZ  C  41   0.07716     0.03863    -0.04581    -0.01265    -0.02460     0.04494
  
  S  C  42  -0.12618    -0.12874     0.18960     0.05262     0.18004     0.06572
 PX  C  42   0.00205     0.01237    -0.02190    -0.00795    -0.02917    -0.02324
 PY  C  42   0.08659     0.04395    -0.05401     0.00433    -0.02448     0.01442
 PZ  C  42  -0.02424    -0.03301     0.05294     0.01220     0.05875     0.04082
  
  S  C  43  -0.04195    -0.00110    -0.00909    -0.02554    -0.03897    -0.01056
 PX  C  43   0.04949     0.04227    -0.05913    -0.02272    -0.05361     0.00306
 PY  C  43   0.04183     0.00255     0.00313     0.01140     0.01665    -0.00222
 PZ  C  43  -0.09854    -0.07809     0.10887     0.03390     0.09467     0.00389
  
  S  C  44   0.10671     0.09677    -0.14085    -0.06233    -0.14278    -0.03645
 PX  C  44  -0.00023    -0.00079     0.00302    -0.00703     0.00452     0.00712
 PY  C  44   0.02018     0.00925    -0.01382     0.01111    -0.00869    -0.02757
 PZ  C  44   0.00000     0.00098    -0.00325     0.00443    -0.00641    -0.00160
  
  S  C  45   0.11528     0.09001    -0.13087    -0.02478    -0.12017    -0.06431
 PX  C  45  -0.00526     0.00003    -0.00057    -0.00786    -0.00410     0.00111
 PY  C  45  -0.01875    -0.01718     0.02516     0.01556     0.02804     0.00594
 PZ  C  45   0.01581     0.00474    -0.00558     0.00962     0.00070    -0.00275
  
  S  C  46   0.08546     0.04457    -0.05921     0.01793    -0.03248    -0.02340
 PX  C  46   0.01163     0.01345    -0.02101    -0.00723    -0.02347    -0.01434
 PY  C  46  -0.01971    -0.00721     0.00883    -0.00401     0.00375     0.00282
 PZ  C  46  -0.01719    -0.02377     0.03778     0.01434     0.04364     0.02679
  
  S  C  47   0.01139    -0.03841     0.06846     0.04892     0.09924     0.05671
 PX  C  47   0.01227     0.00842    -0.01244     0.00058    -0.01106    -0.00983
 PY  C  47   0.03527     0.03723    -0.05554    -0.01118    -0.05206    -0.02469
 PZ  C  47  -0.03178    -0.02506     0.03720     0.00141     0.03364     0.02493
  
  S  C  48  -0.01384     0.00799    -0.00986    -0.00160     0.00803    -0.04030
 PX  C  48   0.01056     0.12293     0.09949     0.01169    -0.02604     0.05327
 PY  C  48  -0.04762    -0.03970    -0.06229    -0.00767     0.02461    -0.07050
 PZ  C  48   0.00128    -0.00516    -0.00242    -0.00039    -0.00009    -0.00116
  
  S  O  49   0.00774     0.18491     0.14025     0.01634    -0.03348     0.05331
 PX  O  49  -0.00452    -0.04579    -0.03525    -0.00401     0.00841    -0.01103
 PY  O  49  -0.01078    -0.00196    -0.01024    -0.00128     0.00540    -0.01670
 PZ  O  49   0.00057     0.00184     0.00183     0.00019    -0.00062     0.00077
  
  S  O  50   0.05314    -0.09188    -0.03640    -0.00427    -0.00077     0.02261
 PX  O  50   0.01867    -0.00180     0.01053     0.00116    -0.00613     0.01684
 PY  O  50  -0.01474    -0.00626    -0.01742    -0.00202     0.00871    -0.03069
 PZ  O  50  -0.00027     0.00001     0.00006    -0.00002    -0.00011    -0.00004
  
  S  H  51  -0.00742    -0.09609    -0.08163    -0.00770     0.02511     0.00800
  
  S  H  52   0.02336    -0.02075     0.05750    -0.00393    -0.05218    -0.05198
  
  S  H  53   0.05095     0.00641     0.11461    -0.01100    -0.06761    -0.10898
  
  S  H  54   0.00729    -0.00120    -0.06531     0.00656     0.06077     0.11502
  
  S  H  55   0.00364     0.03685    -0.02800     0.00058     0.05469     0.01048
  
  S  H  56   0.03096    -0.00172     0.03640    -0.00560    -0.01266    -0.03297
  
  S  H  57   0.04028    -0.02763     0.06109    -0.00489    -0.05268    -0.01894
  
  S  H  58   0.04482    -0.05604     0.05431     0.00331    -0.06659     0.04719
  
  S  H  59   0.05912     0.01003     0.04001    -0.02946     0.04268    -0.08253
  
  S  H  60   0.00011     0.03473    -0.01281    -0.01822     0.08594    -0.12698
  
  S  H  61   0.07104    -0.02171     0.00311     0.07668    -0.01809     0.12480
  
  S  H  62   0.05959     0.01250     0.01318    -0.10177     0.07097    -0.00844
  
  S  H  63   0.01857     0.00545     0.01627    -0.16818     0.04163     0.00383
  
  S  H  64   0.05700     0.01414     0.02550    -0.16998     0.10154    -0.03961
  
  S  H  65   0.06054     0.01506     0.02421    -0.18729     0.08738    -0.02461
  
  S  H  66   0.07128     0.01541     0.02614    -0.14170     0.10464    -0.04687
  
  S  H  67   0.05969     0.00691     0.00396     0.11873     0.03353    -0.05586
  
  S  H  68   0.02966     0.00349    -0.01055     0.17120    -0.00543    -0.04085
  
  S  H  69   0.07905     0.01437    -0.00106     0.14332     0.07053    -0.07305
  
  S  H  70   0.06469     0.01152    -0.00595     0.17803     0.05189    -0.07141
  
  S  H  71   0.07734     0.00976    -0.00896     0.18467     0.04448    -0.03350
  
  S  H  72  -0.00242    -0.01385     0.03036     0.03859     0.08208    -0.09122
  
  S  H  73   0.06117     0.01967    -0.01563     0.03696     0.03711    -0.03198
  
  S  H  74   0.06579     0.01960    -0.01036    -0.05998    -0.00960     0.06749
  
  S  H  75   0.04992     0.04528    -0.06711    -0.00109    -0.05606    -0.06682
  
  S  H  76   0.04261     0.03616    -0.05343    -0.01246    -0.05220    -0.03076
  
  S  H  77   0.03110     0.01706    -0.02139    -0.00991    -0.01659     0.02960
  
  S  H  78  -0.00143    -0.02272     0.04091     0.00589     0.05049     0.07353
  
  S  H  79   0.05330     0.04610    -0.06334    -0.04499    -0.06113    -0.00523
  
  S  H  80   0.04297     0.03638    -0.05338    -0.01272    -0.05040    -0.02808
  
  S  H  81   0.03042     0.01702    -0.02284     0.00703    -0.01244    -0.00913
  
  S  H  82  -0.00212    -0.02280     0.03953     0.02168     0.05381     0.03648
  
  S  H  83   0.03081    -0.02603     0.00107     0.00011    -0.00667     0.02823




    ROOT NO.   19          20          21          22          23          24

           -33.86703   -33.05885   -32.55315   -32.44010   -31.55160   -30.86880
  
  
  S  N   1  -0.04948    -0.06487    -0.09501    -0.02077     0.06320     0.01888
 PX  N   1  -0.01459    -0.01730    -0.02452    -0.00493     0.01276    -0.00208
 PY  N   1  -0.00123    -0.00273    -0.00166    -0.00195     0.00741     0.02667
 PZ  N   1   0.00005     0.00030     0.00175    -0.00003    -0.00005     0.00696
  
  S  C   2   0.00465     0.01688     0.02392     0.00968    -0.03878    -0.06540
 PX  C   2   0.05709     0.08238     0.11782     0.02964    -0.09550    -0.07447
 PY  C   2  -0.00465    -0.01071    -0.01097    -0.00684     0.02594     0.07273
 PZ  C   2   0.00013     0.00069     0.00408    -0.00012    -0.00031     0.01490
  
  S  C   3   0.08318     0.12454     0.16236     0.04864    -0.14917    -0.18682
 PX  C   3   0.00578     0.00368    -0.00526     0.00113     0.00800    -0.01260
 PY  C   3  -0.00735    -0.02579    -0.04327    -0.01583     0.07149     0.13466
 PZ  C   3   0.00022     0.00117     0.00630    -0.00019    -0.00160     0.01722
  
  S  C   4   0.01883    -0.00562    -0.05291    -0.00860     0.07792     0.05684
 PX  C   4  -0.01035    -0.01411    -0.03293    -0.00146     0.01187    -0.05282
 PY  C   4  -0.05240    -0.09211    -0.13642    -0.03821     0.12806     0.13334
 PZ  C   4   0.00379     0.00767     0.02326     0.00073    -0.00847     0.03961
  
  S  C   5  -0.06773    -0.11990    -0.15810    -0.05392     0.14358     0.14900
 PX  C   5  -0.01010    -0.03151    -0.09933    -0.00651     0.05827    -0.08611
 PY  C   5  -0.02482    -0.01751    -0.00129    -0.00174    -0.04791    -0.12897
 PZ  C   5   0.01393     0.02879     0.08542     0.00375    -0.02591     0.14830
  
  S  C   6  -0.00798     0.01481     0.12761    -0.00250    -0.02511     0.33746
 PX  C   6  -0.02534    -0.04628    -0.06120    -0.02299     0.04325     0.00553
 PY  C   6   0.01164     0.03553     0.06579     0.01860    -0.06121    -0.07857
 PZ  C   6   0.01842     0.02917     0.03168     0.01496    -0.01548     0.03045
  
  S  C   7   0.06905     0.12979     0.18101     0.06501    -0.07408     0.06001
 PX  C   7  -0.01828    -0.01205     0.03311    -0.00937    -0.02707    -0.00516
 PY  C   7   0.03153     0.03029    -0.04562     0.02295     0.03469    -0.15030
 PZ  C   7  -0.00099    -0.00371    -0.00820     0.00058     0.00982     0.07672
  
  S  C   8   0.06196     0.08891     0.10859     0.02538    -0.02537    -0.15291
 PX  C   8  -0.03816    -0.04608     0.04091    -0.04553    -0.06785    -0.01570
 PY  C   8   0.01240    -0.00649    -0.06053    -0.00126     0.09282     0.04086
 PZ  C   8   0.02422     0.04728    -0.00221     0.05039     0.02011     0.00264
  
  S  C   9  -0.00620     0.00016     0.00114    -0.00415    -0.10328    -0.20586
 PX  C   9  -0.00648    -0.00358    -0.08620     0.03253     0.02038    -0.01505
 PY  C   9   0.03398     0.03972     0.09467    -0.00813    -0.02216     0.15959
 PZ  C   9  -0.01054    -0.01432     0.04552    -0.02716    -0.01155    -0.05362
  
  S  C  10  -0.07041    -0.10777    -0.24087    -0.01335     0.06434    -0.25632
 PX  C  10   0.01062     0.00918    -0.02532     0.01219     0.02920     0.02771
 PY  C  10   0.01827     0.04563     0.05832     0.02777    -0.09447    -0.10434
 PZ  C  10  -0.01978    -0.03046    -0.00175    -0.02443     0.01431     0.02115
  
  S  C  11   0.05051     0.07837     0.01999     0.05783    -0.05611     0.18223
 PX  C  11   0.03595     0.07497    -0.07672     0.10616     0.04321    -0.00933
 PY  C  11  -0.00784    -0.02212     0.02867    -0.03201     0.01422     0.11016
 PZ  C  11  -0.03380    -0.06412     0.06448    -0.08845    -0.04982    -0.03811
  
  S  C  12   0.12461     0.22881    -0.13056     0.27283     0.11835     0.15171
 PX  C  12  -0.00225     0.00423    -0.01853     0.01715     0.02800    -0.04339
 PY  C  12   0.01337     0.01653     0.00045     0.01186     0.03743    -0.01341
 PZ  C  12  -0.00431    -0.01175     0.01861    -0.02194    -0.04485     0.04968
  
  S  C  13   0.09110     0.15225    -0.09327     0.17232     0.14672    -0.09238
 PX  C  13   0.01120     0.03110    -0.02201     0.04671     0.02437     0.03236
 PY  C  13  -0.03768    -0.07717     0.03984    -0.09816    -0.03559    -0.13443
 PZ  C  13   0.00578     0.00449     0.00381    -0.00092    -0.00811     0.03055
  
  S  C  14  -0.02892    -0.07927     0.02869    -0.11041    -0.01585    -0.28086
 PX  C  14   0.04386     0.07764    -0.03883     0.08794     0.06327     0.00429
 PY  C  14  -0.02009    -0.03023     0.01125    -0.03053    -0.02153    -0.04498
 PZ  C  14  -0.03471    -0.06225     0.03352    -0.07115    -0.05272     0.01728
  
  S  C  15  -0.13793    -0.23320     0.08612    -0.24250    -0.12619    -0.10333
 PX  C  15   0.01628     0.00732     0.01211    -0.01400    -0.00295    -0.03604
 PY  C  15   0.00822     0.01681    -0.00638     0.01509     0.00324    -0.11032
 PZ  C  15  -0.02461    -0.01512    -0.00615     0.01176    -0.00137     0.08891
  
  S  C  16  -0.09625    -0.16083     0.08367    -0.16571    -0.06853     0.18013
 PX  C  16   0.03455     0.04233     0.03952     0.00902    -0.03965     0.03635
 PY  C  16  -0.05641    -0.07736    -0.01772    -0.04958    -0.02666    -0.07043
 PZ  C  16  -0.01617    -0.00638    -0.02552     0.02252     0.04654     0.00023
  
  S  N  17  -0.00656    -0.00996    -0.12010     0.04468     0.16177    -0.00623
 PX  N  17  -0.03424    -0.04941     0.12702    -0.08199    -0.06088     0.07953
 PY  N  17  -0.07444    -0.07151    -0.06004     0.00257    -0.00982     0.06118
 PZ  N  17   0.03832     0.07344    -0.07205     0.09652     0.04465    -0.08803
  
  S  C  18   0.02911     0.06800    -0.16096     0.12042     0.00967    -0.04622
 PX  C  18  -0.07596    -0.02048    -0.02754     0.07582     0.06630     0.00278
 PY  C  18  -0.08893    -0.02646     0.11065     0.01391    -0.11618     0.06923
 PZ  C  18   0.00409     0.02548     0.06600     0.00564    -0.07129     0.01619
  
  S  C  19   0.18335     0.03130    -0.14141    -0.10260    -0.00506    -0.05576
 PX  C  19  -0.00659     0.06240    -0.04955     0.10178     0.01807    -0.03587
 PY  C  19  -0.00181    -0.01362     0.02205    -0.02327    -0.04349     0.02572
 PZ  C  19   0.01013    -0.01632     0.03070    -0.03833    -0.02621     0.02070
  
  S  C  20   0.10673    -0.12708    -0.01984    -0.21286     0.02700     0.02635
 PX  C  20   0.04348     0.03719     0.00180    -0.02180    -0.05141     0.00212
 PY  C  20  -0.04499    -0.03801     0.04258     0.00703     0.02566     0.02164
 PZ  C  20  -0.03485    -0.03005     0.02079     0.01259     0.03097     0.00965
  
  S  C  21  -0.02607    -0.10898     0.04640    -0.07995     0.11294     0.02392
 PX  C  21   0.00750     0.08987     0.05891     0.01280    -0.06930     0.00981
 PY  C  21  -0.04641     0.04583    -0.00720     0.07908     0.04709    -0.02797
 PZ  C  21  -0.01761    -0.00868    -0.02915     0.03303     0.04661    -0.01707
  
  S  C  22  -0.11304     0.09396     0.17381     0.09199    -0.03200     0.01629
 PX  C  22  -0.04431     0.03243     0.05282     0.07607    -0.09113     0.01391
 PY  C  22  -0.01748     0.02868    -0.02662     0.01925     0.06926    -0.04175
 PZ  C  22   0.03710    -0.00046    -0.04827    -0.02805     0.06167    -0.02357
  
  S  C  23  -0.14980     0.06353     0.12979     0.17910    -0.15388     0.04865
 PX  C  23  -0.00938    -0.03667    -0.05069     0.00601     0.03955    -0.01154
 PY  C  23  -0.04248     0.00649     0.08801     0.00437    -0.00252     0.00321
 PZ  C  23   0.00021     0.02609     0.05533     0.00789    -0.01025     0.00429
  
  S  C  24   0.01453     0.09395    -0.02169    -0.00453     0.02495    -0.04219
 PX  C  24  -0.04794    -0.02544     0.05548     0.03108     0.00343     0.00467
 PY  C  24   0.02343    -0.02932    -0.04530    -0.03666    -0.02702     0.00726
 PZ  C  24   0.13038    -0.01739    -0.09636    -0.07904    -0.03203     0.00581
  
  S  C  25  -0.16679     0.00856     0.06400     0.05949     0.04512    -0.01614
 PX  C  25  -0.02045    -0.01633     0.02023     0.01322     0.00535     0.00287
 PY  C  25  -0.00081    -0.05308    -0.02484    -0.02391    -0.00198     0.01927
 PZ  C  25   0.03263     0.00641    -0.03054    -0.02433    -0.00569    -0.00371
  
  S  C  26  -0.10020    -0.07628     0.00426     0.00045     0.01976     0.02466
 PX  C  26  -0.01980    -0.00436     0.00785     0.00599     0.01293    -0.00189
 PY  C  26   0.02250    -0.00765    -0.00131    -0.00220    -0.00600     0.00689
 PZ  C  26   0.04088    -0.00037    -0.02013    -0.02004    -0.01419     0.00273
  
  S  C  27   0.12762    -0.03973    -0.08355    -0.07761     0.01086    -0.00803
 PX  C  27  -0.03319    -0.05949     0.03110     0.02343     0.02531     0.01254
 PY  C  27   0.01251    -0.01812    -0.01958    -0.01995    -0.00439     0.00471
 PZ  C  27   0.03422    -0.01608    -0.02634    -0.02591    -0.01011     0.00850
  
  S  C  28   0.02996    -0.11603    -0.00528    -0.00739     0.04266     0.01687
 PX  C  28  -0.01548     0.00170     0.00927     0.01070    -0.00372     0.00544
 PY  C  28   0.00568    -0.00776    -0.01184    -0.01275     0.00638    -0.00028
 PZ  C  28   0.03545    -0.01161    -0.02634    -0.02595     0.00439     0.00032
  
  S  C  29   0.20036     0.05324    -0.15132    -0.07865    -0.12975     0.01292
 PX  C  29   0.00320     0.03722    -0.01687    -0.03318     0.06410    -0.02922
[...]
    43       C         -4.54153141  *  13.39915443  *   4.77925912  *
    44       C         -4.08765977  *  14.14000184  *   3.69273596  *
    45       C         -4.29375805  *  15.51063001  *   3.73239520  *
    46       C         -4.93827508  *  16.12603251  *   4.80988514  *
    47       C         -5.40976556  *  15.38337351  *   5.88276764  *
    48       C          3.23924180  *  -1.32501163  *   0.00715935  *
    49       O          4.44403670  *  -1.52937591  *  -0.03985517  *
    50       O          2.39074831  *  -2.37031688  *   0.07610507  *
    51       H          4.41261320  *   1.05232028  *  -0.08846735  *
    52       H          1.38152784  *   2.00856825  *   1.61199492  *
    53       H          0.36335602  *   4.26613790  *   1.63908285  *
    54       H          4.04608116  *   3.15225884  *  -1.60724906  *
    55       H          4.52398624  *   5.36567949  *  -3.04359518  *
    56       H          4.50282256  *   7.64913887  *  -4.05194632  *
    57       H          2.89889213  *   9.35475144  *  -3.28115548  *
    58       H          1.26447403  *   8.86049891  *  -1.47260828  *
    59       H         -1.26527976  *   5.38110373  *   0.12662865  *
    60       H         -3.08435011  *   6.53465761  *   1.36971343  *
    61       H          1.44020982  *   8.67779456  *   0.99340066  *
    62       H          0.59392927  *  11.07259092  *   0.75210175  *
    63       H         -1.13407409  *  11.10487252  *   0.46367414  *
    64       H         -0.08668038  *  13.39342898  *   0.97082175  *
    65       H         -1.46553123  *  13.01115843  *   1.98678455  *
    66       H          0.17431889  *  12.88996860  *   2.63516385  *
    67       H          0.19820826  *  11.13395951  *   4.18363743  *
    68       H          0.31890012  *   9.38670849  *   4.14500224  *
    69       H          2.10320275  *  11.38434095  *   2.59193557  *
    70       H          2.57841085  *  10.27209421  *   3.86730389  *
    71       H          2.14061228  *   9.64537547  *   2.27871122  *
    72       H         -4.57226438  *   8.03808670  *   2.72267269  *
    73       H         -5.65080853  *   9.79532759  *   4.11642266  *
    74       H         -1.99360608  *  12.12953410  *   4.05975980  *
    75       H         -4.91411835  *   9.58937733  *   6.48630026  *
    76       H         -6.12100379  *   9.62707406  *   8.65970687  *
    77       H         -6.95805515  *  11.73845567  *   9.61732514  *
    78       H         -6.60674668  *  13.90735226  *   8.43173470  *
    79       H         -3.60623582  *  13.66260675  *   2.83758223  *
    80       H         -3.94633318  *  16.12683325  *   2.89707080  *
    81       H         -5.07661722  *  17.21068136  *   4.80092576  *
    82       H         -5.92434926  *  15.85917468  *   6.72124488  *
    83       H          2.87239525  *  -3.21027447  *   0.07513090  *

                             CARTESIAN COORDINATES

   1    N        0.000000000     0.000000000     0.000000000
   2    C        1.156364574     0.000000000     0.000000000
   3    C        2.574241141    -0.015176907     0.000000000
   4    C        3.314572563     1.108290494    -0.035937590
   5    C        2.736625107     2.439919616    -0.022678648
   6    C        1.718070532     2.758838353     0.888006781
   7    C        1.144197784     4.018149083     0.916268190
   8    C        1.610714860     4.955090851    -0.003769060
   9    C        2.667121573     4.649177158    -0.909239415
  10    C        3.235278732     3.390154179    -0.912776008
  11    C        2.924291622     5.839751395    -1.679987778
  12    C        3.822373109     6.127563771    -2.695025544
  13    C        3.801507516     7.398066595    -3.251093484
  14    C        2.893094247     8.366243371    -2.810647189
  15    C        1.983436817     8.105378966    -1.797152713
  16    C        2.017557265     6.835889333    -1.228832235
  17    N        1.221618455     6.289148403    -0.198682209
  18    C        0.179450105     6.959693977     0.488420437
  19    C       -1.073327895     6.354649960     0.590170254
  20    C       -2.100560914     7.002258605     1.277753265
  21    C       -1.848290068     8.241813700     1.826917368
  22    C       -0.583723482     8.852414593     1.709182670
  23    C        0.444025045     8.220973028     1.050122540
  24    C       -0.584880463    10.218876600     2.364992135
  25    C       -0.375313101    11.259886320     1.262683891
  26    C       -0.440763293    12.696067580     1.746114698
  27    C        0.434461241    10.288003660     3.503498651
  28    C        1.873406964    10.403527020     3.032320494
  29    C       -1.986889681    10.281454910     2.936334903
  30    C       -2.712471998     9.120925084     2.593048648
  31    C       -4.014866789     8.935002133     3.004931199
  32    C       -4.611133709     9.917529663     3.794990613
  33    C       -3.879505982    11.046725990     4.163954606
  34    C       -2.553031368    11.246390470     3.736835368
  35    N       -4.482263682    12.009723370     5.007617321
  36    C       -5.121750313    11.738621240     6.235066430
  37    C       -5.295390379    10.526623030     6.896301640
  38    C       -5.962162452    10.561227040     8.111598258
  39    C       -6.434818617    11.758831850     8.657357642
  40    C       -6.246488897    12.968286360     8.004477591
  41    C       -5.584042268    12.963433120     6.787995937
  42    C       -5.216375954    14.011963160     5.869943791
  43    C       -4.541531408    13.399154430     4.779259115
  44    C       -4.087659773    14.140001840     3.692735956
  45    C       -4.293758055    15.510630010     3.732395203
  46    C       -4.938275077    16.126032510     4.809885141
  47    C       -5.409765563    15.383373510     5.882767642
  48    C        3.239241801    -1.325011631     0.007159351
  49    O        4.444036703    -1.529375906    -0.039855174
  50    O        2.390748309    -2.370316875     0.076105071
  51    H        4.412613196     1.052320284    -0.088467352
  52    H        1.381527838     2.008568250     1.611994920
  53    H        0.363356015     4.266137896     1.639082852
  54    H        4.046081163     3.152258835    -1.607249061
  55    H        4.523986239     5.365679494    -3.043595184
  56    H        4.502822561     7.649138865    -4.051946321
  57    H        2.898892126     9.354751438    -3.281155480
  58    H        1.264474033     8.860498912    -1.472608284
  59    H       -1.265279758     5.381103732     0.126628651
  60    H       -3.084350113     6.534657610     1.369713428
  61    H        1.440209815     8.677794562     0.993400664
  62    H        0.593929272    11.072590920     0.752101754
  63    H       -1.134074092    11.104872520     0.463674139
  64    H       -0.086680378    13.393428980     0.970821748
  65    H       -1.465531228    13.011158430     1.986784554
  66    H        0.174318890    12.889968600     2.635163853
  67    H        0.198208261    11.133959510     4.183637430
  68    H        0.318900117     9.386708491     4.145002240
  69    H        2.103202749    11.384340950     2.591935569
  70    H        2.578410850    10.272094210     3.867303894
  71    H        2.140612278     9.645375475     2.278711219
  72    H       -4.572264380     8.038086695     2.722672687
  73    H       -5.650808528     9.795327594     4.116422662
  74    H       -1.993606078    12.129534100     4.059759798
  75    H       -4.914118345     9.589377334     6.486300256
  76    H       -6.121003789     9.627074064     8.659706873
  77    H       -6.958055149    11.738455670     9.617325138
  78    H       -6.606746681    13.907352260     8.431734696
  79    H       -3.606235822    13.662606750     2.837582226
  80    H       -3.946333179    16.126833250     2.897070797
  81    H       -5.076617222    17.210681360     4.800925764
  82    H       -5.924349255    15.859174680     6.721244881
  83    H        2.872395253    -3.210274472     0.075130900


           Empirical Formula: C45 H33 N3 O2  =    83 atoms



      MOLECULAR POINT GROUP   :   C1  


                  EIGENVALUES  
 -48.87155 -48.63909 -47.71483 -46.81078 -43.66426 -43.30767 -42.91577 -42.65050
 -41.53804 -41.12609 -39.65754 -39.17873 -37.98836 -36.44773 -36.10748 -35.92329
 -35.44031 -33.88466 -33.86703 -33.05885 -32.55315 -32.44010 -31.55160 -30.86880
 -30.54337 -29.96560 -29.66205 -28.99951 -27.98694 -27.65701 -27.02313 -26.57881
 -25.90739 -25.70381 -25.09323 -24.75880 -24.68662 -24.43041 -24.22069 -23.74410
 -23.39534 -23.21503 -23.09981 -22.41748 -21.47985 -20.91787 -20.47714 -20.25949
 -20.00587 -19.53468 -19.19949 -19.14983 -18.95107 -18.36981 -18.27434 -17.75284
 -17.58900 -17.22646 -16.86277 -16.77502 -16.75824 -16.61652 -16.46077 -16.34426
 -16.29018 -16.03010 -15.92418 -15.89769 -15.83481 -15.72976 -15.46983 -15.39100
 -15.34813 -15.06479 -14.98913 -14.84893 -14.69099 -14.58510 -14.44711 -14.28945
 -14.18880 -13.94126 -13.57603 -13.46936 -13.36073 -13.34011 -13.10211 -13.01378
 -12.97138 -12.94056 -12.90073 -12.83649 -12.73093 -12.54058 -12.21672 -12.14796
 -12.07375 -11.88866 -11.87638 -11.80956 -11.79489 -11.76823 -11.67827 -11.58609
 -11.14212 -11.04730 -10.84261 -10.14973 -10.01370  -9.85081  -9.62870  -9.12333
  -9.00228  -8.88051  -8.65951  -8.10556  -7.81819  -7.79299  -7.56349  -7.14957
  -0.82740   0.04924   0.14392   0.21893   0.63705   0.72177   0.79403   0.85043
   0.86450   1.03084   1.16140   1.42935   1.49103   1.50005   1.71682   2.14693
   2.51884   2.53092   2.65136   2.78443   2.84324   2.92749   2.95204   3.00660
   3.03434   3.09663   3.29969   3.40284   3.43801   3.45448   3.46888   3.62208
   3.73424   3.75655   3.80280   3.83046   3.88622   4.03172   4.07007   4.13849
   4.19720   4.22951   4.25080   4.35061   4.56959   4.78099   5.00998   5.14003
   5.18807   5.39303   5.49236   5.53129   5.59137   5.75198   5.81777   5.89220
   6.04495   6.10905   6.25745   6.35535   6.39906   6.44847   6.46816   6.48986
   6.51487   6.79413   6.95269   7.01538   7.02774   7.04141   7.30429   7.33038
   7.83495   7.90248   8.58162   8.62447   8.66548   8.66912   8.68040   8.72132
   8.98297   9.03723   9.34777   9.74181   9.76462   9.83766  10.10747  10.31910
  10.51797  10.62236  10.85716  10.91619  10.94765  11.15024  11.24486  11.32860
  11.58489  11.68787  11.97898  12.18080  12.53445  12.61641  12.63225  12.74514
  12.98839  13.03493  13.27019  13.44265  14.17810  14.54774  14.90448  14.98110
  15.26073


              NET ATOMIC CHARGES AND DIPOLE CONTRIBUTIONS

  ATOM NO.   TYPE          CHARGE      No. of ELECS.   s-Pop       p-Pop       
    1          N          -0.397684        5.3977     1.75354     3.64415
    2          C           0.219557        3.7804     1.14885     2.63160
    3          C           0.014514        3.9855     1.00087     2.98462
    4          C           0.134610        3.8654     1.10667     2.75872
    5          C          -0.003976        4.0040     1.03542     2.96856
    6          C          -0.008064        4.0081     1.08325     2.92481
    7          C          -0.038890        4.0389     1.07781     2.96108
    8          C           0.091825        3.9082     1.05143     2.85675
    9          C          -0.011606        4.0116     1.04899     2.96262
   10          C          -0.005083        4.0051     1.08077     2.92431
   11          C          -0.014861        4.0149     1.04689     2.96797
   12          C          -0.017761        4.0178     1.07920     2.93856
   13          C          -0.042773        4.0428     1.07763     2.96514
   14          C          -0.022216        4.0222     1.08080     2.94142
   15          C          -0.040197        4.0402     1.07652     2.96368
   16          C           0.078842        3.9212     1.05083     2.87033
   17          N          -0.126013        5.1260     1.22861     3.89740
   18          C           0.091999        3.9080     1.04302     2.86499
   19          C          -0.044140        4.0441     1.07955     2.96459
   20          C          -0.021617        4.0216     1.08208     2.93954
   21          C          -0.013806        4.0138     1.04818     2.96563
   22          C           0.013199        3.9868     1.07611     2.91069
   23          C          -0.049839        4.0498     1.08368     2.96616
   24          C           0.044960        3.9550     1.01031     2.94473
   25          C           0.009491        3.9905     1.04605     2.94446
   26          C          -0.029870        4.0299     1.05662     2.97325
   27          C           0.007644        3.9924     1.04647     2.94589
   28          C          -0.032990        4.0330     1.05908     2.97391
   29          C           0.012271        3.9877     1.07540     2.91233
   30          C          -0.013248        4.0132     1.04862     2.96463
   31          C          -0.021777        4.0218     1.08190     2.93988
   32          C          -0.042905        4.0429     1.07971     2.96320
   33          C           0.092285        3.9077     1.04284     2.86487
   34          C          -0.046205        4.0462     1.08045     2.96576
   35          N          -0.133148        5.1331     1.22861     3.90453
   36          C           0.077367        3.9226     1.05086     2.87178
   37          C          -0.042285        4.0423     1.07675     2.96553
   38          C          -0.024405        4.0244     1.08075     2.94365
   39          C          -0.044919        4.0449     1.07763     2.96729
   40          C          -0.021248        4.0212     1.07929     2.94196
   41          C          -0.017290        4.0173     1.04771     2.96958
   42          C          -0.017356        4.0174     1.04778     2.96958
   43          C           0.077413        3.9226     1.05059     2.87200
   44          C          -0.042978        4.0430     1.07643     2.96655
   45          C          -0.024013        4.0240     1.08055     2.94346
   46          C          -0.044484        4.0445     1.07759     2.96690
   47          C          -0.020883        4.0209     1.07928     2.94160
   48          C           0.501602        3.4984     1.04588     2.45252
   49          O          -0.608032        6.6080     1.81667     4.79136
   50          O          -0.309611        6.3096     1.68700     4.62261
   51          H           0.067134        0.9329     0.93287
   52          H           0.031052        0.9689     0.96895
   53          H           0.031800        0.9682     0.96820
   54          H           0.033687        0.9663     0.96631
   55          H           0.025274        0.9747     0.97473
   56          H           0.016775        0.9832     0.98323
   57          H           0.019716        0.9803     0.98028
   58          H           0.028555        0.9714     0.97144
   59          H           0.025601        0.9744     0.97440
   60          H           0.025776        0.9742     0.97422
   61          H           0.034890        0.9651     0.96511
   62          H           0.008243        0.9918     0.99176
   63          H           0.006297        0.9937     0.99370
   64          H           0.001365        0.9986     0.99864
   65          H           0.011713        0.9883     0.98829
   66          H           0.012159        0.9878     0.98784
   67          H           0.007640        0.9924     0.99236
   68          H           0.005956        0.9940     0.99404
   69          H           0.010256        0.9897     0.98974
   70          H           0.000695        0.9993     0.99930
   71          H           0.017793        0.9822     0.98221
   72          H           0.025761        0.9742     0.97424
   73          H           0.025780        0.9742     0.97422
   74          H           0.029065        0.9709     0.97094
   75          H           0.028908        0.9711     0.97109
   76          H           0.019464        0.9805     0.98054
   77          H           0.016680        0.9833     0.98332
   78          H           0.024043        0.9760     0.97596
   79          H           0.028290        0.9717     0.97171
   80          H           0.019423        0.9806     0.98058
   81          H           0.017050        0.9829     0.98295
   82          H           0.024157        0.9758     0.97584
   83          H           0.247597        0.7524     0.75240
 DIPOLE           X         Y         Z       TOTAL
 POINT-CHG.     1.272     4.938    -0.183     5.103
 HYBRID         1.368    -0.714    -0.040     1.544
 SUM            2.640     4.224    -0.223     4.986


          ATOMIC ORBITAL ELECTRON POPULATIONS

     Atom    s        px        py        pz   
    1  N   1.75354   1.23097   1.22980   1.18338
    2  C   1.14885   0.95044   0.80735   0.87381
    3  C   1.00087   0.90489   0.92162   1.15811
    4  C   1.10667   0.98844   1.01033   0.75995
    5  C   1.03542   1.00935   0.95461   1.00460
    6  C   1.08325   0.97088   0.97527   0.97866
    7  C   1.07781   0.99315   0.98371   0.98422
    8  C   1.05143   0.98202   0.88823   0.98649
    9  C   1.04899   1.00174   0.95740   1.00348
   10  C   1.08077   0.96809   0.97480   0.98143
   11  C   1.04689   0.99795   0.97860   0.99142
   12  C   1.07920   0.97579   0.97310   0.98968
   13  C   1.07763   0.98866   0.99265   0.98383
   14  C   1.08080   0.99994   0.95514   0.98634
   15  C   1.07652   0.99491   0.96030   1.00847
   16  C   1.05083   0.96196   0.97571   0.93266
   17  N   1.22861   1.35836   1.15325   1.38579
   18  C   1.04302   0.93064   0.97290   0.96145
   19  C   1.07955   0.97597   0.96364   1.02498
   20  C   1.08208   0.95582   0.98449   0.99922
   21  C   1.04818   0.99009   0.97146   1.00408
   22  C   1.07611   0.99682   0.96294   0.95092
   23  C   1.08368   0.95474   0.98011   1.03131
   24  C   1.01031   0.98076   0.98437   0.97960
   25  C   1.04605   0.98755   0.98671   0.97020
   26  C   1.05662   0.99530   0.98408   0.99387
   27  C   1.04647   0.98891   0.98811   0.96887
   28  C   1.05908   0.98340   0.99643   0.99408
   29  C   1.07540   0.97013   0.98523   0.95697
   30  C   1.04862   0.96611   0.98948   1.00903
   31  C   1.08190   0.98436   0.96485   0.99067
   32  C   1.07971   0.95082   0.99032   1.02206
   33  C   1.04284   0.97691   0.94144   0.94651
   34  C   1.08045   0.96435   0.97392   1.02749
   35  N   1.22861   1.57720   1.09387   1.23346
   36  C   1.05086   0.97192   0.99197   0.90788
   37  C   1.07675   1.02843   0.94517   0.99193
   38  C   1.08075   1.00089   0.95916   0.98360
   39  C   1.07763   1.01309   0.99169   0.96251
   40  C   1.07929   0.99555   0.95963   0.98678
   41  C   1.04771   1.01641   0.98094   0.97222
   42  C   1.04778   1.02090   0.95456   0.99412
   43  C   1.05059   0.99605   0.88155   0.99440
   44  C   1.07643   1.02720   0.97798   0.96136
   45  C   1.08055   0.99352   0.98179   0.96815
   46  C   1.07759   1.02409   0.94259   1.00022
   47  C   1.07928   0.99004   0.98374   0.96783
   48  C   1.04588   0.87972   0.90712   0.66567
   49  O   1.81667   1.27925   1.95678   1.55534
   50  O   1.68700   1.52899   1.20730   1.88632
   51  H   0.93287
   52  H   0.96895
   53  H   0.96820
   54  H   0.96631
   55  H   0.97473
   56  H   0.98323
   57  H   0.98028
   58  H   0.97144
   59  H   0.97440
   60  H   0.97422
   61  H   0.96511
   62  H   0.99176
   63  H   0.99370
   64  H   0.99864
   65  H   0.98829
   66  H   0.98784
   67  H   0.99236
   68  H   0.99404
   69  H   0.98974
   70  H   0.99930
   71  H   0.98221
   72  H   0.97424
   73  H   0.97422
   74  H   0.97094
   75  H   0.97109
   76  H   0.98054
   77  H   0.98332
   78  H   0.97596
   79  H   0.97171
   80  H   0.98058
   81  H   0.98295
   82  H   0.97584
   83  H   0.75240

 **********************
 *                    *
 * JOB ENDED NORMALLY *
 *                    *
 **********************



 TOTAL JOB TIME:           486.59 SECONDS

 == MOPAC DONE ==
