 *******************************************************************************
 ** Site#: 4824         For non-commercial use only    Version 21.013L 64BITS **
 *******************************************************************************
 ** Cite this program as: MOPAC2016, Version: 21.013L, James J. P. Stewart,   **
 ** Stewart Computational Chemistry, web: HTTP://OpenMOPAC.net. Days left:  84**
 *******************************************************************************
 **                                                                           **
 **                                MOPAC2016                                  **
 **                                                                           **
 *******************************************************************************

                              INDO CALCULATION RESULTS

 *******************************************************************************
 *  CALCULATION DONE:                                Thu Oct 21 10:24:14 2021  *
 *  INDO       - The INDO Hamiltonian to be used
 *  CIS        - C.I. USES 1 ELECTRON EXCITATIONS ONLY
 *  EPS= 37.50 - USE ANDREAS KLAMT'S COSMO IMPLICIT SOLVATION MODEL
 *  n**2 =  1.340 for COSMO-CI
 *  T=         - A TIME OF 172800.0 SECONDS REQUESTED
 *  DUMP=N     - RESTART FILE WRITTEN EVERY 7200.0 SECONDS REQUESTED
 *******************************************************************************
INDO CIS EPS=37.5 N**2=1.34
 Dye14
 Calculo de Estados Excitados
   ATOM   CHEMICAL          X               Y               Z
  NUMBER   SYMBOL      (ANGSTROMS)     (ANGSTROMS)     (ANGSTROMS)
 
     1       N         -0.40559742  *  -0.44936241  *   0.07916854  *
     2       C          0.73144382  *  -0.25993324  *   0.16845691  *
     3       C          2.12437658  *  -0.00978732  *   0.26413144  *
     4       C          3.04596503  *  -0.98393310  *   0.16767651  *
     5       C          2.69870138  *  -2.38636829  *   0.00659450  *
     6       C          3.36944224  *  -3.14194661  *  -0.95597056  *
     7       C          3.06157702  *  -4.48105033  *  -1.13128840  *
     8       C          2.07485883  *  -5.06737700  *  -0.32857981  *
     9       C          1.40964916  *  -4.31881656  *   0.64807498  *
    10       C          1.72946721  *  -2.97879877  *   0.81291604  *
    11       N          1.75535036  *  -6.42885224  *  -0.50553300  *
    12       C          1.48989540  *  -7.06427512  *  -1.73869832  *
    13       C          1.44941873  *  -6.53985411  *  -3.02509635  *
    14       C          1.14404577  *  -7.41380787  *  -4.05676973  *
    15       C          0.87307744  *  -8.77437858  *  -3.83900143  *
    16       C          0.89104662  *  -9.28121630  *  -2.54506365  *
    17       C          1.19428125  *  -8.42923585  *  -1.49453475  *
    18       C          1.27441502  *  -8.63596016  *  -0.06827446  *
    19       C          1.61922845  *  -7.39194801  *   0.51834658  *
    20       C          1.81288342  *  -7.27448374  *   1.88952783  *
    21       C          1.61980713  *  -8.41240138  *   2.65736496  *
    22       C          1.25478214  *  -9.64781413  *   2.09855532  *
    23       C          1.08953246  *  -9.75880015  *   0.72304170  *
    24       C          1.06042005  * -10.81327724  *   3.03357036  *
    25       C          0.67420998  * -12.10583897  *   2.31178605  *
    26       C          2.36752876  * -11.06966959  *   3.78895200  *
    27       C         -0.05920766  * -10.47330840  *   4.02143451  *
    28       C          0.56039557  *  -9.62998354  *  -5.03918971  *
    29       C          1.74533410  *  -9.58025989  *  -6.00813228  *
    30       C          0.30750105  * -11.09635179  *  -4.68343683  *
    31       C         -0.69850692  *  -9.08620766  *  -5.72035257  *
    32       C          2.55380319  *   1.38487183  *   0.44565752  *
    33       O          3.70670713  *   1.78939995  *   0.48625124  *
    34       O          1.53569137  *   2.25766528  *   0.57761881  *
    35       H          4.12042558  *  -0.74763671  *   0.19987856  *
    36       H          4.14135947  *  -2.67722218  *  -1.57866598  *
    37       H          3.60272969  *  -5.07334534  *  -1.87675813  *
    38       H          0.62492475  *  -4.77071295  *   1.26444709  *
    39       H          1.22011711  *  -2.39757907  *   1.58925121  *
    40       H          1.63031657  *  -5.48114010  *  -3.22148473  *
    41       H          1.11515115  *  -7.00211859  *  -5.07123621  *
    42       H          0.67373279  * -10.32462277  *  -2.30652670  *
    43       H          2.11973979  *  -6.33290587  *   2.34920786  *
    44       H          1.76674636  *  -8.31907068  *   3.73863177  *
    45       H          0.82080019  * -10.69266053  *   0.22455241  *
    46       H         -0.27384570  * -12.01521344  *   1.76260776  *
    47       H          1.44378048  * -12.43689282  *   1.59990101  *
    48       H          0.53559555  * -12.94092018  *   3.01543385  *
    49       H          2.66669093  * -10.23267970  *   4.43470671  *
    50       H          2.29714924  * -11.94795693  *   4.44737121  *
    51       H          3.20563695  * -11.25246279  *   3.10145910  *
    52       H         -0.99846483  * -10.23035755  *   3.50436872  *
    53       H         -0.27638422  * -11.31003517  *   4.70151552  *
    54       H          0.17640771  *  -9.61475710  *   4.66514429  *
    55       H          1.93299331  *  -8.57632298  *  -6.41303913  *
    56       H          2.67855732  *  -9.90537113  *  -5.52660887  *
    57       H          1.59192462  * -10.23254215  *  -6.88040370  *
    58       H         -0.55704048  * -11.22591381  *  -4.01678287  *
    59       H          0.09095608  * -11.70187688  *  -5.57684968  *
    60       H          1.17572485  * -11.56855253  *  -4.20202481  *
    61       H         -1.55425958  *  -9.05737861  *  -5.03081270  *
    62       H         -0.57448229  *  -8.06641409  *  -6.10974491  *
    63       H         -1.00097188  *  -9.70324418  *  -6.57916265  *
    64       H          1.86385007  *   3.16176823  *   0.69074800  *
 


          CARTESIAN COORDINATES 

    NO.       ATOM           X           Y           Z

     1         N         -0.4056     -0.4494      0.0792
     2         C          0.7314     -0.2599      0.1685
     3         C          2.1244     -0.0098      0.2641
     4         C          3.0460     -0.9839      0.1677
     5         C          2.6987     -2.3864      0.0066
     6         C          3.3694     -3.1419     -0.9560
     7         C          3.0616     -4.4811     -1.1313
     8         C          2.0749     -5.0674     -0.3286
     9         C          1.4096     -4.3188      0.6481
    10         C          1.7295     -2.9788      0.8129
    11         N          1.7554     -6.4289     -0.5055
    12         C          1.4899     -7.0643     -1.7387
    13         C          1.4494     -6.5399     -3.0251
    14         C          1.1440     -7.4138     -4.0568
    15         C          0.8731     -8.7744     -3.8390
    16         C          0.8910     -9.2812     -2.5451
    17         C          1.1943     -8.4292     -1.4945
    18         C          1.2744     -8.6360     -0.0683
    19         C          1.6192     -7.3919      0.5183
    20         C          1.8129     -7.2745      1.8895
    21         C          1.6198     -8.4124      2.6574
    22         C          1.2548     -9.6478      2.0986
    23         C          1.0895     -9.7588      0.7230
    24         C          1.0604    -10.8133      3.0336
    25         C          0.6742    -12.1058      2.3118
    26         C          2.3675    -11.0697      3.7890
    27         C         -0.0592    -10.4733      4.0214
    28         C          0.5604     -9.6300     -5.0392
    29         C          1.7453     -9.5803     -6.0081
    30         C          0.3075    -11.0964     -4.6834
    31         C         -0.6985     -9.0862     -5.7204
    32         C          2.5538      1.3849      0.4457
    33         O          3.7067      1.7894      0.4863
    34         O          1.5357      2.2577      0.5776
    35         H          4.1204     -0.7476      0.1999
    36         H          4.1414     -2.6772     -1.5787
    37         H          3.6027     -5.0733     -1.8768
    38         H          0.6249     -4.7707      1.2644
    39         H          1.2201     -2.3976      1.5893
    40         H          1.6303     -5.4811     -3.2215
    41         H          1.1152     -7.0021     -5.0712
    42         H          0.6737    -10.3246     -2.3065
    43         H          2.1197     -6.3329      2.3492
    44         H          1.7667     -8.3191      3.7386
    45         H          0.8208    -10.6927      0.2246
    46         H         -0.2738    -12.0152      1.7626
    47         H          1.4438    -12.4369      1.5999
    48         H          0.5356    -12.9409      3.0154
    49         H          2.6667    -10.2327      4.4347
    50         H          2.2971    -11.9480      4.4474
    51         H          3.2056    -11.2525      3.1015
    52         H         -0.9985    -10.2304      3.5044
    53         H         -0.2764    -11.3100      4.7015
    54         H          0.1764     -9.6148      4.6651
    55         H          1.9330     -8.5763     -6.4130
    56         H          2.6786     -9.9054     -5.5266
    57         H          1.5919    -10.2325     -6.8804
    58         H         -0.5570    -11.2259     -4.0168
    59         H          0.0910    -11.7019     -5.5768
    60         H          1.1757    -11.5686     -4.2020
    61         H         -1.5543     -9.0574     -5.0308
    62         H         -0.5745     -8.0664     -6.1097
    63         H         -1.0010     -9.7032     -6.5792
    64         H          1.8639      3.1618      0.6907

           Empirical Formula: C30 H30 N2 O2  =    64 atoms



      MOLECULAR POINT GROUP   :   C1  


      RHF CALCULATION, NO. OF DOUBLY OCCUPIED LEVELS = 86

 WARNING: INDO only performs single-point calculations

 Summary of symmetry occupancy in each shell:

 SHELL     
    1   86
    v   80
 TOTAL 166




    ROOT NO.    1           2           3           4           5           6

           -48.65544   -46.83914   -45.20160   -44.97988   -44.01927   -41.03071
  
  
  S  N   1   0.00382     0.04110    -0.00014    -0.01927     0.04497     0.00235
 PX  N   1   0.00229     0.02430    -0.00007    -0.01100     0.02516     0.00114
 PY  N   1  -0.00031     0.00753     0.00002     0.00233    -0.00333     0.00001
 PZ  N   1   0.00026     0.00252    -0.00001    -0.00106     0.00230     0.00013
  
  S  C   2   0.00889     0.11661    -0.00020    -0.03584     0.08318     0.00318
 PX  C   2   0.00310     0.04610    -0.00001    -0.00933     0.02075     0.00001
 PY  C   2  -0.00172     0.02807     0.00007     0.01382    -0.02406    -0.00049
 PZ  C   2   0.00029     0.00618    -0.00002    -0.00028     0.00074     0.00008
  
  S  C   3   0.01323     0.23248    -0.00013    -0.04113     0.10200     0.00280
 PX  C   3   0.00084     0.01890     0.00003    -0.00212     0.00586    -0.00022
 PY  C   3  -0.00355     0.07753     0.00013     0.03588    -0.06444    -0.00096
 PZ  C   3  -0.00023     0.01004    -0.00001     0.00350    -0.00627     0.00001
  
  S  C   4   0.02075     0.12516    -0.00019    -0.09289     0.18650     0.00234
 PX  C   4  -0.00420    -0.02745     0.00010     0.01961    -0.04039    -0.00113
 PY  C   4  -0.00732     0.03931     0.00006     0.03655    -0.05899     0.00021
 PZ  C   4  -0.00089     0.00447    -0.00006     0.00432    -0.00693     0.00041
  
  S  C   5   0.05582     0.07104    -0.00040    -0.20574     0.34859     0.00115
 PX  C   5  -0.00535    -0.00471     0.00037     0.01575    -0.02411    -0.00202
 PY  C   5  -0.02044     0.01087     0.00007     0.05192    -0.06573     0.00110
 PZ  C   5  -0.00233     0.00286    -0.00053     0.00529    -0.00559     0.00281
  
  S  C   6   0.05925     0.03880     0.00179    -0.18198     0.28372    -0.00936
 PX  C   6  -0.01872    -0.01015    -0.00019     0.05415    -0.08134     0.00098
 PY  C   6  -0.01646     0.00419    -0.00121     0.02490    -0.02089     0.00532
 PZ  C   6   0.01266     0.01119    -0.00077    -0.04607     0.07508     0.00250
  
  S  C   7   0.11499     0.02334     0.00679    -0.19395     0.22506    -0.02622
 PX  C   7  -0.03708    -0.00406    -0.00143     0.04661    -0.03994     0.00482
 PY  C   7  -0.02463     0.00921    -0.00256    -0.02373     0.07878     0.00740
 PZ  C   7   0.02576     0.00755    -0.00233    -0.05630     0.07087     0.00605
  
  S  C   8   0.23269     0.01854    -0.00052    -0.24797     0.17899    -0.00210
 PX  C   8  -0.01908     0.00300     0.00202    -0.00551     0.03244    -0.00800
 PY  C   8  -0.08004     0.01376     0.00068    -0.02353     0.13814    -0.00159
 PZ  C   8  -0.01042     0.00195    -0.00896    -0.00309     0.01816     0.02910
  
  S  C   9   0.11532     0.02563    -0.00758    -0.19544     0.22881     0.02394
 PX  C   9   0.02347     0.00791    -0.00019    -0.05480     0.07367     0.00007
 PY  C   9  -0.03135     0.00971     0.00339    -0.01470     0.07032    -0.00934
 PZ  C   9  -0.03326    -0.00523    -0.00135     0.05189    -0.05234     0.00459
  
  S  C  10   0.06013     0.04819    -0.00250    -0.18752     0.29690     0.00955
 PX  C  10   0.00999     0.01042     0.00027    -0.03893     0.06536    -0.00136
 PY  C  10  -0.01886     0.00725     0.00142     0.03124    -0.02890    -0.00422
 PZ  C  10  -0.01747    -0.01142    -0.00024     0.05471    -0.08449     0.00123
  
  S  N  11   0.47300    -0.01113    -0.00062    -0.18438    -0.13686    -0.00142
 PX  N  11  -0.02107     0.00198    -0.00112    -0.00780     0.02235     0.00207
 PY  N  11  -0.07893     0.00808     0.00362    -0.03540     0.09007    -0.01073
 PZ  N  11  -0.01045     0.00107    -0.02533    -0.00444     0.01176     0.07095
  
  S  C  12   0.35855    -0.01495     0.11233    -0.01331    -0.12087    -0.22570
 PX  C  12   0.00540     0.00074    -0.01319    -0.02085    -0.00066     0.01998
 PY  C  12  -0.02149     0.00400    -0.02818    -0.05455     0.02309     0.03509
 PZ  C  12   0.12052    -0.00346    -0.05682    -0.07208    -0.07379     0.10193
  
  S  C  13   0.15073    -0.00697     0.14156     0.05369    -0.00440    -0.25611
 PX  C  13  -0.00238     0.00072    -0.01412    -0.01478    -0.00132     0.01690
 PY  C  13  -0.04224     0.00364    -0.06377    -0.04871     0.00304     0.09227
 PZ  C  13   0.05674    -0.00147    -0.00252    -0.02809    -0.02675    -0.02552
  
  S  C  14   0.10351    -0.00764     0.21447     0.15099     0.06112    -0.18653
 PX  C  14   0.00108     0.00016    -0.00999    -0.01071    -0.00840    -0.01576
 PY  C  14  -0.01666     0.00192    -0.06344    -0.05545    -0.03084    -0.01220
 PZ  C  14   0.04246    -0.00244     0.03430     0.01354    -0.01735    -0.11944
  
  S  C  15   0.11131    -0.00957     0.29876     0.23571     0.12209    -0.07865
 PX  C  15   0.00698    -0.00034    -0.00174    -0.00463    -0.01018    -0.03602
 PY  C  15   0.01936    -0.00096     0.00130    -0.00942    -0.02409    -0.10234
 PZ  C  15   0.02757    -0.00139    -0.01519    -0.02071    -0.04529    -0.13069
  
  S  C  16   0.13135    -0.00969     0.18835     0.15314     0.02873    -0.15196
 PX  C  16   0.01359    -0.00078     0.00495     0.00177    -0.00836    -0.02499
 PY  C  16   0.05369    -0.00338     0.04964     0.02790    -0.01495    -0.10461
 PZ  C  16   0.01493    -0.00023    -0.06108    -0.04363    -0.04898    -0.01355
  
  S  C  17   0.29392    -0.01632     0.10188     0.07436    -0.10877    -0.16308
 PX  C  17   0.02594    -0.00098    -0.00528    -0.01034    -0.01597     0.00302
 PY  C  17   0.09342    -0.00374     0.01416    -0.02422    -0.04836    -0.04338
 PZ  C  17   0.05199    -0.00167    -0.08286    -0.04424    -0.05206     0.12670
  
  S  C  18   0.29386    -0.01629    -0.10182     0.07492    -0.10868     0.16582
 PX  C  18   0.02257    -0.00093    -0.00603    -0.00465    -0.01109     0.01467
 PY  C  18   0.10444    -0.00405     0.01014    -0.03623    -0.06134     0.00488
 PZ  C  18  -0.02607     0.00067    -0.08311     0.03678     0.03776     0.13319
  
  S  C  19   0.35831    -0.01488    -0.11267    -0.01255    -0.12080     0.22649
 PX  C  19  -0.00723     0.00094     0.00467    -0.01076     0.00634    -0.00494
 PY  C  19   0.01327     0.00292     0.04359    -0.07384     0.00150    -0.06560
 PZ  C  19  -0.12165     0.00440    -0.04691     0.05553     0.07708     0.08928
  
  S  C  20   0.15051    -0.00688    -0.14134     0.05461    -0.00432     0.25702
 PX  C  20  -0.01367     0.00092     0.01672    -0.01090     0.00076    -0.02571
 PY  C  20  -0.02345     0.00308     0.06134    -0.05550    -0.00458    -0.08133
 PZ  C  20  -0.06529     0.00234     0.01408     0.01428     0.02657    -0.04826
  
  S  C  21   0.10337    -0.00756    -0.21363     0.15209     0.06126     0.18759
 PX  C  21  -0.00588     0.00057     0.01788    -0.01506    -0.00779    -0.00081
 PY  C  21  -0.00345     0.00113     0.05021    -0.04925    -0.03445     0.04679
 PZ  C  21  -0.04506     0.00282     0.04918    -0.02757     0.00872    -0.11251
  
  S  C  22   0.11118    -0.00950    -0.29748     0.23721     0.12232     0.07922
 PX  C  22   0.00424    -0.00021    -0.00061    -0.00198    -0.00516     0.02341
 PY  C  22   0.02646    -0.00131     0.00313    -0.01510    -0.03618     0.13668
 PZ  C  22  -0.02154     0.00109    -0.01479     0.01755     0.03737    -0.10035
  
  S  C  23   0.13129    -0.00965    -0.18766     0.15414     0.02890     0.15375
 PX  C  23   0.01326    -0.00085    -0.01424     0.00836    -0.00252     0.02662
 PY  C  23   0.05577    -0.00329    -0.02991     0.01427    -0.02847     0.10518
 PZ  C  23  -0.00059    -0.00063    -0.07124     0.04953     0.04335     0.01362
  
  S  C  24   0.05565    -0.00646    -0.29989     0.25969     0.19755    -0.22650
 PX  C  24   0.00177    -0.00015    -0.00430     0.00299     0.00098     0.00706
 PY  C  24   0.01020    -0.00083    -0.02209     0.01562     0.00374     0.04087
 PZ  C  24  -0.00712     0.00057     0.01073    -0.00819     0.00098    -0.03015
  
  S  C  25   0.02942    -0.00361    -0.17392     0.15393     0.12097    -0.17009
 PX  C  25   0.00310    -0.00038    -0.01796     0.01568     0.01212    -0.01476
 PY  C  25   0.01171    -0.00137    -0.06229     0.05435     0.04061    -0.04393
 PZ  C  25   0.00253    -0.00043    -0.02832     0.02479     0.02262    -0.04117
  
  S  C  26   0.02960    -0.00361    -0.17884     0.15561     0.12350    -0.16259
 PX  C  26  -0.00965     0.00121     0.06035    -0.05275    -0.04205     0.05620
 PY  C  26   0.00515    -0.00051    -0.01973     0.01595     0.01000     0.00297
 PZ  C  26  -0.00746     0.00085     0.03769    -0.03249    -0.02385     0.02297
  
  S  C  27   0.02965    -0.00362    -0.17887     0.15561     0.12348    -0.16242
 PX  C  27   0.00944    -0.00113    -0.05482     0.04740     0.03690    -0.04340
 PY  C  27   0.00047     0.00007     0.00859    -0.00868    -0.00941     0.02747
 PZ  C  27  -0.00933     0.00107     0.04882    -0.04215    -0.03145     0.03244
  
  S  C  28   0.05573    -0.00651     0.30137     0.25820     0.19735     0.22468
 PX  C  28   0.00266    -0.00021     0.00551     0.00385     0.00077    -0.01079
 PY  C  28   0.00782    -0.00064     0.01837     0.01269     0.00391    -0.03058
 PZ  C  28   0.00950    -0.00077     0.01611     0.01185     0.00003    -0.03920
  
  S  C  29   0.02966    -0.00364     0.17975     0.15469     0.12337     0.16109
 PX  C  29  -0.00853     0.00108    -0.05467    -0.04732    -0.03816    -0.05171
 PY  C  29   0.00223    -0.00017     0.00451     0.00279     0.00023    -0.01273
 PZ  C  29   0.00991    -0.00112     0.04996     0.04238     0.03123     0.02827
  
  S  C  30   0.02945    -0.00364     0.17477     0.15304     0.12083     0.16882
 PX  C  30   0.00246    -0.00028     0.01249     0.01076     0.00790     0.00766
 PY  C  30   0.01213    -0.00147     0.06911     0.05969     0.04601     0.05431
 PZ  C  30   0.00062     0.00005    -0.01100    -0.00957    -0.01111    -0.02780
  
  S  C  31   0.02968    -0.00365     0.17976     0.15476     0.12335     0.16122
 PX  C  31   0.01072    -0.00129     0.06190     0.05296     0.04127     0.04778
 PY  C  31  -0.00170     0.00031    -0.01919    -0.01758    -0.01589    -0.03276
 PZ  C  31   0.00768    -0.00085     0.03633     0.03068     0.02191     0.01659
  
  S  C  32   0.00947     0.51098     0.00018     0.04174    -0.04625    -0.00007
 PX  C  32  -0.00004    -0.00500     0.00001    -0.00220     0.00576     0.00003
 PY  C  32   0.00014     0.13535     0.00011     0.03105    -0.05620    -0.00124
 PZ  C  32   0.00005     0.01852     0.00001     0.00408    -0.00738    -0.00015
  
  S  O  33   0.00668     0.41030     0.00018     0.03951    -0.04851    -0.00047
 PX  O  33  -0.00265    -0.17160    -0.00008    -0.01788     0.02350     0.00026
 PY  O  33  -0.00097    -0.03448    -0.00001     0.00062    -0.00490    -0.00020
 PZ  O  33  -0.00009    -0.00249    -0.00000     0.00027    -0.00087    -0.00003
  
  S  O  34   0.00785     0.56653     0.00026     0.07060    -0.10685    -0.00161
 PX  O  34   0.00225     0.16559     0.00008     0.02072    -0.03110    -0.00047
 PY  O  34  -0.00084    -0.03607    -0.00000    -0.00091    -0.00161    -0.00024
 PZ  O  34  -0.00015    -0.00760    -0.00000    -0.00048     0.00032    -0.00002
  
  S  H  35   0.00695     0.05355    -0.00002    -0.02951     0.06055     0.00051
  
  S  H  36   0.01482     0.01344     0.00077    -0.05004     0.08207    -0.00373
  
  S  H  37   0.04817     0.00502     0.00630    -0.05626     0.05183    -0.01977
  
  S  H  38   0.04833     0.00590    -0.00660    -0.05678     0.05331     0.01909
  
  S  H  39   0.01559     0.02144    -0.00099    -0.05424     0.09195     0.00432
  
  S  H  40   0.05013    -0.00099     0.03683    -0.00067     0.00599    -0.07551
  
  S  H  41   0.02786    -0.00229     0.08084     0.06069     0.03555    -0.03058
  
  S  H  42   0.03959    -0.00317     0.06298     0.06092     0.01998    -0.01633
  
  S  H  43   0.05000    -0.00093    -0.03685    -0.00031     0.00595     0.07547
  
  S  H  44   0.02782    -0.00227    -0.08046     0.06107     0.03558     0.03068
  
  S  H  45   0.03959    -0.00316    -0.06270     0.06126     0.02004     0.01679
  
  S  H  46   0.01334    -0.00157    -0.07120     0.06323     0.04814    -0.06397
  
  S  H  47   0.01331    -0.00157    -0.07115     0.06319     0.04813    -0.06404
  
  S  H  48   0.01000    -0.00130    -0.06668     0.05929     0.04855    -0.07713
  
  S  H  49   0.01349    -0.00157    -0.07557     0.06496     0.05050    -0.05893
  
  S  H  50   0.00996    -0.00129    -0.06742     0.05929     0.04882    -0.07415
  
  S  H  51   0.01280    -0.00151    -0.07218     0.06260     0.04869    -0.06078
  
  S  H  52   0.01282    -0.00151    -0.07216     0.06258     0.04868    -0.06078
  
  S  H  53   0.00997    -0.00129    -0.06742     0.05928     0.04881    -0.07408
  
  S  H  54   0.01353    -0.00157    -0.07557     0.06494     0.05046    -0.05876
  
  S  H  55   0.01354    -0.00159     0.07600     0.06460     0.05047     0.05831
  
  S  H  56   0.01283    -0.00152     0.07253     0.06220     0.04863     0.06020
  
  S  H  57   0.00997    -0.00130     0.06775     0.05893     0.04877     0.07350
  
  S  H  58   0.01335    -0.00158     0.07155     0.06288     0.04810     0.06364
  
  S  H  59   0.01001    -0.00131     0.06701     0.05896     0.04850     0.07654
  
  S  H  60   0.01333    -0.00158     0.07149     0.06280     0.04805     0.06346
  
  S  H  61   0.01283    -0.00152     0.07253     0.06226     0.04863     0.06036
  
  S  H  62   0.01353    -0.00159     0.07591     0.06457     0.05040     0.05835
  
  S  H  63   0.00998    -0.00130     0.06775     0.05895     0.04876     0.07351
  
  S  H  64   0.00318     0.23813     0.00012     0.03090    -0.04770    -0.00080




    ROOT NO.    7           8           9          10          11          12

           -40.54527   -39.64262   -39.17412   -36.88111   -35.90068   -33.95002
  
  
  S  N   1   0.13316    -0.05881     0.35811     0.44465     0.33953    -0.07030
 PX  N   1   0.06644    -0.02697     0.16533     0.17428     0.12153    -0.02253
 PY  N   1   0.00270    -0.01126     0.02548     0.03340     0.02174    -0.01031
 PZ  N   1   0.00498    -0.00335     0.01317     0.01380     0.01016     0.00072
  
  S  C   2   0.20098    -0.05333     0.42824     0.30226     0.13678    -0.02368
 PX  C   2   0.02142     0.02950    -0.04693    -0.24281    -0.25913     0.05506
 PY  C   2  -0.02827    -0.02396    -0.01500    -0.02432    -0.03565    -0.00441
 PZ  C   2  -0.00112    -0.00269    -0.00413    -0.01801    -0.01804     0.00995
  
  S  C   3   0.24583     0.10848     0.29349    -0.05477    -0.24417     0.03273
 PX  C   3   0.02258     0.11841    -0.07766    -0.06939    -0.05928    -0.00307
 PY  C   3  -0.07876    -0.02197    -0.06351     0.05005     0.04584    -0.00619
 PZ  C   3  -0.00886    -0.00213    -0.00952     0.00181     0.00326     0.00836
  
  S  C   4   0.27544     0.14355     0.19551    -0.20427    -0.25394    -0.02671
 PX  C   4  -0.06782    -0.00811    -0.08658     0.02072     0.05993    -0.03826
 PY  C   4   0.00450     0.07671     0.02344     0.05706    -0.04646     0.03178
 PZ  C   4   0.00115     0.00827     0.00525     0.00898    -0.00508     0.02857
  
  S  C   5   0.18024    -0.02818     0.01574    -0.20943    -0.01938    -0.04356
 PX  C   5  -0.00582     0.01156    -0.01286    -0.02538    -0.01742    -0.11157
 PY  C   5   0.08369     0.06517     0.13279    -0.04851    -0.13663     0.00103
 PZ  C   5   0.01745     0.00781     0.03139     0.00347    -0.01871     0.11232
  
  S  C   6   0.03706    -0.06450    -0.12061    -0.10531     0.08932    -0.30430
 PX  C   6  -0.00193     0.02224     0.03292     0.00887    -0.03063    -0.00897
 PY  C   6   0.06302     0.02532     0.06374    -0.06781    -0.05628     0.05098
 PZ  C   6   0.02209    -0.01398    -0.01570    -0.03602     0.01438     0.03099
  
  S  C   7  -0.11206    -0.05362    -0.14595     0.07315     0.06590    -0.30352
 PX  C   7   0.04297     0.00342     0.01833    -0.04024     0.00562    -0.03549
 PY  C   7   0.05006    -0.03687    -0.05022    -0.06375     0.07641    -0.04636
 PZ  C   7  -0.02592    -0.01722    -0.03806     0.01312     0.02948     0.03647
  
  S  C   8  -0.24520     0.00217    -0.08002     0.19165    -0.04541     0.04125
 PX  C   8   0.01576    -0.01863    -0.03209    -0.01402     0.03157    -0.12490
 PY  C   8   0.07583    -0.07886    -0.11418    -0.04045     0.13448     0.00991
 PZ  C   8   0.01123    -0.01029    -0.01043    -0.00023     0.01760     0.17619
  
  S  C   9  -0.09809    -0.05418    -0.11232     0.10331     0.06649     0.35164
 PX  C   9  -0.01865    -0.02006    -0.04239     0.00683     0.02938    -0.00566
 PY  C   9   0.06431    -0.03461    -0.02730    -0.05817     0.07477     0.02629
 PZ  C   9   0.04091     0.00791     0.02985    -0.02609    -0.00959     0.03071
  
  S  C  10   0.07684    -0.06406    -0.03976    -0.05581     0.08161     0.27357
 PX  C  10   0.02510    -0.00864    -0.01418    -0.05056    -0.00167    -0.05000
 PY  C  10   0.07631     0.02974     0.09468    -0.05685    -0.06604    -0.08332
 PZ  C  10  -0.00985     0.01973     0.02939     0.02267    -0.02525     0.02412
  
  S  N  11  -0.27293     0.14516     0.17743     0.04448    -0.13070    -0.00227
 PX  N  11  -0.01822    -0.00382    -0.01558     0.03751    -0.02344    -0.01854
 PY  N  11  -0.07845    -0.01341    -0.05833     0.15862    -0.09825     0.01482
 PZ  N  11  -0.01030    -0.00180    -0.00665     0.02252    -0.01259     0.14309
  
  S  C  12   0.03065     0.01241     0.03108    -0.01304    -0.04065    -0.12515
 PX  C  12  -0.03816     0.01664     0.01782     0.00923    -0.01733    -0.02895
 PY  C  12  -0.11178     0.03598     0.02585     0.09132    -0.11396    -0.09252
 PZ  C  12  -0.10443     0.08119     0.12314    -0.12152     0.08149     0.01295
  
  S  C  13   0.09316    -0.06410    -0.09964     0.17442    -0.19904    -0.18378
 PX  C  13  -0.02024     0.00958     0.01132    -0.00591     0.00561    -0.01528
 PY  C  13  -0.07411     0.03553     0.04326    -0.02409     0.02033    -0.03230
 PZ  C  13  -0.02422     0.01727     0.02448    -0.01869     0.01431    -0.02307
  
  S  C  14   0.11275    -0.07701    -0.11512     0.16920    -0.18566    -0.07244
 PX  C  14   0.00666    -0.00360    -0.00511     0.00689    -0.00776    -0.01539
 PY  C  14  -0.00489     0.00319     0.00332     0.00994    -0.02073    -0.06930
 PZ  C  14   0.07313    -0.03922    -0.05209     0.04016    -0.02764     0.01062
  
  S  C  15   0.07164    -0.05236    -0.07701     0.07464    -0.04463     0.12599
 PX  C  15   0.02346    -0.01237    -0.01638     0.01442    -0.01342    -0.00355
 PY  C  15   0.06109    -0.03422    -0.04747     0.06375    -0.07826    -0.05790
 PZ  C  15   0.09810    -0.04753    -0.05826     0.00484     0.03594     0.09582
  
  S  C  16   0.16107    -0.07970    -0.09558    -0.03561     0.13573     0.23608
 PX  C  16   0.01937    -0.00817    -0.00903    -0.00163     0.00444     0.00017
 PY  C  16   0.07256    -0.03477    -0.04259     0.01997    -0.01373     0.01444
 PZ  C  16   0.03044    -0.00358     0.00537    -0.05995     0.07369    -0.02654
  
  S  C  17   0.18985    -0.05110    -0.02730    -0.17620     0.22728     0.08385
 PX  C  17  -0.01002     0.01056     0.01694    -0.01194    -0.00383    -0.02452
 PY  C  17  -0.02201     0.02601     0.04177    -0.00832    -0.04900    -0.06500
 PZ  C  17  -0.04167     0.04366     0.07264    -0.10578     0.08157    -0.07336
  
  S  C  18   0.18672    -0.05104    -0.02978    -0.17787     0.22704    -0.05955
 PX  C  18  -0.00414     0.00528     0.00842     0.00021    -0.01406     0.00125
 PY  C  18  -0.03342     0.03766     0.06155    -0.03748    -0.02372     0.03597
 PZ  C  18   0.03186    -0.03527    -0.06116     0.09836    -0.09131    -0.05037
  
  S  C  19   0.02734     0.01240     0.03019    -0.01160    -0.04038     0.08983
 PX  C  19  -0.02340     0.00675     0.00381     0.02555    -0.03128     0.01558
 PY  C  19  -0.13661     0.05800     0.06254     0.05550    -0.08528     0.08942
 PZ  C  19   0.07017    -0.06885    -0.11251     0.14070    -0.10764     0.04587
  
  S  C  20   0.08942    -0.06412    -0.10064     0.17610    -0.19873     0.14808
 PX  C  20  -0.01685     0.00881     0.01154    -0.00700     0.00531     0.00363
 PY  C  20  -0.07654     0.03891     0.05049    -0.02560     0.02360     0.05002
 PZ  C  20   0.00475    -0.00746    -0.01245     0.01136    -0.00871    -0.01764
  
  S  C  21   0.10924    -0.07697    -0.11776     0.16789    -0.18574     0.03072
 PX  C  21  -0.00337     0.00214     0.00288     0.00119    -0.00429     0.01487
 PY  C  21   0.01604    -0.00843    -0.01193     0.02225    -0.02785     0.05677
 PZ  C  21  -0.06954     0.03851     0.05245    -0.03520     0.02134     0.02208
  
  S  C  22   0.06963    -0.05231    -0.07941     0.07224    -0.04500    -0.10784
 PX  C  22   0.01299    -0.00769    -0.01116     0.01644    -0.02147     0.00861
 PY  C  22   0.08433    -0.04643    -0.06399     0.06140    -0.06444     0.00824
 PZ  C  22  -0.07682     0.03691     0.04535     0.01291    -0.05450     0.06962
  
  S  C  23   0.15783    -0.07963    -0.09879    -0.03863     0.13528    -0.15659
 PX  C  23   0.01727    -0.00881    -0.01148     0.00651    -0.00566    -0.00700
 PY  C  23   0.07638    -0.03433    -0.04076     0.00088     0.00808    -0.01253
 PZ  C  23  -0.01101    -0.00549    -0.01664     0.06229    -0.07455    -0.03559
  
  S  C  24  -0.14157     0.06479     0.08089    -0.03565     0.01609     0.01510
 PX  C  24   0.00436    -0.00318    -0.00504     0.00976    -0.01364     0.00283
 PY  C  24   0.02807    -0.01902    -0.02888     0.04031    -0.04593    -0.01287
 PZ  C  24  -0.02583     0.01515     0.02085    -0.00201    -0.02229     0.06206
  
  S  C  25  -0.10403     0.05256     0.07041    -0.07087     0.08552    -0.02116
 PX  C  25  -0.00911     0.00425     0.00538    -0.00304     0.00222    -0.00010
 PY  C  25  -0.02546     0.01121     0.01382    -0.00923     0.01069    -0.01049
 PZ  C  25  -0.02959     0.01546     0.02053    -0.00834    -0.00326     0.02536
  
  S  C  26  -0.10700     0.05152     0.06582    -0.02268    -0.01035     0.06562
 PX  C  26   0.03642    -0.01756    -0.02253     0.01051    -0.00323    -0.01160
 PY  C  26   0.00216    -0.00321    -0.00596     0.01495    -0.02036     0.00090
 PZ  C  26   0.01334    -0.00548    -0.00642     0.00344    -0.00528     0.01141
  
  S  C  27  -0.10690     0.05146     0.06575    -0.02285    -0.00977     0.06557
 PX  C  27  -0.02830     0.01282     0.01571    -0.00165    -0.00752     0.01256
 PY  C  27   0.01806    -0.01067    -0.01534     0.01789    -0.01919    -0.00499
 PZ  C  27   0.01950    -0.00836    -0.01004     0.00459    -0.00493     0.00909
  
  S  C  28  -0.14528     0.06484     0.07869    -0.03672     0.01602    -0.01920
 PX  C  28   0.00783    -0.00508    -0.00742     0.00986    -0.01012     0.00248
 PY  C  28   0.02028    -0.01402    -0.02131     0.03893    -0.05096    -0.02815
 PZ  C  28   0.03289    -0.01949    -0.02669     0.01324     0.00967     0.08915
  
  S  C  29  -0.10977     0.05153     0.06389    -0.02346    -0.01130    -0.09961
 PX  C  29   0.03489    -0.01652    -0.02065     0.01006    -0.00212     0.01766
 PY  C  29   0.00832    -0.00571    -0.00869     0.01613    -0.02119    -0.01270
 PZ  C  29  -0.01743     0.00665     0.00720    -0.00017    -0.00075     0.01103
  
  S  C  30  -0.10694     0.05262     0.06854    -0.07193     0.08546     0.06313
 PX  C  30  -0.00437     0.00175     0.00202    -0.00145     0.00215     0.00459
 PY  C  30  -0.03429     0.01543     0.01892    -0.01165     0.00948     0.00505
 PZ  C  30   0.02229    -0.01192    -0.01564     0.00601     0.00600     0.03914
  
  S  C  31  -0.10962     0.05152     0.06396    -0.02454    -0.00910    -0.09412
 PX  C  31  -0.03196     0.01410     0.01678    -0.00286    -0.00643    -0.01850
 PY  C  31   0.02178    -0.01184    -0.01616     0.01858    -0.02015    -0.00534
 PZ  C  31  -0.00949     0.00302     0.00278     0.00108     0.00029     0.01637
  
  S  C  32   0.02357     0.13600    -0.03697     0.02276    -0.02228     0.00896
 PX  C  32   0.07214     0.38887    -0.18123     0.09192     0.11087    -0.00487
 PY  C  32  -0.11925    -0.09782    -0.11437     0.01172     0.11331    -0.01333
 PZ  C  32  -0.01668    -0.01740    -0.01366    -0.00063     0.01311    -0.00003
  
  S  O  33   0.05795     0.52911    -0.28583     0.14748     0.17716    -0.00438
 PX  O  33  -0.00258    -0.12840     0.08456    -0.03427    -0.04599     0.00070
 PY  O  33  -0.03694    -0.10447     0.01699    -0.01360     0.00913    -0.00195
 PZ  O  33  -0.00482    -0.01233     0.00123    -0.00169     0.00151     0.00008
  
  S  O  34  -0.21074    -0.48582     0.04767    -0.10979    -0.03499    -0.00562
 PX  O  34  -0.04903    -0.06647    -0.02254    -0.01250     0.01180    -0.00104
 PY  O  34  -0.01727     0.00639    -0.04359    -0.00844     0.02890    -0.00516
 PZ  O  34  -0.00153     0.00240    -0.00604    -0.00132     0.00355    -0.00028
  
  S  H  35   0.09668     0.07997     0.04608    -0.07731    -0.09163    -0.03092
  
  S  H  36   0.02548    -0.01223    -0.02717    -0.05246     0.01349    -0.14822
  
  S  H  37  -0.04754    -0.00902    -0.03885     0.04066    -0.00258    -0.16196
  
  S  H  38  -0.04176    -0.00944    -0.02445     0.05478    -0.00162     0.18066
  
  S  H  39   0.05411    -0.01347     0.03175    -0.01509     0.01376     0.12981
  
  S  H  40   0.00527    -0.01488    -0.03086     0.07679    -0.08687    -0.11335
  
  S  H  41   0.01529    -0.01620    -0.02796     0.06364    -0.08142    -0.05955
  
  S  H  42   0.04278    -0.02054    -0.02299    -0.03722     0.08666     0.10596
  
  S  H  43   0.00480    -0.01490    -0.02959     0.07915    -0.08666     0.10144
  
  S  H  44   0.01472    -0.01620    -0.02839     0.06355    -0.08139     0.03364
  
  S  H  45   0.04233    -0.02053    -0.02365    -0.03808     0.08655    -0.05891
  
  S  H  46  -0.03708     0.01863     0.02514    -0.03093     0.04274    -0.01928
  
  S  H  47  -0.03715     0.01867     0.02519    -0.03089     0.04260    -0.01919
  
  S  H  48  -0.04929     0.02581     0.03504    -0.03295     0.03503     0.00454
  
  S  H  49  -0.03955     0.01801     0.02204     0.00133    -0.01991     0.03536
  
  S  H  50  -0.04946     0.02511     0.03313    -0.01714     0.00296     0.03552
  
  S  H  51  -0.03941     0.01873     0.02382    -0.00888    -0.00180     0.02042
  
  S  H  52  -0.03941     0.01874     0.02384    -0.00909    -0.00133     0.02042
  
  S  H  53  -0.04942     0.02509     0.03310    -0.01715     0.00307     0.03556
  
  S  H  54  -0.03944     0.01794     0.02195     0.00127    -0.01963     0.03525
  
  S  H  55  -0.04051     0.01798     0.02130     0.00113    -0.02037    -0.05783
  
  S  H  56  -0.04045     0.01874     0.02312    -0.00903    -0.00233    -0.03156
  
  S  H  57  -0.05075     0.02512     0.03218    -0.01767     0.00259    -0.04979
  
  S  H  58  -0.03822     0.01869     0.02454    -0.03137     0.04290     0.04383
  
  S  H  59  -0.05064     0.02583     0.03410    -0.03360     0.03498     0.00873
  
  S  H  60  -0.03817     0.01865     0.02447    -0.03108     0.04242     0.04314
  
  S  H  61  -0.04040     0.01876     0.02321    -0.00978    -0.00088    -0.02827
  
  S  H  62  -0.04042     0.01798     0.02136     0.00058    -0.01931    -0.05526
  
  S  H  63  -0.05069     0.02511     0.03218    -0.01798     0.00329    -0.04779
  
  S  H  64  -0.09400    -0.17734    -0.01311    -0.04230     0.00843    -0.00501




    ROOT NO.   13          14          15          16          17          18

           -33.49201   -33.19035   -31.82198   -31.52928   -31.27930   -31.27818
  
  
  S  N   1  -0.10390     0.01706     0.05268     0.07317     0.00060    -0.00021
 PX  N   1  -0.02832     0.00606     0.01274     0.01509     0.00012    -0.00004
 PY  N   1   0.00227     0.00848     0.00569    -0.01443    -0.00016     0.00012
 PZ  N   1  -0.00276    -0.00168    -0.00134     0.00184     0.00002    -0.00002
  
  S  C   2   0.03197     0.02184    -0.00764    -0.06487    -0.00063     0.00036
 PX  C   2   0.13199    -0.00097    -0.05779    -0.11719    -0.00102     0.00045
 PY  C   2   0.04370     0.01749    -0.00548    -0.07163    -0.00072     0.00044
 PZ  C   2   0.00959    -0.00482    -0.01010    -0.00921    -0.00007     0.00001
  
  S  C   3   0.22336     0.04136    -0.05919    -0.22746    -0.00209     0.00113
 PX  C   3   0.00724     0.00715     0.01701     0.02176     0.00021    -0.00006
 PY  C   3   0.03589     0.01606    -0.01547    -0.11347    -0.00118     0.00069
 PZ  C   3   0.00264    -0.00593    -0.00961    -0.00714    -0.00006    -0.00000
  
  S  C   4   0.03592     0.03547     0.06130     0.08904     0.00090    -0.00031
 PX  C   4  -0.04262     0.01913     0.04300     0.02533     0.00013     0.00008
 PY  C   4   0.13733     0.01636    -0.05599    -0.18070    -0.00168     0.00088
 PZ  C   4   0.01695    -0.01782    -0.02904    -0.01344    -0.00007    -0.00007
  
  S  C   5  -0.18196    -0.02104     0.06728     0.21371     0.00198    -0.00105
 PX  C   5  -0.01513     0.08372     0.10314     0.00759    -0.00015     0.00049
 PY  C   5   0.03352     0.01139     0.02912     0.08115     0.00086    -0.00039
 PZ  C   5   0.01043    -0.08282    -0.08528     0.03689     0.00056    -0.00070
  
  S  C   6  -0.12582     0.18308     0.19769    -0.02523    -0.00089     0.00126
 PX  C   6   0.01509     0.01507     0.02146     0.00459    -0.00007     0.00012
 PY  C   6  -0.06257    -0.04424     0.02725     0.14017     0.00139    -0.00075
 PZ  C   6  -0.04267    -0.03136    -0.00471     0.04745     0.00054    -0.00040
  
  S  C   7   0.09904     0.21038     0.06326    -0.18694    -0.00193     0.00141
 PX  C   7  -0.05383     0.01990     0.05116     0.01016    -0.00037     0.00034
 PY  C   7  -0.09799     0.02081     0.06451    -0.02745    -0.00060     0.00065
 PZ  C   7   0.01574    -0.01022    -0.00488    -0.03356    -0.00009    -0.00004
  
  S  C   8   0.24210     0.04603    -0.01613    -0.10816    -0.00010     0.00006
 PX  C   8  -0.00718     0.07219     0.02160    -0.04921    -0.00087     0.00026
 PY  C   8  -0.06317    -0.03272    -0.05717    -0.09846    -0.00126     0.00069
 PZ  C   8  -0.02589    -0.08581     0.02197    -0.00342    -0.00067     0.00017
  
  S  C   9   0.06834    -0.19682    -0.14292    -0.05928    -0.00045    -0.00006
 PX  C   9   0.00682     0.00655    -0.00182    -0.03197    -0.00030    -0.00001
 PY  C   9  -0.08648    -0.07115    -0.09931     0.02515     0.00035    -0.00067
 PZ  C   9  -0.04555    -0.03017    -0.00755     0.04262     0.00003    -0.00007
  
  S  C  10  -0.10656    -0.23340    -0.19180     0.11080     0.00129    -0.00154
 PX  C  10  -0.03877     0.02394     0.03651     0.03407     0.00030    -0.00013
 PY  C  10  -0.03282     0.04149     0.04892     0.09310     0.00095    -0.00045
 PZ  C  10   0.02363    -0.00904    -0.01176     0.00111    -0.00005    -0.00000
  
  S  N  11   0.05705     0.02219     0.04020     0.08244     0.00221    -0.00104
 PX  N  11   0.05071     0.02908     0.01836    -0.00927    -0.00117    -0.00051
 PY  N  11   0.20882     0.04630    -0.00861     0.00354     0.00080    -0.00018
 PZ  N  11   0.00086    -0.02438     0.17435    -0.04081    -0.00204     0.00086
  
  S  C  12  -0.07775     0.00167    -0.20925     0.13001     0.00182    -0.00083
 PX  C  12   0.01544     0.00684    -0.00363     0.01025    -0.00290     0.00041
 PY  C  12   0.07409    -0.00780    -0.04567     0.09429     0.00256    -0.00091
 PZ  C  12  -0.04814     0.01317     0.03692    -0.06577     0.00112    -0.00029
  
  S  C  13  -0.01736    -0.11091    -0.18234     0.20040     0.00082    -0.00052
 PX  C  13   0.01124     0.01699    -0.01281     0.00282    -0.00807     0.00246
 PY  C  13   0.02965     0.02254    -0.01871    -0.00032     0.00233    -0.00075
 PZ  C  13   0.02006     0.07136    -0.08349     0.04611     0.00209    -0.00073
  
  S  C  14  -0.06427    -0.21728     0.08495    -0.01965    -0.00088     0.00028
 PX  C  14   0.00098     0.00086    -0.03116     0.02996    -0.03768     0.01188
 PY  C  14  -0.00451    -0.01921    -0.11538     0.09628     0.00797    -0.00266
 PZ  C  14   0.01541     0.04186    -0.05183     0.08571     0.00440    -0.00141
  
  S  C  15   0.04423     0.03586     0.22638    -0.08246     0.00042     0.00014
 PX  C  15  -0.00751    -0.01678     0.00055    -0.00312    -0.09104     0.02879
 PY  C  15  -0.06429    -0.14236     0.01101    -0.04288     0.01893    -0.00603
 PZ  C  15   0.06448     0.13675    -0.00377     0.05294     0.00905    -0.00281
  
  S  C  16   0.16202     0.25658     0.12000    -0.05834    -0.00095     0.00044
 PX  C  16  -0.00787    -0.00696    -0.00647    -0.01242    -0.02420     0.00741
 PY  C  16  -0.03331    -0.02339     0.00806    -0.03185     0.00514    -0.00152
 PZ  C  16  -0.00351    -0.02536    -0.07722    -0.05582     0.00118    -0.00052
  
  S  C  17  -0.01772     0.07981    -0.05636    -0.12962    -0.00161     0.00054
 PX  C  17  -0.03399    -0.01938    -0.01699     0.00872    -0.00605     0.00079
 PY  C  17  -0.12593    -0.05496    -0.06223     0.06333     0.00226    -0.00040
 PZ  C  17  -0.05210    -0.08705    -0.03248    -0.05757     0.00078    -0.00013
  
  S  C  18   0.04016    -0.09398    -0.02905    -0.13679    -0.00087     0.00063
 PX  C  18  -0.03660    -0.00007     0.01730     0.00731    -0.00309    -0.00542
 PY  C  18  -0.17821     0.01140     0.05815     0.00618    -0.00023     0.00194
 PZ  C  18   0.05797    -0.04592     0.03113     0.06694     0.00084     0.00063
  
  S  C  19  -0.12341    -0.03938     0.23066     0.01013    -0.00293     0.00142
 PX  C  19   0.00467     0.01659     0.03182     0.01542    -0.00170    -0.00309
 PY  C  19   0.01669     0.02683     0.08039     0.04702     0.00024     0.00031
 PZ  C  19   0.03644     0.04121     0.08588     0.04645    -0.00167     0.00096
  
  S  C  20  -0.12835     0.09167     0.24070     0.07511    -0.00456     0.00090
 PX  C  20   0.00292     0.00200     0.00317    -0.00117    -0.00274    -0.00827
 PY  C  20   0.02930    -0.03022     0.04974    -0.00356     0.00010     0.00206
 PZ  C  20  -0.02196     0.05404    -0.09046    -0.00350     0.00101     0.00009
  
  S  C  21  -0.15109     0.17751    -0.09325     0.01606     0.00058    -0.00121
 PX  C  21  -0.01173     0.00450     0.03287     0.00431    -0.01264    -0.03735
 PY  C  21  -0.03074     0.00192     0.15417     0.03424    -0.00024     0.00977
 PZ  C  21  -0.03758     0.03133    -0.04657    -0.03765     0.00160     0.00315
  
  S  C  22   0.10548     0.00025    -0.21009     0.04488     0.00494    -0.00118
 PX  C  22  -0.03593     0.02967    -0.01288    -0.01113    -0.02871    -0.09019
 PY  C  22  -0.07876     0.07019    -0.03047    -0.02319     0.00684     0.02220
 PZ  C  22  -0.16237     0.11617    -0.04868    -0.05122     0.00319     0.00956
  
  S  C  23   0.31725    -0.15927    -0.09823     0.01335     0.00239    -0.00142
 PX  C  23  -0.00746     0.00232    -0.00829    -0.00424    -0.00766    -0.02362
 PY  C  23  -0.03651     0.01016    -0.01953    -0.05007     0.00168     0.00650
 PZ  C  23   0.01462    -0.00866    -0.03481     0.07910     0.00251     0.00195
  
  S  C  24  -0.01657    -0.00463     0.00031    -0.00077     0.00033     0.00024
 PX  C  24  -0.02996     0.03171    -0.04852    -0.02653    -0.09262    -0.29430
 PY  C  24  -0.05855     0.08793    -0.18642    -0.06034     0.02649     0.07297
 PZ  C  24  -0.15122     0.09254    -0.02107    -0.10747     0.00841     0.03027
  
  S  C  25   0.19681    -0.20324     0.30834     0.19758    -0.00510    -0.00315
 PX  C  25   0.00074    -0.00101    -0.00357    -0.00207    -0.03494    -0.11047
 PY  C  25   0.02509    -0.01404    -0.02099     0.00460     0.00934     0.02711
 PZ  C  25  -0.05195     0.02057     0.01906    -0.02772     0.00272     0.01124
  
  S  C  26  -0.15516     0.09079    -0.03609    -0.12099    -0.15075    -0.47280
 PX  C  26   0.01744    -0.00352    -0.01156     0.00461    -0.01690    -0.05421
 PY  C  26  -0.03488     0.04237    -0.07413    -0.02733     0.00696     0.01797
 PZ  C  26  -0.03039     0.02078    -0.00595    -0.02905     0.01232     0.03988
  
  S  C  27  -0.15240     0.08745    -0.03384    -0.11691     0.15066     0.47779
 PX  C  27  -0.03686     0.02652    -0.02531    -0.02226    -0.01937    -0.06194
 PY  C  27  -0.02132     0.03470    -0.07052    -0.02068     0.00474     0.01093
 PZ  C  27  -0.02554     0.01830    -0.00477    -0.02681    -0.00915    -0.02775
  
  S  C  28  -0.01067    -0.00090    -0.00160    -0.00358     0.00040    -0.00011
 PX  C  28  -0.00500    -0.02053     0.03169    -0.03086    -0.29602     0.09390
 PY  C  28  -0.05431    -0.14839     0.11910    -0.17369     0.06456    -0.02044
 PZ  C  28   0.06624     0.11293     0.08284     0.04919     0.03240    -0.01012
  
  S  C  29  -0.08251    -0.14972    -0.04451    -0.11389    -0.47043     0.14907
 PX  C  29   0.01165     0.01472     0.01507     0.00196    -0.05970     0.01895
 PY  C  29  -0.02135    -0.06062     0.04717    -0.06700     0.02675    -0.00848
 PZ  C  29   0.00745     0.01263     0.02449     0.00570    -0.02514     0.00801
  
  S  C  30   0.10494     0.27547    -0.16776     0.32471    -0.00999     0.00319
 PX  C  30   0.00344     0.00552     0.00660    -0.00268    -0.11123     0.03528
 PY  C  30   0.00395     0.01039     0.01304    -0.01395     0.02302    -0.00728
 PZ  C  30   0.03028     0.04353     0.04148     0.00641     0.01267    -0.00396
  
  S  C  31  -0.07817    -0.14004    -0.03891    -0.10929     0.47991    -0.15234
 PX  C  31  -0.01722    -0.03427     0.00945    -0.02664    -0.05686     0.01804
 PY  C  31  -0.01555    -0.05056     0.04782    -0.06103     0.00004     0.00000
 PZ  C  31   0.01164     0.01996     0.02574     0.00953     0.03781    -0.01194
  
  S  C  32   0.07113     0.01469    -0.02721    -0.11925    -0.00117     0.00064
 PX  C  32  -0.06686    -0.01693     0.01366     0.07875     0.00076    -0.00044
 PY  C  32  -0.13185    -0.02982     0.03341     0.16200     0.00154    -0.00087
 PZ  C  32  -0.01720    -0.00528     0.00291     0.02244     0.00022    -0.00013
  
  S  O  33  -0.08619    -0.02384     0.00752     0.07392     0.00070    -0.00043
 PX  O  33   0.02230     0.00635    -0.00143    -0.01645    -0.00015     0.00009
 PY  O  33  -0.02656    -0.00679     0.00662     0.03842     0.00037    -0.00022
 PZ  O  33  -0.00385    -0.00128     0.00062     0.00573     0.00006    -0.00003
  
  S  O  34  -0.04189    -0.00717     0.02017     0.07176     0.00069    -0.00036
 PX  O  34  -0.01989    -0.00511     0.00369     0.02086     0.00019    -0.00011
 PY  O  34  -0.06028    -0.01403     0.02290     0.10571     0.00105    -0.00058
 PZ  O  34  -0.00800    -0.00220     0.00270     0.01448     0.00014    -0.00008
  
  S  H  35   0.00934     0.02994     0.04713     0.03460     0.00029     0.00001
  
  S  H  36  -0.05576     0.09404     0.11251     0.00739    -0.00031     0.00061
  
  S  H  37   0.05562     0.10324     0.02067    -0.06152    -0.00096     0.00062
  
  S  H  38   0.03204    -0.09016    -0.04017    -0.00675    -0.00023     0.00032
  
  S  H  39  -0.04030    -0.10991    -0.09349     0.07052     0.00079    -0.00084
  
  S  H  40   0.01126    -0.04125    -0.09101     0.08876     0.00068    -0.00033
  
  S  H  41  -0.04512    -0.14092     0.04460    -0.04384    -0.00067     0.00019
  
  S  H  42   0.10742     0.14462     0.03915    -0.00266    -0.00046     0.00014
  
  S  H  43  -0.04933     0.03842     0.11835     0.03243    -0.00239     0.00015
  
  S  H  44  -0.10553     0.11015    -0.06704    -0.01932     0.00004    -0.00172
  
  S  H  45   0.18170    -0.08484    -0.01520     0.01964     0.00054    -0.00124
  
  S  H  46   0.11339    -0.10429     0.14028     0.10328     0.01653     0.05739
  
  S  H  47   0.11281    -0.10373     0.14003     0.10267    -0.02102    -0.06096
  
  S  H  48   0.06200    -0.08198     0.16322     0.07951    -0.00300    -0.00114
  
  S  H  49  -0.10280     0.07459    -0.05882    -0.08106    -0.06580    -0.20797
  
  S  H  50  -0.06847     0.02985     0.01937    -0.05388    -0.06893    -0.21364
  
  S  H  51  -0.04802     0.02761    -0.01187    -0.03985    -0.08485    -0.26678
  
  S  H  52  -0.04625     0.02544    -0.01010    -0.03739     0.08490     0.26858
  
  S  H  53  -0.06771     0.02880     0.01997    -0.05237     0.06722     0.21574
  
  S  H  54  -0.10133     0.07293    -0.05785    -0.07911     0.06710     0.21114
  
  S  H  55  -0.05370    -0.11261     0.00317    -0.09489    -0.20612     0.06531
  
  S  H  56  -0.02610    -0.04670    -0.01509    -0.03778    -0.26588     0.08428
  
  S  H  57  -0.03605    -0.05613    -0.05276    -0.03061    -0.21294     0.06745
  
  S  H  58   0.06109     0.14593    -0.06722     0.15771     0.05460    -0.01728
  
  S  H  59   0.03341     0.10523    -0.10556     0.15440    -0.00553     0.00173
  
  S  H  60   0.06038     0.14458    -0.06763     0.15707    -0.06373     0.02023
  
  S  H  61  -0.02344    -0.04080    -0.01214    -0.03487     0.26932    -0.08546
  
  S  H  62  -0.05175    -0.10812     0.00559    -0.09273     0.21294    -0.06760
  
  S  H  63  -0.03446    -0.05258    -0.05012    -0.02901     0.21628    -0.06869
  
  S  H  64  -0.05139    -0.01119     0.01988     0.08594     0.00084    -0.00046




    ROOT NO.   19          20          21          22          23          24

           -30.70714   -29.27120   -28.95603   -27.51908   -25.93690   -25.57011
  
  
  S  N   1   0.06149    -0.00150     0.04908     0.04533     0.07287     0.10399
 PX  N   1   0.01164    -0.00020     0.00661     0.00063    -0.00228    -0.01078
 PY  N   1  -0.01148    -0.00068    -0.01066     0.02379    -0.00830     0.02251
 PZ  N   1   0.00024     0.00016    -0.00136    -0.00429    -0.00417    -0.00477
  
  S  C   2  -0.05294     0.00002    -0.04524    -0.01941    -0.07479    -0.10897
 PX  C   2  -0.09423     0.00149    -0.07147    -0.05795    -0.10060    -0.15872
 PY  C   2  -0.05946    -0.00124    -0.05138     0.04711    -0.04549     0.02878
 PZ  C   2  -0.01028     0.00049    -0.01114    -0.01332    -0.01753    -0.02051
  
  S  C   3  -0.16563    -0.00056    -0.09513     0.00899    -0.01731    -0.02514
 PX  C   3   0.03445    -0.00119     0.05973     0.04838     0.16295     0.18567
 PY  C   3  -0.11039    -0.00179    -0.11564     0.08862    -0.10329     0.08719
 PZ  C   3  -0.01010     0.00047    -0.01270    -0.01017    -0.01349    -0.00594
  
  S  C   4   0.12618    -0.00214     0.16696     0.05072     0.21238     0.16433
 PX  C   4   0.02449    -0.00280     0.02154     0.10897     0.05627     0.18567
 PY  C   4  -0.14237    -0.00043    -0.07754     0.02090     0.08753     0.08414
 PZ  C   4  -0.01548     0.00162    -0.01065    -0.04737     0.00421    -0.03481
  
  S  C   5   0.15512     0.00052     0.05491    -0.01491    -0.10172    -0.06791
 PX  C   5   0.03403    -0.00529     0.04391     0.16227     0.04197     0.15739
 PY  C   5   0.10653    -0.00019     0.13610    -0.02019     0.08911     0.00201
 PZ  C   5   0.01543     0.00520     0.01054    -0.14969    -0.00347    -0.11521
  
  S  C   6  -0.03187    -0.00805    -0.07832     0.19584    -0.08905     0.06897
 PX  C   6   0.01231    -0.00176     0.02126     0.03622     0.01126     0.03130
 PY  C   6   0.12192    -0.00236     0.07899     0.09157    -0.03057     0.10075
 PZ  C   6   0.03635     0.00113     0.00794     0.00957    -0.01963     0.01301
  
  S  C   7  -0.11701     0.00634    -0.03264    -0.14569     0.05738    -0.13373
 PX  C   7  -0.01667    -0.00547    -0.03975     0.05407    -0.04329    -0.01889
 PY  C   7  -0.06271    -0.00883    -0.10568     0.14468    -0.05513     0.04292
 PZ  C   7   0.00022     0.00266    -0.00313     0.02543     0.02505     0.01278
  
  S  C   8   0.06566    -0.00118     0.15348     0.00243     0.12336     0.00579
 PX  C   8  -0.04985     0.00662    -0.03448    -0.12275     0.00116    -0.11417
 PY  C   8  -0.15916     0.00128    -0.10690     0.01677     0.08253     0.08142
 PZ  C   8  -0.00976    -0.02115    -0.00267     0.21126     0.01428     0.06772
  
  S  C   9  -0.06305    -0.00714     0.00151     0.16549     0.11534     0.23267
 PX  C   9  -0.01658    -0.00117    -0.01444    -0.01261     0.00447    -0.03890
 PY  C   9  -0.05460     0.01079    -0.11660    -0.15227    -0.05644    -0.02713
 PZ  C   9  -0.01040     0.00542    -0.02242    -0.01625    -0.03606     0.00409
  
  S  C  10  -0.00585     0.00962    -0.08511    -0.20818    -0.10191    -0.11867
 PX  C  10   0.03310    -0.00035     0.00863    -0.01413    -0.04054    -0.06878
 PY  C  10   0.09216     0.00275     0.05700    -0.12228    -0.07541    -0.19921
 PZ  C  10  -0.00062     0.00147     0.01350    -0.01316     0.01427     0.01304
  
  S  N  11   0.20925     0.00063    -0.03322    -0.00878    -0.07037    -0.05767
 PX  N  11   0.01989    -0.00278     0.05576    -0.04462    -0.00684    -0.07036
 PY  N  11   0.10173     0.01157     0.24316    -0.03506     0.01539     0.00402
 PZ  N  11   0.01074    -0.09362     0.03705     0.26404    -0.03766    -0.18192
  
  S  C  12  -0.09309     0.15849    -0.04586    -0.09828    -0.09682     0.23167
 PX  C  12   0.02312    -0.01372    -0.00707    -0.05955    -0.00186    -0.01065
 PY  C  12   0.05374    -0.06960     0.03394    -0.14589    -0.05862     0.05253
 PZ  C  12   0.10471     0.01286    -0.14444    -0.06646     0.10771    -0.03895
  
  S  C  13  -0.19558    -0.12220     0.10803     0.02744    -0.03016     0.00227
 PX  C  13   0.00244     0.01401     0.00829    -0.04324    -0.00990     0.01431
 PY  C  13   0.01508    -0.02010     0.02490    -0.09157     0.03417    -0.01837
 PZ  C  13  -0.00060     0.15418     0.01878    -0.12394    -0.15323     0.22039
  
  S  C  14   0.00267    -0.25998    -0.07937     0.10207     0.20571    -0.19022
 PX  C  14  -0.03759    -0.00682     0.02772     0.02252    -0.00527    -0.01886
 PY  C  14  -0.13513    -0.04920     0.10387     0.08282     0.04082    -0.10993
 PZ  C  14  -0.07578     0.03008     0.04457     0.06280    -0.12471     0.05622
  
  S  C  15   0.21826    -0.10767    -0.21605    -0.14485    -0.01427     0.10577
 PX  C  15  -0.00797     0.00320     0.01141     0.03097    -0.00167    -0.02245
 PY  C  15  -0.02788    -0.03215     0.01532     0.10967     0.06899    -0.08993
 PZ  C  15  -0.02079     0.09358     0.07661     0.07217    -0.15635    -0.02487
  
  S  C  16   0.13369     0.13871     0.10832    -0.03496    -0.11343    -0.07222
 PX  C  16  -0.01058     0.02886     0.02122     0.02263    -0.00125    -0.00775
 PY  C  16  -0.01506     0.07835     0.01007     0.06682    -0.04537     0.03161
 PZ  C  16  -0.06826     0.10385     0.18910     0.08617     0.09482    -0.13601
  
  S  C  17  -0.05479     0.19980     0.13313     0.06769     0.12365    -0.07426
 PX  C  17  -0.01908    -0.00724    -0.04634    -0.00907     0.00996     0.02605
 PY  C  17  -0.06946     0.02215    -0.17842     0.00664    -0.03819     0.15019
 PZ  C  17  -0.02981    -0.13374    -0.04175    -0.04984     0.20292    -0.03503
  
  S  C  18  -0.05687    -0.20177     0.12711    -0.06622     0.13974    -0.00334
 PX  C  18  -0.01914    -0.00792    -0.04489    -0.00411    -0.01963     0.00534
 PY  C  18  -0.08278     0.01891    -0.18554     0.02954    -0.00125    -0.00010
 PZ  C  18   0.00909    -0.13414    -0.01026    -0.05513    -0.19328     0.12240
  
  S  C  19  -0.11195    -0.15794    -0.04928     0.10008    -0.15654    -0.08686
 PX  C  19   0.00739     0.01841     0.01137     0.01442    -0.03271    -0.04625
 PY  C  19   0.08375     0.06321     0.00049     0.15804    -0.06184    -0.12238
 PZ  C  19  -0.09577     0.02848     0.14402    -0.03733    -0.11997     0.03080
  
  S  C  20  -0.22010     0.12087     0.10116    -0.03569    -0.03918    -0.05128
 PX  C  20   0.00468     0.01160     0.00539     0.01025     0.01023    -0.02650
 PY  C  20   0.01638    -0.02686     0.03676     0.12308    -0.04139    -0.07638
 PZ  C  20   0.00887     0.15352    -0.01214    -0.09082     0.20108     0.02196
  
  S  C  21   0.00323     0.26094    -0.08088    -0.09219     0.24210    -0.00842
 PX  C  21  -0.03655     0.01387     0.02360    -0.02303     0.01968    -0.00751
 PY  C  21  -0.16850     0.03654     0.10384    -0.10254     0.02407     0.01447
 PZ  C  21   0.04285     0.04178    -0.01220     0.04161     0.12818    -0.07678
  
  S  C  22   0.24388     0.11046    -0.20143     0.15388    -0.04439    -0.03015
 PX  C  22  -0.00704     0.01133     0.00022    -0.02605     0.03000     0.01015
 PY  C  22  -0.03659     0.00293     0.03027    -0.12465     0.05940     0.09254
 PZ  C  22   0.01384     0.09900    -0.06683     0.05111     0.14774    -0.11091
  
  S  C  23   0.14989    -0.13979     0.11330     0.01829    -0.09681     0.04498
 PX  C  23  -0.00184    -0.01660    -0.00370    -0.01509    -0.01119     0.02027
 PY  C  23  -0.03754    -0.10635     0.05797    -0.08851     0.00436     0.07612
 PZ  C  23   0.06913     0.08199    -0.17351     0.07432    -0.12270     0.04142
  
  S  C  24   0.02485     0.02033    -0.06118     0.09583    -0.01627    -0.08698
 PX  C  24   0.03808    -0.01177    -0.00502     0.02178     0.00033    -0.01244
 PY  C  24   0.17335     0.01393    -0.07658     0.12372     0.00665    -0.07386
 PZ  C  24  -0.05057    -0.14500     0.14014    -0.09320    -0.00944     0.05752
  
  S  C  25  -0.22626     0.18877    -0.06495    -0.10352     0.11988     0.02623
 PX  C  25   0.00745    -0.00615    -0.00310     0.01574    -0.01695    -0.00958
 PY  C  25   0.04583    -0.00280    -0.02974     0.07747    -0.05968    -0.04912
 PZ  C  25  -0.04057    -0.05093     0.04209    -0.03546    -0.02111     0.02414
  
  S  C  26  -0.02277    -0.18217     0.14336    -0.05491    -0.07363     0.05826
 PX  C  26   0.01187    -0.00245     0.00707    -0.01143    -0.01138     0.02641
 PY  C  26   0.06629     0.01798    -0.03562     0.05264     0.03071    -0.04760
 PZ  C  26  -0.01574    -0.05594     0.05991    -0.04700    -0.01615     0.04536
  
  S  C  27  -0.02411    -0.17779     0.14228    -0.05688    -0.07138     0.05668
 PX  C  27   0.01749    -0.00045    -0.01158     0.02623     0.02036    -0.03612
 PY  C  27   0.06474     0.01697    -0.03083     0.04367     0.02208    -0.03152
 PZ  C  27  -0.01624    -0.05623     0.06170    -0.05088    -0.01898     0.05089
  
  S  C  28   0.02227    -0.01956    -0.06575    -0.09088     0.02180     0.11517
 PX  C  28   0.04194    -0.00845    -0.02686    -0.03198     0.00919     0.01560
 PY  C  28   0.13701     0.02954    -0.04066    -0.09157     0.02392     0.03599
 PZ  C  28   0.08305    -0.14098    -0.16410    -0.11329     0.04118     0.06677
  
  S  C  29  -0.01301     0.18194     0.14926     0.04504    -0.08974    -0.01826
 PX  C  29   0.01257    -0.00531    -0.00164     0.00408    -0.01633    -0.02251
 PY  C  29   0.05313    -0.00090    -0.01952    -0.03529     0.03126    -0.00211
 PZ  C  29   0.02938    -0.05772    -0.07214    -0.05625     0.04739     0.04973
  
  S  C  30  -0.20364    -0.18821    -0.05714     0.11233     0.09625    -0.07897
 PX  C  30   0.01270    -0.00096    -0.00999    -0.01924    -0.00654     0.01892
 PY  C  30   0.02892     0.01790    -0.01971    -0.06524    -0.03961     0.08589
 PZ  C  30   0.04532    -0.04760    -0.05264    -0.05271     0.01572     0.00773
  
  S  C  31  -0.02801     0.17453     0.14694     0.04670    -0.08551    -0.02081
 PX  C  31   0.01774    -0.00712    -0.02169    -0.03016     0.03566     0.03149
 PY  C  31   0.05225     0.00033    -0.01517    -0.02818     0.01962    -0.01188
 PZ  C  31   0.02825    -0.05746    -0.06969    -0.05245     0.04009     0.04399
  
  S  C  32  -0.10596    -0.00097    -0.09808     0.05278    -0.09316     0.04380
 PX  C  32   0.06341     0.00081     0.05410    -0.03569     0.06516    -0.01862
 PY  C  32   0.12562     0.00139     0.08331    -0.05647    -0.00743    -0.08558
 PZ  C  32   0.01720     0.00032     0.01152    -0.01187    -0.00031    -0.01416
  
  S  O  33   0.04723     0.00119     0.01824    -0.04526    -0.03661    -0.09208
 PX  O  33  -0.00907    -0.00021    -0.00077     0.00433     0.00971     0.00310
 PY  O  33   0.03055     0.00054     0.01992    -0.02507    -0.01923    -0.05610
 PZ  O  33   0.00451     0.00011     0.00305    -0.00456    -0.00188    -0.00795
  
  S  O  34   0.06418     0.00012     0.06041    -0.00929     0.07908     0.03059
 PX  O  34   0.01359     0.00019     0.00222    -0.00410    -0.03386    -0.01812
 PY  O  34   0.09804     0.00086     0.10496    -0.04964     0.16896     0.00323
 PZ  O  34   0.01339     0.00015     0.01443    -0.00802     0.02369    -0.00016
  
  S  H  35   0.05641    -0.00272     0.08238     0.09190     0.14821     0.20392
  
  S  H  36   0.00685    -0.00572    -0.01166     0.13466    -0.03597     0.07676
  
  S  H  37  -0.04722     0.00202     0.00785    -0.11884     0.02049    -0.09047
  
  S  H  38  -0.01982    -0.00255     0.02848     0.12463     0.05311     0.13803
  
  S  H  39   0.01371     0.00635    -0.02172    -0.14602    -0.05695    -0.10422
  
  S  H  40  -0.08899    -0.08503     0.06846    -0.03752     0.02296    -0.03858
  
  S  H  41   0.01381    -0.14409    -0.03273     0.03630     0.18126    -0.15642
  
  S  H  42   0.06035     0.02211     0.06999    -0.04263    -0.01198    -0.07777
  
  S  H  43  -0.09716     0.08423     0.06975     0.03199     0.01595    -0.05710
  
  S  H  44   0.01572     0.14451    -0.03196    -0.03093     0.20073    -0.04829
  
  S  H  45   0.06691    -0.02281     0.07393     0.03186    -0.00883    -0.03642
  
  S  H  46  -0.09444     0.10639    -0.04111    -0.04158     0.06798     0.00716
  
  S  H  47  -0.09439     0.10576    -0.04093    -0.04153     0.06769     0.00729
  
  S  H  48  -0.14510     0.06629     0.00454    -0.10399     0.07481     0.05090
  
  S  H  49   0.01715    -0.09205     0.07289    -0.02231    -0.01634     0.02385
  
  S  H  50  -0.05217    -0.11476     0.10822    -0.07342    -0.05442     0.07124
  
  S  H  51  -0.00589    -0.06680     0.05101    -0.01837    -0.03817     0.02795
  
  S  H  52  -0.00711    -0.06448     0.05068    -0.01978    -0.03705     0.02748
  
  S  H  53  -0.05254    -0.11277     0.10779    -0.07455    -0.05289     0.06998
  
  S  H  54   0.01673    -0.09001     0.07210    -0.02280    -0.01564     0.02311
  
  S  H  55   0.01881     0.09169     0.07471     0.01698    -0.02678    -0.03374
  
  S  H  56  -0.00135     0.06707     0.05311     0.01442    -0.04500    -0.00656
  
  S  H  57  -0.04330     0.11424     0.11442     0.06594    -0.07630    -0.03444
  
  S  H  58  -0.08610    -0.10595    -0.03801     0.04627     0.05606    -0.05253
  
  S  H  59  -0.13040    -0.06649     0.01191     0.10712     0.04746    -0.07617
  
  S  H  60  -0.08398    -0.10539    -0.03867     0.04556     0.05566    -0.05120
  
  S  H  61  -0.00999     0.06300     0.05206     0.01558    -0.04289    -0.00814
  
  S  H  62   0.01219     0.08859     0.07343     0.01764    -0.02527    -0.03396
  
  S  H  63  -0.05008     0.11063     0.11331     0.06673    -0.07335    -0.03637
  
  S  H  64   0.07770     0.00057     0.07824    -0.03268     0.11430     0.00528




    ROOT NO.   25          26          27          28          29          30

           -25.37934   -24.90906   -23.78042   -23.58392   -23.28582   -22.66183
  
  
  S  N   1   0.03415    -0.00340     0.08061    -0.04596     0.14635     0.00072
 PX  N   1   0.00087     0.00358    -0.01899     0.00781    -0.04070     0.00300
 PY  N   1  -0.03423     0.01499     0.01527    -0.00693     0.01385    -0.00602
 PZ  N   1  -0.00131    -0.00645     0.00088     0.00515     0.00886    -0.00798
  
  S  C   2  -0.04173     0.02472    -0.11297     0.04846    -0.22632     0.02361
 PX  C   2  -0.03736     0.01632    -0.13473     0.06117    -0.25064     0.02332
 PY  C   2  -0.09702     0.02699     0.02234    -0.00098     0.01612    -0.01901
 PZ  C   2  -0.00822    -0.00988    -0.00416     0.01195     0.00666    -0.01444
  
  S  C   3   0.01791    -0.00158    -0.04401    -0.00700    -0.09105     0.10802
 PX  C   3   0.13858    -0.04627     0.14407    -0.09154     0.27833     0.05822
 PY  C   3  -0.21913     0.02449     0.11893    -0.01268     0.20547    -0.06047
 PZ  C   3  -0.01144    -0.00530     0.02234    -0.00343     0.06129    -0.01930
  
  S  C   4   0.18035    -0.02367     0.06169    -0.04417     0.09371    -0.04150
 PX  C   4  -0.05543    -0.02310     0.12095    -0.01784     0.19379    -0.06631
 PY  C   4   0.14001    -0.06737     0.03491    -0.05876     0.07114     0.19216
 PZ  C   4   0.04575    -0.00676     0.01361    -0.01942     0.06022     0.00813
  
  S  C   5  -0.16868     0.16679     0.02497    -0.05359     0.00883    -0.03716
 PX  C   5  -0.07718    -0.02294     0.01340     0.03834    -0.02798    -0.05495
 PY  C   5   0.10141    -0.06984    -0.04688     0.07865    -0.06395    -0.16228
 PZ  C   5   0.09060    -0.00288     0.02183    -0.02461     0.11822    -0.04829
  
  S  C   6  -0.13249    -0.16731    -0.06284     0.12575    -0.09388     0.04904
 PX  C   6   0.01946    -0.16950    -0.03399     0.12550    -0.00666    -0.08525
 PY  C   6  -0.18977     0.06904     0.02507     0.03487    -0.05265    -0.06676
 PZ  C   6  -0.09019     0.20285     0.05277    -0.11859     0.03047     0.04627
  
  S  C   7   0.24034    -0.12212    -0.03077     0.01275     0.08514    -0.07486
 PX  C   7   0.01614    -0.21261    -0.04554     0.11115     0.00340    -0.02232
 PY  C   7  -0.05815    -0.06258    -0.03793     0.01607    -0.07965     0.15420
 PZ  C   7  -0.01632     0.20901     0.00957    -0.10150     0.00462     0.06699
  
  S  C   8   0.04630     0.24335    -0.01147    -0.02317    -0.04990    -0.08726
 PX  C   8   0.11107     0.02676     0.01869    -0.07523     0.12887    -0.01805
 PY  C   8   0.10069     0.09056     0.02567    -0.15050    -0.06468     0.09836
 PZ  C   8  -0.03101     0.00861    -0.03093     0.00386    -0.11216     0.04785
  
  S  C   9   0.01367    -0.13383    -0.01942     0.08756    -0.13665    -0.02952
 PX  C   9   0.00726     0.17712     0.03035    -0.11750     0.03001     0.07665
 PY  C   9   0.01216    -0.09174     0.06758    -0.00005     0.15738     0.05794
 PZ  C   9   0.00358    -0.23052    -0.01773     0.08929     0.06271    -0.06324
  
  S  C  10   0.01030    -0.15511     0.04415     0.06023     0.18728    -0.02960
 PX  C  10  -0.05536     0.19505     0.02402    -0.12083     0.01853     0.05391
 PY  C  10   0.00541     0.04506    -0.03787     0.01123     0.02741    -0.07252
 PZ  C  10   0.04854    -0.19301    -0.01853     0.11664     0.05014    -0.10312
  
  S  N  11  -0.12365    -0.02076    -0.00313     0.11455     0.08850     0.10792
 PX  N  11   0.02996     0.02249     0.00754     0.00294     0.06791    -0.06692
 PY  N  11  -0.06894     0.08270    -0.03435     0.09173    -0.03008    -0.18673
 PZ  N  11   0.08882     0.01532     0.03219     0.02089    -0.03139    -0.00041
  
  S  C  12  -0.00975    -0.00790    -0.12423    -0.08910    -0.01967     0.00514
 PX  C  12  -0.02007    -0.02811     0.03054     0.00069     0.02944     0.01330
 PY  C  12  -0.12861    -0.09807     0.12446    -0.01312    -0.02641     0.07739
 PZ  C  12  -0.06276    -0.01545    -0.00020     0.05325     0.07874     0.09349
  
  S  C  13  -0.07211    -0.10392     0.19667    -0.11543    -0.15121     0.04403
 PX  C  13  -0.00506    -0.03166     0.02545    -0.02110    -0.01000    -0.00948
 PY  C  13  -0.08191    -0.11604     0.17927    -0.06994    -0.08270     0.03699
 PZ  C  13   0.02533    -0.00437    -0.10248    -0.06921    -0.03002    -0.06123
  
  S  C  14  -0.05235     0.04548    -0.04157     0.09406     0.10477     0.01837
 PX  C  14  -0.00167    -0.01233     0.04160    -0.00947    -0.02008     0.01265
 PY  C  14  -0.06218    -0.07119     0.20822    -0.04653    -0.09215     0.08131
 PZ  C  14   0.08191     0.04246    -0.02444     0.00564    -0.02911    -0.01192
  
  S  C  15   0.01937     0.01117    -0.06330     0.00819     0.01731    -0.00470
 PX  C  15   0.01983     0.02766    -0.03369     0.03879     0.03970    -0.00434
 PY  C  15   0.03964     0.10720    -0.18665     0.12233     0.15181    -0.05802
 PZ  C  15   0.09266     0.04133     0.07883     0.11986     0.04725     0.10238
  
  S  C  16  -0.01836    -0.07188     0.24230     0.05183    -0.01807     0.11915
 PX  C  16   0.01891     0.02209    -0.04273     0.01030     0.01901    -0.03457
 PY  C  16   0.10467     0.10608    -0.18526     0.05604     0.06510    -0.10827
 PZ  C  16  -0.06752    -0.01947    -0.00424    -0.01810     0.01227    -0.07867
  
  S  C  17  -0.00288     0.02614    -0.06873    -0.03486    -0.00787    -0.13420
 PX  C  17   0.01979     0.01148    -0.03057    -0.01420     0.00571    -0.00570
 PY  C  17   0.10396     0.07134    -0.15013    -0.02436     0.00714     0.00499
 PZ  C  17  -0.09562    -0.04465     0.03456    -0.07078    -0.06108    -0.03185
  
  S  C  18  -0.03940     0.02492     0.05226     0.01009    -0.07755    -0.12634
 PX  C  18   0.04897     0.02119     0.03403     0.00953     0.00018    -0.00098
 PY  C  18   0.15617     0.06077     0.12072     0.01410    -0.04417    -0.01129
 PZ  C  18   0.09389     0.06061     0.04186     0.10169     0.00301     0.03721
  
  S  C  19   0.17652     0.00259     0.14689    -0.04236    -0.02234     0.00157
 PX  C  19   0.00099    -0.01878    -0.01406    -0.03511     0.04395     0.01427
 PY  C  19  -0.05928    -0.09824    -0.07930    -0.05721     0.06187     0.11151
 PZ  C  19   0.04239    -0.00956    -0.01319    -0.08567     0.00197    -0.10085
  
  S  C  20  -0.04137    -0.10272    -0.11587    -0.23952     0.07340    -0.00788
 PX  C  20  -0.02094    -0.02472    -0.03435    -0.05041     0.02432     0.01257
 PY  C  20  -0.00659    -0.11325    -0.08460    -0.16293     0.02307     0.00408
 PZ  C  20  -0.18521    -0.03399    -0.13925    -0.01195     0.04266     0.06853
  
  S  C  21  -0.15493     0.04048     0.00277     0.13810    -0.01475     0.05311
 PX  C  21  -0.03420    -0.01954    -0.04040    -0.04481     0.02378     0.01548
 PY  C  21  -0.09279    -0.05964    -0.14048    -0.15243     0.07534     0.03273
 PZ  C  21  -0.10358    -0.06058    -0.05383    -0.04578     0.00691     0.05136
  
  S  C  22   0.09281     0.01461     0.04890     0.03694    -0.01526     0.00263
 PX  C  22  -0.01039     0.02662     0.03080     0.06072    -0.01695    -0.00461
 PY  C  22  -0.03603     0.11002     0.07290     0.25583    -0.04546     0.02046
 PZ  C  22  -0.01187    -0.00806     0.12913    -0.01565    -0.08024    -0.10607
  
  S  C  23  -0.09648    -0.07786    -0.21165    -0.06869     0.09818     0.11892
 PX  C  23   0.02473     0.02794     0.03110     0.03909    -0.01385    -0.02285
 PY  C  23   0.04010     0.09526     0.11925     0.15074    -0.07978    -0.11340
 PZ  C  23   0.14734     0.04895     0.02367     0.04063     0.01659     0.04022
  
  S  C  24   0.08500    -0.04185     0.08928    -0.18100    -0.04757    -0.20366
 PX  C  24   0.00269    -0.00631     0.00525    -0.00311    -0.00366     0.00138
 PY  C  24   0.02277    -0.03801     0.01597    -0.04104    -0.00914     0.01761
 PZ  C  24  -0.03295     0.03082     0.01168     0.07124    -0.01664    -0.03014
  
  S  C  25  -0.03966     0.06656     0.05457     0.14231    -0.03462     0.02377
 PX  C  25   0.01572    -0.01202    -0.00009    -0.04590     0.00225    -0.03004
 PY  C  25   0.05218    -0.05860    -0.02069    -0.18720     0.02062    -0.07846
 PZ  C  25   0.02759     0.02376     0.04920    -0.00112    -0.02911    -0.10962
  
  S  C  26  -0.01319     0.00101    -0.06227     0.02109     0.03610     0.07027
 PX  C  26  -0.02629     0.00179    -0.06884     0.05247     0.04366     0.14332
 PY  C  26  -0.00142    -0.02032     0.02139    -0.02490    -0.01610    -0.01017
 PZ  C  26  -0.03330     0.01240    -0.04895     0.06126     0.02533     0.07844
  
  S  C  27  -0.01444     0.00154    -0.06207     0.02116     0.03728     0.07080
 PX  C  27   0.01675    -0.00888     0.06092    -0.04612    -0.04158    -0.11574
 PY  C  27  -0.01133    -0.01776    -0.01022    -0.00035     0.00398     0.05271
 PZ  C  27  -0.03744     0.01373    -0.06098     0.07074     0.03438     0.10335
  
  S  C  28  -0.03368    -0.04855    -0.04013    -0.17989    -0.14494    -0.14612
 PX  C  28  -0.01164    -0.01073     0.00063    -0.01137    -0.00402     0.00197
 PY  C  28  -0.03597    -0.02993    -0.00917    -0.02579     0.00160    -0.00451
 PZ  C  28  -0.03936    -0.04292     0.03412    -0.05205    -0.04247     0.03886
  
  S  C  29   0.03062     0.00319     0.05996     0.04876     0.01816     0.06543
 PX  C  29   0.00611     0.00200     0.05326     0.06566     0.04491     0.10752
 PY  C  29  -0.02704    -0.01643     0.00197    -0.00577     0.01145     0.00779
 PZ  C  29  -0.02921    -0.02130    -0.04405    -0.08642    -0.05513    -0.07953
  
  S  C  30   0.01550     0.06860    -0.10056     0.07583     0.09362    -0.00991
 PX  C  30  -0.00622    -0.01465     0.01837    -0.02693    -0.02896    -0.00258
 PY  C  30  -0.01410    -0.05375     0.05816    -0.12891    -0.13942    -0.04893
 PZ  C  30  -0.03387    -0.03847     0.07350    -0.00785    -0.01106     0.07726
  
  S  C  31   0.03145     0.00456     0.05566     0.04933     0.02103     0.06220
 PX  C  31  -0.02275    -0.01346    -0.05433    -0.08069    -0.05007    -0.10878
 PY  C  31  -0.02075    -0.01279     0.02281     0.02359     0.03007     0.05090
 PZ  C  31  -0.02648    -0.02032    -0.02770    -0.06937    -0.04631    -0.05023
  
  S  C  32  -0.17808     0.02654     0.09770    -0.00453     0.18753    -0.11356
 PX  C  32   0.12668    -0.02302    -0.04770    -0.01425    -0.08746     0.12268
 PY  C  32   0.01794     0.01464    -0.06460     0.04642    -0.10735    -0.12351
 PZ  C  32   0.00670    -0.00042    -0.00496     0.00509    -0.00087    -0.02117
  
  S  O  33   0.00010     0.01351    -0.08271     0.03571    -0.15754     0.00182
 PX  O  33   0.01527    -0.00359    -0.01554     0.00126    -0.03922     0.03080
 PY  O  33  -0.00346     0.01149    -0.05107     0.03031    -0.09548    -0.05070
 PZ  O  33   0.00142     0.00055    -0.00524     0.00346    -0.00719    -0.00836
  
  S  O  34   0.10723    -0.02473    -0.00403    -0.02189    -0.00924     0.07924
 PX  O  34  -0.05654     0.01558     0.01202     0.02107     0.03353    -0.12514
 PY  O  34   0.29416    -0.06037    -0.09072    -0.04439    -0.17843     0.30802
 PZ  O  34   0.04226    -0.00944    -0.01103    -0.00664    -0.01915     0.04153
  
  S  H  35   0.07319    -0.03896     0.10984    -0.03829     0.17829    -0.03531
  
  S  H  36  -0.07363    -0.21369    -0.05646     0.17241    -0.07347    -0.05100
  
  S  H  37   0.14742    -0.20255    -0.01190     0.07516     0.06736    -0.12774
  
  S  H  38   0.00019    -0.21194    -0.05337     0.12125    -0.10155    -0.08772
  
  S  H  39   0.05007    -0.20679    -0.01105     0.12445     0.11530    -0.10288
  
  S  H  40  -0.08021    -0.13234     0.22781    -0.09265    -0.12339     0.04579
  
  S  H  41  -0.08718    -0.01876     0.04684     0.03693     0.05189     0.04070
  
  S  H  42  -0.08920    -0.10766     0.23553    -0.01219    -0.04331     0.13178
  
  S  H  43  -0.07682    -0.13355    -0.15473    -0.21934     0.06102     0.01552
  
  S  H  44  -0.15209    -0.02260    -0.04821     0.03126     0.00436     0.06994
  
  S  H  45  -0.12216    -0.11106    -0.17792    -0.13199     0.09163     0.12782
  
  S  H  46  -0.03696     0.02404     0.00129     0.07996    -0.00274     0.06855
  
  S  H  47  -0.03660     0.02420     0.00173     0.08014    -0.00274     0.06806
  
  S  H  48  -0.03564     0.07169     0.05258     0.16784    -0.03686     0.01107
  
  S  H  49  -0.03315    -0.00484    -0.05214     0.03628     0.02648     0.09166
  
  S  H  50  -0.01887     0.01878    -0.05615     0.05294     0.03312     0.06550
  
  S  H  51  -0.00568    -0.00164    -0.04833     0.01416     0.03200     0.07857
  
  S  H  52  -0.00644    -0.00127    -0.04841     0.01441     0.03252     0.07886
  
  S  H  53  -0.01988     0.01912    -0.05610     0.05286     0.03446     0.06624
  
  S  H  54  -0.03316    -0.00459    -0.05155     0.03636     0.02677     0.09142
  
  S  H  55   0.00161    -0.00302     0.04721     0.05261     0.04029     0.07092
  
  S  H  56   0.01518    -0.00038     0.04702     0.03749     0.01632     0.07051
  
  S  H  57   0.04107     0.02180     0.04221     0.06986     0.03399     0.06006
  
  S  H  58  -0.00378     0.02559    -0.02299     0.05772     0.06498     0.03952
  
  S  H  59   0.03288     0.07450    -0.10692     0.09522     0.10738    -0.02453
  
  S  H  60  -0.00332     0.02593    -0.02466     0.05707     0.06493     0.03776
  
  S  H  61   0.01556     0.00029     0.04546     0.03802     0.01761     0.06960
  
  S  H  62   0.00240    -0.00186     0.04355     0.05256     0.04165     0.06803
  
  S  H  63   0.04158     0.02263     0.03868     0.07028     0.03677     0.05674
  
  S  H  64   0.19296    -0.03951    -0.05570    -0.02789    -0.10895     0.18680




    ROOT NO.   31          32          33          34          35          36

           -21.91755   -21.17222   -20.68109   -20.04548   -19.25935   -18.93797
  
  
  S  N   1   0.03420     0.02517    -0.01486     0.00669     0.09252    -0.02544
 PX  N   1  -0.01195    -0.01349     0.00575    -0.00582    -0.03870     0.01920
 PY  N   1  -0.00440     0.00041     0.00549     0.00676    -0.06362     0.00194
 PZ  N   1   0.00439     0.00356    -0.00193     0.00271    -0.00166    -0.01547
  
  S  C   2  -0.05780    -0.03434     0.02398    -0.01039    -0.12644     0.04570
 PX  C   2  -0.05536    -0.03280     0.01990    -0.01143    -0.07949     0.03630
 PY  C   2  -0.01121     0.00569     0.01169     0.01564    -0.11926    -0.00525
[...]
    Config     806  -0.04672501  0.00218323
    Config     811   0.04374906  0.00191398
    Config     816  -0.12408898  0.01539808
    Config     821   0.05100442  0.00260145
    Config     828  -0.04542976  0.00206386
    Config     844   0.04280166  0.00183198
    Config     846   0.05691165  0.00323894
    Config     855   0.04456729  0.00198624
    Config     866  -0.04614832  0.00212967
    Config     878  -0.04628938  0.00214271
    Config     941  -0.04683872  0.00219387
    Config     956  -0.04002238  0.00160179
    Config    1210   0.06237607  0.00389077
 Total coeff printed             0.76635376
  

 -------------------------------------------------------------------------------
 INDO CIS EPS=37.5 N**2=1.34
 Dye14
 Calculo de Estados Excitados


     1SCF WAS SPECIFIED, SO BFGS WAS NOT USED                 
     SCF FIELD WAS ACHIEVED                                   


                              INDO CALCULATION
                                                       MOPAC2016 (Version: 21.013L)
                                                       Thu Oct 21 10:30:16 2021
                                                       No. of days remaining =  84




          FINAL HEAT OF FORMATION =    -137623.30735 KCAL/MOL = -575815.91794 KJ/MOL
          VAN DER WAALS AREA      =        481.68 SQUARE ANGSTROMS


          TOTAL ENERGY            =      -6272.97776 EV
          ELECTRONIC ENERGY       =      -6242.93499 EV  POINT GROUP:     C1  
          CORE-CORE REPULSION     =        -30.04277 EV

          DIELECTRIC ENERGY       =         -0.49701 EV
          COSMO AREA              =        481.68 SQUARE ANGSTROMS
          COSMO VOLUME            =        560.77 CUBIC ANGSTROMS

          IONIZATION POTENTIAL    =          7.282189 EV
          HOMO LUMO ENERGIES (EV) =         -7.282 -0.823
          NO. OF FILLED LEVELS    =         86
          MOLECULAR WEIGHT        =        450.5792

          MOLECULAR DIMENSIONS (Angstroms)

            Atom       Atom       Distance
            H    64    H    48    16.32376
            H    57    H    54    11.59149
            H    51    H    61     5.86759


          SCF CALCULATIONS        =          2
 
          WALL-CLOCK TIME         =  6 MINUTES AND  2.426 SECONDS
          COMPUTATION TIME        =  6 MINUTES AND  7.524 SECONDS




   ATOM   CHEMICAL          X               Y               Z
  NUMBER   SYMBOL      (ANGSTROMS)     (ANGSTROMS)     (ANGSTROMS)
 
     1       N         -0.40559742  *  -0.44936241  *   0.07916854  *
     2       C          0.73144382  *  -0.25993324  *   0.16845691  *
     3       C          2.12437658  *  -0.00978732  *   0.26413144  *
     4       C          3.04596503  *  -0.98393310  *   0.16767651  *
     5       C          2.69870138  *  -2.38636829  *   0.00659450  *
     6       C          3.36944224  *  -3.14194661  *  -0.95597056  *
     7       C          3.06157702  *  -4.48105033  *  -1.13128840  *
     8       C          2.07485883  *  -5.06737700  *  -0.32857981  *
     9       C          1.40964916  *  -4.31881656  *   0.64807498  *
    10       C          1.72946721  *  -2.97879877  *   0.81291604  *
    11       N          1.75535036  *  -6.42885224  *  -0.50553300  *
    12       C          1.48989540  *  -7.06427512  *  -1.73869832  *
    13       C          1.44941873  *  -6.53985411  *  -3.02509635  *
    14       C          1.14404577  *  -7.41380787  *  -4.05676973  *
    15       C          0.87307744  *  -8.77437858  *  -3.83900143  *
    16       C          0.89104662  *  -9.28121630  *  -2.54506365  *
    17       C          1.19428125  *  -8.42923585  *  -1.49453475  *
    18       C          1.27441502  *  -8.63596016  *  -0.06827446  *
    19       C          1.61922845  *  -7.39194801  *   0.51834658  *
    20       C          1.81288342  *  -7.27448374  *   1.88952783  *
    21       C          1.61980713  *  -8.41240138  *   2.65736496  *
    22       C          1.25478214  *  -9.64781413  *   2.09855532  *
    23       C          1.08953246  *  -9.75880015  *   0.72304170  *
    24       C          1.06042005  * -10.81327724  *   3.03357036  *
    25       C          0.67420998  * -12.10583897  *   2.31178605  *
    26       C          2.36752876  * -11.06966959  *   3.78895200  *
    27       C         -0.05920766  * -10.47330840  *   4.02143451  *
    28       C          0.56039557  *  -9.62998354  *  -5.03918971  *
    29       C          1.74533410  *  -9.58025989  *  -6.00813228  *
    30       C          0.30750105  * -11.09635179  *  -4.68343683  *
    31       C         -0.69850692  *  -9.08620766  *  -5.72035257  *
    32       C          2.55380319  *   1.38487183  *   0.44565752  *
    33       O          3.70670713  *   1.78939995  *   0.48625124  *
    34       O          1.53569137  *   2.25766528  *   0.57761881  *
    35       H          4.12042558  *  -0.74763671  *   0.19987856  *
    36       H          4.14135947  *  -2.67722218  *  -1.57866598  *
    37       H          3.60272969  *  -5.07334534  *  -1.87675813  *
    38       H          0.62492475  *  -4.77071295  *   1.26444709  *
    39       H          1.22011711  *  -2.39757907  *   1.58925121  *
    40       H          1.63031657  *  -5.48114010  *  -3.22148473  *
    41       H          1.11515115  *  -7.00211859  *  -5.07123621  *
    42       H          0.67373279  * -10.32462277  *  -2.30652670  *
    43       H          2.11973979  *  -6.33290587  *   2.34920786  *
    44       H          1.76674636  *  -8.31907068  *   3.73863177  *
    45       H          0.82080019  * -10.69266053  *   0.22455241  *
    46       H         -0.27384570  * -12.01521344  *   1.76260776  *
    47       H          1.44378048  * -12.43689282  *   1.59990101  *
    48       H          0.53559555  * -12.94092018  *   3.01543385  *
    49       H          2.66669093  * -10.23267970  *   4.43470671  *
    50       H          2.29714924  * -11.94795693  *   4.44737121  *
    51       H          3.20563695  * -11.25246279  *   3.10145910  *
    52       H         -0.99846483  * -10.23035755  *   3.50436872  *
    53       H         -0.27638422  * -11.31003517  *   4.70151552  *
    54       H          0.17640771  *  -9.61475710  *   4.66514429  *
    55       H          1.93299331  *  -8.57632298  *  -6.41303913  *
    56       H          2.67855732  *  -9.90537113  *  -5.52660887  *
    57       H          1.59192462  * -10.23254215  *  -6.88040370  *
    58       H         -0.55704048  * -11.22591381  *  -4.01678287  *
    59       H          0.09095608  * -11.70187688  *  -5.57684968  *
    60       H          1.17572485  * -11.56855253  *  -4.20202481  *
    61       H         -1.55425958  *  -9.05737861  *  -5.03081270  *
    62       H         -0.57448229  *  -8.06641409  *  -6.10974491  *
    63       H         -1.00097188  *  -9.70324418  *  -6.57916265  *
    64       H          1.86385007  *   3.16176823  *   0.69074800  *

                             CARTESIAN COORDINATES

   1    N       -0.405597421    -0.449362412     0.079168544
   2    C        0.731443815    -0.259933244     0.168456909
   3    C        2.124376582    -0.009787321     0.264131445
   4    C        3.045965026    -0.983933104     0.167676515
   5    C        2.698701378    -2.386368291     0.006594496
   6    C        3.369442244    -3.141946611    -0.955970559
   7    C        3.061577024    -4.481050332    -1.131288396
   8    C        2.074858827    -5.067377005    -0.328579809
   9    C        1.409649156    -4.318816559     0.648074982
  10    C        1.729467207    -2.978798770     0.812916039
  11    N        1.755350358    -6.428852242    -0.505533004
  12    C        1.489895399    -7.064275123    -1.738698323
  13    C        1.449418733    -6.539854109    -3.025096352
  14    C        1.144045772    -7.413807866    -4.056769731
  15    C        0.873077438    -8.774378576    -3.839001427
  16    C        0.891046625    -9.281216300    -2.545063646
  17    C        1.194281251    -8.429235852    -1.494534750
  18    C        1.274415016    -8.635960163    -0.068274463
  19    C        1.619228449    -7.391948015     0.518346578
  20    C        1.812883421    -7.274483735     1.889527830
  21    C        1.619807128    -8.412401383     2.657364960
  22    C        1.254782135    -9.647814132     2.098555315
  23    C        1.089532462    -9.758800153     0.723041695
  24    C        1.060420046   -10.813277240     3.033570355
  25    C        0.674209977   -12.105838970     2.311786052
  26    C        2.367528760   -11.069669590     3.788952003
  27    C       -0.059207661   -10.473308400     4.021434505
  28    C        0.560395566    -9.629983536    -5.039189712
  29    C        1.745334101    -9.580259891    -6.008132276
  30    C        0.307501050   -11.096351790    -4.683436825
  31    C       -0.698506921    -9.086207662    -5.720352569
  32    C        2.553803187     1.384871830     0.445657520
  33    O        3.706707128     1.789399949     0.486251241
  34    O        1.535691366     2.257665279     0.577618814
  35    H        4.120425579    -0.747636714     0.199878564
  36    H        4.141359475    -2.677222177    -1.578665976
  37    H        3.602729689    -5.073345342    -1.876758129
  38    H        0.624924747    -4.770712954     1.264447089
  39    H        1.220117107    -2.397579067     1.589251207
  40    H        1.630316575    -5.481140103    -3.221484734
  41    H        1.115151148    -7.002118587    -5.071236211
  42    H        0.673732790   -10.324622770    -2.306526698
  43    H        2.119739793    -6.332905871     2.349207857
  44    H        1.766746365    -8.319070678     3.738631766
  45    H        0.820800188   -10.692660530     0.224552407
  46    H       -0.273845702   -12.015213440     1.762607765
  47    H        1.443780484   -12.436892820     1.599901014
  48    H        0.535595551   -12.940920180     3.015433852
  49    H        2.666690927   -10.232679700     4.434706708
  50    H        2.297149244   -11.947956930     4.447371214
  51    H        3.205636951   -11.252462790     3.101459101
  52    H       -0.998464833   -10.230357550     3.504368721
  53    H       -0.276384223   -11.310035170     4.701515517
  54    H        0.176407705    -9.614757099     4.665144289
  55    H        1.932993308    -8.576322977    -6.413039134
  56    H        2.678557319    -9.905371134    -5.526608867
  57    H        1.591924624   -10.232542150    -6.880403696
  58    H       -0.557040484   -11.225913810    -4.016782866
  59    H        0.090956079   -11.701876880    -5.576849683
  60    H        1.175724849   -11.568552530    -4.202024809
  61    H       -1.554259579    -9.057378606    -5.030812698
  62    H       -0.574482294    -8.066414092    -6.109744911
  63    H       -1.000971884    -9.703244176    -6.579162653
  64    H        1.863850072     3.161768226     0.690747999


           Empirical Formula: C30 H30 N2 O2  =    64 atoms



      MOLECULAR POINT GROUP   :   C1  


                  EIGENVALUES  
 -48.65544 -46.83914 -45.20160 -44.97988 -44.01927 -41.03071 -40.54527 -39.64262
 -39.17412 -36.88111 -35.90068 -33.95002 -33.49201 -33.19035 -31.82198 -31.52928
 -31.27930 -31.27818 -30.70714 -29.27120 -28.95603 -27.51908 -25.93690 -25.57011
 -25.37934 -24.90906 -23.78042 -23.58392 -23.28582 -22.66183 -21.91755 -21.17222
 -20.68109 -20.04548 -19.25935 -18.93797 -18.87347 -18.85698 -18.50485 -17.96901
 -17.61078 -17.50391 -17.19135 -16.68385 -16.61046 -16.49110 -16.14173 -16.03876
 -15.92349 -15.60642 -15.56293 -15.50493 -15.18439 -14.77634 -14.54722 -14.40831
 -14.07477 -14.00061 -13.92469 -13.90948 -13.72551 -13.58125 -13.39951 -13.26784
 -13.18478 -13.10429 -13.02280 -12.97345 -12.63139 -12.54615 -12.21867 -12.18451
 -12.09386 -12.01726 -11.84824 -11.44130 -11.32850 -11.02812 -10.90138 -10.01090
  -9.79831  -9.14973  -8.83495  -8.55328  -7.61423  -7.28219  -0.82273   0.19510
   0.61267   0.70213   0.80722   0.90636   1.25797   1.52718   1.66358   2.13686
   2.48643   2.67204   2.76904   2.97188   3.01348   3.12226   3.19262   3.37546
   3.46364   3.57409   3.75733   3.85405   4.03470   4.18527   4.19956   4.28068
   4.43145   4.43288   4.48176   4.52290   4.73727   5.18362   5.33393   5.35428
   5.69332   5.91039   6.09685   6.34177   6.38937   6.43108   6.65983   6.66177
   6.67807   6.67847   6.82632   6.86955   6.90876   6.92377   7.14911   7.17396
   7.19570   7.19599   7.34992   7.39947   7.39981   7.90707   8.58059   8.98433
   9.07020   9.21161   9.48153   9.81170   9.82942  10.01712  10.01718  10.43684
  10.60196  11.01853  11.49263  11.53831  11.91404  11.99546  12.19502  12.42135
  12.75945  12.97669  13.07592  14.14793  14.81237  15.14287


              NET ATOMIC CHARGES AND DIPOLE CONTRIBUTIONS

  ATOM NO.   TYPE          CHARGE      No. of ELECS.   s-Pop       p-Pop       
    1          N          -0.405389        5.4054     1.75349     3.65190
    2          C           0.224327        3.7757     1.14943     2.62624
    3          C           0.018469        3.9815     1.00033     2.98120
    4          C           0.142835        3.8572     1.10606     2.75111
    5          C           0.010843        3.9892     1.03380     2.95536
    6          C           0.000390        3.9996     1.08198     2.91763
    7          C          -0.026089        4.0261     1.08065     2.94544
    8          C           0.111314        3.8887     1.03968     2.84900
    9          C          -0.030150        4.0301     1.08071     2.94944
   10          C          -0.001274        4.0013     1.08328     2.91800
   11          N          -0.136128        5.1361     1.22806     3.90807
   12          C           0.062417        3.9376     1.04841     2.88917
   13          C          -0.040218        4.0402     1.08014     2.96008
   14          C          -0.040710        4.0407     1.08359     2.95712
   15          C           0.011397        3.9886     1.06012     2.92848
   16          C          -0.045270        4.0453     1.08014     2.96513
   17          C          -0.020094        4.0201     1.05222     2.96788
   18          C          -0.020141        4.0201     1.05224     2.96791
   19          C           0.062339        3.9377     1.04844     2.88922
   20          C          -0.040189        4.0402     1.08007     2.96012
   21          C          -0.040622        4.0406     1.08358     2.95705
   22          C           0.011454        3.9885     1.06010     2.92845
   23          C          -0.045052        4.0451     1.08013     2.96492
   24          C           0.040073        3.9599     0.99628     2.96365
   25          C          -0.021620        4.0216     1.06285     2.95877
   26          C          -0.018416        4.0184     1.06192     2.95650
   27          C          -0.018365        4.0184     1.06192     2.95644
   28          C           0.040075        3.9599     0.99627     2.96366
   29          C          -0.018497        4.0185     1.06200     2.95649
   30          C          -0.021628        4.0216     1.06285     2.95877
   31          C          -0.018333        4.0183     1.06185     2.95648
   32          C           0.506045        3.4940     1.04576     2.44820
   33          O          -0.614703        6.6147     1.81656     4.79814
   34          O          -0.308520        6.3085     1.68676     4.62176
   35          H           0.071313        0.9287     0.92869
   36          H           0.034796        0.9652     0.96520
   37          H           0.032302        0.9677     0.96770
   38          H           0.032106        0.9679     0.96789
   39          H           0.034061        0.9659     0.96594
   40          H           0.029632        0.9704     0.97037
   41          H           0.021157        0.9788     0.97884
   42          H           0.025461        0.9745     0.97454
   43          H           0.029358        0.9706     0.97064
   44          H           0.021210        0.9788     0.97879
   45          H           0.025453        0.9745     0.97455
   46          H           0.005054        0.9949     0.99495
   47          H           0.005345        0.9947     0.99466
   48          H           0.001880        0.9981     0.99812
   49          H           0.007076        0.9929     0.99292
   50          H           0.002429        0.9976     0.99757
   51          H           0.005253        0.9947     0.99475
   52          H           0.005034        0.9950     0.99497
   53          H           0.002493        0.9975     0.99751
   54          H           0.007155        0.9928     0.99285
   55          H           0.007114        0.9929     0.99289
   56          H           0.005344        0.9947     0.99466
   57          H           0.002369        0.9976     0.99763
   58          H           0.004998        0.9950     0.99500
   59          H           0.001846        0.9982     0.99815
   60          H           0.005423        0.9946     0.99458
   61          H           0.005023        0.9950     0.99498
   62          H           0.007060        0.9929     0.99294
   63          H           0.002654        0.9973     0.99735
   64          H           0.249033        0.7510     0.75097
 DIPOLE           X         Y         Z       TOTAL
 POINT-CHG.     1.985    -3.355    -0.192     3.903
 HYBRID         1.204     0.936     0.118     1.530
 SUM            3.189    -2.419    -0.075     4.004


          ATOMIC ORBITAL ELECTRON POPULATIONS

     Atom    s        px        py        pz   
    1  N   1.75349   1.23042   1.23569   1.18578
    2  C   1.14943   0.94593   0.80867   0.87164
    3  C   1.00033   0.91294   0.91743   1.15082
    4  C   1.10606   0.98801   1.00942   0.75368
    5  C   1.03380   1.00836   0.94927   0.99772
    6  C   1.08198   0.96122   0.97922   0.97719
    7  C   1.08065   0.98628   0.97718   0.98198
    8  C   1.03968   0.97683   0.88495   0.98723
    9  C   1.08071   0.98292   0.97861   0.98790
   10  C   1.08328   0.96552   0.98136   0.97111
   11  N   1.22806   1.70326   1.09585   1.10897
   12  C   1.04841   1.01197   0.97883   0.89836
   13  C   1.08014   1.03215   0.94966   0.97827
   14  C   1.08359   1.02501   0.97861   0.95349
   15  C   1.06012   0.97598   0.98169   0.97082
   16  C   1.08014   1.03992   0.95007   0.97515
   17  C   1.05222   1.02242   0.98514   0.96032
   18  C   1.05224   1.02399   0.97756   0.96635
   19  C   1.04844   1.01523   0.94708   0.92691
   20  C   1.08007   1.02768   0.96342   0.96902
   21  C   1.08358   1.02594   0.98348   0.94762
   22  C   1.06010   0.97693   0.97316   0.97836
   23  C   1.08013   1.03900   0.95722   0.96870
   24  C   0.99628   0.98798   0.97921   0.99646
   25  C   1.06285   0.98715   0.98209   0.98953
   26  C   1.06192   0.98069   0.99159   0.98421
   27  C   1.06192   0.98433   0.99131   0.98080
   28  C   0.99627   0.98771   0.98332   0.99263
   29  C   1.06200   0.98327   0.99245   0.98077
   30  C   1.06285   0.98750   0.98031   0.99095
   31  C   1.06185   0.98148   0.99004   0.98495
   32  C   1.04576   0.86219   0.92060   0.66541
   33  O   1.81656   1.33687   1.89378   1.56748
   34  O   1.68676   1.49666   1.25022   1.87488
   35  H   0.92869
   36  H   0.96520
   37  H   0.96770
   38  H   0.96789
   39  H   0.96594
   40  H   0.97037
   41  H   0.97884
   42  H   0.97454
   43  H   0.97064
   44  H   0.97879
   45  H   0.97455
   46  H   0.99495
   47  H   0.99466
   48  H   0.99812
   49  H   0.99292
   50  H   0.99757
   51  H   0.99475
   52  H   0.99497
   53  H   0.99751
   54  H   0.99285
   55  H   0.99289
   56  H   0.99466
   57  H   0.99763
   58  H   0.99500
   59  H   0.99815
   60  H   0.99458
   61  H   0.99498
   62  H   0.99294
   63  H   0.99735
   64  H   0.75097

 **********************
 *                    *
 * JOB ENDED NORMALLY *
 *                    *
 **********************



 TOTAL JOB TIME:           362.71 SECONDS

 == MOPAC DONE ==
