 *******************************************************************************
 ** Site#: 4824         For non-commercial use only    Version 21.013L 64BITS **
 *******************************************************************************
 ** Cite this program as: MOPAC2016, Version: 21.013L, James J. P. Stewart,   **
 ** Stewart Computational Chemistry, web: HTTP://OpenMOPAC.net. Days left:  83**
 *******************************************************************************
 **                                                                           **
 **                                MOPAC2016                                  **
 **                                                                           **
 *******************************************************************************

                              INDO CALCULATION RESULTS

 *******************************************************************************
 *  CALCULATION DONE:                                Fri Oct 22 07:13:43 2021  *
 *  INDO       - The INDO Hamiltonian to be used
 *  CIS        - C.I. USES 1 ELECTRON EXCITATIONS ONLY
 *  EPS=  4.81 - USE ANDREAS KLAMT'S COSMO IMPLICIT SOLVATION MODEL
 *  n**2 =  1.400 for COSMO-CI
 *  T=         - A TIME OF 172800.0 SECONDS REQUESTED
 *  DUMP=N     - RESTART FILE WRITTEN EVERY 7200.0 SECONDS REQUESTED
 *******************************************************************************
INDO CIS EPS=4.81 N**2=1.4
 Dye115
 Calculo de Estados Excitados
   ATOM   CHEMICAL          X               Y               Z
  NUMBER   SYMBOL      (ANGSTROMS)     (ANGSTROMS)     (ANGSTROMS)
 
     1       N          0.02280853  *   0.03668439  *  -0.08426057  *
     2       C          1.17819143  *   0.02011029  *  -0.03717173  *
     3       C          2.59460091  *   0.02207332  *   0.00597334  *
     4       C          3.33565600  *  -1.09700477  *  -0.11369504  *
     5       C          2.77039497  *  -2.40851915  *  -0.23716255  *
     6       C          1.63849217  *  -2.88269491  *   0.37090531  *
     7       C          1.38338964  *  -4.24796316  *   0.03283461  *
     8       C          2.33175949  *  -4.75161591  *  -0.81584430  *
     9       S          3.53702538  *  -3.59994179  *  -1.19653259  *
    10       C          2.37534549  *  -6.07199331  *  -1.35703124  *
    11       C          2.65544081  *  -6.41409232  *  -2.65066715  *
    12       C          2.60641648  *  -7.83001103  *  -2.85374448  *
    13       C          2.29163202  *  -8.50142118  *  -1.70611067  *
    14       S          2.05735484  *  -7.44249161  *  -0.37836491  *
    15       C          2.15750474  *  -9.91468044  *  -1.55156802  *
    16       C          1.12180911  * -10.57528229  *  -0.95405162  *
    17       C          1.30802565  * -11.99533590  *  -0.97346594  *
    18       C          2.47655522  * -12.34969493  *  -1.58401338  *
    19       S          3.35942352  * -10.98800292  *  -2.13878568  *
    20       C          2.97007076  * -13.67722881  *  -1.77820475  *
    21       S          2.01504356  * -14.83700707  *  -2.64259995  *
    22       C          3.21860428  * -16.04199166  *  -2.43860545  *
    23       C          4.32687755  * -15.56020729  *  -1.72288088  *
    24       C          4.15603947  * -14.17630434  *  -1.34975115  *
    25       C          5.43661786  * -16.36294747  *  -1.42856541  *
    26       C          5.45744448  * -17.67927119  *  -1.84428773  *
    27       C          4.36853860  * -18.18378959  *  -2.55135357  *
    28       C          3.24593082  * -17.36682897  *  -2.85909386  *
    29       N          2.33304068  * -18.11641395  *  -3.62370119  *
    30       C          2.82663514  * -19.43587769  *  -3.71009727  *
    31       C          4.10211658  * -19.49124990  *  -3.08975358  *
    32       C          4.81934181  * -20.67911407  *  -3.08819038  *
    33       C          4.25254412  * -21.79066344  *  -3.68978162  *
    34       C          2.98520316  * -21.72808172  *  -4.28354500  *
    35       C          2.24923884  * -20.55567621  *  -4.30474954  *
    36       C          0.97811457  * -17.76999507  *  -3.89762467  *
    37       C          0.08030326  * -17.94531868  *  -2.83063635  *
    38       C         -1.27464950  * -17.68880238  *  -2.95786847  *
    39       C         -1.72019693  * -17.31006754  *  -4.23729467  *
    40       C         -0.83593104  * -17.13106875  *  -5.29463099  *
    41       C          0.54195685  * -17.32543886  *  -5.14530994  *
    42       C          1.38643485  * -17.08480212  *  -6.37504951  *
    43       C          1.17838681  * -18.27881667  *  -7.31161931  *
    44       C          2.88172262  * -16.91252202  *  -6.12109786  *
    45       C          0.90991466  * -15.80083973  *  -7.07305853  *
    46       O         -3.07044403  * -17.21041779  *  -4.41096788  *
    47       C         -3.52042956  * -16.26512658  *  -5.35147698  *
    48       C         -2.21230518  * -17.84989612  *  -1.78779492  *
    49       C         -1.44938949  * -18.00404216  *  -0.46556238  *
    50       C         -3.05189259  * -19.10923592  *  -2.00614817  *
    51       C         -3.11259220  * -16.61893492  *  -1.64209021  *
    52       C          3.26516469  *   1.32074463  *   0.15862153  *
    53       O          4.47160225  *   1.52018401  *   0.16009641  *
    54       O          2.41909597  *   2.35870912  *   0.31167107  *
    55       H          4.43540807  *  -1.03556858  *  -0.12560106  *
    56       H          1.00157631  *  -2.32321988  *   1.05393527  *
    57       H          0.52239501  *  -4.79643929  *   0.40827453  *
    58       H          2.87876173  *  -5.71354391  *  -3.45200510  *
    59       H          2.79155086  *  -8.29265890  *  -3.82028497  *
    60       H          0.24588376  * -10.10374608  *  -0.51510134  *
    61       H          0.59118317  * -12.68989148  *  -0.54193721  *
    62       H          4.90764585  * -13.63033330  *  -0.78440686  *
    63       H          6.27421888  * -15.93768416  *  -0.87081656  *
    64       H          6.30936978  * -18.32923128  *  -1.62796146  *
    65       H          5.80531631  * -20.72574752  *  -2.61954501  *
    66       H          4.79901664  * -22.73776376  *  -3.70105153  *
    67       H          2.56719184  * -22.63079526  *  -4.74003844  *
    68       H          1.25708600  * -20.50874487  *  -4.75829090  *
    69       H          0.48284319  * -18.30789257  *  -1.87417234  *
    70       H         -1.21474251  * -16.83511345  *  -6.28093827  *
    71       H          1.50234885  * -19.22355194  *  -6.85155843  *
    72       H          0.12740559  * -18.41353457  *  -7.60358249  *
    73       H          1.75118788  * -18.16981599  *  -8.24399688  *
    74       H          3.39235154  * -17.85181387  *  -5.86786813  *
    75       H          3.40558206  * -16.54353034  *  -7.01767858  *
    76       H          3.08987161  * -16.18415606  *  -5.32540207  *
    77       H          1.47583497  * -15.59324249  *  -7.99254309  *
    78       H         -0.14827616  * -15.84678378  *  -7.37638313  *
    79       H          1.01811198  * -14.92178934  *  -6.42268619  *
    80       H         -3.47631340  * -16.65002844  *  -6.38363477  *
    81       H         -4.57753141  * -16.11186853  *  -5.08372395  *
    82       H         -2.99718230  * -15.29610711  *  -5.30699232  *
    83       H         -0.72332736  * -18.83125029  *  -0.48711782  *
    84       H         -0.89253142  * -17.09316321  *  -0.20179593  *
    85       H         -2.12369618  * -18.21438319  *   0.37749373  *
    86       H         -2.42571728  * -20.01112201  *  -2.06586038  *
    87       H         -3.76659487  * -19.26970891  *  -1.18568733  *
    88       H         -3.64683730  * -19.07987925  *  -2.92865630  *
    89       H         -3.53248736  * -16.52995005  *  -0.62850134  *
    90       H         -2.56585013  * -15.68627336  *  -1.83832973  *
    91       H         -3.98556540  * -16.62967229  *  -2.30844809  *
    92       H          2.90358584  *   3.19181567  *   0.40612968  *
 


          CARTESIAN COORDINATES 

    NO.       ATOM           X           Y           Z

     1         N          0.0228      0.0367     -0.0843
     2         C          1.1782      0.0201     -0.0372
     3         C          2.5946      0.0221      0.0060
     4         C          3.3357     -1.0970     -0.1137
     5         C          2.7704     -2.4085     -0.2372
     6         C          1.6385     -2.8827      0.3709
     7         C          1.3834     -4.2480      0.0328
     8         C          2.3318     -4.7516     -0.8158
     9         S          3.5370     -3.5999     -1.1965
    10         C          2.3753     -6.0720     -1.3570
    11         C          2.6554     -6.4141     -2.6507
    12         C          2.6064     -7.8300     -2.8537
    13         C          2.2916     -8.5014     -1.7061
    14         S          2.0574     -7.4425     -0.3784
    15         C          2.1575     -9.9147     -1.5516
    16         C          1.1218    -10.5753     -0.9541
    17         C          1.3080    -11.9953     -0.9735
    18         C          2.4766    -12.3497     -1.5840
    19         S          3.3594    -10.9880     -2.1388
    20         C          2.9701    -13.6772     -1.7782
    21         S          2.0150    -14.8370     -2.6426
    22         C          3.2186    -16.0420     -2.4386
    23         C          4.3269    -15.5602     -1.7229
    24         C          4.1560    -14.1763     -1.3498
    25         C          5.4366    -16.3629     -1.4286
    26         C          5.4574    -17.6793     -1.8443
    27         C          4.3685    -18.1838     -2.5514
    28         C          3.2459    -17.3668     -2.8591
    29         N          2.3330    -18.1164     -3.6237
    30         C          2.8266    -19.4359     -3.7101
    31         C          4.1021    -19.4912     -3.0898
    32         C          4.8193    -20.6791     -3.0882
    33         C          4.2525    -21.7907     -3.6898
    34         C          2.9852    -21.7281     -4.2835
    35         C          2.2492    -20.5557     -4.3047
    36         C          0.9781    -17.7700     -3.8976
    37         C          0.0803    -17.9453     -2.8306
    38         C         -1.2746    -17.6888     -2.9579
    39         C         -1.7202    -17.3101     -4.2373
    40         C         -0.8359    -17.1311     -5.2946
    41         C          0.5420    -17.3254     -5.1453
    42         C          1.3864    -17.0848     -6.3750
    43         C          1.1784    -18.2788     -7.3116
    44         C          2.8817    -16.9125     -6.1211
    45         C          0.9099    -15.8008     -7.0731
    46         O         -3.0704    -17.2104     -4.4110
    47         C         -3.5204    -16.2651     -5.3515
    48         C         -2.2123    -17.8499     -1.7878
    49         C         -1.4494    -18.0040     -0.4656
    50         C         -3.0519    -19.1092     -2.0061
    51         C         -3.1126    -16.6189     -1.6421
    52         C          3.2652      1.3207      0.1586
    53         O          4.4716      1.5202      0.1601
    54         O          2.4191      2.3587      0.3117
    55         H          4.4354     -1.0356     -0.1256
    56         H          1.0016     -2.3232      1.0539
    57         H          0.5224     -4.7964      0.4083
    58         H          2.8788     -5.7135     -3.4520
    59         H          2.7916     -8.2927     -3.8203
    60         H          0.2459    -10.1037     -0.5151
    61         H          0.5912    -12.6899     -0.5419
    62         H          4.9076    -13.6303     -0.7844
    63         H          6.2742    -15.9377     -0.8708
    64         H          6.3094    -18.3292     -1.6280
    65         H          5.8053    -20.7257     -2.6195
    66         H          4.7990    -22.7378     -3.7011
    67         H          2.5672    -22.6308     -4.7400
    68         H          1.2571    -20.5087     -4.7583
    69         H          0.4828    -18.3079     -1.8742
    70         H         -1.2147    -16.8351     -6.2809
    71         H          1.5023    -19.2236     -6.8516
    72         H          0.1274    -18.4135     -7.6036
    73         H          1.7512    -18.1698     -8.2440
    74         H          3.3924    -17.8518     -5.8679
    75         H          3.4056    -16.5435     -7.0177
    76         H          3.0899    -16.1842     -5.3254
    77         H          1.4758    -15.5932     -7.9925
    78         H         -0.1483    -15.8468     -7.3764
    79         H          1.0181    -14.9218     -6.4227
    80         H         -3.4763    -16.6500     -6.3836
    81         H         -4.5775    -16.1119     -5.0837
    82         H         -2.9972    -15.2961     -5.3070
    83         H         -0.7233    -18.8313     -0.4871
    84         H         -0.8925    -17.0932     -0.2018
    85         H         -2.1237    -18.2144      0.3775
    86         H         -2.4257    -20.0111     -2.0659
    87         H         -3.7666    -19.2697     -1.1857
    88         H         -3.6468    -19.0799     -2.9287
    89         H         -3.5325    -16.5300     -0.6285
    90         H         -2.5659    -15.6863     -1.8383
    91         H         -3.9856    -16.6297     -2.3084
    92         H          2.9036      3.1918      0.4061

           Empirical Formula: C45 H38 N2 O3 S4  =    92 atoms



      MOLECULAR POINT GROUP   :   C1  


      RHF CALCULATION, NO. OF DOUBLY OCCUPIED LEVELS = 135

 WARNING: INDO only performs single-point calculations

 Summary of symmetry occupancy in each shell:

 SHELL     
    1  135
    v  119
 TOTAL 254




    ROOT NO.    1           2           3           4           5           6

           -49.02899   -47.48434   -46.77362   -44.68369   -43.96032   -43.62978
  
  
  S  N   1   0.00000    -0.00000     0.04042    -0.00022     0.00703     0.04027
 PX  N   1   0.00000    -0.00000     0.02494    -0.00012     0.00371     0.02120
 PY  N   1  -0.00000     0.00000     0.00344     0.00005    -0.00122    -0.00651
 PZ  N   1   0.00000    -0.00000     0.00153    -0.00001     0.00023     0.00125
  
  S  C   2   0.00000    -0.00000     0.11510    -0.00040     0.01247     0.07091
 PX  C   2   0.00000    -0.00000     0.05009    -0.00006     0.00207     0.01159
 PY  C   2  -0.00000     0.00000     0.02110     0.00015    -0.00405    -0.02149
 PZ  C   2   0.00000    -0.00000     0.00415     0.00000    -0.00000    -0.00002
  
  S  C   3   0.00000    -0.00000     0.23049    -0.00044     0.01456     0.08361
 PX  C   3  -0.00000    -0.00000     0.03249     0.00005    -0.00107    -0.00535
 PY  C   3  -0.00000     0.00000     0.07625     0.00034    -0.00907    -0.04836
 PZ  C   3  -0.00000     0.00000     0.00883     0.00003    -0.00078    -0.00422
  
  S  C   4   0.00000    -0.00000     0.11782    -0.00091     0.02590     0.14120
 PX  C   4  -0.00000     0.00000    -0.01825     0.00028    -0.00765    -0.04129
 PY  C   4  -0.00000     0.00000     0.04689     0.00030    -0.00709    -0.03518
 PZ  C   4   0.00000    -0.00000     0.00566     0.00001    -0.00016    -0.00059
  
  S  C   5   0.00000    -0.00001     0.05528    -0.00217     0.05430     0.27883
 PX  C   5  -0.00000     0.00000    -0.00363     0.00042    -0.01014    -0.05103
 PY  C   5  -0.00000     0.00000     0.01481     0.00061    -0.01285    -0.05975
 PZ  C   5  -0.00000     0.00000     0.00434    -0.00004     0.00153     0.00922
  
  S  C   6   0.00000    -0.00001     0.03715    -0.00227     0.05530     0.27989
 PX  C   6   0.00000    -0.00000     0.01024    -0.00054     0.01351     0.06896
 PY  C   6  -0.00000     0.00000     0.00598     0.00050    -0.01053    -0.04862
 PZ  C   6  -0.00000     0.00000    -0.00668     0.00058    -0.01377    -0.06855
  
  S  C   7   0.00001    -0.00002     0.02042    -0.00280     0.05995     0.28336
 PX  C   7   0.00000    -0.00000     0.00659    -0.00087     0.01905     0.09084
 PY  C   7  -0.00000     0.00000     0.00659    -0.00012     0.00693     0.04444
 PZ  C   7  -0.00000     0.00000    -0.00232     0.00057    -0.01076    -0.04684
  
  S  C   8   0.00002    -0.00003     0.01773    -0.00410     0.07442     0.31856
 PX  C   8  -0.00000     0.00000    -0.00118     0.00016    -0.00401    -0.02010
 PY  C   8  -0.00001     0.00001     0.00667     0.00043     0.00243     0.04039
 PZ  C   8  -0.00000     0.00000     0.00323     0.00014     0.00257     0.02584
  
  S  S   9   0.00001    -0.00001     0.01993    -0.00208     0.04457     0.21077
 PX  S   9  -0.00000     0.00001    -0.00847     0.00106    -0.02309    -0.11026
 PY  S   9  -0.00000     0.00000     0.00504     0.00037    -0.00394    -0.00823
 PZ  S   9   0.00000    -0.00000     0.00737    -0.00054     0.01362     0.06976
  
  S  C  10   0.00007    -0.00009     0.00641    -0.00719     0.09188     0.29085
 PX  C  10   0.00000    -0.00000    -0.00017    -0.00012     0.00114     0.00176
 PY  C  10  -0.00003     0.00004     0.00212     0.00186    -0.01483    -0.01640
 PZ  C  10  -0.00001     0.00002     0.00068     0.00122    -0.01223    -0.02555
  
  S  C  11   0.00008    -0.00010     0.00325    -0.00724     0.08521     0.24380
 PX  C  11  -0.00001     0.00001    -0.00030     0.00067    -0.00781    -0.02214
 PY  C  11  -0.00003     0.00004     0.00023     0.00208    -0.02022    -0.04419
 PZ  C  11   0.00002    -0.00003     0.00127    -0.00221     0.02690     0.08012
  
  S  C  12   0.00016    -0.00019     0.00188    -0.00930     0.09242     0.22458
 PX  C  12  -0.00002     0.00002    -0.00014     0.00084    -0.00769    -0.01726
 PY  C  12  -0.00004     0.00004     0.00049     0.00018     0.00668     0.03596
 PZ  C  12   0.00006    -0.00007     0.00071    -0.00341     0.03403     0.08313
  
  S  C  13   0.00037    -0.00040     0.00173    -0.01400     0.11561     0.23163
 PX  C  13  -0.00002     0.00002     0.00007     0.00029     0.00041     0.00760
 PY  C  13  -0.00017     0.00015     0.00070     0.00191     0.00379     0.05669
 PZ  C  13   0.00001    -0.00001    -0.00015     0.00038    -0.00672    -0.02169
  
  S  S  14   0.00012    -0.00014     0.00244    -0.00702     0.07176     0.18462
 PX  S  14   0.00001    -0.00001     0.00024    -0.00074     0.00867     0.02414
 PY  S  14  -0.00005     0.00005     0.00106     0.00085     0.00071     0.02692
 PZ  S  14  -0.00006     0.00007    -0.00100     0.00396    -0.04119    -0.10503
  
  S  C  15   0.00129    -0.00121     0.00062    -0.02578     0.14627     0.14713
 PX  C  15  -0.00008     0.00008    -0.00000     0.00213    -0.01126    -0.00648
 PY  C  15  -0.00059     0.00051     0.00021     0.00786    -0.02918     0.01330
 PZ  C  15   0.00009    -0.00008    -0.00003    -0.00153     0.00677     0.00014
  
  S  C  16   0.00147    -0.00132     0.00032    -0.02620     0.13669     0.10358
 PX  C  16   0.00050    -0.00047     0.00010    -0.00891     0.04591     0.03399
 PY  C  16  -0.00045     0.00036     0.00005     0.00535    -0.02093     0.00082
 PZ  C  16  -0.00023     0.00022    -0.00006     0.00448    -0.02359    -0.01864
  
  S  C  17   0.00308    -0.00243     0.00018    -0.03419     0.15060     0.07313
 PX  C  17   0.00114    -0.00095     0.00005    -0.01120     0.04590     0.01805
 PY  C  17  -0.00045     0.00024     0.00006    -0.00228     0.02347     0.02858
 PZ  C  17  -0.00054     0.00046    -0.00003     0.00609    -0.02592    -0.01155
  
  S  C  18   0.00718    -0.00530     0.00017    -0.05183     0.19088     0.05113
 PX  C  18   0.00118    -0.00073    -0.00003    -0.00118    -0.00897    -0.01926
 PY  C  18  -0.00293     0.00196     0.00006     0.00762     0.00074     0.03812
 PZ  C  18  -0.00014     0.00010     0.00001    -0.00093     0.00767     0.00728
  
  S  S  19   0.00232    -0.00188     0.00023    -0.02552     0.11576     0.06966
 PX  S  19  -0.00070     0.00064    -0.00011     0.01152    -0.05756    -0.03935
 PY  S  19  -0.00117     0.00087     0.00007     0.00682    -0.01694     0.01459
 PZ  S  19   0.00053    -0.00045     0.00005    -0.00697     0.03264     0.01911
  
  S  C  20   0.02561    -0.01634     0.00006    -0.09717     0.25094    -0.05055
 PX  C  20   0.00555    -0.00358    -0.00001    -0.01790     0.03522    -0.02100
 PY  C  20  -0.01101     0.00643     0.00002     0.02719    -0.04769     0.03855
 PZ  C  20  -0.00088     0.00034     0.00001    -0.00069     0.00385     0.00311
  
  S  S  21   0.04323    -0.01613     0.00002    -0.06272     0.16949    -0.05244
 PX  S  21   0.01739    -0.01117     0.00001    -0.04383     0.09719    -0.03460
 PY  S  21  -0.02010     0.00384     0.00001    -0.00345     0.00159     0.00804
 PZ  S  21   0.00177    -0.00390     0.00001    -0.02546     0.04902    -0.01406
  
  S  C  22   0.13844    -0.06308     0.00001    -0.15403     0.27833    -0.11571
 PX  C  22   0.01408    -0.01439     0.00000    -0.05626     0.07422    -0.03418
 PY  C  22  -0.05502     0.02098     0.00001     0.00102     0.04368    -0.00911
 PZ  C  22  -0.01177    -0.00008     0.00000    -0.03104     0.05056    -0.01975
  
  S  C  23   0.08947    -0.05202     0.00002    -0.18888     0.33858    -0.13896
 PX  C  23  -0.00948     0.00423    -0.00000     0.01799    -0.05021     0.01616
 PY  C  23  -0.02906     0.01520     0.00000     0.02573    -0.00561     0.01178
 PZ  C  23  -0.01443     0.00712    -0.00000     0.01668    -0.02687     0.01196
  
  S  C  24   0.03448    -0.02205     0.00003    -0.11469     0.25868    -0.08332
 PX  C  24  -0.00567     0.00351    -0.00001     0.02240    -0.06037     0.01446
 PY  C  24  -0.01390     0.00854     0.00000     0.03432    -0.05992     0.03168
 PZ  C  24  -0.00747     0.00459    -0.00000     0.02233    -0.04986     0.01782
  
  S  C  25   0.07460    -0.04437     0.00001    -0.14334     0.20951    -0.09612
 PX  C  25  -0.02897     0.01651    -0.00000     0.05022    -0.07659     0.03408
 PY  C  25  -0.01429     0.00785     0.00000     0.01304     0.00199     0.00291
 PZ  C  25  -0.01923     0.01083    -0.00000     0.02912    -0.03767     0.01800
  
  S  C  26   0.10177    -0.05708     0.00000    -0.14053     0.14314    -0.07244
 PX  C  26  -0.04628     0.02424    -0.00000     0.04910    -0.04456     0.02294
 PY  C  26   0.00550    -0.00433     0.00000    -0.02788     0.06185    -0.02759
 PZ  C  26  -0.02151     0.01076     0.00000     0.01517    -0.00249     0.00262
  
  S  C  27   0.25971    -0.12437    -0.00000    -0.17218     0.05131    -0.03884
 PX  C  27  -0.09343     0.03721     0.00000     0.01209     0.03746    -0.01326
 PY  C  27  -0.00523     0.00060     0.00000    -0.03096     0.09954    -0.04423
 PZ  C  27  -0.04941     0.01913     0.00000    -0.00564     0.04966    -0.02044
  
  S  C  28   0.33181    -0.13450    -0.00000    -0.12912     0.08185    -0.04830
 PX  C  28  -0.02455    -0.00624     0.00000    -0.06438     0.05565    -0.02747
 PY  C  28  -0.10734     0.04294     0.00001    -0.00071     0.10479    -0.03960
 PZ  C  28  -0.05011     0.01198     0.00000    -0.03895     0.05895    -0.02558
  
  S  N  29   0.46051    -0.14027    -0.00001     0.03715    -0.09640     0.03445
 PX  N  29   0.05150    -0.04566    -0.00000    -0.07173    -0.02635     0.00441
 PY  N  29  -0.03135     0.01858     0.00000     0.01863     0.04733    -0.01855
 PZ  N  29   0.04115    -0.02375    -0.00000    -0.04341    -0.01329     0.00166
  
  S  C  30   0.33473    -0.13106    -0.00001    -0.05143    -0.19344     0.07634
 PX  C  30   0.01757    -0.02183    -0.00000    -0.04831    -0.03032     0.00987
 PY  C  30   0.11264    -0.03550    -0.00000     0.00962     0.02061    -0.01342
 PZ  C  30   0.03979    -0.02057    -0.00000    -0.02792    -0.01208     0.00199
  
  S  C  31   0.26029    -0.12258    -0.00001    -0.11774    -0.16088     0.05897
 PX  C  31  -0.07919     0.03148     0.00000     0.00891     0.04548    -0.01769
 PY  C  31   0.06812    -0.02710    -0.00000    -0.01858     0.04077    -0.02292
 PZ  C  31  -0.01936     0.00755     0.00000    -0.00333     0.03403    -0.01542
  
  S  C  32   0.10237    -0.05489    -0.00000    -0.06887    -0.13999     0.05843
 PX  C  32  -0.04233     0.02155     0.00000     0.02185     0.05873    -0.02488
 PY  C  32   0.02806    -0.01357    -0.00000    -0.01481    -0.00516     0.00016
 PZ  C  32  -0.01252     0.00654     0.00000     0.00586     0.02704    -0.01207
  
  S  C  33   0.07349    -0.04029    -0.00000    -0.04959    -0.14113     0.06173
 PX  C  33  -0.01718     0.00872     0.00000     0.00812     0.03111    -0.01375
 PY  C  33   0.03390    -0.01799    -0.00000    -0.02049    -0.05310     0.02265
 PZ  C  33   0.00149    -0.00103    -0.00000    -0.00231    -0.00054    -0.00001
  
  S  C  34   0.07791    -0.03951    -0.00000    -0.03985    -0.14251     0.06304
 PX  C  34   0.01002    -0.00692    -0.00000    -0.01147    -0.02312     0.00988
 PY  C  34   0.03561    -0.01679    -0.00000    -0.01344    -0.05112     0.02221
 PZ  C  34   0.01488    -0.00818    -0.00000    -0.01019    -0.02618     0.01125
  
  S  C  35   0.13490    -0.05281    -0.00000    -0.01942    -0.14830     0.06513
 PX  C  35   0.03450    -0.02099    -0.00000    -0.02560    -0.05801     0.02450
 PY  C  35   0.04718    -0.01259    -0.00000     0.01180    -0.00575     0.00177
 PZ  C  35   0.02939    -0.01379    -0.00000    -0.01293    -0.03138     0.01286
  
  S  C  36   0.25837     0.04479    -0.00000     0.20084     0.01903     0.00361
 PX  C  36   0.06511    -0.07691    -0.00000    -0.02839    -0.03102     0.00830
 PY  C  36  -0.02075     0.01827     0.00000     0.01838     0.02472    -0.00889
 PZ  C  36   0.01233    -0.01682    -0.00000    -0.06128    -0.02946     0.00873
  
  S  C  37   0.15037     0.11631    -0.00000     0.10180     0.00683     0.00760
 PX  C  37   0.02944    -0.06349    -0.00000     0.00738    -0.00784     0.00101
 PY  C  37   0.00627     0.01683     0.00000     0.01401     0.00838    -0.00234
 PZ  C  37  -0.04199    -0.02328     0.00000    -0.05604    -0.01284     0.00236
  
  S  C  38   0.11309     0.25921     0.00000     0.02231    -0.00105     0.00906
 PX  C  38   0.01276    -0.04630    -0.00000     0.06773     0.01734    -0.00326
 PY  C  38   0.00239     0.01470     0.00000    -0.00333     0.00163    -0.00149
 PZ  C  38  -0.02043    -0.03884    -0.00000    -0.02482    -0.01288     0.00602
  
  S  C  39   0.12774     0.38305     0.00001    -0.03939     0.00078    -0.00284
 PX  C  39   0.00136    -0.11182    -0.00000     0.14242     0.03737    -0.00405
 PY  C  39  -0.00110     0.01423     0.00000    -0.01732    -0.00230    -0.00121
 PZ  C  39   0.00141    -0.00704    -0.00000     0.00157    -0.00661     0.00565
  
  S  C  40   0.11470     0.20705     0.00000     0.16427     0.06945    -0.01956
 PX  C  40   0.01690    -0.04934    -0.00000     0.12029     0.03841    -0.00772
 PY  C  40  -0.00917    -0.00809     0.00000    -0.01297    -0.00204    -0.00035
 PZ  C  40   0.02622     0.05960     0.00000    -0.00680    -0.00590     0.00291
  
  S  C  41   0.17085     0.10812    -0.00000     0.32724     0.11034    -0.02663
 PX  C  41   0.01836    -0.04644    -0.00000     0.01511    -0.00134     0.00041
 PY  C  41  -0.01392     0.00233     0.00000     0.00401     0.01038    -0.00427
 PZ  C  41   0.02596     0.01128    -0.00000    -0.04149    -0.02974     0.01084
  
  S  C  42   0.13036     0.05338    -0.00000     0.37881     0.15005    -0.04201
 PX  C  42   0.00016    -0.01865    -0.00000    -0.02379    -0.01091     0.00290
 PY  C  42  -0.00838     0.00186     0.00000    -0.00318     0.00443    -0.00206
 PZ  C  42   0.02447     0.00118    -0.00000     0.00888    -0.00346     0.00195
  
  S  C  43   0.06996     0.03215    -0.00000     0.23170     0.09138    -0.02542
 PX  C  43   0.00388    -0.00500    -0.00000     0.00532     0.00091    -0.00017
 PY  C  43   0.01915     0.01124    -0.00000     0.07319     0.03183    -0.00934
 PZ  C  43   0.02459     0.00835    -0.00000     0.06056     0.02121    -0.00551
  
  S  C  44   0.10087     0.00854    -0.00000     0.21262     0.08312    -0.02377
 PX  C  44  -0.02749    -0.01117     0.00000    -0.08919    -0.03434     0.00946
 PY  C  44  -0.01398     0.00301     0.00000    -0.00991     0.00287    -0.00156
 PZ  C  44   0.01916    -0.00873    -0.00000    -0.01676    -0.00940     0.00271
  
  S  C  45   0.06303     0.04148    -0.00000     0.23481     0.10198    -0.02980
 PX  C  45   0.00557    -0.00488    -0.00000     0.01974     0.00808    -0.00233
 PY  C  45  -0.02252    -0.01318     0.00000    -0.08033    -0.03342     0.00955
 PZ  C  45   0.01578     0.00885    -0.00000     0.04520     0.01855    -0.00524
  
  S  O  46   0.11830     0.53290     0.00001    -0.26240    -0.05553     0.00045
 PX  O  46   0.02607     0.10519     0.00000    -0.03861    -0.00765     0.00028
 PY  O  46   0.01233     0.06164     0.00000    -0.03545    -0.00682    -0.00078
 PZ  O  46  -0.00823    -0.04327    -0.00000     0.02543     0.00314     0.00222
  
  S  C  47   0.05522     0.25075     0.00000    -0.12329    -0.02345    -0.00209
 PX  C  47   0.01804     0.07541     0.00000    -0.02923    -0.00449    -0.00099
 PY  C  47  -0.01996    -0.09339    -0.00000     0.04897     0.01006     0.00035
 PZ  C  47   0.01981     0.09482     0.00000    -0.05289    -0.01187     0.00034
  
  S  C  48   0.06705     0.21621     0.00000    -0.05502    -0.02952     0.01937
 PX  C  48   0.00728     0.00295    -0.00000     0.01433     0.00304     0.00015
 PY  C  48   0.00171     0.00966     0.00000    -0.00456    -0.00045    -0.00031
 PZ  C  48  -0.01188    -0.04112    -0.00000     0.00822     0.00075     0.00055
  
  S  C  49   0.03741     0.10262     0.00000    -0.02121    -0.01717     0.01307
 PX  C  49  -0.00202    -0.01872    -0.00000     0.00940     0.00384    -0.00218
 PY  C  49   0.00094     0.00515     0.00000    -0.00184    -0.00051     0.00033
 PZ  C  49  -0.01495    -0.04111    -0.00000     0.00712     0.00563    -0.00432
  
  S  C  50   0.03627     0.12727     0.00000    -0.04020    -0.01994     0.01214
 PX  C  50   0.00974     0.02842     0.00000    -0.00476    -0.00354     0.00272
 PY  C  50   0.01306     0.04772     0.00000    -0.01597    -0.00701     0.00393
 PZ  C  50  -0.00201    -0.00880    -0.00000     0.00303    -0.00028     0.00087
  
  S  C  51   0.03750     0.13944     0.00000    -0.04960    -0.02137     0.01180
 PX  C  51   0.00976     0.03094     0.00000    -0.00658    -0.00379     0.00273
 PY  C  51  -0.01103    -0.03995    -0.00000     0.01329     0.00645    -0.00387
 PZ  C  51  -0.00698    -0.02913    -0.00000     0.01179     0.00258    -0.00021
  
  S  C  52   0.00000    -0.00000     0.51292     0.00035    -0.00658    -0.02990
 PX  C  52  -0.00000    -0.00000     0.01756     0.00003    -0.00074    -0.00351
 PY  C  52  -0.00000    -0.00000     0.13615     0.00030    -0.00795    -0.04332
 PZ  C  52  -0.00000    -0.00000     0.01744     0.00004    -0.00097    -0.00531
  
  S  O  53   0.00000    -0.00000     0.40920     0.00035    -0.00701    -0.03325
 PX  O  53  -0.00000     0.00000    -0.17514    -0.00015     0.00320     0.01545
 PY  O  53  -0.00000     0.00000    -0.00393     0.00004    -0.00122    -0.00710
 PZ  O  53   0.00000    -0.00000     0.00309     0.00001    -0.00021    -0.00117
  
  S  O  54   0.00000    -0.00000     0.57260     0.00064    -0.01507    -0.07801
 PX  O  54   0.00000    -0.00000     0.15783     0.00018    -0.00438    -0.02269
 PY  O  54  -0.00000     0.00000    -0.06475    -0.00004     0.00050     0.00182
 PZ  O  54  -0.00000     0.00000    -0.01216    -0.00001     0.00017     0.00080
  
  S  H  55   0.00000    -0.00000     0.05161    -0.00027     0.00796     0.04378
  
  S  H  56   0.00000    -0.00000     0.01648    -0.00063     0.01601     0.08266
  
  S  H  57   0.00000    -0.00001     0.00524    -0.00091     0.01818     0.08275
  
  S  H  58   0.00002    -0.00003     0.00121    -0.00195     0.02418     0.07287
  
  S  H  59   0.00007    -0.00007     0.00047    -0.00305     0.02799     0.06293
  
  S  H  60   0.00036    -0.00032     0.00012    -0.00704     0.03866     0.03367
  
  S  H  61   0.00130    -0.00084     0.00005    -0.01123     0.04588     0.01777
  
  S  H  62   0.00924    -0.00614     0.00001    -0.03368     0.07717    -0.02270
  
  S  H  63   0.01731    -0.01085     0.00000    -0.04007     0.06283    -0.02820
  
  S  H  64   0.02780    -0.01603     0.00000    -0.03926     0.03211    -0.01712
  
  S  H  65   0.02755    -0.01538    -0.00000    -0.02260    -0.03426     0.01391
  
  S  H  66   0.01652    -0.00947    -0.00000    -0.01296    -0.03719     0.01647
  
  S  H  67   0.01789    -0.00908    -0.00000    -0.00927    -0.03749     0.01688
  
  S  H  68   0.04831    -0.01166    -0.00000     0.01118    -0.03732     0.01740
  
  S  H  69   0.06416     0.03251    -0.00000     0.02146    -0.00643     0.00588
  
  S  H  70   0.04256     0.08694     0.00000     0.06717     0.03317    -0.01082
  
  S  H  71   0.03525     0.01023    -0.00000     0.09185     0.03109    -0.00786
  
  S  H  72   0.02801     0.01867    -0.00000     0.09641     0.03899    -0.01095
  
  S  H  73   0.02468     0.01078    -0.00000     0.08907     0.03618    -0.01025
  
  S  H  74   0.06376    -0.00618    -0.00000     0.08059     0.02352    -0.00604
  
  S  H  75   0.03170     0.00523    -0.00000     0.08503     0.03553    -0.01038
  
  S  H  76   0.05648    -0.00195    -0.00000     0.08004     0.03845    -0.01200
  
  S  H  77   0.02262     0.01331    -0.00000     0.09004     0.03959    -0.01166
  
  S  H  78   0.02775     0.02670    -0.00000     0.10017     0.04420    -0.01304
  
  S  H  79   0.02664     0.01698    -0.00000     0.09285     0.04075    -0.01193
  
  S  H  80   0.02031     0.08795     0.00000    -0.03796    -0.00594    -0.00146
  
  S  H  81   0.01720     0.08118     0.00000    -0.04371    -0.00895    -0.00039
  
  S  H  82   0.02207     0.09460     0.00000    -0.04050    -0.00669    -0.00124
  
  S  H  83   0.01966     0.04207     0.00000    -0.00503    -0.00695     0.00563
  
  S  H  84   0.01661     0.04153     0.00000    -0.00726    -0.00643     0.00519
  
  S  H  85   0.01250     0.03809     0.00000    -0.01025    -0.00718     0.00520
  
  S  H  86   0.01532     0.04912     0.00000    -0.01294    -0.00742     0.00491
  
  S  H  87   0.01227     0.04435     0.00000    -0.01540    -0.00795     0.00492
  
  S  H  88   0.01781     0.06647     0.00000    -0.02350    -0.00931     0.00467
  
  S  H  89   0.01241     0.04594     0.00000    -0.01675    -0.00810     0.00486
  
  S  H  90   0.01731     0.06216     0.00000    -0.02039    -0.00833     0.00456
  
  S  H  91   0.01825     0.07317     0.00000    -0.03008    -0.01062     0.00458
  
  S  H  92   0.00000    -0.00000     0.24113     0.00028    -0.00677    -0.03527




    ROOT NO.    7           8           9          10          11          12

           -43.37711   -42.90674   -41.99760   -41.71351   -40.43689   -39.68454
  
  
  S  N   1  -0.00201    -0.04913     0.03353    -0.04306    -0.01053    -0.05384
 PX  N   1  -0.00105    -0.02563     0.01721    -0.02196    -0.00519    -0.02557
 PY  N   1   0.00031     0.00675    -0.00368     0.00437     0.00074     0.00939
 PZ  N   1  -0.00006    -0.00140     0.00085    -0.00105    -0.00020     0.00012
  
  S  C   2  -0.00351    -0.08438     0.05513    -0.06967    -0.01566    -0.09630
 PX  C   2  -0.00056    -0.01285     0.00712    -0.00834    -0.00106    -0.02151
 PY  C   2   0.00101     0.02208    -0.01193     0.01415     0.00242     0.03728
 PZ  C   2   0.00000     0.00010    -0.00017     0.00027     0.00015     0.00444
  
  S  C   3  -0.00416    -0.10051     0.06566    -0.08284    -0.01888    -0.24295
 PX  C   3   0.00024     0.00475    -0.00191     0.00190    -0.00060    -0.09367
 PY  C   3   0.00229     0.05067    -0.02829     0.03397     0.00607     0.07417
 PZ  C   3   0.00020     0.00454    -0.00266     0.00326     0.00067     0.00977
  
  S  C   4  -0.00678    -0.15348     0.08898    -0.10809    -0.02059    -0.26393
 PX  C   4   0.00197     0.04389    -0.02465     0.02958     0.00505     0.03006
 PY  C   4   0.00156     0.02984    -0.01043     0.00969    -0.00159    -0.08946
 PZ  C   4   0.00002    -0.00001     0.00053    -0.00087    -0.00041    -0.00972
  
  S  C   5  -0.01275    -0.26256     0.12195    -0.13609    -0.01413    -0.02363
 PX  C   5   0.00229     0.04541    -0.01868     0.01963     0.00072    -0.03287
 PY  C   5   0.00249     0.04093    -0.00641     0.00117    -0.00564    -0.11899
 PZ  C   5  -0.00047    -0.01172     0.00761    -0.00941    -0.00169    -0.01182
  
  S  C   6  -0.01265    -0.25367     0.10960    -0.11835    -0.00830     0.07288
 PX  C   6  -0.00314    -0.06377     0.02848    -0.03120    -0.00265     0.00575
 PY  C   6   0.00202     0.03278    -0.00506     0.00100    -0.00411    -0.07632
 PZ  C   6   0.00305     0.05933    -0.02345     0.02430     0.00085    -0.02750
  
  S  C   7  -0.01209    -0.21473     0.06594    -0.06011     0.00368     0.15094
 PX  C   7  -0.00390    -0.07024     0.02233    -0.02074     0.00096     0.04599
 PY  C   7  -0.00233    -0.05872     0.03542    -0.04176    -0.00452     0.01725
 PZ  C   7   0.00185     0.02679    -0.00215    -0.00135    -0.00234    -0.02456
  
  S  C   8  -0.01240    -0.17392     0.01020     0.01310     0.01479     0.14706
 PX  C   8   0.00090     0.01746    -0.00658     0.00654    -0.00017    -0.01659
 PY  C   8  -0.00276    -0.08832     0.06305    -0.07580    -0.00797     0.04070
 PZ  C   8  -0.00159    -0.04680     0.03118    -0.03694    -0.00347     0.02759
  
  S  S   9  -0.00901    -0.16075     0.05127    -0.04831     0.00089     0.07265
 PX  S   9   0.00475     0.08581    -0.02788     0.02628    -0.00084    -0.05254
 PY  S   9  -0.00004    -0.01649     0.02150    -0.02880    -0.00550    -0.02837
 PZ  S   9  -0.00318    -0.06434     0.02784    -0.02985    -0.00168     0.02571
  
  S  C  10  -0.00747     0.04724    -0.16473     0.22256     0.03402     0.01869
 PX  C  10   0.00006     0.00616    -0.00664     0.00844     0.00102    -0.00482
 PY  C  10  -0.00106    -0.07836     0.06613    -0.07800    -0.00568     0.05258
 PZ  C  10  -0.00002    -0.04042     0.04515    -0.05656    -0.00628     0.02597
  
  S  C  11  -0.00498     0.10629    -0.19065     0.24833     0.03289    -0.03560
 PX  C  11   0.00045    -0.00965     0.01675    -0.02162    -0.00274     0.00278
 PY  C  11   0.00022    -0.05192     0.05442    -0.06555    -0.00542     0.03082
 PZ  C  11  -0.00181     0.02617    -0.05570     0.07337     0.01019    -0.00345
  
  S  C  12  -0.00292     0.16229    -0.18761     0.22620     0.01969    -0.06630
 PX  C  12   0.00017    -0.01400     0.01315    -0.01485    -0.00069     0.00481
 PY  C  12  -0.00133    -0.00057    -0.03968     0.06043     0.01267    -0.00497
 PZ  C  12  -0.00110     0.05871    -0.06790     0.08160     0.00689    -0.02226
  
  S  C  13  -0.00101     0.22145    -0.15683     0.15833    -0.00316    -0.06586
 PX  C  13  -0.00036    -0.00107    -0.01207     0.01871     0.00388    -0.00348
 PY  C  13  -0.00266    -0.01163    -0.07983     0.12441     0.02594    -0.01627
 PZ  C  13   0.00047    -0.01196     0.02486    -0.03353    -0.00475     0.00988
  
  S  S  14  -0.00305     0.09943    -0.12806     0.15558     0.01448    -0.02444
 PX  S  14  -0.00045     0.01297    -0.02098     0.02707     0.00339    -0.00552
 PY  S  14  -0.00159    -0.02827    -0.01325     0.02825     0.00976     0.01613
 PZ  S  14   0.00160    -0.06658     0.08550    -0.10522    -0.01040     0.02473
  
  S  C  15   0.00604     0.30503     0.02952    -0.14385    -0.06485    -0.01863
 PX  C  15  -0.00076    -0.02616    -0.01243     0.02823     0.00940    -0.00209
 PY  C  15  -0.00318    -0.05740    -0.07340     0.12364     0.02419    -0.02179
 PZ  C  15   0.00062     0.01522     0.01326    -0.02498    -0.00654     0.00352
  
  S  C  16   0.00728     0.28353     0.08331    -0.21450    -0.07162     0.00437
 PX  C  16   0.00243     0.09375     0.02782    -0.07022    -0.02238     0.00136
 PY  C  16  -0.00180    -0.03620    -0.03630     0.06111     0.01025    -0.01143
 PZ  C  16  -0.00120    -0.04869    -0.01273     0.03423     0.01155     0.00000
  
  S  C  17   0.00907     0.26446     0.12249    -0.24221    -0.05171     0.02253
 PX  C  17   0.00268     0.07177     0.03683    -0.06562    -0.00909     0.00726
 PY  C  17   0.00119     0.07298     0.01662    -0.05965    -0.02905    -0.00056
 PZ  C  17  -0.00151    -0.04304    -0.02066     0.03881     0.00680    -0.00382
  
  S  C  18   0.01130     0.24655     0.14681    -0.22634    -0.00911     0.03111
 PX  C  18  -0.00065    -0.04932    -0.01240     0.04723     0.02384    -0.00147
 PY  C  18   0.00004     0.07987     0.00642    -0.06910    -0.04792    -0.00307
 PZ  C  18   0.00055     0.02213     0.00813    -0.02163    -0.00790     0.00145
  
  S  S  19   0.00616     0.20349     0.06970    -0.15038    -0.03484     0.00634
 PX  S  19  -0.00315    -0.11463    -0.03834     0.09068     0.02661    -0.00356
 PY  S  19  -0.00149    -0.00324    -0.03051     0.03035    -0.00849    -0.01170
 PZ  S  19   0.00186     0.06126     0.02400    -0.05177    -0.01317     0.00322
  
  S  C  20   0.01408     0.05932     0.14025    -0.04473     0.11798     0.03228
 PX  C  20   0.00155    -0.02527     0.01039     0.02968     0.02972     0.00099
 PY  C  20  -0.00233     0.05918    -0.00305    -0.06383    -0.04572     0.00158
 PZ  C  20   0.00037     0.01049     0.00613    -0.01005    -0.00051     0.00153
  
  S  S  21   0.01333    -0.00729     0.05914     0.00349     0.08975     0.01562
 PX  S  21   0.00387    -0.01462     0.03519     0.01825     0.04748     0.00732
 PY  S  21  -0.00345     0.02355     0.02594    -0.01211    -0.00188     0.00429
 PZ  S  21   0.00327     0.00178     0.02607     0.00278     0.02658     0.00513
  
  S  C  22   0.01542    -0.09260     0.01605     0.06880     0.05830    -0.00061
 PX  C  22  -0.00238    -0.03226     0.01775     0.04782    -0.00810    -0.00760
 PY  C  22   0.00155     0.01366     0.06677     0.01718     0.06902     0.01006
 PZ  C  22   0.00185    -0.01150     0.02988     0.02822     0.02347    -0.00071
  
  S  C  23   0.01230    -0.10401     0.07972     0.12716     0.08702    -0.00516
 PX  C  23  -0.00407     0.00264    -0.02016    -0.00007    -0.03821    -0.00813
 PY  C  23   0.00252     0.02968     0.03457    -0.02431     0.05701     0.01524
 PZ  C  23  -0.00074     0.01113     0.00124    -0.00825     0.00059     0.00090
  
  S  C  24   0.01290    -0.01650     0.11602     0.03811     0.13141     0.01989
 PX  C  24  -0.00376    -0.00950    -0.03387     0.00722    -0.03687    -0.00927
 PY  C  24  -0.00215     0.03622    -0.00924    -0.04323    -0.02319     0.00354
 PZ  C  24  -0.00245     0.00758    -0.01988    -0.01107    -0.02599    -0.00344
  
  S  C  25   0.00290    -0.09372     0.02385     0.11612    -0.01217    -0.02349
 PX  C  25  -0.00189     0.03119    -0.00751    -0.03383    -0.00308     0.00475
 PY  C  25   0.00226     0.01024     0.01347    -0.01030     0.03293     0.00757
 PZ  C  25  -0.00008     0.01895     0.00065    -0.02029     0.00949     0.00481
  
  S  C  26  -0.00522    -0.08144     0.00485     0.10522    -0.06846    -0.02843
 PX  C  26   0.00152     0.02645     0.00812    -0.02452     0.02636     0.00681
 PY  C  26   0.00364    -0.02701    -0.00121     0.02511     0.00372    -0.00549
 PZ  C  26   0.00219     0.00455     0.00373    -0.00418     0.01506     0.00159
  
  S  C  27  -0.01756    -0.05914    -0.04219     0.05051    -0.13315    -0.01911
 PX  C  27   0.00148    -0.00610     0.04871     0.04649     0.02937    -0.00718
 PY  C  27   0.00924    -0.04577    -0.02817     0.02090    -0.00599    -0.00769
 PZ  C  27   0.00506    -0.01745     0.01563     0.02976     0.01632    -0.00626
  
  S  C  28   0.00476    -0.07031    -0.14321    -0.04337    -0.09540    -0.00343
 PX  C  28  -0.01164    -0.02608     0.04466     0.07276    -0.03571    -0.01212
 PY  C  28   0.00725    -0.02511     0.05733     0.06121     0.05934    -0.00527
 PZ  C  28   0.00248    -0.02085     0.03897     0.05353     0.01372    -0.00839
  
  S  N  29   0.01956     0.00455    -0.24016    -0.21066    -0.02586     0.02089
 PX  N  29  -0.02265    -0.00280    -0.00699     0.00936    -0.10060     0.00084
 PY  N  29   0.00671    -0.01721    -0.01528     0.00107     0.00901    -0.00202
 PZ  N  29   0.00889    -0.00588    -0.03551    -0.02137    -0.01573     0.00003
  
  S  C  30  -0.03407     0.07272     0.07501     0.00042     0.00625     0.00932
 PX  C  30  -0.01875     0.01145     0.06029     0.04815    -0.02997    -0.00381
 PY  C  30   0.01712    -0.03387    -0.18538    -0.12143    -0.07967     0.00748
 PZ  C  30   0.00148    -0.00400    -0.02718    -0.01499    -0.02608    -0.00024
  
  S  C  31  -0.04760     0.05799     0.14571     0.08735    -0.03651    -0.00488
 PX  C  31   0.00482    -0.01434     0.01175     0.02341     0.00882    -0.00534
 PY  C  31   0.01148    -0.04032    -0.14356    -0.07576    -0.08655     0.00129
 PZ  C  31   0.00718    -0.01914    -0.03723    -0.01130    -0.01829    -0.00251
  
  S  C  32  -0.04510     0.07631     0.25895     0.15389     0.06509    -0.00788
 PX  C  32   0.01664    -0.03168    -0.09358    -0.05029    -0.02782     0.00094
 PY  C  32  -0.00232    -0.00358    -0.01572    -0.00577    -0.02663    -0.00085
 PZ  C  32   0.00770    -0.01653    -0.05034    -0.02628    -0.02079     0.00015
  
  S  C  33  -0.04364     0.08531     0.28770     0.16351     0.10655    -0.00585
 PX  C  33   0.00878    -0.01868    -0.05751    -0.03034    -0.02435     0.00026
 PY  C  33  -0.01601     0.02970     0.09405     0.05273     0.02774    -0.00173
 PZ  C  33  -0.00030    -0.00036    -0.00035     0.00071    -0.00335    -0.00041
  
  S  C  34  -0.04227     0.08704     0.28200     0.15464     0.11571    -0.00367
 PX  C  34  -0.00771     0.01360     0.04851     0.02895     0.01420    -0.00140
 PY  C  34  -0.01427     0.02901     0.08468     0.04406     0.03093    -0.00039
 PZ  C  34  -0.00735     0.01491     0.04743     0.02631     0.01671    -0.00084
  
  S  C  35  -0.03605     0.08315     0.21892     0.10337     0.10155     0.00143
 PX  C  35  -0.01822     0.03186     0.09943     0.05528     0.02662    -0.00114
 PY  C  35   0.00409    -0.00329    -0.04845    -0.03823    -0.01466     0.00346
 PZ  C  35  -0.00509     0.01451     0.03239     0.01394     0.01357     0.00022
  
  S  C  36   0.08550     0.00020    -0.11292    -0.12093     0.26734    -0.00485
 PX  C  36  -0.04040     0.00121    -0.05760    -0.04450    -0.13127     0.01559
 PY  C  36  -0.00414    -0.00538     0.01625     0.01873     0.01034    -0.00353
 PZ  C  36   0.03912    -0.00047    -0.03959    -0.03457     0.01686     0.00196
  
  S  C  37   0.21410    -0.00108    -0.04657    -0.05946     0.26428    -0.01276
 PX  C  37  -0.07068     0.00069    -0.04542    -0.04032    -0.00808     0.00564
 PY  C  37   0.00964    -0.00165    -0.00071    -0.00134     0.03702    -0.00297
 PZ  C  37   0.00983    -0.00033     0.02175     0.02741    -0.12955     0.00694
  
  S  C  38   0.27863    -0.00160     0.02223     0.00984     0.14472    -0.01219
 PX  C  38   0.00518    -0.00053    -0.01885    -0.02489     0.14085    -0.00817
 PY  C  38  -0.02856    -0.00015    -0.00363    -0.00321     0.01238    -0.00089
 PZ  C  38   0.09809    -0.00024     0.02272     0.02610    -0.13210     0.00831
  
  S  C  39  -0.05728     0.00003    -0.01423    -0.01959     0.17063    -0.01279
 PX  C  39   0.13385    -0.00196     0.01386     0.00160     0.16588    -0.01293
 PY  C  39  -0.04934     0.00020    -0.00443    -0.00210    -0.02131     0.00174
 PZ  C  39   0.12148    -0.00036     0.01053     0.00814    -0.00188    -0.00029
  
  S  C  40  -0.06325    -0.00273     0.02379     0.01146     0.20136    -0.01802
 PX  C  40   0.04558    -0.00176     0.02449     0.01870     0.03123    -0.00377
 PY  C  40  -0.01676    -0.00023     0.00254     0.00502    -0.03982     0.00247
 PZ  C  40   0.03315     0.00024    -0.02042    -0.02501     0.12601    -0.00743
  
  S  C  41  -0.01968    -0.00415     0.03096     0.01630     0.15369    -0.01202
 PX  C  41  -0.01772     0.00014    -0.00787    -0.00246    -0.11054     0.01032
 PY  C  41  -0.01578    -0.00197     0.01541     0.01782    -0.03574     0.00030
 PZ  C  41   0.06452     0.00126    -0.05798    -0.06127     0.16205    -0.00580
  
  S  C  42  -0.12032    -0.00668     0.11963     0.11645    -0.21845     0.00693
 PX  C  42   0.00298     0.00014    -0.00997    -0.00679    -0.04167     0.00450
 PY  C  42  -0.00380    -0.00158     0.00466     0.00664    -0.01373    -0.00009
 PZ  C  42   0.01307     0.00007    -0.02294    -0.02400     0.05737    -0.00155
  
  S  C  43  -0.08125    -0.00217     0.09025     0.08609    -0.16168     0.00511
 PX  C  43  -0.00246     0.00017     0.00190     0.00237    -0.02175     0.00178
 PY  C  43  -0.02634    -0.00208     0.02680     0.02732    -0.05360     0.00139
 PZ  C  43  -0.01654    -0.00021     0.01599     0.01417    -0.02067     0.00068
  
  S  C  44  -0.07238    -0.00541     0.05534     0.05912    -0.18374     0.01001
 PX  C  44   0.02719     0.00133    -0.02671    -0.02583     0.05318    -0.00211
 PY  C  44   0.00242    -0.00163     0.00165     0.00281     0.00440    -0.00086
 PZ  C  44   0.00971    -0.00068    -0.02299    -0.02088     0.02630     0.00006
  
  S  C  45  -0.08901    -0.00548     0.09394     0.09343    -0.16813     0.00369
 PX  C  45  -0.00527    -0.00063     0.00748     0.00842    -0.03438     0.00215
 PY  C  45   0.02809     0.00152    -0.03000    -0.02926     0.05005    -0.00111
 PZ  C  45  -0.01304    -0.00110     0.01227     0.01174    -0.01295    -0.00007
  
  S  O  46  -0.35129     0.00354    -0.05074    -0.03470    -0.09547     0.00967
 PX  O  46  -0.03798     0.00040    -0.00528    -0.00410     0.00758    -0.00070
 PY  O  46  -0.06932     0.00056    -0.01010    -0.00726    -0.01650     0.00191
 PZ  O  46   0.08929    -0.00056     0.01349     0.01098     0.00049    -0.00099
  
  S  C  47  -0.21598     0.00180    -0.02943    -0.02068    -0.04880     0.00535
 PX  C  47  -0.05603     0.00037    -0.00653    -0.00476    -0.00231     0.00034
 PY  C  47   0.07765    -0.00072     0.01146     0.00815     0.01839    -0.00205
 PZ  C  47  -0.06984     0.00076    -0.01119    -0.00775    -0.02312     0.00243
  
  S  C  48   0.41441    -0.00154     0.07745     0.07552    -0.19727     0.00885
 PX  C  48   0.02357    -0.00026    -0.00302    -0.00539     0.04746    -0.00317
 PY  C  48  -0.01131     0.00003    -0.00168    -0.00141     0.00235    -0.00012
 PZ  C  48   0.02142    -0.00016     0.00657     0.00742    -0.03985     0.00272
  
  S  C  49   0.29445    -0.00124     0.05192     0.05042    -0.13850     0.00683
 PX  C  49  -0.04532     0.00013    -0.01304    -0.01357     0.04545    -0.00230
 PY  C  49   0.00812    -0.00005     0.00211     0.00212    -0.00582     0.00025
 PZ  C  49  -0.09761     0.00042    -0.01596    -0.01503     0.03286    -0.00131
  
  S  C  50   0.25000    -0.00080     0.05139     0.05148    -0.15440     0.00759
 PX  C  50   0.06156    -0.00023     0.01037     0.00963    -0.01869     0.00062
 PY  C  50   0.07758    -0.00024     0.01586     0.01596    -0.04779     0.00231
 PZ  C  50   0.02558    -0.00016     0.00551     0.00556    -0.01902     0.00109
  
  S  C  51   0.23152    -0.00071     0.04955     0.05058    -0.16393     0.00838
 PX  C  51   0.06155    -0.00026     0.01104     0.01050    -0.02284     0.00084
 PY  C  51  -0.07965     0.00029    -0.01642    -0.01654     0.04975    -0.00243
 PZ  C  51   0.01021    -0.00013     0.00199     0.00166    -0.00298     0.00020
  
  S  C  52   0.00125     0.02142    -0.00590     0.00474    -0.00195    -0.13172
 PX  C  52   0.00015     0.00221     0.00082    -0.00232    -0.00385    -0.31648
 PY  C  52   0.00209     0.04868    -0.03107     0.03936     0.01001     0.21253
 PZ  C  52   0.00026     0.00602    -0.00392     0.00500     0.00136     0.03351
  
  S  O  53   0.00144     0.02645    -0.00848     0.00714    -0.00458    -0.45600
 PX  O  53  -0.00068    -0.01304     0.00516    -0.00525     0.00075     0.12184
 PY  O  53   0.00036     0.00905    -0.00660     0.00870     0.00278     0.08736
 PZ  O  53   0.00006     0.00136    -0.00092     0.00118     0.00034     0.00866
  
  S  O  54   0.00364     0.08008    -0.04757     0.05958     0.01621     0.51014
 PX  O  54   0.00106     0.02325    -0.01355     0.01676     0.00394     0.08196
 PY  O  54  -0.00006    -0.00010    -0.00116     0.00188     0.00071    -0.00499
 PZ  O  54  -0.00003    -0.00058     0.00017    -0.00015     0.00000    -0.00281
  
  S  H  55  -0.00211    -0.04840     0.02872    -0.03519    -0.00719    -0.11840
  
  S  H  56  -0.00380    -0.07892     0.03738    -0.04199    -0.00447     0.00164
  
  S  H  57  -0.00342    -0.05631     0.01315    -0.00979     0.00223     0.04599
  
  S  H  58  -0.00167     0.02329    -0.05224     0.06957     0.01015    -0.00519
  
  S  H  59  -0.00060     0.05236    -0.05078     0.05837     0.00347    -0.02071
  
  S  H  60   0.00190     0.08234     0.01804    -0.05462    -0.02104    -0.00112
  
  S  H  61   0.00302     0.07248     0.03814    -0.06882    -0.01096     0.00803
  
  S  H  62   0.00378     0.00040     0.03740     0.00684     0.03799     0.00638
  
  S  H  63   0.00112    -0.02628     0.01160     0.03562     0.00209    -0.00667
  
  S  H  64  -0.00309    -0.01988     0.00817     0.03433    -0.02176    -0.00926
  
  S  H  65  -0.01258     0.01848     0.07200     0.04660     0.01418    -0.00355
  
  S  H  66  -0.01186     0.02349     0.08302     0.04803     0.03296    -0.00198
  
  S  H  67  -0.01142     0.02409     0.08113     0.04496     0.03634    -0.00116
  
  S  H  68  -0.00745     0.02258     0.05257     0.02062     0.03640     0.00115
  
  S  H  69   0.10366    -0.00043    -0.02060    -0.02293     0.05607    -0.00113
  
  S  H  70  -0.06457    -0.00132     0.02074     0.01836     0.01981    -0.00403
  
  S  H  71  -0.03057     0.00124     0.03606     0.03171    -0.05682     0.00234
  
  S  H  72  -0.03494    -0.00100     0.03852     0.03639    -0.05710     0.00107
  
  S  H  73  -0.03357    -0.00103     0.03794     0.03698    -0.07759     0.00275
  
  S  H  74  -0.02862    -0.00019     0.01473     0.01563    -0.07467     0.00507
  
  S  H  75  -0.03169    -0.00224     0.02961     0.03102    -0.08577     0.00414
  
  S  H  76  -0.02623    -0.00543     0.01161     0.01663    -0.06838     0.00438
  
  S  H  77  -0.03565    -0.00216     0.03875     0.03908    -0.07996     0.00233
  
  S  H  78  -0.04253    -0.00222     0.04078     0.03995    -0.05917     0.00035
  
  S  H  79  -0.03434    -0.00239     0.03547     0.03537    -0.06272     0.00135
  
  S  H  80  -0.08062     0.00055    -0.00949    -0.00662    -0.01394     0.00152
  
  S  H  81  -0.07159     0.00065    -0.01020    -0.00697    -0.02292     0.00241
  
  S  H  82  -0.07875     0.00056    -0.00956    -0.00669    -0.01336     0.00146
  
  S  H  83   0.12619    -0.00052     0.01835     0.01726    -0.04402     0.00222
  
  S  H  84   0.11956    -0.00053     0.01975     0.01891    -0.05051     0.00252
  
  S  H  85   0.11549    -0.00046     0.02245     0.02231    -0.06777     0.00351
  
  S  H  86   0.10425    -0.00032     0.02029     0.01992    -0.05539     0.00263
  
  S  H  87   0.10241    -0.00034     0.02201     0.02234    -0.07181     0.00371
  
  S  H  88   0.08544    -0.00019     0.01835     0.01879    -0.06066     0.00305
  
  S  H  89   0.10000    -0.00033     0.02182     0.02229    -0.07406     0.00390
  
  S  H  90   0.08884    -0.00022     0.01847     0.01861    -0.05806     0.00289
  
  S  H  91   0.07436    -0.00011     0.01737     0.01855    -0.07036     0.00384
  
  S  H  92   0.00165     0.03668    -0.02203     0.02761     0.00726     0.19852




    ROOT NO.   13          14          15          16          17          18

           -39.19940   -39.09188   -36.31899   -35.69591   -34.32424   -33.16560
  
  
  S  N   1   0.25936     0.29668     0.54681    -0.05708     0.07793    -0.00063
 PX  N   1   0.12225     0.13912     0.21023    -0.02039     0.02232    -0.00014
 PY  N   1  -0.00258    -0.00329     0.00185     0.00053    -0.00593     0.00010
 PZ  N   1   0.00523     0.00574     0.00900    -0.00104     0.00194    -0.00002
  
  S  C   2   0.31238     0.35525     0.30366    -0.01952    -0.01536     0.00039
 PX  C   2  -0.03448    -0.04054    -0.35506     0.04702    -0.09843     0.00100
 PY  C   2  -0.00092    -0.00318     0.02364    -0.00076    -0.01296     0.00026
 PZ  C   2  -0.00137    -0.00227    -0.01236     0.00134    -0.00195     0.00002
  
  S  C   3   0.19702     0.23937    -0.21471     0.04958    -0.16129     0.00185
 PX  C   3  -0.08006    -0.07692    -0.07714     0.00912    -0.01611     0.00012
 PY  C   3  -0.03152    -0.03829     0.08759    -0.00890    -0.00796     0.00041
 PZ  C   3  -0.00436    -0.00563     0.00610    -0.00105     0.00167     0.00000
  
  S  C   4   0.12813     0.15773    -0.33202     0.04714    -0.07349     0.00025
 PX  C   4  -0.06029    -0.06570     0.06189    -0.00856     0.01022    -0.00001
 PY  C   4   0.01105     0.02797    -0.00105     0.01359    -0.08231     0.00119
 PZ  C   4   0.00283     0.00439    -0.00233     0.00104    -0.00441     0.00006
  
  S  C   5   0.03549     0.01606    -0.18649    -0.00319     0.11561    -0.00177
 PX  C   5   0.00526     0.01390    -0.03555     0.01210    -0.04458     0.00040
 PY  C   5   0.08387     0.10851    -0.11908     0.02609    -0.06020     0.00031
 PZ  C   5   0.01384     0.01456    -0.01725    -0.00044     0.01618    -0.00025
  
  S  C   6  -0.01760    -0.05193    -0.01501    -0.03194     0.17162    -0.00190
 PX  C   6  -0.00269    -0.00991    -0.04855    -0.00076     0.02686    -0.00041
 PY  C   6   0.06756     0.08429    -0.07180     0.01431    -0.01876    -0.00018
 PZ  C   6   0.01762     0.02730     0.00033     0.00590    -0.02353     0.00020
  
  S  C   7  -0.10594    -0.14088     0.12296    -0.02498     0.02929     0.00038
 PX  C   7  -0.03375    -0.04485     0.02443    -0.00526     0.00214     0.00012
 PY  C   7   0.00034    -0.01444    -0.01996    -0.01831     0.11003    -0.00129
 PZ  C   7   0.02210     0.02385    -0.02554    -0.00351     0.04151    -0.00058
  
  S  C   8  -0.12623    -0.13436     0.15509     0.01540    -0.19237     0.00257
 PX  C   8   0.01124     0.01584    -0.02114     0.00519    -0.00854    -0.00011
 PY  C   8  -0.01502    -0.04531    -0.01313    -0.03121     0.14821    -0.00138
 PZ  C   8  -0.01339    -0.02978     0.00843    -0.01785     0.07248    -0.00049
  
  S  S   9  -0.05731    -0.07579     0.00376    -0.00224    -0.00766     0.00008
 PX  S   9   0.03673     0.04964    -0.02591     0.00643    -0.00799    -0.00003
 PY  S   9   0.02559     0.02120    -0.06988    -0.00639     0.07639    -0.00101
 PZ  S   9  -0.01639    -0.02769    -0.00928    -0.00792     0.03954    -0.00040
  
  S  C  10  -0.05922     0.00921     0.08824     0.06855    -0.31299     0.00254
 PX  C  10   0.00211     0.00603    -0.00486     0.00408    -0.00917    -0.00008
 PY  C  10  -0.03411    -0.05749     0.05761    -0.00142    -0.08153     0.00136
 PZ  C  10  -0.01151    -0.03252     0.02216    -0.01539     0.01852     0.00052
  
  S  C  11  -0.01519     0.06463     0.00877     0.06399    -0.18337     0.00011
 PX  C  11   0.00129    -0.00493    -0.00152    -0.00397     0.01202    -0.00008
 PY  C  11  -0.01867    -0.03489     0.03911     0.00388    -0.08838     0.00133
 PZ  C  11  -0.01072     0.01163     0.01654     0.01890    -0.07842     0.00066
  
  S  C  12   0.03134     0.07683    -0.06490    -0.00278     0.13711    -0.00223
 PX  C  12  -0.00352    -0.00426     0.00517     0.00404    -0.01953     0.00005
 PY  C  12  -0.01500     0.02099     0.01370     0.04134    -0.13176     0.00027
 PZ  C  12   0.01043     0.02505    -0.01860    -0.00376     0.04422    -0.00036
  
  S  C  13   0.06571     0.04208    -0.08347    -0.08001     0.33112    -0.00150
 PX  C  13  -0.00268     0.00857    -0.00235     0.00865    -0.00699    -0.00047
 PY  C  13  -0.02330     0.04844     0.00433     0.05878    -0.12166    -0.00044
 PZ  C  13  -0.00185    -0.01518     0.01225    -0.00559    -0.02278     0.00085
  
  S  S  14   0.00360     0.02998    -0.00210     0.00010     0.00526     0.00056
 PX  S  14  -0.00000     0.00841    -0.00210     0.00483    -0.00740    -0.00009
 PY  S  14  -0.02777    -0.00354     0.03919     0.03563    -0.14694     0.00077
 PZ  S  14  -0.00756    -0.03088     0.01518    -0.00443    -0.01602     0.00022
  
  S  C  15   0.10398    -0.07483    -0.04573    -0.13834     0.28174     0.00045
 PX  C  15  -0.01159     0.01586    -0.00191     0.01788    -0.00088    -0.00161
 PY  C  15  -0.00739     0.04510    -0.03298    -0.01503     0.15696    -0.00069
 PZ  C  15   0.00572    -0.01218     0.00497    -0.00789    -0.01611     0.00087
  
  S  C  16   0.08898    -0.09969    -0.00355    -0.09922     0.05385     0.00421
 PX  C  16   0.02656    -0.02955    -0.00197    -0.02537     0.02309    -0.00025
 PY  C  16   0.00207     0.01769    -0.02228    -0.02994     0.13659    -0.00105
 PZ  C  16  -0.01463     0.01497     0.00252     0.01549    -0.02084    -0.00001
  
  S  C  17   0.02815    -0.06625     0.03466     0.03163    -0.19757     0.00436
 PX  C  17  -0.00356    -0.00760     0.01033     0.02854    -0.05530    -0.00132
 PY  C  17   0.04510    -0.04696    -0.00379    -0.06244     0.03526     0.00058
 PZ  C  17  -0.00106     0.00711    -0.00532    -0.01159     0.02787    -0.00032
  
  S  C  18  -0.05767     0.01277     0.04313     0.15029    -0.22929    -0.00387
 PX  C  18  -0.03321     0.03841    -0.00543     0.02530     0.04290    -0.00654
 PY  C  18   0.07852    -0.07934    -0.00281    -0.08649     0.01123     0.00018
 PZ  C  18   0.00940    -0.01258     0.00333    -0.00479    -0.02344    -0.00075
  
  S  S  19   0.02758    -0.03724     0.00150    -0.00359     0.00978    -0.00500
 PX  S  19  -0.02820     0.03490    -0.00178     0.01975     0.00043    -0.00025
 PY  S  19   0.03216    -0.01434    -0.02125    -0.06357     0.12001     0.00302
 PZ  S  19   0.01157    -0.01716     0.00310    -0.00497    -0.01048    -0.00110
  
  S  C  20  -0.23556     0.20376     0.02157     0.22272    -0.04802    -0.00068
 PX  C  20  -0.03940     0.04144    -0.00666     0.00313     0.05858    -0.01856
 PY  C  20   0.05220    -0.05970     0.01622     0.03298    -0.12097    -0.01080
 PZ  C  20  -0.00255     0.00020     0.00332     0.01525    -0.02049    -0.01268
  
  S  S  21  -0.15129     0.13951    -0.00174     0.05339     0.04975     0.07625
 PX  S  21  -0.08283     0.07851    -0.00401     0.02087     0.05067     0.02341
 PY  S  21  -0.01499     0.00915     0.00980     0.07208    -0.03849    -0.03477
 PZ  S  21  -0.04597     0.04167     0.00171     0.03582     0.00941    -0.00165
  
  S  C  22  -0.04910     0.05428    -0.01815    -0.11257     0.08041     0.09499
 PX  C  22   0.05433    -0.04750    -0.00184    -0.03368    -0.00982    -0.04105
 PY  C  22  -0.10610     0.09933    -0.00199     0.05629     0.05579    -0.01983
 PZ  C  22  -0.00661     0.00796    -0.00147     0.00236     0.01311    -0.03263
  
  S  C  23  -0.02625     0.03577    -0.01916    -0.12846     0.05158    -0.06487
 PX  C  23   0.08352    -0.07818     0.00212    -0.04773    -0.06960    -0.05455
 PY  C  23  -0.13866     0.12707     0.00051     0.09533     0.07155    -0.00567
 PZ  C  23  -0.00346     0.00235     0.00129     0.00768    -0.01179    -0.03080
  
  S  C  24  -0.20323     0.18883    -0.00141     0.09982     0.06561    -0.05916
 PX  C  24   0.07727    -0.06914    -0.00438    -0.07160    -0.01227    -0.02190
 PY  C  24   0.00441    -0.01054     0.01143     0.06468    -0.05567     0.01359
 PZ  C  24   0.04031    -0.03834     0.00176    -0.01421    -0.02615    -0.00683
  
  S  C  25   0.17248    -0.15195    -0.00904    -0.19627    -0.11900    -0.10603
 PX  C  25  -0.02706     0.02217     0.00401     0.04099    -0.00622     0.00855
 PY  C  25  -0.07608     0.07120    -0.00492     0.00550     0.05449    -0.01816
 PZ  C  25  -0.03815     0.03414     0.00043     0.02243     0.01453    -0.00221
  
  S  C  26   0.24483    -0.22320     0.00823    -0.05142    -0.13676    -0.01136
 PX  C  26  -0.05923     0.05395    -0.00294    -0.01330     0.00357    -0.00868
 PY  C  26   0.03522    -0.02983    -0.00765    -0.11384    -0.04235    -0.05144
 PZ  C  26  -0.01801     0.01714    -0.00392    -0.04320    -0.01192    -0.02167
  
  S  C  27   0.19532    -0.18292     0.02530     0.21671     0.00266     0.03216
 PX  C  27   0.04936    -0.04336    -0.00228    -0.06553    -0.05824     0.02628
 PY  C  27   0.05352    -0.04623    -0.00943    -0.14795    -0.05478    -0.02282
 PZ  C  27   0.04286    -0.03736    -0.00412    -0.07990    -0.04682     0.00300
  
  S  C  28   0.04353    -0.04069     0.00068     0.00391     0.03191     0.06394
 PX  C  28   0.10526    -0.09622     0.00872     0.06487    -0.00526    -0.02988
 PY  C  28   0.01120    -0.00459    -0.01396    -0.15589    -0.01975     0.06554
 PZ  C  28   0.05916    -0.05198    -0.00018    -0.01899    -0.01006    -0.00304
  
  S  N  29  -0.15601     0.13952    -0.01389    -0.13916    -0.03226    -0.03858
 PX  N  29   0.02133    -0.02363     0.01548     0.19807     0.07632    -0.04416
 PY  N  29   0.01018    -0.00798    -0.00434    -0.05522    -0.00732     0.12476
 PZ  N  29   0.00697    -0.00752     0.00476     0.06314     0.02987     0.01314
  
  S  C  30  -0.07265     0.06494    -0.00078     0.01690     0.01086    -0.20351
 PX  C  30   0.04176    -0.03983     0.01326     0.16620     0.06044     0.06823
 PY  C  30  -0.03312     0.02585     0.00644     0.08426     0.02553     0.01486
 PZ  C  30   0.01331    -0.01402     0.00831     0.10481     0.03677     0.03425
  
  S  C  31   0.06063    -0.05916     0.02496     0.30536     0.08815     0.07685
 PX  C  31   0.04086    -0.03666     0.00192     0.00504    -0.01271     0.11334
 PY  C  31   0.01779    -0.02034     0.00979     0.10217     0.01531    -0.06982
 PZ  C  31   0.02703    -0.02551     0.00392     0.03311    -0.00195     0.03320
  
  S  C  32   0.04897    -0.04285     0.00823     0.10740     0.04143     0.26490
 PX  C  32   0.00047    -0.00149     0.00057    -0.00084    -0.00790     0.00208
 PY  C  32   0.01810    -0.01834     0.00835     0.09789     0.02108    -0.01908
 PZ  C  32   0.00593    -0.00646     0.00275     0.02849     0.00228    -0.00490
  
  S  C  33   0.01396    -0.00783    -0.00800    -0.09097    -0.01143     0.17449
 PX  C  33   0.00671    -0.00747     0.00482     0.05974     0.01822     0.06993
 PY  C  33   0.00650    -0.00497     0.00097     0.01885     0.01192     0.04054
 PZ  C  33   0.00531    -0.00521     0.00263     0.03453     0.01234     0.04586
  
  S  C  34  -0.00966     0.01477    -0.01711    -0.21184    -0.06134    -0.08168
 PX  C  34   0.00754    -0.00636     0.00102     0.01699     0.01300     0.09366
 PY  C  34  -0.00680     0.00760    -0.00330    -0.03603    -0.00926    -0.05939
 PZ  C  34   0.00194    -0.00110    -0.00044    -0.00190     0.00376     0.02811
  
  S  C  35  -0.04561     0.04653    -0.01871    -0.22615    -0.07571    -0.25473
 PX  C  35   0.00065     0.00060    -0.00121    -0.00833     0.00481    -0.00261
 PY  C  35  -0.02183     0.01878     0.00124     0.02232     0.00562    -0.02830
 PZ  C  35  -0.00495     0.00486    -0.00020     0.00273     0.00427    -0.01021
  
  S  C  36  -0.01102     0.01636    -0.01542    -0.19838    -0.07855     0.06044
 PX  C  36  -0.10588     0.09404    -0.01209    -0.13149    -0.03470    -0.00806
 PY  C  36   0.02649    -0.02379     0.00324     0.03904     0.01806     0.01972
 PZ  C  36  -0.01864     0.01727    -0.00304    -0.03269    -0.00771     0.09504
  
  S  C  37   0.05686    -0.04610    -0.00274    -0.05017    -0.03285     0.22893
 PX  C  37  -0.04637     0.04243    -0.00835    -0.09785    -0.03113    -0.04060
 PY  C  37   0.01785    -0.01551     0.00153     0.01752     0.00709     0.01468
 PZ  C  37  -0.03438     0.02871    -0.00066    -0.00191     0.00289     0.02025
  
  S  C  38   0.07552    -0.06609     0.00753     0.08252     0.02199     0.18899
 PX  C  38   0.04242    -0.03578     0.00107     0.00341    -0.00734     0.06477
 PY  C  38   0.00548    -0.00482     0.00084     0.01091     0.00549    -0.01452
 PZ  C  38  -0.04670     0.04021    -0.00411    -0.04661    -0.01618     0.01537
  
  S  C  39   0.07835    -0.06861     0.00946     0.11249     0.04158     0.01389
 PX  C  39   0.07798    -0.06791     0.00738     0.08172     0.02496    -0.05120
 PY  C  39  -0.01053     0.00918    -0.00094    -0.00993    -0.00233    -0.02541
 PZ  C  39   0.00216    -0.00191    -0.00011    -0.00317    -0.00344     0.10692
  
  S  C  40   0.11571    -0.10205     0.01470     0.17466     0.06588    -0.26231
 PX  C  40   0.02460    -0.02163     0.00202     0.02000     0.00444    -0.06907
 PY  C  40  -0.01341     0.01142    -0.00064    -0.00493     0.00089    -0.00437
 PZ  C  40   0.03970    -0.03377     0.00213     0.01989     0.00282     0.05789
  
  S  C  41   0.06957    -0.05986     0.00352     0.03027     0.00445    -0.18002
 PX  C  41  -0.06851     0.06087    -0.01010    -0.12157    -0.04520     0.11450
 PY  C  41   0.00425    -0.00470     0.00268     0.03631     0.01815    -0.00998
 PZ  C  41   0.01898    -0.01390    -0.00363    -0.05080    -0.02281     0.07304
  
  S  C  42  -0.02344     0.01783     0.00006    -0.00211    -0.00478     0.04272
 PX  C  42  -0.03119     0.02792    -0.00542    -0.06795    -0.02873     0.19695
 PY  C  42   0.00358    -0.00363     0.00179     0.02578     0.01580     0.02741
 PZ  C  42   0.00204    -0.00055    -0.00251    -0.03281    -0.01231    -0.02700
  
  S  C  43  -0.01650     0.01227     0.00071     0.00480    -0.00737    -0.02265
 PX  C  43  -0.01155     0.01024    -0.00196    -0.02519    -0.01151     0.07262
 PY  C  43  -0.00255     0.00132     0.00120     0.01528     0.00615     0.01164
 PZ  C  43  -0.00282     0.00232    -0.00054    -0.00825    -0.00490    -0.01626
  
  S  C  44  -0.05513     0.04756    -0.00730    -0.09213    -0.03883     0.32368
 PX  C  44   0.00940    -0.00776     0.00085     0.01142     0.00557    -0.01080
 PY  C  44   0.00615    -0.00548     0.00093     0.01292     0.00815     0.01003
 PZ  C  44  -0.00516     0.00526    -0.00167    -0.01846    -0.00356    -0.01758
  
  S  C  45  -0.00219    -0.00123     0.00573     0.07715     0.03790    -0.02335
 PX  C  45  -0.01262     0.01101    -0.00190    -0.02447    -0.01103     0.09061
 PY  C  45   0.00108    -0.00009    -0.00106    -0.01241    -0.00339     0.01188
 PZ  C  45   0.00241    -0.00238     0.00053     0.00630     0.00292    -0.01458
  
  S  O  46  -0.06219     0.05472    -0.00698    -0.08055    -0.02828     0.07621
 PX  O  46   0.00538    -0.00495     0.00178     0.02492     0.01293     0.01481
 PY  O  46  -0.01301     0.01158    -0.00199    -0.02481    -0.01054    -0.00208
 PZ  O  46   0.00802    -0.00732     0.00165     0.02124     0.00977     0.01400
  
  S  C  47  -0.03554     0.03149    -0.00495    -0.06112    -0.02571    -0.01381
 PX  C  47  -0.00193     0.00163     0.00020     0.00387     0.00292    -0.00891
 PY  C  47   0.01358    -0.01202     0.00177     0.02119     0.00814    -0.01294
 PZ  C  47  -0.01602     0.01418    -0.00214    -0.02577    -0.01000     0.02250
  
  S  C  48  -0.04041     0.03324    -0.00071    -0.00311     0.00251    -0.03465
 PX  C  48   0.01796    -0.01544     0.00109     0.00900    -0.00216     0.10758
 PY  C  48   0.00076    -0.00067     0.00019     0.00262     0.00167    -0.00360
 PZ  C  48  -0.01618     0.01411    -0.00199    -0.02427    -0.00951    -0.06182
  
  S  C  49  -0.03418     0.02878    -0.00253    -0.03089    -0.01466    -0.00792
 PX  C  49   0.01131    -0.00945     0.00030     0.00145    -0.00186     0.05607
 PY  C  49  -0.00107     0.00086     0.00005     0.00095     0.00072    -0.00575
 PZ  C  49   0.00547    -0.00441     0.00004     0.00011     0.00028    -0.01944
  
  S  C  50  -0.03695     0.03084    -0.00119    -0.00811     0.00323    -0.10435
 PX  C  50  -0.00210     0.00157     0.00017     0.00205     0.00004     0.02206
 PY  C  50  -0.01101     0.00914    -0.00024    -0.00097     0.00136    -0.01754
 PZ  C  50  -0.00598     0.00514    -0.00061    -0.00733    -0.00284    -0.02494
  
  S  C  51  -0.04179     0.03506    -0.00165    -0.01327     0.00247    -0.13794
 PX  C  51  -0.00311     0.00240     0.00022     0.00313     0.00110     0.01415
 PY  C  51   0.01180    -0.00984     0.00036     0.00247    -0.00077     0.02254
 PZ  C  51  -0.00131     0.00118    -0.00035    -0.00478    -0.00243    -0.02147
  
  S  C  52  -0.05112    -0.03757     0.00457     0.00535    -0.03935     0.00064
 PX  C  52  -0.20268    -0.18159     0.15833    -0.02550     0.06783    -0.00078
 PY  C  52  -0.03400    -0.06157     0.06223    -0.01978     0.07991    -0.00103
 PZ  C  52  -0.00072    -0.00476     0.00347    -0.00196     0.00928    -0.00012
  
  S  O  53  -0.29376    -0.26161     0.23417    -0.03425     0.07547    -0.00073
 PX  O  53   0.08666     0.07853    -0.05835     0.00848    -0.01711     0.00014
 PY  O  53   0.01436     0.00507     0.00602    -0.00381     0.01924    -0.00027
 PZ  O  53   0.00004    -0.00099     0.00159    -0.00063     0.00285    -0.00004
  
  S  O  54   0.10980     0.05935    -0.10280     0.00483     0.01931    -0.00038
 PX  O  54  -0.01234    -0.02282     0.00239    -0.00399     0.02021    -0.00027
 PY  O  54  -0.03044    -0.03333     0.01255    -0.00604     0.03266    -0.00052
 PZ  O  54  -0.00407    -0.00423     0.00119    -0.00068     0.00393    -0.00006
  
  S  H  55   0.02450     0.03660    -0.12067     0.01766    -0.03091     0.00014
  
  S  H  56   0.02392     0.01818    -0.00094    -0.01040     0.06286    -0.00078
  
  S  H  57  -0.03400    -0.04219     0.05081    -0.00576    -0.00858     0.00038
  
  S  H  58  -0.00971     0.01467     0.01110     0.02487    -0.08820     0.00024
  
  S  H  59   0.01372     0.02088    -0.02571    -0.00862     0.07447    -0.00099
  
  S  H  60   0.02997    -0.02925    -0.00551    -0.04144     0.04369     0.00193
  
  S  H  61  -0.00071    -0.01231     0.01356     0.02441    -0.08342     0.00255
  
  S  H  62  -0.05913     0.05392     0.00122     0.03525     0.00485    -0.03617
  
  S  H  63   0.04710    -0.04115    -0.00363    -0.07111    -0.04518    -0.05322
  
  S  H  64   0.08256    -0.07589     0.00489     0.00251    -0.05209     0.00897
  
  S  H  65   0.02684    -0.02431     0.00481     0.05588     0.01490     0.12949
  
  S  H  66   0.00547    -0.00340    -0.00306    -0.03708    -0.00620     0.08459
  
  S  H  67  -0.00359     0.00531    -0.00692    -0.08939    -0.02900    -0.03876
  
  S  H  68  -0.02153     0.02144    -0.00860    -0.10842    -0.04136    -0.12158
  
  S  H  69  -0.00169     0.00293    -0.00357    -0.04759    -0.02188     0.11015
  
  S  H  70   0.03086    -0.02801     0.00594     0.07472     0.03180    -0.15165
  
  S  H  71  -0.01105     0.00925    -0.00131    -0.01902    -0.01266    -0.01340
  
  S  H  72   0.00052    -0.00152     0.00171     0.02011     0.00485    -0.05691
  
  S  H  73  -0.01021     0.00795     0.00009    -0.00033    -0.00419     0.02249
  
  S  H  74  -0.03021     0.02636    -0.00393    -0.04911    -0.02143     0.13696
  
  S  H  75  -0.02100     0.01781    -0.00234    -0.03007    -0.01367     0.16110
  
  S  H  76  -0.02704     0.02388    -0.00421    -0.04900    -0.01450     0.15331
  
  S  H  77  -0.00581     0.00378     0.00180     0.02512     0.01286     0.02689
  
  S  H  78   0.00752    -0.00811     0.00414     0.05492     0.02612    -0.07263
  
  S  H  79  -0.00062    -0.00063     0.00224     0.03089     0.01656    -0.00326
  
  S  H  80  -0.01000     0.00884    -0.00134    -0.01662    -0.00720    -0.02120
  
  S  H  81  -0.01604     0.01424    -0.00245    -0.03097    -0.01367    -0.00193
  
  S  H  82  -0.00959     0.00846    -0.00124    -0.01522    -0.00641    -0.01849
  
  S  H  83  -0.01157     0.00985    -0.00127    -0.01677    -0.00911     0.02691
  
  S  H  84  -0.01280     0.01082    -0.00110    -0.01408    -0.00724     0.00818
  
  S  H  85  -0.01798     0.01521    -0.00133    -0.01556    -0.00634    -0.03316
  
  S  H  86  -0.01255     0.01044    -0.00039    -0.00275     0.00071    -0.03075
  
  S  H  87  -0.01873     0.01577    -0.00089    -0.00791     0.00010    -0.06850
  
  S  H  88  -0.01495     0.01249    -0.00039    -0.00163     0.00276    -0.04300
  
  S  H  89  -0.01989     0.01678    -0.00104    -0.00991    -0.00060    -0.07960
  
  S  H  90  -0.01409     0.01175    -0.00042    -0.00287     0.00150    -0.04587
  
  S  H  91  -0.01987     0.01680    -0.00098    -0.00853     0.00063    -0.06401
  
  S  H  92   0.01793    -0.00403    -0.02475    -0.00296     0.02938    -0.00047




    ROOT NO.   19          20          21          22          23          24

           -32.88959   -32.77978   -32.41916   -32.16955   -31.33575   -31.32963
  
  
  S  N   1  -0.03888     0.02096    -0.02285     0.04948     0.00005     0.00317
 PX  N   1  -0.00826     0.00436    -0.00447     0.00935     0.00001     0.00057
 PY  N   1   0.00715    -0.00400     0.00475    -0.01058    -0.00002    -0.00060
 PZ  N   1  -0.00109     0.00058    -0.00056     0.00107     0.00000     0.00001
  
  S  C   2   0.02727    -0.01523     0.01802    -0.04013    -0.00007    -0.00243
 PX  C   2   0.06440    -0.03509     0.03915    -0.08518    -0.00011    -0.00521
 PY  C   2   0.01878    -0.01058     0.01293    -0.02940    -0.00006    -0.00182
 PZ  C   2   0.00148    -0.00084     0.00112    -0.00279    -0.00000    -0.00028
  
  S  C   3   0.11952    -0.06518     0.07233    -0.15553    -0.00021    -0.00864
 PX  C   3   0.00701    -0.00357     0.00291    -0.00433    -0.00000     0.00032
 PY  C   3   0.03143    -0.01828     0.02457    -0.05946    -0.00012    -0.00463
 PZ  C   3   0.00075    -0.00053     0.00106    -0.00311    -0.00001    -0.00039
  
  S  C   4   0.00658    -0.00144    -0.00662     0.02740     0.00008     0.00447
 PX  C   4   0.00064    -0.00057     0.00121    -0.00294    -0.00002     0.00005
 PY  C   4   0.08055    -0.04467     0.05225    -0.11630    -0.00016    -0.00720
 PZ  C   4   0.00433    -0.00245     0.00312    -0.00752    -0.00000    -0.00068
  
  S  C   5  -0.11924     0.06590    -0.07587     0.16641     0.00021     0.00962
 PX  C   5   0.02231    -0.01125     0.00841    -0.01035    -0.00003     0.00166
 PY  C   5   0.01300    -0.00551     0.00012     0.00913     0.00008     0.00238
 PZ  C   5  -0.01650     0.00895    -0.00934     0.01826     0.00006     0.00020
  
  S  C   6  -0.11642     0.06166    -0.05976     0.11145     0.00020     0.00116
 PX  C   6  -0.02804     0.01561    -0.01859     0.04217     0.00003     0.00295
 PY  C   6  -0.01813     0.01144    -0.01853     0.04883     0.00007     0.00441
 PZ  C   6   0.01117    -0.00576     0.00519    -0.00949     0.00001    -0.00034
  
  S  C   7   0.03597    -0.02238     0.03535    -0.09242    -0.00002    -0.00841
 PX  C   7   0.00963    -0.00554     0.00682    -0.01476    -0.00005    -0.00039
 PY  C   7  -0.08023     0.04282    -0.04292     0.08294     0.00006     0.00177
 PZ  C   7  -0.03707     0.01999    -0.02063     0.04047     0.00007     0.00082
  
  S  C   8   0.16397    -0.08832     0.09143    -0.18158    -0.00029    -0.00526
 PX  C   8  -0.01053     0.00672    -0.01138     0.03095    -0.00006     0.00310
 PY  C   8  -0.07966     0.04115    -0.03636     0.06260    -0.00001     0.00008
 PZ  C   8  -0.02411     0.01119    -0.00457    -0.00298     0.00010    -0.00274
  
  S  S   9   0.00350    -0.00105    -0.00331     0.01663    -0.00016     0.00395
 PX  S   9  -0.00356     0.00217    -0.00288     0.00617     0.00008     0.00003
 PY  S   9  -0.06498     0.03514    -0.03717     0.07588     0.00017     0.00307
 PZ  S   9  -0.02392     0.01264    -0.01246     0.02440     0.00003     0.00101
  
  S  C  10   0.13984    -0.07059     0.05653    -0.08750     0.00002     0.00159
[...]
    75       H          3.40558206  * -16.54353034  *  -7.01767858  *
    76       H          3.08987161  * -16.18415606  *  -5.32540207  *
    77       H          1.47583497  * -15.59324249  *  -7.99254309  *
    78       H         -0.14827616  * -15.84678378  *  -7.37638313  *
    79       H          1.01811198  * -14.92178934  *  -6.42268619  *
    80       H         -3.47631340  * -16.65002844  *  -6.38363477  *
    81       H         -4.57753141  * -16.11186853  *  -5.08372395  *
    82       H         -2.99718230  * -15.29610711  *  -5.30699232  *
    83       H         -0.72332736  * -18.83125029  *  -0.48711782  *
    84       H         -0.89253142  * -17.09316321  *  -0.20179593  *
    85       H         -2.12369618  * -18.21438319  *   0.37749373  *
    86       H         -2.42571728  * -20.01112201  *  -2.06586038  *
    87       H         -3.76659487  * -19.26970891  *  -1.18568733  *
    88       H         -3.64683730  * -19.07987925  *  -2.92865630  *
    89       H         -3.53248736  * -16.52995005  *  -0.62850134  *
    90       H         -2.56585013  * -15.68627336  *  -1.83832973  *
    91       H         -3.98556540  * -16.62967229  *  -2.30844809  *
    92       H          2.90358584  *   3.19181567  *   0.40612968  *

                             CARTESIAN COORDINATES

   1    N        0.022808527     0.036684395    -0.084260565
   2    C        1.178191427     0.020110293    -0.037171725
   3    C        2.594600905     0.022073317     0.005973336
   4    C        3.335656000    -1.097004768    -0.113695037
   5    C        2.770394968    -2.408519150    -0.237162553
   6    C        1.638492170    -2.882694906     0.370905314
   7    C        1.383389635    -4.247963164     0.032834609
   8    C        2.331759491    -4.751615906    -0.815844301
   9    S        3.537025377    -3.599941786    -1.196532590
  10    C        2.375345487    -6.071993306    -1.357031237
  11    C        2.655440810    -6.414092322    -2.650667155
  12    C        2.606416478    -7.830011027    -2.853744475
  13    C        2.291632017    -8.501421179    -1.706110666
  14    S        2.057354836    -7.442491614    -0.378364911
  15    C        2.157504744    -9.914680438    -1.551568016
  16    C        1.121809113   -10.575282290    -0.954051617
  17    C        1.308025647   -11.995335900    -0.973465944
  18    C        2.476555222   -12.349694930    -1.584013383
  19    S        3.359423515   -10.988002920    -2.138785676
  20    C        2.970070762   -13.677228810    -1.778204753
  21    S        2.015043555   -14.837007070    -2.642599954
  22    C        3.218604277   -16.041991660    -2.438605453
  23    C        4.326877551   -15.560207290    -1.722880878
  24    C        4.156039469   -14.176304340    -1.349751154
  25    C        5.436617860   -16.362947470    -1.428565414
  26    C        5.457444477   -17.679271190    -1.844287730
  27    C        4.368538601   -18.183789590    -2.551353570
  28    C        3.245930816   -17.366828970    -2.859093856
  29    N        2.333040677   -18.116413950    -3.623701186
  30    C        2.826635140   -19.435877690    -3.710097270
  31    C        4.102116584   -19.491249900    -3.089753581
  32    C        4.819341811   -20.679114070    -3.088190385
  33    C        4.252544124   -21.790663440    -3.689781621
  34    C        2.985203161   -21.728081720    -4.283544999
  35    C        2.249238840   -20.555676210    -4.304749542
  36    C        0.978114569   -17.769995070    -3.897624667
  37    C        0.080303261   -17.945318680    -2.830636352
  38    C       -1.274649502   -17.688802380    -2.957868467
  39    C       -1.720196928   -17.310067540    -4.237294671
  40    C       -0.835931036   -17.131068750    -5.294630990
  41    C        0.541956850   -17.325438860    -5.145309940
  42    C        1.386434848   -17.084802120    -6.375049506
  43    C        1.178386810   -18.278816670    -7.311619311
  44    C        2.881722622   -16.912522020    -6.121097860
  45    C        0.909914656   -15.800839730    -7.073058525
  46    O       -3.070444034   -17.210417790    -4.410967876
  47    C       -3.520429557   -16.265126580    -5.351476978
  48    C       -2.212305180   -17.849896120    -1.787794919
  49    C       -1.449389485   -18.004042160    -0.465562378
  50    C       -3.051892585   -19.109235920    -2.006148170
  51    C       -3.112592196   -16.618934920    -1.642090212
  52    C        3.265164690     1.320744625     0.158621530
  53    O        4.471602250     1.520184012     0.160096406
  54    O        2.419095969     2.358709120     0.311671067
  55    H        4.435408066    -1.035568580    -0.125601061
  56    H        1.001576312    -2.323219881     1.053935273
  57    H        0.522395012    -4.796439289     0.408274527
  58    H        2.878761733    -5.713543913    -3.452005103
  59    H        2.791550858    -8.292658896    -3.820284968
  60    H        0.245883761   -10.103746080    -0.515101339
  61    H        0.591183171   -12.689891480    -0.541937214
  62    H        4.907645846   -13.630333300    -0.784406859
  63    H        6.274218881   -15.937684160    -0.870816563
  64    H        6.309369776   -18.329231280    -1.627961459
  65    H        5.805316315   -20.725747520    -2.619545006
  66    H        4.799016636   -22.737763760    -3.701051533
  67    H        2.567191835   -22.630795260    -4.740038443
  68    H        1.257086003   -20.508744870    -4.758290905
  69    H        0.482843189   -18.307892570    -1.874172342
  70    H       -1.214742514   -16.835113450    -6.280938267
  71    H        1.502348851   -19.223551940    -6.851558425
  72    H        0.127405592   -18.413534570    -7.603582486
  73    H        1.751187880   -18.169815990    -8.243996877
  74    H        3.392351542   -17.851813870    -5.867868132
  75    H        3.405582057   -16.543530340    -7.017678584
  76    H        3.089871612   -16.184156060    -5.325402067
  77    H        1.475834969   -15.593242490    -7.992543088
  78    H       -0.148276159   -15.846783780    -7.376383127
  79    H        1.018111984   -14.921789340    -6.422686195
  80    H       -3.476313401   -16.650028440    -6.383634774
  81    H       -4.577531408   -16.111868530    -5.083723946
  82    H       -2.997182296   -15.296107110    -5.306992317
  83    H       -0.723327364   -18.831250290    -0.487117822
  84    H       -0.892531424   -17.093163210    -0.201795928
  85    H       -2.123696176   -18.214383190     0.377493733
  86    H       -2.425717275   -20.011122010    -2.065860380
  87    H       -3.766594868   -19.269708910    -1.185687335
  88    H       -3.646837303   -19.079879250    -2.928656304
  89    H       -3.532487361   -16.529950050    -0.628501335
  90    H       -2.565850133   -15.686273360    -1.838329729
  91    H       -3.985565399   -16.629672290    -2.308448090
  92    H        2.903585845     3.191815674     0.406129675


           Empirical Formula: C45 H38 N2 O3 S4  =    92 atoms



      MOLECULAR POINT GROUP   :   C1  


                  EIGENVALUES  
 -49.02899 -47.48434 -46.77362 -44.68369 -43.96032 -43.62978 -43.37711 -42.90674
 -41.99760 -41.71351 -40.43689 -39.68454 -39.19940 -39.09188 -36.31899 -35.69591
 -34.32424 -33.16560 -32.88959 -32.77978 -32.41916 -32.16955 -31.33575 -31.32963
 -30.98767 -30.76296 -30.04303 -29.88195 -29.32701 -29.06828 -28.40460 -27.96945
 -27.57145 -27.10969 -26.67543 -25.91896 -25.86942 -25.65858 -25.01137 -24.67657
 -23.98406 -23.48848 -23.19122 -23.02223 -22.82897 -21.89018 -21.65290 -21.12233
 -20.83646 -20.75925 -20.64740 -20.36821 -20.22882 -20.07204 -19.51236 -19.41432
 -19.03576 -18.91115 -18.87868 -18.45648 -18.17696 -17.99056 -17.97688 -17.74676
 -17.51222 -17.09980 -16.83516 -16.70560 -16.60002 -16.57151 -16.41779 -16.21805
 -16.00367 -15.92762 -15.89658 -15.74479 -15.58789 -15.38645 -15.31926 -15.12258
 -14.93594 -14.83292 -14.71401 -14.62484 -14.48827 -14.37370 -14.19233 -14.09734
 -13.94825 -13.92956 -13.78851 -13.66310 -13.59855 -13.55745 -13.45933 -13.26705
 -13.25032 -13.09428 -13.03299 -13.02516 -13.01187 -12.92963 -12.83637 -12.81148
 -12.73052 -12.66441 -12.54804 -12.52849 -12.48464 -12.37961 -12.33629 -12.08834
 -12.06410 -11.89818 -11.83442 -11.76349 -11.72950 -11.64332 -11.00422 -10.80124
 -10.78507 -10.38030 -10.19807 -10.09315 -10.02099  -9.88886  -9.24963  -8.93567
  -8.77715  -8.58438  -8.07421  -8.04305  -7.58908  -7.36728  -7.01617  -1.17916
  -0.37994  -0.04569   0.41892   0.69309   0.73456   0.77223   0.83530   0.96551
   1.13022   1.24092   1.66452   1.80703   1.95915   2.01408   2.07784   2.16217
   2.21206   2.29285   2.37238   2.46991   2.56711   2.62843   2.76714   2.93024
   2.98712   3.03519   3.11912   3.40942   3.48468   3.53474   3.56122   3.58200
   3.66914   3.75443   3.84103   3.88137   4.05811   4.11106   4.20859   4.26906
   4.36047   4.39308   4.40397   4.45856   4.48145   4.51928   4.68822   4.90528
   4.99678   5.14778   5.27240   5.35358   5.50705   5.52371   5.64106   5.65457
   5.83324   6.09860   6.37629   6.40500   6.51528   6.57630   6.60648   6.64080
   6.68326   6.68636   6.81317   6.82611   6.89977   6.92593   7.02331   7.10376
   7.14746   7.15716   7.20181   7.34913   7.36762   7.64238   7.66769   8.09989
   8.45397   8.60436   8.70497   8.76887   8.88524   8.99889   9.07915   9.12237
   9.22121   9.33333   9.61043   9.75048   9.90008   9.93232  10.04868  10.08788
  10.19168  10.21203  10.43116  10.65275  10.82696  10.97447  11.17217  11.46152
  11.75300  12.02936  12.47186  12.48326  12.73939  12.86171  12.89105  13.04236
  13.43803  13.53445  13.91782  14.21323  14.71003  15.15497


              NET ATOMIC CHARGES AND DIPOLE CONTRIBUTIONS

  ATOM NO.   TYPE          CHARGE      No. of ELECS.   s-Pop       p-Pop       
    1          N          -0.387660        5.3877     1.75349     3.63417
    2          C           0.214519        3.7855     1.14762     2.63786
    3          C           0.018740        3.9813     1.00183     2.97943
    4          C           0.126772        3.8732     1.09401     2.77921
    5          C           0.011883        3.9881     1.06340     2.92472
    6          C           0.014186        3.9858     1.09490     2.89092
    7          C          -0.049080        4.0491     1.08275     2.96633
    8          C           0.074021        3.9260     1.07554     2.85044
    9          S          -0.035967        6.0360     1.77170     4.26426
   10          C           0.031917        3.9681     1.06802     2.90006
   11          C          -0.033078        4.0331     1.08715     2.94592
   12          C          -0.046674        4.0467     1.08437     2.96231
   13          C           0.046403        3.9536     1.07185     2.88174
   14          S          -0.045602        6.0456     1.77339     4.27221
   15          C           0.037560        3.9624     1.06967     2.89277
   16          C          -0.043036        4.0430     1.08550     2.95753
   17          C          -0.048065        4.0481     1.08392     2.96414
   18          C           0.043814        3.9562     1.07151     2.88468
   19          S          -0.046132        6.0461     1.77366     4.27247
   20          C           0.052984        3.9470     1.07685     2.87017
   21          S          -0.068415        6.0684     1.77676     4.29166
   22          C           0.009024        3.9910     1.06888     2.92210
   23          C           0.008189        3.9918     1.04870     2.94311
   24          C          -0.053044        4.0530     1.08602     2.96702
   25          C          -0.049361        4.0494     1.07886     2.97050
   26          C          -0.023742        4.0237     1.08037     2.94337
   27          C          -0.023170        4.0232     1.04863     2.97454
   28          C           0.084974        3.9150     1.04902     2.86600
   29          N          -0.141565        5.1416     1.24624     3.89533
   30          C           0.077563        3.9224     1.05104     2.87140
   31          C          -0.015485        4.0155     1.04759     2.96790
   32          C          -0.021537        4.0215     1.07908     2.94246
   33          C          -0.043942        4.0439     1.07756     2.96638
   34          C          -0.024476        4.0245     1.08037     2.94411
   35          C          -0.042014        4.0420     1.07569     2.96632
   36          C           0.064817        3.9352     1.04081     2.89437
   37          C          -0.048509        4.0485     1.08967     2.95884
   38          C           0.014250        3.9858     1.06196     2.92379
   39          C           0.132029        3.8680     1.04587     2.82210
   40          C          -0.053652        4.0537     1.08666     2.96699
   41          C           0.015454        3.9845     1.06280     2.92174
   42          C           0.043435        3.9566     0.99630     2.96027
   43          C          -0.017736        4.0177     1.06199     2.95575
   44          C          -0.023249        4.0232     1.06443     2.95882
   45          C          -0.021806        4.0218     1.06625     2.95555
   46          O          -0.325133        6.3251     1.69111     4.63402
   47          C           0.110576        3.8894     1.05669     2.83273
   48          C           0.047407        3.9526     0.99418     2.95841
   49          C          -0.022137        4.0221     1.06533     2.95681
   50          C          -0.015940        4.0159     1.06001     2.95593
   51          C          -0.018175        4.0182     1.06201     2.95616
   52          C           0.499539        3.5005     1.04428     2.45618
   53          O          -0.598692        6.5987     1.81660     4.78209
   54          O          -0.309088        6.3091     1.68694     4.62215
   55          H           0.063489        0.9365     0.93651
   56          H           0.047220        0.9528     0.95278
   57          H           0.036476        0.9635     0.96352
   58          H           0.034525        0.9655     0.96547
   59          H           0.032992        0.9670     0.96701
   60          H           0.031734        0.9683     0.96827
   61          H           0.031233        0.9688     0.96877
   62          H           0.032530        0.9675     0.96747
   63          H           0.019772        0.9802     0.98023
   64          H           0.022442        0.9776     0.97756
   65          H           0.023585        0.9764     0.97642
   66          H           0.016462        0.9835     0.98354
   67          H           0.018941        0.9811     0.98106
   68          H           0.026555        0.9734     0.97344
   69          H           0.029617        0.9704     0.97038
   70          H           0.032761        0.9672     0.96724
   71          H           0.007403        0.9926     0.99260
   72          H           0.007270        0.9927     0.99273
   73          H           0.003591        0.9964     0.99641
   74          H           0.008154        0.9918     0.99185
   75          H          -0.001267        1.0013     1.00127
   76          H           0.008316        0.9917     0.99168
   77          H           0.002629        0.9974     0.99737
   78          H           0.009525        0.9905     0.99047
   79          H           0.005269        0.9947     0.99473
   80          H           0.027278        0.9727     0.97272
   81          H           0.014386        0.9856     0.98561
   82          H           0.029409        0.9706     0.97059
   83          H           0.006508        0.9935     0.99349
   84          H           0.004434        0.9956     0.99557
   85          H           0.002549        0.9975     0.99745
   86          H           0.004395        0.9956     0.99560
   87          H           0.003173        0.9968     0.99683
   88          H           0.009358        0.9906     0.99064
   89          H           0.000750        0.9993     0.99925
   90          H           0.005928        0.9941     0.99407
   91          H           0.010476        0.9895     0.98952
   92          H           0.246242        0.7538     0.75376
 DIPOLE           X         Y         Z       TOTAL
 POINT-CHG.    -0.477    -3.648    -1.274     3.894
 HYBRID         0.366     0.973     0.694     1.250
 SUM           -0.111    -2.675    -0.580     2.740


          ATOMIC ORBITAL ELECTRON POPULATIONS

     Atom    s        px        py        pz   
    1  N   1.75349   1.23044   1.23069   1.17304
    2  C   1.14762   0.94926   0.80759   0.88101
    3  C   1.00183   0.90705   0.92729   1.14508
    4  C   1.09401   0.98519   0.99311   0.80091
    5  C   1.06340   0.99427   0.91883   1.01162
    6  C   1.09490   0.94871   0.98981   0.95240
    7  C   1.08275   0.97286   0.98195   1.01151
    8  C   1.07554   0.95121   0.92462   0.97460
    9  S   1.77170   1.41900   1.19669   1.64857
   10  C   1.06802   1.03487   0.89755   0.96764
   11  C   1.08715   1.01123   0.97372   0.96097
   12  C   1.08437   1.03460   0.98356   0.94415
   13  C   1.07185   1.01016   0.92570   0.94589
   14  S   1.77339   1.85887   1.14044   1.27290
   15  C   1.06967   0.95859   0.92090   1.01328
   16  C   1.08550   0.96352   0.98571   1.00830
   17  C   1.08392   0.96451   0.97102   1.02862
   18  C   1.07151   0.97904   0.90370   1.00194
   19  S   1.77366   1.38707   1.13766   1.74774
   20  C   1.07685   0.97337   0.92399   0.97282
   21  S   1.77676   1.36536   1.19570   1.73060
   22  C   1.06888   0.95463   0.91711   1.05036
   23  C   1.04870   0.97647   0.97726   0.98938
   24  C   1.08602   0.96057   0.98242   1.02403
   25  C   1.07886   0.96831   0.98475   1.01745
   26  C   1.08037   0.96424   0.98041   0.99872
   27  C   1.04863   0.97842   0.97528   1.02084
   28  C   1.04902   0.96091   0.94325   0.96185
   29  N   1.24624   1.15009   1.15236   1.59287
   30  C   1.05104   0.99116   0.88707   0.99317
   31  C   1.04759   0.98955   0.95967   1.01867
   32  C   1.07908   0.95485   0.99388   0.99373
   33  C   1.07756   0.98494   0.95735   1.02409
   34  C   1.08037   0.98995   0.96247   0.99168
   35  C   1.07569   0.95974   0.98461   1.02196
   36  C   1.04081   0.88845   1.01970   0.98621
   37  C   1.08967   0.96922   1.03335   0.95627
   38  C   1.06196   0.98449   0.97719   0.96210
   39  C   1.04587   0.83092   1.00326   0.98791
   40  C   1.08666   0.96635   1.05229   0.94836
   41  C   1.06280   0.98997   0.97984   0.95193
   42  C   0.99630   0.98321   0.98950   0.98755
   43  C   1.06199   0.99157   0.98218   0.98199
   44  C   1.06443   0.97544   0.99138   0.99200
   45  C   1.06625   0.98985   0.98066   0.98504
   46  O   1.69111   1.32401   1.64237   1.66764
   47  C   1.05669   0.97708   0.92672   0.92892
   48  C   0.99418   0.99334   0.98975   0.97531
   49  C   1.06533   0.98726   0.98911   0.98044
   50  C   1.06001   0.98295   0.97966   0.99332
   51  C   1.06201   0.98214   0.98090   0.99313
   52  C   1.04428   0.88027   0.90162   0.67429
   53  O   1.81660   1.27682   1.95069   1.55459
   54  O   1.68694   1.52822   1.21689   1.87704
   55  H   0.93651
   56  H   0.95278
   57  H   0.96352
   58  H   0.96547
   59  H   0.96701
   60  H   0.96827
   61  H   0.96877
   62  H   0.96747
   63  H   0.98023
   64  H   0.97756
   65  H   0.97642
   66  H   0.98354
   67  H   0.98106
   68  H   0.97344
   69  H   0.97038
   70  H   0.96724
   71  H   0.99260
   72  H   0.99273
   73  H   0.99641
   74  H   0.99185
   75  H   1.00127
   76  H   0.99168
   77  H   0.99737
   78  H   0.99047
   79  H   0.99473
   80  H   0.97272
   81  H   0.98561
   82  H   0.97059
   83  H   0.99349
   84  H   0.99557
   85  H   0.99745
   86  H   0.99560
   87  H   0.99683
   88  H   0.99064
   89  H   0.99925
   90  H   0.99407
   91  H   0.98952
   92  H   0.75376

 **********************
 *                    *
 * JOB ENDED NORMALLY *
 *                    *
 **********************



 TOTAL JOB TIME:           675.34 SECONDS

 == MOPAC DONE ==
