 *******************************************************************************
 ** Site#: 37966        For non-commercial use only           Version 21.186W **
 *******************************************************************************
 ** Cite this program as: MOPAC2016, Version: 21.186W, James J. P. Stewart,   **
 ** Stewart Computational Chemistry, web: HTTP://OpenMOPAC.net. Days left: 254**
 *******************************************************************************
 **                                                                           **
 **                                MOPAC2016                                  **
 **                                                                           **
 *******************************************************************************

                              INDO CALCULATION RESULTS

 *******************************************************************************
 *  CALCULATION DONE:                                Sun Oct 24 22:39:19 2021  *
 *  INDO       - The INDO Hamiltonian to be used
 *  CIS        - C.I. USES 1 ELECTRON EXCITATIONS ONLY
 *  EPS=7.58   - USE ANDREAS KLAMT'S COSMO IMPLICIT SOLVATION MODEL
 *  N**2=1.40  - USED IN COSMO-CI
 *  T=         - A TIME OF 172800.0 SECONDS REQUESTED
 *  DUMP=N     - RESTART FILE WRITTEN EVERY 7200.0 SECONDS REQUESTED
 *******************************************************************************
INDO CIS EPS=7.58 N**2=1.40
 DyeE6
 Calculo de Estados Excitados
   ATOM   CHEMICAL          X               Y               Z
  NUMBER   SYMBOL      (ANGSTROMS)     (ANGSTROMS)     (ANGSTROMS)
 
     1       C          0.00000000  *   0.00000000  *   0.00000000  *
     2       C          1.52002837  *   0.00000000  *   0.00000000  *
     3       C          2.06030626  *   1.42758824  *   0.00000000  *
     4       C          3.58718541  *   1.43007397  *   0.01465442  *
     5       C          4.14159695  *   2.85948968  *  -0.05866400  *
     6       C          5.67476462  *   2.81139743  *   0.10396799  *
     7       O          6.02884164  *   3.94810553  *   0.87622839  *
     8       C          7.18545888  *   4.57430037  *   0.51609168  *
     9       C          7.11582539  *   5.93506976  *   0.32701265  *
    10       C          8.29078792  *   6.66928182  *   0.05724836  *
    11       C          8.25724167  *   8.07555438  *  -0.13312832  *
    12       S          6.87626111  *   9.08396748  *  -0.05492198  *
    13       C          7.81850403  *  10.48574419  *  -0.40600037  *
    14       C          9.14016602  *  10.20634080  *  -0.57036025  *
    15       C          9.40348504  *   8.80467065  *  -0.41374423  *
    16       C         10.64099288  *   8.13216961  *  -0.51401488  *
    17       C         10.68965830  *   6.75426476  *  -0.32582666  *
    18       C          9.52195681  *   5.99938865  *  -0.03526888  *
    19       C          9.58741103  *   4.60237250  *   0.16381077  *
    20       C          8.44074080  *   3.90125623  *   0.45471380  *
    21       O          8.37317928  *   2.55891951  *   0.66472624  *
    22       C          9.58184224  *   1.89897173  *   0.99464862  *
    23       C          9.15172294  *   0.50768059  *   1.50753387  *
    24       C         10.41895048  *  -0.35368292  *   1.59669466  *
    25       C         10.11334853  *  -1.79195641  *   2.00348248  *
    26       C         11.37288601  *  -2.65316111  *   1.91705821  *
    27       C         11.08118220  *  -4.07787761  *   2.35934656  *
    28       C          8.44405617  *   0.63782450  *   2.86342613  *
    29       C          7.20836554  *  -0.24542429  *   2.95253265  *
    30       S         12.27184504  *   6.15306824  *  -0.48825432  *
    31       C         12.90202232  *   7.71499284  *  -0.81009544  *
    32       C         11.92706489  *   8.68260755  *  -0.79616423  *
    33       C         14.27892198  *   8.01337476  *  -1.07113935  *
    34       C         15.29824603  *   7.13199707  *  -1.04276002  *
    35       C         16.68653151  *   7.51360640  *  -1.34055487  *
    36       O         17.59418553  *   6.78253419  *  -1.69960986  *
    37       O         16.93151225  *   8.83429624  *  -1.17829282  *
    38       C         15.14495406  *   5.75584069  *  -0.73926345  *
    39       N         15.05081645  *   4.62914027  *  -0.49438662  *
    40       C          7.21410168  *  11.79484617  *  -0.48409515  *
    41       C          7.85321571  *  12.86818313  *   0.15552843  *
    42       C          7.33053234  *  14.15006590  *   0.11528902  *
    43       C          6.14224655  *  14.33707050  *  -0.58706935  *
    44       C          5.49681174  *  13.25586480  *  -1.24836275  *
    45       C          6.02980945  *  11.98083943  *  -1.19233211  *
    46       C          4.32401434  *  13.79387293  *  -1.89001726  *
    47       C          3.33277012  *  13.21811826  *  -2.66761213  *
    48       C          2.32287145  *  14.03355421  *  -3.15624727  *
    49       C          2.30045309  *  15.40275858  *  -2.87309964  *
    50       C          3.27721241  *  16.00266551  *  -2.09311392  *
    51       C          4.28942141  *  15.18446588  *  -1.59890011  *
    52       N          5.36418396  *  15.50215550  *  -0.73898278  *
    53       C          5.84987099  *  16.85321761  *  -0.47393014  *
    54       C          6.79755008  *  17.34697140  *  -1.57685940  *
    55       C          7.28267109  *  18.75769400  *  -1.25813171  *
    56       C          8.22293053  *  19.25658735  *  -2.34307768  *
    57       C          3.75442182  *   3.49657639  *  -1.39572129  *
    58       C          4.20183434  *   4.94389186  *  -1.48580551  *
    59       H         -0.40917341  *  -1.02068989  *  -0.00379946  *
    60       H         -0.41714941  *   0.50299610  *   0.88433968  *
    61       H         -0.41709222  *   0.50963142  *  -0.88054916  *
    62       H          1.90241507  *  -0.56124820  *   0.87879270  *
    63       H          1.90193479  *  -0.56150340  *  -0.87884613  *
    64       H          1.67948677  *   1.98560092  *  -0.88462241  *
    65       H          1.66561786  *   1.98837935  *   0.87368325  *
    66       H          3.94810107  *   0.92165872  *   0.93485863  *
    67       H          3.98843878  *   0.81826964  *  -0.82059204  *
    68       H          3.69121905  *   3.45772612  *   0.77648182  *
    69       H          5.99931305  *   1.91279654  *   0.67580177  *
    70       H          6.19657519  *   2.75340898  *  -0.87608653  *
    71       H          6.15141926  *   6.44964972  *   0.40127513  *
    72       H          9.91303372  *  10.93377662  *  -0.80275243  *
    73       H         10.56107758  *   4.11238467  *   0.08260313  *
    74       H         10.22467179  *   1.81849978  *   0.08876441  *
    75       H         10.17123914  *   2.44702063  *   1.76425946  *
    76       H          8.45655483  *   0.05160209  *   0.75607680  *
    77       H         10.94486067  *  -0.35140873  *   0.61677340  *
    78       H         11.14764744  *   0.09805221  *   2.30324690  *
    79       H          9.70322675  *  -1.83223124  *   3.03409305  *
    80       H          9.31557930  *  -2.21864532  *   1.35952172  *
    81       H         11.77887608  *  -2.65146332  *   0.88324205  *
    82       H         12.18493853  *  -2.21832756  *   2.53746843  *
    83       H         11.97439729  *  -4.71628133  *   2.29681151  *
    84       H         10.73078989  *  -4.12883756  *   3.40035935  *
    85       H         10.30817828  *  -4.55644248  *   1.74088598  *
    86       H          9.13947087  *   0.41259581  *   3.69958466  *
    87       H          8.13912928  *   1.68931331  *   3.05793147  *
    88       H          6.74469337  *  -0.19260557  *   3.94875870  *
    89       H          6.43200492  *   0.05187753  *   2.23190195  *
    90       H          7.42048599  *  -1.30655388  *   2.76241931  *
    91       H         12.08954577  *   9.74401298  *  -0.97389901  *
    92       H         14.48244676  *   9.06833002  *  -1.31681580  *
    93       H         17.85511513  *   9.04336498  *  -1.37802818  *
    94       H          8.78259620  *  12.68775197  *   0.70577439  *
    95       H          7.83601927  *  14.97635936  *   0.61844929  *
    96       H          5.52984962  *  11.15247844  *  -1.70124539  *
    97       H          3.35491260  *  12.14749026  *  -2.88556464  *
    98       H          1.53007455  *  13.60229549  *  -3.77365946  *
    99       H          1.48983844  *  16.01655859  *  -3.27877575  *
   100       H          3.24485575  *  17.07257296  *  -1.88105344  *
   101       H          4.97595894  *  17.53550586  *  -0.36089336  *
   102       H          6.35487114  *  16.86118381  *   0.52025414  *
   103       H          7.65765908  *  16.65255360  *  -1.68558281  *
   104       H          6.28917128  *  17.32198287  *  -2.56385251  *
   105       H          6.42213067  *  19.45160129  *  -1.14941449  *
   106       H          7.79084745  *  18.78265052  *  -0.27070892  *
   107       H          8.58532715  *  20.27343983  *  -2.13328535  *
   108       H          9.11341868  *  18.62016846  *  -2.44847408  *
   109       H          7.73961379  *  19.29172646  *  -3.33014779  *
   110       H          4.16746425  *   2.91286904  *  -2.24610669  *
   111       H          2.65059440  *   3.43254982  *  -1.53347766  *
   112       H          3.80786983  *   5.43557650  *  -2.38775993  *
   113       H          3.86307473  *   5.54199063  *  -0.62742271  *
   114       H          5.29580812  *   5.04399638  *  -1.53223723  *
 


          CARTESIAN COORDINATES 

    NO.       ATOM           X           Y           Z

     1         C          0.0000      0.0000      0.0000
     2         C          1.5200      0.0000      0.0000
     3         C          2.0603      1.4276      0.0000
     4         C          3.5872      1.4301      0.0147
     5         C          4.1416      2.8595     -0.0587
     6         C          5.6748      2.8114      0.1040
     7         O          6.0288      3.9481      0.8762
     8         C          7.1855      4.5743      0.5161
     9         C          7.1158      5.9351      0.3270
    10         C          8.2908      6.6693      0.0572
    11         C          8.2572      8.0756     -0.1331
    12         S          6.8763      9.0840     -0.0549
    13         C          7.8185     10.4857     -0.4060
    14         C          9.1402     10.2063     -0.5704
    15         C          9.4035      8.8047     -0.4137
    16         C         10.6410      8.1322     -0.5140
    17         C         10.6897      6.7543     -0.3258
    18         C          9.5220      5.9994     -0.0353
    19         C          9.5874      4.6024      0.1638
    20         C          8.4407      3.9013      0.4547
    21         O          8.3732      2.5589      0.6647
    22         C          9.5818      1.8990      0.9946
    23         C          9.1517      0.5077      1.5075
    24         C         10.4190     -0.3537      1.5967
    25         C         10.1133     -1.7920      2.0035
    26         C         11.3729     -2.6532      1.9171
    27         C         11.0812     -4.0779      2.3593
    28         C          8.4441      0.6378      2.8634
    29         C          7.2084     -0.2454      2.9525
    30         S         12.2718      6.1531     -0.4883
    31         C         12.9020      7.7150     -0.8101
    32         C         11.9271      8.6826     -0.7962
    33         C         14.2789      8.0134     -1.0711
    34         C         15.2982      7.1320     -1.0428
    35         C         16.6865      7.5136     -1.3406
    36         O         17.5942      6.7825     -1.6996
    37         O         16.9315      8.8343     -1.1783
    38         C         15.1450      5.7558     -0.7393
    39         N         15.0508      4.6291     -0.4944
    40         C          7.2141     11.7948     -0.4841
    41         C          7.8532     12.8682      0.1555
    42         C          7.3305     14.1501      0.1153
    43         C          6.1422     14.3371     -0.5871
    44         C          5.4968     13.2559     -1.2484
    45         C          6.0298     11.9808     -1.1923
    46         C          4.3240     13.7939     -1.8900
    47         C          3.3328     13.2181     -2.6676
    48         C          2.3229     14.0336     -3.1562
    49         C          2.3005     15.4028     -2.8731
    50         C          3.2772     16.0027     -2.0931
    51         C          4.2894     15.1845     -1.5989
    52         N          5.3642     15.5022     -0.7390
    53         C          5.8499     16.8532     -0.4739
    54         C          6.7976     17.3470     -1.5769
    55         C          7.2827     18.7577     -1.2581
    56         C          8.2229     19.2566     -2.3431
    57         C          3.7544      3.4966     -1.3957
    58         C          4.2018      4.9439     -1.4858
    59         H         -0.4092     -1.0207     -0.0038
    60         H         -0.4171      0.5030      0.8843
    61         H         -0.4171      0.5096     -0.8805
    62         H          1.9024     -0.5612      0.8788
    63         H          1.9019     -0.5615     -0.8788
    64         H          1.6795      1.9856     -0.8846
    65         H          1.6656      1.9884      0.8737
    66         H          3.9481      0.9217      0.9349
    67         H          3.9884      0.8183     -0.8206
    68         H          3.6912      3.4577      0.7765
    69         H          5.9993      1.9128      0.6758
    70         H          6.1966      2.7534     -0.8761
    71         H          6.1514      6.4496      0.4013
    72         H          9.9130     10.9338     -0.8028
    73         H         10.5611      4.1124      0.0826
    74         H         10.2247      1.8185      0.0888
    75         H         10.1712      2.4470      1.7643
    76         H          8.4566      0.0516      0.7561
    77         H         10.9449     -0.3514      0.6168
    78         H         11.1476      0.0981      2.3032
    79         H          9.7032     -1.8322      3.0341
    80         H          9.3156     -2.2186      1.3595
    81         H         11.7789     -2.6515      0.8832
    82         H         12.1849     -2.2183      2.5375
    83         H         11.9744     -4.7163      2.2968
    84         H         10.7308     -4.1288      3.4004
    85         H         10.3082     -4.5564      1.7409
    86         H          9.1395      0.4126      3.6996
    87         H          8.1391      1.6893      3.0579
    88         H          6.7447     -0.1926      3.9488
    89         H          6.4320      0.0519      2.2319
    90         H          7.4205     -1.3066      2.7624
    91         H         12.0895      9.7440     -0.9739
    92         H         14.4824      9.0683     -1.3168
    93         H         17.8551      9.0434     -1.3780
    94         H          8.7826     12.6878      0.7058
    95         H          7.8360     14.9764      0.6184
    96         H          5.5298     11.1525     -1.7012
    97         H          3.3549     12.1475     -2.8856
    98         H          1.5301     13.6023     -3.7737
    99         H          1.4898     16.0166     -3.2788
   100         H          3.2449     17.0726     -1.8811
   101         H          4.9760     17.5355     -0.3609
   102         H          6.3549     16.8612      0.5203
   103         H          7.6577     16.6526     -1.6856
   104         H          6.2892     17.3220     -2.5639
   105         H          6.4221     19.4516     -1.1494
   106         H          7.7908     18.7827     -0.2707
   107         H          8.5853     20.2734     -2.1333
   108         H          9.1134     18.6202     -2.4485
   109         H          7.7396     19.2917     -3.3301
   110         H          4.1675      2.9129     -2.2461
   111         H          2.6506      3.4325     -1.5335
   112         H          3.8079      5.4356     -2.3878
   113         H          3.8631      5.5420     -0.6274
   114         H          5.2958      5.0440     -1.5322

           Empirical Formula: C50 H56 N2 O4 S2  =   114 atoms



      MOLECULAR POINT GROUP   :   C1  


      RHF CALCULATION, NO. OF DOUBLY OCCUPIED LEVELS = 151

 WARNING: INDO only performs single-point calculations


 ALL CONVERGERS ARE NOW FORCED ON
 SHIFT=10, PULAY ON, CAMP-KING ON
 AND ITERATION COUNTER RESET



 Summary of symmetry occupancy in each shell:

 SHELL     
    1  151
    v  137
 TOTAL 288




    ROOT NO.    1           2           3           4           5           6

           -48.57814   -48.54025   -46.78244   -45.96349   -45.85709   -43.49433
  
  
  S  C   1   0.00758    -0.00126    -0.00044     0.02642    -0.00452     0.06194
 PX  C   1   0.00333    -0.00056    -0.00018     0.01085    -0.00185     0.02331
 PY  C   1   0.00124    -0.00021    -0.00006     0.00371    -0.00062     0.00695
 PZ  C   1  -0.00005     0.00001     0.00000    -0.00016     0.00002    -0.00022
  
  S  C   2   0.01739    -0.00289    -0.00093     0.05323    -0.00912     0.10811
 PX  C   2   0.00350    -0.00058    -0.00015     0.00763    -0.00133     0.00827
 PY  C   2   0.00587    -0.00098    -0.00029     0.01639    -0.00276     0.02853
 PZ  C   2  -0.00017     0.00003     0.00001    -0.00055     0.00007    -0.00074
  
  S  C   3   0.03757    -0.00624    -0.00179     0.09746    -0.01630     0.15624
 PX  C   3   0.01258    -0.00209    -0.00053     0.02658    -0.00447     0.02880
 PY  C   3   0.00343    -0.00057    -0.00010     0.00438    -0.00049    -0.00587
 PZ  C   3  -0.00119     0.00020     0.00006    -0.00334     0.00045    -0.00426
  
  S  C   4   0.06968    -0.01155    -0.00290     0.14427    -0.02474     0.17425
 PX  C   4   0.00940    -0.00155    -0.00023     0.00479    -0.00134    -0.01678
 PY  C   4   0.02176    -0.00360    -0.00082     0.04002    -0.00625     0.03146
 PZ  C   4  -0.00169     0.00028     0.00009    -0.00636     0.00069    -0.00861
  
  S  C   5   0.13910    -0.02298    -0.00493     0.23191    -0.03646     0.17297
 PX  C   5   0.03926    -0.00646    -0.00103     0.03592    -0.00601    -0.01733
 PY  C   5   0.01158    -0.00189    -0.00020     0.00878     0.00059    -0.02134
 PZ  C   5  -0.00055     0.00009     0.00012    -0.01134     0.00101    -0.02225
  
  S  C   6   0.24996    -0.04116    -0.00713     0.26820    -0.04855     0.06245
 PX  C   6   0.03512    -0.00574    -0.00041    -0.01866    -0.00270    -0.05475
 PY  C   6   0.09419    -0.01548    -0.00240     0.09920    -0.01138    -0.01918
 PZ  C   6   0.04727    -0.00778    -0.00126     0.04010    -0.00829    -0.01481
  
  S  O   7   0.41790    -0.06866    -0.01048     0.41058    -0.05407    -0.04886
 PX  O   7   0.06877    -0.01125    -0.00120     0.03007    -0.00399    -0.03793
 PY  O   7  -0.03129     0.00522     0.00133    -0.03274     0.01506    -0.01881
 PZ  O   7  -0.08209     0.01350     0.00215    -0.08420     0.01193     0.00295
  
  S  C   8   0.31610    -0.05106    -0.00158     0.15063     0.04915    -0.14007
 PX  C   8  -0.04312     0.00746     0.00408    -0.14156     0.04271    -0.03290
 PY  C   8  -0.08087     0.01370     0.00435    -0.03566     0.05971    -0.01328
 PZ  C   8   0.01272    -0.00220    -0.00101     0.01473    -0.01333     0.00205
  
  S  C   9   0.14734    -0.02241     0.00599     0.05784     0.13834    -0.11374
 PX  C   9   0.01626    -0.00191     0.00413    -0.03260     0.06742    -0.04110
 PY  C   9  -0.06021     0.01021     0.00197    -0.04409     0.01493     0.03125
 PZ  C   9   0.00429    -0.00086    -0.00079     0.00739    -0.01117    -0.00042
  
  S  C  10   0.10904    -0.01336     0.01844    -0.02514     0.30213    -0.09831
 PX  C  10   0.00561     0.00001     0.00541    -0.01878     0.06954    -0.00339
 PY  C  10  -0.03057     0.00617     0.00212    -0.00495     0.01966     0.05873
 PZ  C  10   0.00303    -0.00081    -0.00112     0.00281    -0.01353    -0.00794
  
  S  C  11   0.05329     0.00045     0.01982    -0.03083     0.30849     0.05407
 PX  C  11   0.01066    -0.00029     0.00655    -0.01231     0.08742     0.00755
 PY  C  11  -0.01415     0.00512    -0.00080     0.00043    -0.01064     0.06726
 PZ  C  11   0.00027    -0.00068    -0.00091     0.00174    -0.01218    -0.01064
  
  S  S  12   0.01870     0.00913     0.00744    -0.01075     0.12838     0.09312
 PX  S  12   0.00954     0.00284     0.00482    -0.00822     0.08097     0.04996
 PY  S  12  -0.00367     0.00628    -0.00024    -0.00147    -0.00321     0.03864
 PZ  S  12  -0.00113    -0.00166    -0.00074     0.00146    -0.01269    -0.01442
  
  S  C  13   0.01821     0.03265     0.00875    -0.01549     0.15185     0.21333
 PX  C  13   0.00263    -0.00447     0.00234    -0.00385     0.03586     0.00986
 PY  C  13  -0.00267     0.01373    -0.00267     0.00421    -0.04141     0.02336
 PZ  C  13   0.00003    -0.00106     0.00005    -0.00008     0.00099    -0.00297
  
  S  C  14   0.01982     0.01482     0.01236    -0.02018     0.18821     0.15766
 PX  C  14  -0.00350    -0.00636    -0.00105     0.00270    -0.03038    -0.05268
 PY  C  14  -0.00715     0.00328    -0.00480     0.00763    -0.06880    -0.01011
 PZ  C  14   0.00161     0.00084     0.00085    -0.00153     0.01472     0.01117
  
  S  C  15   0.04234     0.00405     0.02443    -0.03838     0.33677     0.10220
 PX  C  15  -0.00288    -0.00226     0.00118     0.00027    -0.01688    -0.03406
 PY  C  15  -0.01281     0.00352    -0.00520     0.00825    -0.06381     0.03769
 PZ  C  15   0.00223    -0.00011     0.00053    -0.00121     0.01145     0.00015
  
  S  C  16   0.04241    -0.00134     0.03457    -0.04359     0.34090     0.02421
 PX  C  16  -0.00892    -0.00005     0.00285     0.00348    -0.03960    -0.00877
 PY  C  16  -0.00976     0.00167    -0.00532     0.00773    -0.05133     0.02094
 PZ  C  16   0.00277    -0.00022     0.00031    -0.00168     0.01347    -0.00156
  
  S  C  17   0.05469    -0.00505     0.03054    -0.04628     0.31333    -0.03097
 PX  C  17  -0.01773     0.00192     0.00047     0.00684    -0.05577     0.01741
 PY  C  17   0.00033     0.00107     0.00828    -0.00531     0.06958     0.02026
 PZ  C  17   0.00278    -0.00046    -0.00124    -0.00044    -0.00117    -0.00563
  
  S  C  18   0.11109    -0.01456     0.02036    -0.05148     0.29995    -0.11738
 PX  C  18  -0.02705     0.00412     0.00038    -0.00187    -0.02203     0.03361
 PY  C  18  -0.01363     0.00348     0.00604     0.00282     0.07264     0.02806
 PZ  C  18   0.00644    -0.00119    -0.00092    -0.00086    -0.00704    -0.00938
  
  S  C  19   0.15799    -0.02457     0.00705    -0.10222     0.11596    -0.12419
 PX  C  19  -0.05733     0.00915    -0.00049     0.01940    -0.02024     0.04487
 PY  C  19  -0.02623     0.00498     0.00490     0.04158     0.07936    -0.02134
 PZ  C  19   0.01462    -0.00246    -0.00068    -0.01317    -0.00966    -0.00360
  
  S  C  20   0.32472    -0.05258    -0.00096    -0.14684     0.00885    -0.14182
 PX  C  20  -0.03690     0.00611     0.00155    -0.08161     0.00587     0.00821
 PY  C  20  -0.08402     0.01437     0.00535     0.11072     0.10085    -0.03398
 PZ  C  20   0.01884    -0.00320    -0.00108    -0.01631    -0.01868     0.00534
  
  S  O  21   0.43333    -0.07132    -0.00897    -0.38451    -0.15845    -0.04616
 PX  O  21   0.06205    -0.01023    -0.00121    -0.11662    -0.03226     0.00354
 PY  O  21   0.07006    -0.01146    -0.00101    -0.01095    -0.00746    -0.04457
 PZ  O  21   0.00551    -0.00093    -0.00024    -0.01983    -0.00725     0.01127
  
  S  C  22   0.22499    -0.03708    -0.00490    -0.28815    -0.10526     0.06065
 PX  C  22  -0.09315     0.01536     0.00215     0.09955     0.04099     0.00218
 PY  C  22   0.05190    -0.00849    -0.00061    -0.03130    -0.00683    -0.05381
 PZ  C  22  -0.01753     0.00287     0.00020     0.00938     0.00186     0.02337
  
  S  C  23   0.12823    -0.02122    -0.00366    -0.22185    -0.08954     0.17317
 PX  C  23  -0.00354     0.00058     0.00007    -0.00620    -0.00078     0.01477
 PY  C  23   0.03881    -0.00639    -0.00081    -0.04067    -0.01503    -0.01785
 PZ  C  23  -0.00424     0.00069    -0.00002    -0.00383    -0.00240     0.02457
  
  S  C  24   0.06217    -0.01032    -0.00206    -0.14109    -0.05681     0.17296
 PX  C  24  -0.01738     0.00288     0.00055     0.03471     0.01427    -0.03367
 PY  C  24   0.01249    -0.00206    -0.00028    -0.01627    -0.00580    -0.00746
 PZ  C  24   0.00013    -0.00003    -0.00005    -0.00352    -0.00175     0.01115
  
  S  C  25   0.03367    -0.00560    -0.00129    -0.09293    -0.03844     0.15592
 PX  C  25  -0.00081     0.00013     0.00000    -0.00172    -0.00060     0.01098
 PY  C  25   0.01140    -0.00189    -0.00038    -0.02512    -0.01022     0.02582
 PZ  C  25  -0.00212     0.00035     0.00007     0.00509     0.00202    -0.00650
  
  S  C  26   0.01552    -0.00259    -0.00067    -0.05116    -0.02123     0.10753
 PX  C  26  -0.00438     0.00073     0.00018     0.01339     0.00557    -0.02542
 PY  C  26   0.00422    -0.00070    -0.00015    -0.01092    -0.00444     0.01474
 PZ  C  26   0.00006    -0.00001    -0.00001    -0.00075    -0.00034     0.00297
  
  S  C  27   0.00679    -0.00113    -0.00032    -0.02532    -0.01060     0.06177
 PX  C  27  -0.00049     0.00008     0.00002     0.00135     0.00057    -0.00217
 PY  C  27   0.00308    -0.00051    -0.00014    -0.01065    -0.00444     0.02354
 PZ  C  27  -0.00065     0.00011     0.00003     0.00235     0.00098    -0.00543
  
  S  C  28   0.08333    -0.01381    -0.00255    -0.14907    -0.06295     0.14077
 PX  C  28   0.00853    -0.00141    -0.00023    -0.01995    -0.00665     0.01353
 PY  C  28   0.00833    -0.00137    -0.00010    -0.00156    -0.00026    -0.01993
 PZ  C  28  -0.02904     0.00480     0.00081     0.04576     0.01883    -0.03020
  
  S  C  29   0.04049    -0.00672    -0.00137    -0.07420    -0.03397     0.09198
 PX  C  29   0.01293    -0.00215    -0.00042    -0.02888    -0.01150     0.02998
 PY  C  29   0.01007    -0.00167    -0.00030    -0.01387    -0.00655     0.01154
 PZ  C  29  -0.00813     0.00135     0.00025     0.01115     0.00546    -0.01115
  
  S  S  30   0.01880    -0.00176     0.02823    -0.02176     0.13142    -0.00858
 PX  S  30  -0.00964     0.00105     0.00225     0.00942    -0.05017     0.00825
 PY  S  30   0.00523    -0.00017     0.01463    -0.00805     0.06849     0.00258
 PZ  S  30   0.00079    -0.00014    -0.00228    -0.00038    -0.00187    -0.00166
  
  S  C  31   0.01369    -0.00072     0.05653    -0.01998     0.14582     0.00551
 PX  C  31  -0.00627     0.00035     0.01175     0.00859    -0.06161    -0.00136
 PY  C  31   0.00007     0.00010     0.00147    -0.00051     0.00553     0.00256
 PZ  C  31   0.00098    -0.00007    -0.00169    -0.00127     0.00883    -0.00015
  
  S  C  32   0.01854    -0.00039     0.03527    -0.02541     0.19198     0.01721
 PX  C  32  -0.00515    -0.00006     0.00345     0.00538    -0.04373    -0.00716
 PY  C  32  -0.00682     0.00060    -0.01112     0.00924    -0.06648     0.00174
 PZ  C  32   0.00179    -0.00007     0.00110    -0.00218     0.01645     0.00090
  
  S  C  33   0.00437    -0.00020     0.12607    -0.00569     0.04371     0.00324
 PX  C  33  -0.00174     0.00008     0.05030     0.00392    -0.02812    -0.00117
 PY  C  33  -0.00041     0.00004    -0.01881     0.00048    -0.00375     0.00002
 PZ  C  33   0.00036    -0.00002    -0.00189    -0.00066     0.00485     0.00019
  
  S  C  34   0.00233    -0.00012     0.22523    -0.00013     0.00392     0.00128
 PX  C  34  -0.00051     0.00003     0.07504     0.00272    -0.01908    -0.00083
 PY  C  34   0.00028    -0.00001     0.03790     0.00027    -0.00136     0.00017
 PZ  C  34   0.00003    -0.00000    -0.01612    -0.00042     0.00286     0.00009
  
  S  C  35   0.00187    -0.00009     0.51106     0.00732    -0.04709    -0.00073
 PX  C  35   0.00003    -0.00000     0.11435     0.00262    -0.01781    -0.00076
 PY  C  35   0.00023    -0.00001     0.08158     0.00132    -0.00859    -0.00010
 PZ  C  35   0.00002    -0.00000    -0.01582    -0.00042     0.00291     0.00015
  
  S  O  36   0.00119    -0.00006     0.41004     0.00666    -0.04362    -0.00114
 PX  O  36  -0.00036     0.00002    -0.11243    -0.00173     0.01128     0.00026
 PY  O  36   0.00035    -0.00002     0.12526     0.00207    -0.01361    -0.00035
 PZ  O  36   0.00015    -0.00001     0.05072     0.00081    -0.00528    -0.00013
  
  S  O  37   0.00182    -0.00009     0.57220     0.00888    -0.05766    -0.00107
 PX  O  37   0.00005    -0.00000     0.04966     0.00106    -0.00715    -0.00030
 PY  O  37  -0.00051     0.00002    -0.15818    -0.00241     0.01561     0.00028
 PZ  O  37  -0.00011     0.00001    -0.04058    -0.00067     0.00437     0.00010
  
  S  C  38   0.00135    -0.00008     0.09819    -0.00084     0.00678     0.00079
 PX  C  38  -0.00017     0.00001     0.02042     0.00081    -0.00549    -0.00026
 PY  C  38   0.00049    -0.00002     0.04215    -0.00012     0.00182     0.00028
 PZ  C  38  -0.00007     0.00000    -0.01214    -0.00011     0.00051    -0.00002
  
  S  N  39   0.00055    -0.00004     0.03260    -0.00055     0.00346     0.00033
 PX  N  39  -0.00002     0.00000     0.00456     0.00014    -0.00069    -0.00005
 PY  N  39   0.00028    -0.00002     0.01921    -0.00026     0.00192     0.00022
 PZ  N  39  -0.00005     0.00000    -0.00471     0.00003    -0.00026    -0.00004
  
  S  C  40   0.02030     0.10000     0.00349    -0.00720     0.07192     0.28759
 PX  C  40  -0.00208    -0.01843     0.00066    -0.00106     0.01011    -0.00955
 PY  C  40   0.00459     0.03680    -0.00088     0.00135    -0.01287     0.04013
 PZ  C  40  -0.00052    -0.00387     0.00009    -0.00015     0.00138    -0.00050
  
  S  C  41   0.01791     0.09802     0.00196    -0.00432     0.04337     0.23642
 PX  C  41  -0.00656    -0.03979    -0.00017     0.00060    -0.00639    -0.06747
 PY  C  41   0.00086     0.01075    -0.00073     0.00132    -0.01285    -0.01685
 PZ  C  41  -0.00404    -0.02290    -0.00033     0.00077    -0.00784    -0.04750
  
  S  C  42   0.02508     0.15184     0.00057    -0.00174     0.01800     0.17225
 PX  C  42  -0.00953    -0.05972     0.00014    -0.00010     0.00080    -0.02043
 PY  C  42  -0.00172    -0.00762    -0.00053     0.00121    -0.01222    -0.07810
 PZ  C  42  -0.00656    -0.04036    -0.00004     0.00021    -0.00228    -0.03002
  
  S  C  43   0.05892     0.36699    -0.00056     0.00017    -0.00071     0.10878
 PX  C  43  -0.01638    -0.10459     0.00065    -0.00119     0.01190     0.05982
 PY  C  43   0.00636     0.04279    -0.00067     0.00144    -0.01460    -0.09357
 PZ  C  43  -0.00907    -0.05737     0.00026    -0.00044     0.00431     0.01774
  
  S  C  44   0.04842     0.29946    -0.00011    -0.00065     0.00750     0.12921
 PX  C  44  -0.00117    -0.00993     0.00050    -0.00112     0.01143     0.08361
 PY  C  44   0.01756     0.11231    -0.00069     0.00123    -0.01223    -0.04889
 PZ  C  44   0.00319     0.01890     0.00016    -0.00044     0.00450     0.04267
  
  S  C  45   0.02228     0.12761     0.00149    -0.00352     0.03593     0.21356
 PX  C  45   0.00141     0.00414     0.00068    -0.00142     0.01421     0.06220
 PY  C  45   0.00917     0.05881    -0.00024     0.00021    -0.00181     0.04027
 PZ  C  45   0.00289     0.01556     0.00037    -0.00083     0.00839     0.04811
  
  S  C  46   0.04718     0.29678    -0.00105     0.00159    -0.01551    -0.07515
 PX  C  46   0.00952     0.05925    -0.00006    -0.00007     0.00093     0.04505
 PY  C  46   0.01265     0.08034    -0.00043     0.00077    -0.00770    -0.04507
 PZ  C  46   0.00909     0.05694    -0.00014     0.00013    -0.00114     0.01940
  
  S  C  47   0.01930     0.12176    -0.00053     0.00092    -0.00915    -0.08793
 PX  C  47   0.00403     0.02518    -0.00005     0.00004    -0.00037     0.00715
 PY  C  47   0.00762     0.04836    -0.00026     0.00049    -0.00490    -0.04559
 PZ  C  47   0.00432     0.02714    -0.00009     0.00014    -0.00132    -0.00529
  
  S  C  48   0.01387     0.08790    -0.00047     0.00090    -0.00909    -0.10178
 PX  C  48   0.00533     0.03375    -0.00017     0.00031    -0.00311    -0.03039
 PY  C  48   0.00235     0.01493    -0.00009     0.00018    -0.00184    -0.01977
 PZ  C  48   0.00404     0.02557    -0.00013     0.00024    -0.00246    -0.02439
  
  S  C  49   0.01438     0.09126    -0.00051     0.00098    -0.00991    -0.10816
 PX  C  49   0.00573     0.03629    -0.00019     0.00036    -0.00361    -0.03426
 PY  C  49  -0.00333    -0.02111     0.00011    -0.00021     0.00210     0.02316
 PZ  C  49   0.00306     0.01937    -0.00010     0.00019    -0.00193    -0.01763
  
  S  C  50   0.02321     0.14707    -0.00076     0.00139    -0.01397    -0.11910
 PX  C  50   0.00691     0.04367    -0.00019     0.00031    -0.00306    -0.00903
 PY  C  50  -0.00851    -0.05390     0.00027    -0.00049     0.00486     0.04349
 PZ  C  50   0.00260     0.01640    -0.00006     0.00009    -0.00090     0.00388
  
  S  C  51   0.05739     0.36240    -0.00155     0.00257    -0.02539    -0.13257
 PX  C  51   0.01625     0.10222    -0.00034     0.00046    -0.00436     0.01758
 PY  C  51  -0.00840    -0.05266     0.00014    -0.00016     0.00147    -0.00010
 PZ  C  51   0.00886     0.05580    -0.00019     0.00026    -0.00250     0.01216
  
  S  N  52   0.07496     0.47286    -0.00190     0.00300    -0.02947    -0.08641
 PX  N  52  -0.00019    -0.00143     0.00006    -0.00014     0.00148     0.01860
 PY  N  52  -0.01276    -0.07988     0.00019    -0.00017     0.00152    -0.01650
 PZ  N  52  -0.00953    -0.06024     0.00026    -0.00043     0.00428     0.01931
  
  S  C  53   0.03316     0.20963    -0.00095     0.00161    -0.01598    -0.06510
 PX  C  53  -0.00291    -0.01846     0.00009    -0.00016     0.00162     0.00832
 PY  C  53  -0.01386    -0.08747     0.00035    -0.00055     0.00541     0.01278
 PZ  C  53  -0.00582    -0.03684     0.00018    -0.00031     0.00312     0.01533
  
  S  C  54   0.01833     0.11600    -0.00056     0.00099    -0.00990    -0.04909
 PX  C  54  -0.00455    -0.02881     0.00014    -0.00023     0.00231     0.00971
 PY  C  54  -0.00457    -0.02877     0.00011    -0.00016     0.00152     0.00099
 PZ  C  54   0.00387     0.02445    -0.00011     0.00019    -0.00189    -0.00740
  
  S  C  55   0.00771     0.04890    -0.00027     0.00051    -0.00514    -0.03307
 PX  C  55  -0.00121    -0.00766     0.00004    -0.00007     0.00068     0.00321
 PY  C  55  -0.00280    -0.01774     0.00009    -0.00016     0.00158     0.00801
 PZ  C  55  -0.00021    -0.00134     0.00001    -0.00003     0.00026     0.00263
  
  S  C  56   0.00337     0.02140    -0.00013     0.00025    -0.00253    -0.01870
 PX  C  56  -0.00095    -0.00606     0.00003    -0.00007     0.00068     0.00471
 PY  C  56  -0.00095    -0.00602     0.00003    -0.00006     0.00062     0.00394
 PZ  C  56   0.00077     0.00492    -0.00003     0.00006    -0.00056    -0.00394
  
  S  C  57   0.08760    -0.01447    -0.00320     0.16353    -0.02299     0.13879
 PX  C  57   0.02060    -0.00339    -0.00059     0.02649    -0.00340     0.00531
 PY  C  57  -0.00226     0.00039     0.00020    -0.00776     0.00273    -0.01736
 PZ  C  57   0.02581    -0.00427    -0.00092     0.04436    -0.00673     0.03277
  
  S  C  58   0.06401    -0.01052    -0.00197     0.10828    -0.01064     0.07028
 PX  C  58   0.00870    -0.00141    -0.00008     0.00542     0.00111    -0.00849
 PY  C  58  -0.02177     0.00361     0.00082    -0.03872     0.00630    -0.02936
 PZ  C  58   0.01429    -0.00235    -0.00041     0.02032    -0.00207     0.00780
  
  S  H  59   0.00232    -0.00039    -0.00014     0.00851    -0.00146     0.02115
  
  S  H  60   0.00332    -0.00055    -0.00019     0.01143    -0.00195     0.02655
  
  S  H  61   0.00340    -0.00057    -0.00019     0.01168    -0.00198     0.02689
  
  S  H  62   0.00746    -0.00124    -0.00039     0.02221    -0.00385     0.04467
  
  S  H  63   0.00761    -0.00127    -0.00040     0.02280    -0.00391     0.04545
  
  S  H  64   0.01866    -0.00310    -0.00087     0.04754    -0.00774     0.07248
  
  S  H  65   0.01629    -0.00270    -0.00076     0.04139    -0.00689     0.06490
  
  S  H  66   0.03044    -0.00504    -0.00122     0.05732    -0.01064     0.06829
  
  S  H  67   0.02960    -0.00491    -0.00122     0.06027    -0.01051     0.07358
  
  S  H  68   0.06151    -0.01016    -0.00214     0.10079    -0.01531     0.06979
  
  S  H  69   0.09816    -0.01618    -0.00280     0.08192    -0.02323     0.02964
  
  S  H  70   0.10506    -0.01728    -0.00279     0.09656    -0.01927     0.02284
  
  S  H  71   0.05114    -0.00774     0.00152     0.03445     0.04080    -0.02738
  
  S  H  72   0.00600     0.00650     0.00421    -0.00633     0.05760     0.05505
  
  S  H  73   0.05954    -0.00938     0.00224    -0.05468     0.02894    -0.03394
  
  S  H  74   0.08080    -0.01330    -0.00160    -0.10573    -0.03573     0.02190
  
  S  H  75   0.08583    -0.01412    -0.00166    -0.11092    -0.03705     0.02341
  
  S  H  76   0.05608    -0.00928    -0.00160    -0.09178    -0.03820     0.07243
  
  S  H  77   0.02614    -0.00434    -0.00083    -0.05769    -0.02288     0.06791
  
  S  H  78   0.02676    -0.00444    -0.00087    -0.06008    -0.02395     0.07211
  
  S  H  79   0.01605    -0.00267    -0.00061    -0.04308    -0.01794     0.07070
  
  S  H  80   0.01533    -0.00255    -0.00058    -0.04088    -0.01700     0.06706
  
  S  H  81   0.00668    -0.00111    -0.00028    -0.02158    -0.00893     0.04448
  
  S  H  82   0.00675    -0.00113    -0.00028    -0.02187    -0.00905     0.04504
  
  S  H  83   0.00208    -0.00035    -0.00010    -0.00817    -0.00342     0.02107
  
  S  H  84   0.00303    -0.00051    -0.00014    -0.01110    -0.00465     0.02675
  
  S  H  85   0.00300    -0.00050    -0.00014    -0.01102    -0.00462     0.02661
  
  S  H  86   0.03018    -0.00501    -0.00096    -0.05977    -0.02491     0.06354
  
  S  H  87   0.04777    -0.00790    -0.00131    -0.06941    -0.02970     0.05033
  
  S  H  88   0.01282    -0.00213    -0.00044    -0.02380    -0.01111     0.03169
  
  S  H  89   0.02207    -0.00366    -0.00072    -0.02847    -0.01567     0.03936
  
  S  H  90   0.01696    -0.00282    -0.00059    -0.03436    -0.01538     0.04563
  
  S  H  91   0.00521     0.00023     0.01239    -0.00733     0.05707     0.00994
  
  S  H  92   0.00169    -0.00006     0.06176    -0.00194     0.01527     0.00157
  
  S  H  93   0.00072    -0.00003     0.24104     0.00388    -0.02529    -0.00055
  
  S  H  94   0.00497     0.02388     0.00099    -0.00197     0.01940     0.07644
  
  S  H  95   0.00818     0.05008     0.00008    -0.00034     0.00351     0.04101
  
  S  H  96   0.00650     0.03539     0.00062    -0.00134     0.01376     0.06259
  
  S  H  97   0.00531     0.03326    -0.00011     0.00017    -0.00166    -0.01809
  
  S  H  98   0.00316     0.02005    -0.00011     0.00022    -0.00220    -0.02719
  
  S  H  99   0.00331     0.02105    -0.00012     0.00025    -0.00248    -0.02947
  
  S  H 100   0.00760     0.04815    -0.00025     0.00046    -0.00464    -0.03677
  
  S  H 101   0.01197     0.07579    -0.00036     0.00063    -0.00631    -0.03020
  
  S  H 102   0.01202     0.07590    -0.00033     0.00054    -0.00534    -0.01911
  
  S  H 103   0.00862     0.05443    -0.00024     0.00040    -0.00402    -0.01708
  
  S  H 104   0.00840     0.05316    -0.00026     0.00046    -0.00456    -0.02326
  
  S  H 105   0.00329     0.02086    -0.00012     0.00022    -0.00222    -0.01435
  
  S  H 106   0.00331     0.02098    -0.00011     0.00021    -0.00214    -0.01339
  
  S  H 107   0.00103     0.00657    -0.00004     0.00008    -0.00082    -0.00643
  
  S  H 108   0.00150     0.00956    -0.00006     0.00011    -0.00109    -0.00789
  
  S  H 109   0.00150     0.00951    -0.00006     0.00011    -0.00111    -0.00816
  
  S  H 110   0.03623    -0.00599    -0.00132     0.06683    -0.00967     0.05813
  
  S  H 111   0.03003    -0.00497    -0.00119     0.06321    -0.00914     0.06554
  
  S  H 112   0.01822    -0.00299    -0.00057     0.03317    -0.00300     0.02446
  
  S  H 113   0.03058    -0.00501    -0.00088     0.04988    -0.00401     0.02944
  
  S  H 114   0.04478    -0.00731    -0.00102     0.06089    -0.00235     0.02382




    ROOT NO.    7           8           9          10          11          12

           -43.25946   -42.52442   -42.48126   -41.95173   -41.37036   -40.16996
  
  
  S  C   1  -0.07372    -0.02813    -0.12025    -0.06411    -0.03927     0.02810
 PX  C   1  -0.02747    -0.01013    -0.04322    -0.02242    -0.01330     0.00880
 PY  C   1  -0.00806    -0.00282    -0.01198    -0.00596    -0.00334     0.00190
 PZ  C   1   0.00024     0.00007     0.00030     0.00013     0.00005     0.00001
  
  S  C   2  -0.12663    -0.04589    -0.19558    -0.10015    -0.05857     0.03775
 PX  C   2  -0.00870    -0.00196    -0.00807    -0.00204     0.00023    -0.00231
 PY  C   2  -0.03281    -0.01114    -0.04726    -0.02289    -0.01246     0.00656
 PZ  C   2   0.00083     0.00025     0.00105     0.00045     0.00018     0.00003
  
  S  C   3  -0.17823    -0.05896    -0.24979    -0.11873    -0.06327     0.03194
 PX  C   3  -0.03082    -0.00784    -0.03258    -0.01123    -0.00308    -0.00270
 PY  C   3   0.00839     0.00481     0.02097     0.01338     0.00960    -0.00862
 PZ  C   3   0.00474     0.00137     0.00569     0.00241     0.00096     0.00016
  
  S  C   4  -0.19127    -0.05545    -0.23331    -0.09704    -0.04351     0.01191
 PX  C   4   0.02220     0.01025     0.04388     0.02597     0.01643    -0.01066
 PY  C   4  -0.03220    -0.00669    -0.02739    -0.00643     0.00058    -0.00534
 PZ  C   4   0.00973     0.00297     0.01243     0.00541     0.00230     0.00010
  
  S  C   5  -0.17761    -0.03889    -0.16009    -0.04594    -0.00787    -0.01384
 PX  C   5   0.02603     0.01352     0.05765     0.03529     0.02075    -0.00913
 PY  C   5   0.02600     0.01040     0.04506     0.02127     0.01141    -0.00544
 PZ  C   5   0.02571     0.00799     0.03313     0.01589     0.00692     0.00043
  
  S  C   6  -0.03961     0.01027     0.04272     0.06641     0.04897    -0.02653
 PX  C   6   0.06363     0.01710     0.06697     0.03593     0.01551     0.00097
 PY  C   6   0.03190     0.01843     0.07993     0.04608     0.02454    -0.00775
 PZ  C   6   0.02365     0.01211     0.05060     0.03254     0.01809    -0.00493
  
  S  O   7   0.09668     0.06416     0.27960     0.16214     0.08659    -0.02590
 PX  O   7   0.04412     0.01260     0.05221     0.02074     0.00518     0.00461
 PY  O   7   0.01119    -0.00089     0.00235    -0.02709    -0.02214     0.01178
 PZ  O   7  -0.01215    -0.01077    -0.04666    -0.03052    -0.01748     0.00645
  
  S  C   8   0.11789     0.02279     0.13447    -0.06834    -0.08460     0.04950
 PX  C   8  -0.00119    -0.02668    -0.10381    -0.10539    -0.07813     0.03229
 PY  C   8  -0.01908    -0.01026    -0.00998    -0.10638    -0.07428     0.02638
 PZ  C   8   0.00688     0.00545     0.01682     0.02840     0.01985    -0.00676
  
  S  C   9   0.05784     0.00522     0.07884    -0.19821    -0.13209     0.05383
 PX  C   9   0.00770    -0.00917    -0.01216    -0.09548    -0.06703     0.02336
 PY  C   9  -0.02816    -0.00460    -0.03599    -0.00490     0.03020    -0.02005
 PZ  C   9   0.00457     0.00212     0.00751     0.01371     0.00461     0.00014
  
  S  C  10   0.00367    -0.00891     0.02876    -0.26306    -0.11392     0.01590
 PX  C  10  -0.02454    -0.00903    -0.00931     0.00103    -0.00980    -0.01101
 PY  C  10  -0.02621     0.01119    -0.00609     0.05898     0.11623    -0.05574
 PZ  C  10   0.00768    -0.00018     0.00224    -0.00826    -0.01478     0.00957
  
  S  C  11  -0.00600     0.03775     0.01143    -0.13862     0.19961    -0.09294
 PX  C  11  -0.02408    -0.00200    -0.00099     0.00403     0.02853    -0.02685
 PY  C  11   0.01900     0.02801    -0.00728     0.03924     0.14265    -0.03353
 PZ  C  11   0.00114    -0.00364     0.00119    -0.00605    -0.02433     0.00887
  
  S  S  12   0.04800     0.05263     0.00038    -0.06343     0.18794    -0.03725
 PX  S  12   0.01698     0.02804     0.00015    -0.03597     0.12853    -0.03746
 PY  S  12   0.02532     0.01559    -0.00629     0.01745     0.02982     0.01343
 PZ  S  12  -0.00715    -0.00739     0.00102     0.00324    -0.02444     0.00333
  
  S  C  13   0.13570     0.09892    -0.01389    -0.03505     0.25407     0.01462
 PX  C  13  -0.01069     0.00665     0.00129    -0.00992     0.07950    -0.03539
 PY  C  13   0.04351     0.00197    -0.00555     0.02532    -0.09956     0.07160
 PZ  C  13  -0.00298    -0.00144     0.00059    -0.00204     0.00297    -0.00347
  
  S  C  14   0.05772     0.07297    -0.00729    -0.02065     0.29812    -0.05829
 PX  C  14  -0.03908    -0.02873     0.00265     0.02842    -0.08136     0.00129
 PY  C  14   0.02191    -0.00631    -0.00202     0.00973    -0.08717     0.05144
 PZ  C  14   0.00443     0.00574    -0.00024    -0.00572     0.02500    -0.00619
  
  S  C  15  -0.03412     0.03956     0.00057    -0.01588     0.27563    -0.12016
 PX  C  15  -0.03750    -0.02934    -0.00146     0.07616    -0.10231     0.02389
 PY  C  15   0.03770     0.02225    -0.00377     0.00545     0.07243     0.00146
 PZ  C  15   0.00077     0.00147     0.00074    -0.01266     0.00568    -0.00370
  
  S  C  16  -0.14233    -0.03811    -0.00469     0.21911     0.00471    -0.04188
 PX  C  16  -0.02939    -0.02277    -0.00497     0.13452    -0.08047     0.04293
 PY  C  16   0.02955     0.01789     0.00025    -0.02568     0.06404    -0.01338
 PZ  C  16   0.00047     0.00105     0.00073    -0.01752     0.00355    -0.00480
  
  S  C  17  -0.12423    -0.05129    -0.00605     0.12868    -0.11492     0.00365
 PX  C  17  -0.01753    -0.00842    -0.00499     0.12834    -0.00977     0.01847
 PY  C  17  -0.04324    -0.00829     0.00080     0.09598     0.02465    -0.02000
 PZ  C  17   0.00892     0.00249     0.00062    -0.03377    -0.00201    -0.00001
  
  S  C  18  -0.02214    -0.03404     0.00037    -0.19789    -0.19465     0.04405
 PX  C  18  -0.02995    -0.00468    -0.00965     0.10246     0.03233    -0.01638
 PY  C  18  -0.03796     0.00083     0.01031     0.03741     0.05195    -0.04014
 PZ  C  18   0.01019     0.00055    -0.00027    -0.02132    -0.01256     0.00836
  
  S  C  19   0.04436    -0.03083    -0.06379    -0.16053    -0.17270     0.06999
 PX  C  19  -0.03135     0.00380     0.01220     0.06336     0.04539    -0.02361
 PY  C  19  -0.01666    -0.00287     0.04342    -0.06539    -0.06658     0.01768
 PZ  C  19   0.00736    -0.00042    -0.01016     0.00032     0.00344     0.00080
  
  S  C  20   0.11664    -0.02114    -0.11154    -0.07224    -0.07839     0.04918
 PX  C  20  -0.01863    -0.01449    -0.06213    -0.02431    -0.01731     0.00418
 PY  C  20  -0.01468     0.00426     0.10196    -0.13223    -0.12075     0.04521
 PZ  C  20   0.00419     0.00094    -0.01034     0.02464     0.02261    -0.00830
  
  S  O  21   0.09682    -0.02999    -0.27428     0.12563     0.11868    -0.03410
 PX  O  21   0.00363    -0.01058    -0.07283     0.01412     0.01933    -0.00751
 PY  O  21   0.04862    -0.00453    -0.04462     0.01476     0.00510     0.00655
 PZ  O  21  -0.00961     0.00037     0.00214     0.00208     0.00454    -0.00374
  
  S  C  22  -0.03826    -0.00816    -0.06692     0.03515     0.04652    -0.02387
 PX  C  22  -0.01594     0.00755     0.06905    -0.03325    -0.03483     0.01282
 PY  C  22   0.05930    -0.01346    -0.10317     0.02576     0.01861     0.00027
 PZ  C  22  -0.02581     0.00582     0.04490    -0.01173    -0.00851    -0.00025
  
  S  C  23  -0.16552     0.02251     0.17111    -0.03135    -0.00782    -0.01545
 PX  C  23  -0.01711     0.00347     0.02948    -0.01156    -0.01081     0.00488
 PY  C  23   0.02529    -0.00822    -0.06724     0.02534     0.02555    -0.01046
 PZ  C  23  -0.02672     0.00558     0.04386    -0.01241    -0.00944     0.00039
  
  S  C  24  -0.17818     0.03185     0.25090    -0.07021    -0.05414     0.01380
 PX  C  24   0.03298    -0.00488    -0.03739     0.00754     0.00260     0.00365
 PY  C  24   0.01118    -0.00455    -0.03669     0.01493     0.01748    -0.01181
 PZ  C  24  -0.01212     0.00267     0.02095    -0.00633    -0.00556     0.00190
  
  S  C  25  -0.16648     0.03410     0.27033    -0.08427    -0.07628     0.03451
 PX  C  25  -0.01299     0.00352     0.02852    -0.01102    -0.01232     0.00874
 PY  C  25  -0.02539     0.00362     0.02784    -0.00526    -0.00068    -0.00512
 PZ  C  25   0.00677    -0.00125    -0.00987     0.00291     0.00240    -0.00086
  
  S  C  26  -0.11800     0.02649     0.21133    -0.07126    -0.07093     0.04110
 PX  C  26   0.02752    -0.00590    -0.04689     0.01516     0.01434    -0.00725
 PY  C  26  -0.01519     0.00266     0.02088    -0.00549    -0.00360    -0.00049
 PZ  C  26  -0.00340     0.00087     0.00701    -0.00255    -0.00278     0.00192
  
  S  C  27  -0.06883     0.01626     0.13012    -0.04558    -0.04747     0.03049
 PX  C  27   0.00227    -0.00043    -0.00342     0.00096     0.00074    -0.00011
 PY  C  27  -0.02594     0.00590     0.04712    -0.01602    -0.01609     0.00948
 PZ  C  27   0.00601    -0.00139    -0.01115     0.00386     0.00395    -0.00244
  
  S  C  28  -0.13699     0.02043     0.15527    -0.02983    -0.00997    -0.01492
 PX  C  28  -0.01337     0.00195     0.01549    -0.00439    -0.00296     0.00103
 PY  C  28   0.02261    -0.00492    -0.03977     0.01293     0.01104    -0.00265
 PZ  C  28   0.02762    -0.00320    -0.02330     0.00207    -0.00231     0.00432
  
  S  C  29  -0.09165     0.01453     0.11212    -0.02426    -0.01144    -0.00890
 PX  C  29  -0.02992     0.00508     0.03869    -0.00860    -0.00466    -0.00177
 PY  C  29  -0.01055     0.00123     0.00878    -0.00017     0.00182    -0.00301
 PZ  C  29   0.01062    -0.00138    -0.01054     0.00171     0.00023     0.00115
  
  S  S  30  -0.08906    -0.04138    -0.00898     0.20399    -0.10117     0.04381
 PX  S  30   0.02005     0.00949     0.00268    -0.01140     0.02340     0.00687
 PY  S  30  -0.05385    -0.02229    -0.00275     0.13594    -0.04445     0.01863
 PZ  S  30   0.00447     0.00164    -0.00006    -0.01726     0.00249    -0.00345
  
  S  C  31  -0.12476    -0.05487    -0.00964     0.35048    -0.12216     0.07570
 PX  C  31   0.03621     0.01308     0.00217    -0.06363     0.01459     0.01457
 PY  C  31  -0.00526    -0.00155    -0.00033     0.01873     0.00069    -0.00058
 PZ  C  31  -0.00495    -0.00185    -0.00030     0.00755    -0.00251    -0.00198
  
  S  C  32  -0.12880    -0.04789    -0.00881     0.31939    -0.06813     0.02515
 PX  C  32   0.00930    -0.00194    -0.00025     0.00802    -0.02885     0.02614
 PY  C  32   0.05039     0.02192     0.00322    -0.11737     0.04715    -0.01562
 PZ  C  32  -0.00870    -0.00284    -0.00043     0.01566    -0.00223    -0.00184
  
  S  C  33  -0.05973    -0.02971    -0.00536     0.21666    -0.08471     0.08586
 PX  C  33   0.02108     0.00890     0.00156    -0.05511     0.01708    -0.00507
 PY  C  33   0.00774     0.00439     0.00076    -0.03283     0.01567    -0.02093
 PZ  C  33  -0.00470    -0.00220    -0.00038     0.01482    -0.00562     0.00464
  
  S  C  34  -0.02979    -0.01689    -0.00309     0.13434    -0.05982     0.08362
 PX  C  34   0.01676     0.00821     0.00147    -0.05881     0.02301    -0.02131
 PY  C  34  -0.00113    -0.00046    -0.00007     0.00281     0.00029    -0.00807
 PZ  C  34  -0.00218    -0.00109    -0.00020     0.00785    -0.00325     0.00358
  
  S  C  35   0.01195     0.00438     0.00079    -0.02477     0.00660     0.00426
 PX  C  35   0.01474     0.00775     0.00142    -0.05990     0.02540    -0.02914
 PY  C  35   0.00406     0.00212     0.00040    -0.01636     0.00872    -0.02727
 PZ  C  35  -0.00281    -0.00150    -0.00027     0.01166    -0.00477     0.00305
  
  S  O  36   0.01909     0.00871     0.00158    -0.06094     0.02174    -0.00221
 PX  O  36  -0.00386    -0.00156    -0.00028     0.00977    -0.00265    -0.00480
 PY  O  36   0.00641     0.00304     0.00056    -0.02200     0.00872    -0.00842
 PZ  O  36   0.00211     0.00093     0.00017    -0.00627     0.00213     0.00004
  
  S  O  37   0.02209     0.01012     0.00186    -0.07127     0.03006    -0.05438
 PX  O  37   0.00551     0.00289     0.00053    -0.02254     0.00974    -0.01402
 PY  O  37  -0.00529    -0.00227    -0.00041     0.01504    -0.00577     0.00798
 PZ  O  37  -0.00206    -0.00100    -0.00018     0.00730    -0.00308     0.00457
  
  S  C  38  -0.02261    -0.01325    -0.00253     0.10789    -0.05120     0.08644
 PX  C  38   0.00491     0.00238     0.00045    -0.01687     0.00638    -0.00481
 PY  C  38  -0.00579    -0.00290    -0.00046     0.02055    -0.00753     0.00311
 PZ  C  38   0.00043     0.00023     0.00003    -0.00168     0.00060    -0.00020
  
  S  N  39  -0.01153    -0.00720    -0.00146     0.06140    -0.03112     0.06086
 PX  N  39   0.00054     0.00024     0.00007    -0.00157     0.00034     0.00102
 PY  N  39  -0.00624    -0.00380    -0.00074     0.03195    -0.01574     0.02933
 PZ  N  39   0.00119     0.00074     0.00014    -0.00631     0.00318    -0.00623
  
  S  C  40   0.25857     0.10050    -0.02687     0.02257    -0.02937     0.16859
 PX  C  40  -0.01747    -0.00260     0.00240    -0.00858     0.05457    -0.01266
 PY  C  40   0.05225    -0.00145    -0.00401     0.01884    -0.09749     0.04246
 PZ  C  40  -0.00143    -0.00336     0.00085    -0.00127     0.00829     0.00088
  
  S  C  41   0.22444     0.05474    -0.01913     0.02915    -0.08589     0.15901
 PX  C  41  -0.06869    -0.01283     0.00574    -0.01175     0.05245    -0.04148
 PY  C  41  -0.00775    -0.02249     0.00340     0.00403    -0.03851    -0.00460
 PZ  C  41  -0.04559    -0.01331     0.00438    -0.00646     0.02185    -0.02775
  
  S  C  42   0.17634    -0.02514    -0.00361     0.02608    -0.11427     0.09856
 PX  C  42  -0.02377     0.02062    -0.00249    -0.00384     0.02679     0.01640
 PY  C  42  -0.07481    -0.04614     0.01200    -0.01373     0.04899    -0.05557
 PZ  C  42  -0.03137     0.00518     0.00060    -0.00512     0.02544    -0.00553
  
  S  C  43   0.12215    -0.08826     0.00981     0.01960    -0.12549    -0.08531
 PX  C  43   0.05672     0.01770    -0.00551     0.00684    -0.01097     0.12085
 PY  C  43  -0.08857    -0.09994     0.02302    -0.02092     0.07815    -0.08077
 PZ  C  43   0.01682    -0.00586     0.00058     0.00049     0.00563     0.04925
  
  S  C  44   0.13215     0.07783    -0.02189     0.03232    -0.15993    -0.03193
 PX  C  44   0.08458    -0.02224     0.00048     0.00989    -0.04018     0.05750
 PY  C  44  -0.04372    -0.03470     0.00793    -0.00493     0.00064    -0.10573
 PZ  C  44   0.04451    -0.02143     0.00195     0.00539    -0.02684     0.01045
  
  S  C  45   0.20361     0.09482    -0.02621     0.03066    -0.11022     0.11968
 PX  C  45   0.05724     0.00712    -0.00314     0.00401    -0.00272     0.04520
 PY  C  45   0.04499     0.01238    -0.00528     0.01298    -0.06706     0.00800
 PZ  C  45   0.04614     0.00718    -0.00315     0.00541    -0.01708     0.02988
  
  S  C  46  -0.08431     0.24351    -0.04302     0.01046    -0.03230    -0.02113
 PX  C  46   0.05393    -0.10409     0.01671     0.00374    -0.04721    -0.09722
 PY  C  46  -0.04570     0.01971    -0.00175    -0.00462     0.02012    -0.03362
 PZ  C  46   0.02508    -0.06293     0.01038     0.00155    -0.02741    -0.07381
  
  S  C  47  -0.10532     0.30216    -0.05227     0.00589     0.02326     0.12958
 PX  C  47   0.00851    -0.00598     0.00056     0.00204    -0.01598    -0.02803
 PY  C  47  -0.05263     0.11638    -0.01953     0.00015     0.01996     0.04876
 PZ  C  47  -0.00593     0.02161    -0.00392     0.00139    -0.00630    -0.00830
  
  S  C  48  -0.12112     0.30760    -0.05228     0.00196     0.05146     0.17162
 PX  C  48  -0.03570     0.08894    -0.01514     0.00086     0.01144     0.03756
 PY  C  48  -0.02291     0.04651    -0.00766    -0.00064     0.01316     0.02764
 PZ  C  48  -0.02859     0.06896    -0.01168     0.00044     0.01036     0.03063
  
  S  C  49  -0.12714     0.29306    -0.04917    -0.00059     0.06329     0.17027
 PX  C  49  -0.03944     0.08233    -0.01368    -0.00048     0.01779     0.03749
 PY  C  49   0.02775    -0.07607     0.01307    -0.00109    -0.00862    -0.03678
 PZ  C  49  -0.02008     0.03840    -0.00630    -0.00051     0.00966     0.01635
  
  S  C  50  -0.13352     0.22099    -0.03532    -0.00631     0.07491     0.11229
 PX  C  50  -0.00634    -0.03824     0.00743    -0.00319     0.00571    -0.03606
 PY  C  50   0.05032    -0.11667     0.01973    -0.00083    -0.01515    -0.03893
 PZ  C  50   0.00708    -0.04872     0.00881    -0.00201    -0.00107    -0.03511
  
  S  C  51  -0.13635     0.12222    -0.01743    -0.00802     0.04003    -0.07305
 PX  C  51   0.02908    -0.15017     0.02655    -0.00332    -0.02286    -0.13032
 PY  C  51   0.00207    -0.07840     0.01517    -0.00836     0.03899     0.02870
 PZ  C  51   0.02010    -0.11115     0.01981    -0.00329    -0.01079    -0.08842
  
  S  N  52  -0.06639    -0.25699     0.05079    -0.02379     0.04987    -0.21759
 PX  N  52   0.02177    -0.05678     0.00980    -0.00150     0.00352     0.02528
 PY  N  52  -0.01770    -0.04872     0.01079    -0.01138     0.06797     0.09800
 PZ  N  52   0.01880    -0.00574     0.00038     0.00134    -0.00154     0.03457
  
  S  C  53  -0.05221    -0.27168     0.05449    -0.03361     0.14707     0.10783
 PX  C  53   0.00857    -0.01857     0.00332    -0.00161     0.01436     0.06730
 PY  C  53   0.00851     0.04493    -0.00855     0.00229     0.00823     0.09800
 PZ  C  53   0.01348     0.04412    -0.00913     0.00661    -0.03123    -0.03088
  
  S  C  54  -0.04017    -0.24996     0.05043    -0.03464     0.18140     0.31211
 PX  C  54   0.00838     0.01993    -0.00411     0.00239    -0.00532     0.03368
 PY  C  54  -0.00017    -0.00419     0.00111    -0.00267     0.02517     0.09568
 PZ  C  54  -0.00552    -0.04158     0.00824    -0.00489     0.02192     0.02048
  
  S  C  55  -0.02792    -0.19341     0.03928    -0.02942     0.17133     0.38625
 PX  C  55   0.00273     0.00973    -0.00198     0.00121    -0.00408     0.00838
 PY  C  55   0.00649     0.04304    -0.00866     0.00587    -0.03042    -0.04879
 PZ  C  55   0.00238     0.01601    -0.00330     0.00279    -0.01808    -0.05020
  
  S  C  56  -0.01602    -0.11786     0.02401    -0.01872     0.11444     0.28881
 PX  C  56   0.00404     0.02729    -0.00556     0.00425    -0.02513    -0.05804
 PY  C  56   0.00329     0.02381    -0.00483     0.00358    -0.02077    -0.04636
 PZ  C  56  -0.00334    -0.02480     0.00504    -0.00384     0.02299     0.05511
  
  S  C  57  -0.14691    -0.03498    -0.14320    -0.05218    -0.01493    -0.01100
 PX  C  57  -0.00320     0.00185     0.00870     0.00724     0.00566    -0.00444
 PY  C  57   0.01919     0.00631     0.02742     0.00980     0.00466    -0.00225
 PZ  C  57  -0.03369    -0.00736    -0.03019    -0.00878    -0.00161    -0.00244
  
  S  C  58  -0.07379    -0.01485    -0.05745    -0.02543    -0.00582    -0.00960
 PX  C  58   0.00958     0.00351     0.01565     0.00433     0.00159     0.00025
 PY  C  58   0.03007     0.00645     0.02644     0.00660     0.00043     0.00384
 PZ  C  58  -0.00736    -0.00061    -0.00178    -0.00013     0.00094    -0.00140
  
  S  H  59  -0.02532    -0.00985    -0.04216    -0.02280    -0.01420     0.01054
  
  S  H  60  -0.03158    -0.01203    -0.05142    -0.02739    -0.01676     0.01198
  
  S  H  61  -0.03196    -0.01214    -0.05189    -0.02759    -0.01685     0.01198
  
  S  H  62  -0.05225    -0.01886    -0.08037    -0.04105    -0.02396     0.01544
  
  S  H  63  -0.05314    -0.01914    -0.08154    -0.04155    -0.02417     0.01540
  
  S  H  64  -0.08231    -0.02672    -0.11297    -0.05305    -0.02766     0.01290
  
  S  H  65  -0.07392    -0.02434    -0.10311    -0.04891    -0.02603     0.01317
  
  S  H  66  -0.07446    -0.02116    -0.08894    -0.03662    -0.01633     0.00492
  
  S  H  67  -0.08081    -0.02351    -0.09901    -0.04122    -0.01851     0.00513
  
  S  H  68  -0.07104    -0.01482    -0.06054    -0.01659    -0.00214    -0.00576
  
  S  H  69  -0.02064     0.00161     0.00415     0.02384     0.01957    -0.01061
  
  S  H  70  -0.01503     0.00185     0.00585     0.02101     0.01606    -0.00901
  
  S  H  71   0.01701     0.00584     0.03474    -0.05463    -0.02459     0.00989
  
  S  H  72   0.02150     0.02249    -0.00347     0.00700     0.08272    -0.00836
  
  S  H  73   0.00921    -0.01315    -0.03625    -0.03174    -0.04838     0.01908
  
  S  H  74  -0.01582    -0.00322    -0.02166     0.00784     0.01129    -0.00612
  
  S  H  75  -0.01747    -0.00302    -0.01975     0.00665     0.01062    -0.00645
  
  S  H  76  -0.06882     0.00937     0.07062    -0.01199    -0.00233    -0.00670
  
  S  H  77  -0.07000     0.01244     0.09836    -0.02807    -0.02214     0.00661
  
  S  H  78  -0.07429     0.01320     0.10418    -0.02935    -0.02267     0.00586
  
  S  H  79  -0.07516     0.01519     0.12021    -0.03684    -0.03272     0.01390
  
  S  H  80  -0.07136     0.01449     0.11468    -0.03539    -0.03172     0.01400
  
  S  H  81  -0.04875     0.01090     0.08695    -0.02928    -0.02910     0.01683
  
  S  H  82  -0.04935     0.01102     0.08788    -0.02954    -0.02929     0.01683
  
  S  H  83  -0.02363     0.00569     0.04559    -0.01621    -0.01717     0.01144
  
  S  H  84  -0.02976     0.00701     0.05603    -0.01956    -0.02032     0.01298
  
  S  H  85  -0.02962     0.00698     0.05583    -0.01952    -0.02029     0.01300
  
  S  H  86  -0.06324     0.01014     0.07814    -0.01764    -0.00926    -0.00399
  
  S  H  87  -0.04657     0.00606     0.04391    -0.00432     0.00321    -0.00869
  
  S  H  88  -0.03176     0.00509     0.03938    -0.00869    -0.00418    -0.00332
  
  S  H  89  -0.03862     0.00532     0.04172    -0.00838    -0.00283    -0.00473
  
  S  H  90  -0.04619     0.00775     0.06029    -0.01453    -0.00873    -0.00213
  
  S  H  91  -0.03572    -0.01174    -0.00274     0.09642    -0.00931     0.00626
  
  S  H  92  -0.02173    -0.01063    -0.00195     0.07861    -0.02920     0.02807
  
  S  H  93   0.01105     0.00525     0.00096    -0.03802     0.01611    -0.02672
  
  S  H  94   0.06860     0.02037    -0.00604     0.00684    -0.00601     0.05124
  
  S  H  95   0.04334    -0.02861     0.00336     0.00469    -0.02148     0.03239
  
  S  H  96   0.05700     0.04019    -0.00954     0.00726    -0.02089     0.03775
  
  S  H  97  -0.02299     0.08693    -0.01538     0.00284     0.00114     0.03974
  
  S  H  98  -0.03275     0.08691    -0.01482     0.00063     0.01504     0.05448
  
  S  H  99  -0.03491     0.08164    -0.01369    -0.00031     0.01949     0.05423
  
  S  H 100  -0.03993     0.04099    -0.00575    -0.00418     0.03126     0.03481
  
  S  H 101  -0.02600    -0.09926     0.02033    -0.01403     0.06505     0.05591
  
  S  H 102  -0.01389    -0.11026     0.02179    -0.01264     0.05622     0.05543
  
  S  H 103  -0.01299    -0.10652     0.02125    -0.01379     0.07149     0.12699
  
  S  H 104  -0.01971    -0.10070     0.02049    -0.01456     0.07618     0.12681
  
  S  H 105  -0.01223    -0.07992     0.01626    -0.01226     0.07115     0.15792
  
  S  H 106  -0.01118    -0.08091     0.01640    -0.01213     0.07036     0.15793
  
  S  H 107  -0.00554    -0.04146     0.00845    -0.00669     0.04153     0.10844
  
  S  H 108  -0.00671    -0.05059     0.01029    -0.00797     0.04868     0.12295
  
  S  H 109  -0.00701    -0.05032     0.01026    -0.00801     0.04890     0.12294
  
  S  H 110  -0.06166    -0.01494    -0.06144    -0.02234    -0.00657    -0.00437
  
  S  H 111  -0.07117    -0.01898    -0.07862    -0.03190    -0.01215    -0.00147
  
  S  H 112  -0.02622    -0.00575    -0.02253    -0.01081    -0.00312    -0.00313
  
  S  H 113  -0.03089    -0.00583    -0.02201    -0.01128    -0.00261    -0.00399
  
  S  H 114  -0.02513    -0.00354    -0.01075    -0.01084    -0.00329    -0.00337




    ROOT NO.   13          14          15          16          17          18

           -39.63158   -39.23848   -38.98434   -38.96935   -36.96157   -36.52639
  
  
  S  C   1  -0.02600     0.26110    -0.21821     0.01453     0.01586     0.00175
 PX  C   1  -0.00782     0.07600    -0.06213     0.00413     0.00363     0.00041
 PY  C   1  -0.00154     0.01373    -0.01051     0.00070     0.00007    -0.00011
 PZ  C   1  -0.00003     0.00053    -0.00058     0.00004     0.00019     0.00009
  
  S  C   2  -0.03316     0.32026    -0.26079     0.01732     0.01526     0.00200
 PX  C   2   0.00300    -0.03629     0.03352    -0.00227    -0.00396    -0.00021
 PY  C   2  -0.00508     0.04372    -0.03252     0.00217    -0.00005    -0.00019
 PZ  C   2  -0.00011     0.00179    -0.00195     0.00011     0.00060     0.00030
  
  S  C   3  -0.02430     0.20663    -0.15259     0.01028     0.00034    -0.00065
 PX  C   3   0.00425    -0.05388     0.05078    -0.00328    -0.00544    -0.00016
 PY  C   3   0.00855    -0.08998     0.07740    -0.00509    -0.00717    -0.00175
 PZ  C   3  -0.00051     0.00839    -0.00889     0.00061     0.00261     0.00129
  
  S  C   4  -0.00464     0.00863     0.01202     0.00004    -0.00312     0.00352
 PX  C   4   0.00879    -0.07681     0.05743    -0.00349     0.00350     0.00304
 PY  C   4   0.00634    -0.07082     0.06355    -0.00341    -0.00451    -0.00046
 PZ  C   4  -0.00088     0.01565    -0.01746     0.00093     0.00507     0.00246
  
  S  C   5   0.01735    -0.18998     0.16814    -0.00792    -0.00403     0.00343
 PX  C   5   0.00497    -0.01445    -0.00473     0.00289     0.01959     0.00964
 PY  C   5   0.00379    -0.03100     0.02220    -0.00182    -0.00382    -0.00395
 PZ  C   5  -0.00283     0.05209    -0.05526     0.00496     0.01796     0.00908
  
  S  C   6   0.01668    -0.07313     0.02821     0.01266     0.05229     0.02777
 PX  C   6  -0.00505     0.07981    -0.07087     0.01071     0.01107     0.00288
 PY  C   6   0.00253     0.02211    -0.03552     0.00762     0.01899     0.00774
 PZ  C   6   0.00027     0.03959    -0.05193     0.00679     0.02420     0.01137
  
  S  O   7   0.00646     0.10726    -0.16738     0.02060     0.07270     0.03190
 PX  O   7  -0.00566     0.06284    -0.05003     0.00422    -0.00810    -0.00540
 PY  O   7  -0.00695     0.01936    -0.00867    -0.01408    -0.03410    -0.01781
 PZ  O   7  -0.00276    -0.00461     0.01659    -0.00419    -0.01358    -0.00602
  
  S  C   8  -0.02565     0.10207    -0.05943    -0.04320    -0.10921    -0.04511
 PX  C   8  -0.01007    -0.02331     0.07848    -0.01502    -0.06767    -0.02137
 PY  C   8  -0.01080    -0.03507     0.02131    -0.05472    -0.06279    -0.02974
 PZ  C   8   0.00166     0.01818    -0.02209     0.00930     0.01631     0.00607
  
  S  C   9  -0.03575     0.01930    -0.00811    -0.10448    -0.11602    -0.07213
 PX  C   9  -0.00943    -0.01173     0.01843    -0.02959    -0.02816    -0.01147
 PY  C   9   0.00153    -0.02887     0.01984     0.00324     0.05080     0.00643
 PZ  C   9   0.00056     0.01046    -0.00942     0.00362    -0.00348     0.00064
  
  S  C  10  -0.02278    -0.04826     0.00793    -0.07966     0.05035    -0.01416
 PX  C  10   0.01886    -0.02983    -0.01169     0.03483     0.08251     0.05061
 PY  C  10   0.00376    -0.00221    -0.01002     0.02850     0.10818     0.01649
 PZ  C  10  -0.00347     0.00576     0.00245    -0.00917    -0.02774    -0.00984
  
  S  C  11  -0.04641     0.01228     0.02134    -0.05166     0.10965    -0.03764
 PX  C  11   0.01174    -0.01667    -0.01427     0.02873     0.08336     0.03224
 PY  C  11  -0.02413     0.05134     0.02117    -0.00813    -0.06053    -0.03539
 PZ  C  11   0.00153    -0.00436    -0.00091    -0.00329    -0.00462     0.00029
  
  S  S  12  -0.05146     0.05302     0.03914    -0.06053    -0.06423    -0.06291
 PX  S  12  -0.03218     0.03400     0.02343    -0.03270    -0.02333    -0.03658
 PY  S  12  -0.00280     0.01405     0.00630     0.00095    -0.04659     0.00380
 PZ  S  12   0.00544    -0.00722    -0.00471     0.00513     0.00997     0.00690
  
  S  C  13  -0.05740     0.08210     0.05359    -0.06414    -0.19485    -0.02366
 PX  C  13  -0.01765     0.02324     0.01240    -0.01248    -0.01848    -0.01608
 PY  C  13   0.02598    -0.02569    -0.01510     0.01920    -0.02875     0.05860
 PZ  C  13  -0.00107     0.00046     0.00047    -0.00103     0.00176     0.00208
  
  S  C  14  -0.05667     0.08473     0.04509    -0.04366    -0.12084    -0.04523
 PX  C  14   0.02558    -0.02850    -0.02276     0.03220     0.06060     0.01639
 PY  C  14   0.01335    -0.01478    -0.00520     0.00234    -0.04141     0.03001
 PZ  C  14  -0.00579     0.00657     0.00433    -0.00542    -0.00578    -0.00380
  
  S  C  15  -0.02299     0.02865     0.00301     0.01507     0.10389    -0.01300
 PX  C  15   0.04355    -0.03409    -0.03472     0.05823     0.02889     0.04334
 PY  C  15  -0.02851     0.04908     0.02872    -0.03393    -0.11875    -0.04717
 PZ  C  15  -0.00278    -0.00154     0.00138    -0.00436     0.01177     0.00045
  
  S  C  16   0.08282    -0.04560    -0.07564     0.14536     0.09613     0.06455
 PX  C  16   0.02690     0.00786    -0.01276     0.02862    -0.11885    -0.01855
 PY  C  16  -0.02424     0.03183     0.02006    -0.02929    -0.03858    -0.03723
 PZ  C  16  -0.00081    -0.00572    -0.00081    -0.00041     0.02415     0.00834
  
  S  C  17   0.08358    -0.08294    -0.06728     0.12285     0.10386     0.10345
 PX  C  17   0.01157     0.02496    -0.00528     0.02051    -0.10031    -0.02843
 PY  C  17   0.02330    -0.00338    -0.02642     0.04610     0.03204     0.00850
 PZ  C  17  -0.00518    -0.00338     0.00461    -0.00987     0.01125     0.00337
  
  S  C  18   0.01844    -0.08123    -0.00189    -0.00911     0.05371     0.06225
 PX  C  18   0.02580    -0.01045    -0.01954     0.05485     0.04313     0.03934
 PY  C  18   0.01634    -0.02331    -0.03068     0.03209     0.12513     0.03406
 PZ  C  18  -0.00636     0.00511     0.00729    -0.01311    -0.02466    -0.01087
  
  S  C  19  -0.00593    -0.01459     0.06281    -0.01409    -0.09921     0.00406
 PX  C  19   0.01408    -0.01723    -0.02415     0.02162     0.05712     0.02649
 PY  C  19   0.00383    -0.02931    -0.02252    -0.02568    -0.00075     0.01390
 PZ  C  19  -0.00271     0.00679     0.00694     0.00043    -0.00837    -0.00609
  
  S  C  20  -0.01982     0.07389     0.08471     0.02871    -0.09937    -0.02915
 PX  C  20   0.00315    -0.03323     0.03862     0.00311    -0.00371     0.00680
 PY  C  20  -0.01106    -0.02456    -0.03274    -0.08160    -0.09102    -0.02179
 PZ  C  20   0.00133     0.00787    -0.00302     0.01074     0.01552     0.00231
  
  S  O  21   0.00304     0.05337     0.10444     0.11499     0.06906     0.00952
 PX  O  21   0.00205    -0.01248     0.02582     0.01205     0.01275     0.00204
 PY  O  21  -0.00510     0.05323     0.04609     0.04868    -0.00931    -0.00384
 PZ  O  21   0.00161    -0.01417    -0.01539    -0.01349     0.00421     0.00085
  
  S  C  22   0.00861    -0.06047    -0.02912    -0.03152     0.02982     0.00683
 PX  C  22  -0.00246     0.00269    -0.01263    -0.01531    -0.02276    -0.00302
 PY  C  22  -0.00242     0.04186     0.07077     0.06328     0.00997     0.00188
 PZ  C  22   0.00131    -0.02347    -0.03969    -0.03587    -0.00801    -0.00167
  
  S  C  23   0.01028    -0.12584    -0.16463    -0.15292    -0.01186    -0.00213
 PX  C  23  -0.00186     0.01612     0.02099     0.01765     0.00028     0.00028
 PY  C  23   0.00325    -0.01803    -0.00591    -0.00506     0.01563     0.00332
 PZ  C  23   0.00121    -0.02490    -0.04326    -0.03975    -0.01393    -0.00300
  
  S  C  24  -0.00318     0.00673    -0.01033    -0.01160    -0.01400    -0.00284
 PX  C  24  -0.00276     0.03635     0.05045     0.04683     0.00729     0.00146
 PY  C  24   0.00595    -0.06223    -0.07335    -0.06851    -0.00255    -0.00007
 PZ  C  24  -0.00058     0.00259    -0.00089    -0.00061    -0.00344    -0.00087
  
  S  C  25  -0.01485     0.13954     0.15590     0.14403     0.00146    -0.00039
 PX  C  25  -0.00467     0.05244     0.06722     0.06226     0.00800     0.00154
 PY  C  25   0.00379    -0.05008    -0.06934    -0.06480    -0.01242    -0.00248
 PZ  C  25   0.00032    -0.00264    -0.00308    -0.00269    -0.00017    -0.00006
  
  S  C  26  -0.02042     0.21769     0.26802     0.24871     0.02544     0.00461
 PX  C  26   0.00333    -0.03314    -0.03867    -0.03582    -0.00165    -0.00018
 PY  C  26   0.00091    -0.01535    -0.02349    -0.02213    -0.00678    -0.00145
 PZ  C  26  -0.00103     0.01166     0.01476     0.01377     0.00184     0.00035
  
  S  C  27  -0.01595     0.17686     0.22340     0.20773     0.02713     0.00522
 PX  C  27  -0.00003     0.00104     0.00198     0.00185     0.00087     0.00020
 PY  C  27  -0.00474     0.05063     0.06236     0.05789     0.00583     0.00104
 PZ  C  27   0.00125    -0.01358    -0.01698    -0.01577    -0.00183    -0.00034
  
  S  C  28   0.01115    -0.14706    -0.21031    -0.19309    -0.03452    -0.00717
 PX  C  28  -0.00056     0.00635     0.01126     0.00952     0.00418     0.00081
 PY  C  28   0.00014     0.00828     0.01902     0.01801     0.01051     0.00223
 PZ  C  28  -0.00225     0.02381     0.02858     0.02618    -0.00163    -0.00041
  
  S  C  29   0.00784    -0.10983    -0.16480    -0.15088    -0.03601    -0.00731
 PX  C  29   0.00175    -0.02609    -0.03927    -0.03621    -0.00812    -0.00187
 PY  C  29   0.00180    -0.02094    -0.02848    -0.02588    -0.00319    -0.00055
 PZ  C  29  -0.00074     0.00835     0.01101     0.00998     0.00031    -0.00009
  
  S  S  30   0.01218    -0.00166    -0.00831     0.02098    -0.04873     0.01654
 PX  S  30  -0.05278     0.03512     0.03573    -0.07189    -0.00723    -0.03081
 PY  S  30   0.02040     0.00394    -0.01281     0.02382    -0.05404    -0.01559
 PZ  S  30   0.00441    -0.00571    -0.00321     0.00677     0.00997     0.00785
  
  S  C  31  -0.00989     0.06331     0.03279    -0.06036    -0.19436    -0.10716
 PX  C  31  -0.06837     0.04357     0.06337    -0.12430    -0.00641    -0.05413
 PY  C  31   0.01688     0.00570    -0.00237     0.00565    -0.03733    -0.02461
 PZ  C  31   0.00803    -0.00706    -0.00888     0.01728     0.00700     0.01222
  
  S  C  32   0.06181     0.01357    -0.03531     0.07496    -0.13020    -0.03939
 PX  C  32  -0.02186     0.02428     0.02900    -0.05716    -0.06558    -0.04672
 PY  C  32  -0.02577     0.00628     0.01882    -0.03576     0.03220    -0.00286
 PZ  C  32   0.00709    -0.00464    -0.00718     0.01396     0.00580     0.00785
  
  S  C  33  -0.09104     0.13123     0.13526    -0.26199    -0.15699    -0.17464
 PX  C  33  -0.00588     0.01445     0.02622    -0.05208     0.05045     0.00675
 PY  C  33   0.06222    -0.02159    -0.03099     0.06100     0.00028     0.01828
 PZ  C  33  -0.00632     0.00413     0.00384    -0.00742    -0.00645    -0.00395
  
  S  C  34  -0.23390     0.09872     0.13280    -0.26020    -0.02856    -0.10208
 PX  C  34  -0.00498    -0.04474    -0.04352     0.08418     0.02874     0.03223
 PY  C  34   0.11405     0.02953     0.01568    -0.02920    -0.05944    -0.05459
 PZ  C  34  -0.00187     0.00821     0.00935    -0.01824     0.01296     0.00975
  
  S  C  35  -0.12025    -0.04111    -0.02919     0.05561    -0.02921    -0.03360
 PX  C  35  -0.03538    -0.09702    -0.10259     0.19945    -0.02019     0.02876
 PY  C  35   0.34681     0.10726     0.07896    -0.15105     0.06262     0.04755
 PZ  C  35   0.06192     0.04133     0.03886    -0.07522     0.02220     0.00645
  
  S  O  36  -0.41673    -0.21791    -0.19183     0.37015    -0.11166    -0.05069
 PX  O  36   0.12922     0.05136     0.04112    -0.07895     0.02487     0.01678
 PY  O  36  -0.02409    -0.03391    -0.03429     0.06653    -0.01273     0.00130
 PZ  O  36  -0.03982    -0.01938    -0.01645     0.03168    -0.00666    -0.00251
  
  S  O  37   0.48170     0.11395     0.07413    -0.14094     0.10166     0.09055
 PX  O  37   0.04593    -0.01327    -0.01925     0.03776     0.01715     0.03043
 PY  O  37  -0.05892    -0.01215    -0.00745     0.01413    -0.00491    -0.00168
 PZ  O  37  -0.02262     0.00013     0.00258    -0.00518    -0.00322    -0.00586
  
  S  C  38  -0.36301     0.06725     0.12645    -0.25016     0.26294     0.17525
 PX  C  38  -0.01988    -0.01908    -0.01755     0.03385    -0.00864    -0.00751
 PY  C  38   0.02412     0.00293    -0.00780     0.01613    -0.18671    -0.17629
 PZ  C  38   0.00328     0.00426     0.00586    -0.01152     0.04096     0.03816
  
  S  N  39  -0.28372     0.04981     0.10286    -0.20399     0.36736     0.29298
 PX  N  39  -0.01566    -0.00316    -0.00076     0.00121     0.01378     0.01123
 PY  N  39  -0.13287     0.02320     0.04684    -0.09286     0.14513     0.11150
 PZ  N  39   0.03074    -0.00386    -0.00915     0.01819    -0.03148    -0.02431
  
  S  C  40   0.01638    -0.00508     0.00153    -0.00231    -0.11857     0.08251
 PX  C  40  -0.01285     0.01813     0.01109    -0.01258    -0.05932     0.03101
 PY  C  40   0.02626    -0.03342    -0.02081     0.02476     0.05982     0.04184
 PZ  C  40  -0.00141     0.00233     0.00145    -0.00159    -0.01865     0.02820
  
  S  C  41   0.03228    -0.02902    -0.01497     0.01787    -0.06979     0.17672
 PX  C  41  -0.01428     0.01666     0.00953    -0.01094    -0.01871    -0.02325
 PY  C  41   0.00981    -0.01554    -0.01026     0.01199     0.04729     0.02696
 PZ  C  41  -0.00640     0.00621     0.00326    -0.00380     0.00140    -0.00868
  
  S  C  42   0.03369    -0.03845    -0.02248     0.02651    -0.00573     0.18983
 PX  C  42  -0.00159     0.00384     0.00268    -0.00309    -0.01913     0.00594
 PY  C  42  -0.01499     0.01583     0.00887    -0.01042    -0.01097    -0.01926
 PZ  C  42  -0.00466     0.00608     0.00371    -0.00433    -0.01349    -0.00171
  
  S  C  43   0.00440    -0.01338    -0.00990     0.01174     0.06292    -0.00116
 PX  C  43   0.02267    -0.02156    -0.01147     0.01339    -0.03159     0.13096
 PY  C  43  -0.02463     0.02806     0.01632    -0.01899    -0.07893     0.06140
 PZ  C  43   0.00780    -0.00666    -0.00331     0.00388    -0.03500     0.09137
  
  S  C  44   0.01724    -0.02769    -0.01804     0.02093     0.18800    -0.24090
[...]
    Config     362   0.06147026  0.00377859
    Config     363   0.05051428  0.00255169
    Config     370   0.04880921  0.00238234
    Config     372   0.04202798  0.00176635
    Config     376   0.04391200  0.00192826
    Config     381  -0.04829058  0.00233198
    Config     387  -0.06053864  0.00366493
    Config     389   0.04522017  0.00204486
    Config     391   0.10380167  0.01077479
    Config     397   0.05870490  0.00344626
    Config     399  -0.05081860  0.00258253
    Config     400   0.22782539  0.05190441
    Config     412  -0.06230278  0.00388164
    Config     431   0.04764641  0.00227018
    Config     436  -0.09346616  0.00873592
    Config     441   0.04650881  0.00216307
    Config     446  -0.05355840  0.00286850
    Config     447   0.04268073  0.00182164
    Config     450   0.06254809  0.00391226
    Config     456  -0.13413964  0.01799344
    Config     457  -0.05415136  0.00293237
    Config     460   0.04330302  0.00187515
    Config     467   0.04149000  0.00172142
    Config     469   0.04203259  0.00176674
    Config     471  -0.13643962  0.01861577
    Config     473  -0.05775986  0.00333620
    Config     480   0.06249474  0.00390559
    Config     482   0.04320158  0.00186638
    Config     491   0.05999980  0.00359998
    Config     496   0.05763894  0.00332225
    Config     499   0.07544904  0.00569256
    Config     503   0.06991343  0.00488789
    Config     507  -0.04826386  0.00232940
    Config     510   0.08872359  0.00787188
    Config     518   0.04662546  0.00217393
    Config     519  -0.05317447  0.00282752
    Config     523   0.06108547  0.00373143
    Config     526  -0.04545715  0.00206635
    Config     531  -0.10746599  0.01154894
    Config     543  -0.07594045  0.00576695
    Config     550   0.11904620  0.01417200
    Config     561   0.05774377  0.00333434
    Config     563   0.04650475  0.00216269
    Config     564   0.05206791  0.00271107
    Config     573  -0.20446102  0.04180431
    Config     576   0.11265385  0.01269089
    Config     579   0.06546931  0.00428623
    Config     587   0.07794554  0.00607551
    Config     595   0.04933682  0.00243412
    Config     598   0.05080262  0.00258091
    Config     599   0.04133171  0.00170831
    Config     605  -0.23284782  0.05421811
    Config     608   0.05017212  0.00251724
    Config     610   0.12764878  0.01629421
    Config     613   0.04253042  0.00180884
    Config     614   0.04974523  0.00247459
    Config     617  -0.12289838  0.01510401
    Config     629  -0.04142520  0.00171605
    Config     637   0.14682322  0.02155706
    Config     642   0.06558355  0.00430120
    Config     650  -0.04805677  0.00230945
    Config     652   0.05508061  0.00303387
    Config     653   0.05641971  0.00318318
    Config     668   0.05289633  0.00279802
    Config     679  -0.05512223  0.00303846
    Config     682   0.05035597  0.00253572
    Config     684  -0.09869864  0.00974142
    Config     687  -0.04009322  0.00160747
    Config     695  -0.05898793  0.00347958
    Config     701   0.05524129  0.00305160
    Config     727   0.04164608  0.00173440
    Config     748  -0.16019128  0.02566125
    Config     762  -0.05870780  0.00344661
    Config     763   0.04567770  0.00208645
    Config     764  -0.06508919  0.00423660
    Config     772   0.05867068  0.00344225
    Config     775  -0.04631193  0.00214480
    Config     798  -0.04228907  0.00178837
    Config     808   0.04359638  0.00190064
    Config     819   0.09130984  0.00833749
    Config     848  -0.04368020  0.00190796
    Config     860  -0.04333674  0.00187807
    Config     874  -0.04741696  0.00224837
    Config     877   0.08182268  0.00669495
    Config     881   0.05103162  0.00260423
    Config     882  -0.08317577  0.00691821
    Config     884   0.07545268  0.00569311
    Config     911   0.08665273  0.00750870
    Config     915  -0.04207377  0.00177020
    Config     936  -0.09648898  0.00931012
    Config     942  -0.04662162  0.00217358
    Config     948   0.04254448  0.00181003
    Config     956  -0.06241151  0.00389520
    Config    1016   0.04998561  0.00249856
    Config    1062  -0.04548253  0.00206866
    Config    1091  -0.07499589  0.00562438
    Config    1156   0.04809020  0.00231267
    Config    1208  -0.05421593  0.00293937
    Config    1240  -0.04525925  0.00204840
    Config    1263  -0.04036434  0.00162928
    Config    1328   0.05475755  0.00299839
    Config    1330   0.04270667  0.00182386
    Config    1789   0.04343636  0.00188672
 Total coeff printed             0.72188482
  
State  498 10.2802     CI coeff  CI percent
    Config     145  -0.04501181  0.00202606
    Config     202   0.07562818  0.00571962
    Config     210   0.08453699  0.00714650
    Config     212  -0.04782671  0.00228739
    Config     216  -0.06578826  0.00432810
    Config     241  -0.07476751  0.00559018
    Config     253   0.04808703  0.00231236
    Config     256  -0.07956558  0.00633068
    Config     261   0.21593163  0.04662647
    Config     265   0.04966314  0.00246643
    Config     266  -0.04214949  0.00177658
    Config     274   0.04091031  0.00167365
    Config     278   0.08347308  0.00696775
    Config     280  -0.09697891  0.00940491
    Config     281   0.09069444  0.00822548
    Config     296   0.05310018  0.00281963
    Config     299   0.06458093  0.00417070
    Config     300  -0.05047662  0.00254789
    Config     301   0.06858134  0.00470340
    Config     305   0.05011319  0.00251133
    Config     310  -0.04710599  0.00221897
    Config     315  -0.07779324  0.00605179
    Config     323  -0.04069137  0.00165579
    Config     327  -0.05796822  0.00336031
    Config     333   0.06075793  0.00369153
    Config     344   0.04249071  0.00180546
    Config     350   0.05261418  0.00276825
    Config     351  -0.04390379  0.00192754
    Config     355   0.08012117  0.00641940
    Config     359  -0.05449553  0.00296976
    Config     363  -0.04625622  0.00213964
    Config     364  -0.04809972  0.00231358
    Config     376   0.09108822  0.00829706
    Config     389   0.04169865  0.00173878
    Config     391  -0.08592527  0.00738315
    Config     393   0.04480970  0.00200791
    Config     394  -0.07469343  0.00557911
    Config     397  -0.04544434  0.00206519
    Config     400  -0.18911578  0.03576478
    Config     401  -0.05043692  0.00254388
    Config     412   0.04243567  0.00180079
    Config     413   0.05108912  0.00261010
    Config     423   0.04533002  0.00205481
    Config     425  -0.04666919  0.00217801
    Config     434  -0.06789793  0.00461013
    Config     436  -0.11508868  0.01324540
    Config     437  -0.08059959  0.00649629
    Config     438   0.07643133  0.00584175
    Config     441  -0.04333543  0.00187796
    Config     443  -0.04056059  0.00164516
    Config     446   0.13049967  0.01703016
    Config     449   0.04456182  0.00198576
    Config     456   0.14052358  0.01974688
    Config     457  -0.12273872  0.01506479
    Config     460  -0.04809593  0.00231322
    Config     464   0.05414326  0.00293149
    Config     467   0.05210554  0.00271499
    Config     469   0.06239342  0.00389294
    Config     471  -0.05912025  0.00349520
    Config     473  -0.06929624  0.00480197
    Config     480  -0.12387178  0.01534422
    Config     496  -0.04443022  0.00197404
    Config     499   0.14022667  0.01966352
    Config     507   0.05544394  0.00307403
    Config     510   0.04860210  0.00236216
    Config     518   0.04436404  0.00196817
    Config     526  -0.05309116  0.00281867
    Config     529   0.04539264  0.00206049
    Config     539   0.05659296  0.00320276
    Config     543   0.04140543  0.00171441
    Config     546   0.06602682  0.00435954
    Config     549  -0.04300094  0.00184908
    Config     550  -0.05441923  0.00296145
    Config     562  -0.05933975  0.00352121
    Config     565   0.06444024  0.00415254
    Config     573   0.13099223  0.01715896
    Config     575  -0.04155407  0.00172674
    Config     576  -0.07156411  0.00512142
    Config     585  -0.06077881  0.00369406
    Config     587  -0.04670150  0.00218103
    Config     588   0.05256203  0.00276277
    Config     605  -0.19863861  0.03945730
    Config     608   0.04114234  0.00169269
    Config     614   0.05094283  0.00259517
    Config     617  -0.12992195  0.01687971
    Config     620  -0.06728892  0.00452780
    Config     626   0.11184813  0.01251000
    Config     630   0.04950721  0.00245096
    Config     637  -0.10714650  0.01148037
    Config     638  -0.04511358  0.00203524
    Config     649  -0.06081235  0.00369814
    Config     650   0.04588833  0.00210574
    Config     656  -0.06732060  0.00453206
    Config     658   0.05598449  0.00313426
    Config     661  -0.05530091  0.00305819
    Config     684   0.09365709  0.00877165
    Config     701   0.07146919  0.00510785
    Config     707   0.04362932  0.00190352
    Config     713  -0.05576267  0.00310948
    Config     726  -0.06435126  0.00414108
    Config     745   0.04177167  0.00174487
    Config     748  -0.11723049  0.01374299
    Config     763  -0.08592761  0.00738355
    Config     764   0.04191683  0.00175702
    Config     775  -0.07958161  0.00633323
    Config     798  -0.04708566  0.00221706
    Config     802   0.08792607  0.00773099
    Config     819  -0.06934044  0.00480810
    Config     829  -0.05129034  0.00263070
    Config     855   0.04297463  0.00184682
    Config     877  -0.04649521  0.00216180
    Config     882  -0.06100759  0.00372193
    Config     884  -0.05671558  0.00321666
    Config     886  -0.04510905  0.00203483
    Config     894   0.04014326  0.00161148
    Config     898  -0.04947041  0.00244732
    Config     911   0.06854741  0.00469875
    Config     923   0.05840655  0.00341132
    Config     936   0.05573489  0.00310638
    Config     956   0.06417012  0.00411780
    Config     973  -0.04199764  0.00176380
    Config     995  -0.04158544  0.00172935
    Config    1007   0.04031904  0.00162563
    Config    1016  -0.06271333  0.00393296
    Config    1038   0.04299564  0.00184863
    Config    1056  -0.04820451  0.00232368
    Config    1091  -0.06056506  0.00366813
    Config    1121  -0.04277554  0.00182975
    Config    1143  -0.04079157  0.00166395
    Config    1260  -0.04187645  0.00175364
 Total coeff printed             0.68840043
  
State  499 10.2941     CI coeff  CI percent
    Config     202  -0.07440166  0.00553561
    Config     209   0.04746377  0.00225281
    Config     217   0.09625575  0.00926517
    Config     245  -0.10417842  0.01085314
    Config     252   0.06498965  0.00422366
    Config     254  -0.06964107  0.00484988
    Config     260   0.06371893  0.00406010
    Config     261  -0.06690959  0.00447689
    Config     266  -0.04027624  0.00162218
    Config     272   0.09379489  0.00879748
    Config     274   0.04858369  0.00236038
    Config     275  -0.11188560  0.01251839
    Config     278   0.04463179  0.00199200
    Config     280   0.09279954  0.00861175
    Config     290  -0.05654130  0.00319692
    Config     294   0.07375027  0.00543910
    Config     295   0.04644051  0.00215672
    Config     299  -0.04290115  0.00184051
    Config     301  -0.11557659  0.01335795
    Config     303   0.04358922  0.00190002
    Config     310   0.18998937  0.03609596
    Config     313  -0.07087061  0.00502264
    Config     321  -0.05086600  0.00258735
    Config     327   0.04781660  0.00228643
    Config     330  -0.09926219  0.00985298
    Config     333  -0.06045647  0.00365498
    Config     334  -0.06971603  0.00486033
    Config     351   0.05299324  0.00280828
    Config     357   0.11907483  0.01417881
    Config     362  -0.05372755  0.00288665
    Config     365  -0.05803856  0.00336847
    Config     378  -0.04282480  0.00183396
    Config     381  -0.10694129  0.01143644
    Config     396   0.07940702  0.00630547
    Config     397   0.08055403  0.00648895
    Config     398  -0.04091143  0.00167375
    Config     399  -0.08559839  0.00732709
    Config     400  -0.15381386  0.02365870
    Config     405   0.07835436  0.00613941
    Config     406   0.05091315  0.00259215
    Config     408   0.11629562  0.01352467
    Config     409   0.12982103  0.01685350
    Config     418   0.04907818  0.00240867
    Config     427  -0.05819294  0.00338642
    Config     430   0.05311414  0.00282111
    Config     434  -0.09995626  0.00999125
    Config     448   0.11024715  0.01215443
    Config     456   0.11594135  0.01344240
    Config     460   0.05192820  0.00269654
    Config     463  -0.08205170  0.00673248
    Config     480  -0.08350593  0.00697324
    Config     485  -0.12398861  0.01537318
    Config     490   0.07314794  0.00535062
    Config     496  -0.06296702  0.00396485
    Config     497  -0.04433093  0.00196523
    Config     499  -0.04291820  0.00184197
    Config     501   0.04951305  0.00245154
    Config     503  -0.04752236  0.00225837
    Config     507   0.06250967  0.00390746
    Config     515  -0.05457235  0.00297814
    Config     522   0.07159253  0.00512549
    Config     526  -0.05513293  0.00303964
    Config     527   0.06676149  0.00445710
    Config     530   0.04686945  0.00219675
    Config     531  -0.05503356  0.00302869
    Config     540   0.06092224  0.00371152
    Config     545  -0.05379601  0.00289401
    Config     546  -0.06158569  0.00379280
    Config     548  -0.04507329  0.00203160
    Config     549   0.08822387  0.00778345
    Config     550   0.10071919  0.01014436
    Config     551  -0.05616854  0.00315490
    Config     554   0.08024983  0.00644003
    Config     557   0.07726053  0.00596919
    Config     565  -0.11520879  0.01327307
    Config     573  -0.07755222  0.00601435
    Config     574   0.04994095  0.00249410
    Config     575  -0.04921535  0.00242215
    Config     576   0.04870654  0.00237233
    Config     579  -0.04055007  0.00164431
    Config     582  -0.09045356  0.00818185
    Config     594   0.05661336  0.00320507
    Config     610   0.10360162  0.01073330
    Config     616   0.05344372  0.00285623
    Config     621   0.04215554  0.00177709
    Config     625   0.04049341  0.00163972
    Config     626  -0.04114286  0.00169273
    Config     636   0.05345917  0.00285788
    Config     643   0.08510672  0.00724315
    Config     645   0.04459985  0.00198915
    Config     646   0.05290854  0.00279931
    Config     649   0.07678260  0.00589557
    Config     654   0.04646349  0.00215886
    Config     655  -0.06916389  0.00478364
    Config     665  -0.07038662  0.00495428
    Config     667  -0.04313905  0.00186098
    Config     671  -0.06017872  0.00362148
    Config     683   0.07468497  0.00557784
    Config     684   0.08385574  0.00703178
    Config     688  -0.05618116  0.00315632
    Config     696  -0.08886073  0.00789623
    Config     701   0.06446197  0.00415535
    Config     704   0.05296777  0.00280558
    Config     709  -0.04956537  0.00245673
    Config     711  -0.04046439  0.00163737
    Config     713  -0.08647253  0.00747750
    Config     727  -0.04706098  0.00221474
    Config     729  -0.08443444  0.00712917
    Config     730  -0.04287525  0.00183829
    Config     735  -0.05358307  0.00287115
    Config     736  -0.05128869  0.00263053
    Config     742  -0.04170079  0.00173896
    Config     754  -0.05604739  0.00314131
    Config     780  -0.04133401  0.00170850
    Config     787  -0.04026030  0.00162089
    Config     791   0.04689693  0.00219932
    Config     802   0.04354302  0.00189599
    Config     815   0.08381686  0.00702527
    Config     842   0.04949506  0.00244976
    Config     852  -0.06610249  0.00436954
    Config     854  -0.04930925  0.00243140
    Config     857  -0.04305125  0.00185341
    Config     877   0.06719591  0.00451529
    Config     886  -0.06250332  0.00390666
    Config     936  -0.05094047  0.00259493
    Config     940  -0.08542703  0.00729778
    Config     945  -0.04411025  0.00194571
    Config     976   0.05070808  0.00257131
    Config     985   0.04302741  0.00185136
    Config    1225   0.05062859  0.00256325
 Total coeff printed             0.67224487
  
State  500 10.2979     CI coeff  CI percent
    Config     187  -0.04437905  0.00196950
    Config     208   0.05273549  0.00278103
    Config     219  -0.05203631  0.00270778
    Config     265   0.04399507  0.00193557
    Config     266   0.04617614  0.00213224
    Config     278   0.06282430  0.00394689
    Config     288   0.05646054  0.00318779
    Config     292   0.10049954  0.01010016
    Config     295  -0.09519918  0.00906288
    Config     298   0.04778549  0.00228345
    Config     306  -0.04207804  0.00177056
    Config     308  -0.05185353  0.00268879
    Config     322  -0.05466985  0.00298879
    Config     351   0.10219821  0.01044447
    Config     375   0.07708416  0.00594197
    Config     378   0.04451545  0.00198162
    Config     381   0.20471737  0.04190920
    Config     391   0.08771828  0.00769450
    Config     397  -0.19916762  0.03966774
    Config     400  -0.04481102  0.00200803
    Config     403  -0.05702034  0.00325132
    Config     405  -0.10809280  0.01168405
    Config     412  -0.08775147  0.00770032
    Config     431   0.06804602  0.00463026
    Config     434   0.17195046  0.02956696
    Config     446   0.05143731  0.00264580
    Config     454   0.08127965  0.00660638
    Config     456   0.04945052  0.00244535
    Config     460  -0.07943446  0.00630983
    Config     461   0.12499243  0.01562311
    Config     467  -0.05223202  0.00272818
    Config     475  -0.12931605  0.01672264
    Config     488   0.05051202  0.00255146
    Config     491   0.10770895  0.01160122
    Config     492   0.05345848  0.00285781
    Config     514  -0.05509891  0.00303589
    Config     529   0.08771007  0.00769306
    Config     531  -0.11984226  0.01436217
    Config     539   0.05050791  0.00255105
    Config     543   0.05718113  0.00326968
    Config     546   0.23324665  0.05440400
    Config     550   0.20054832  0.04021963
    Config     561  -0.04316674  0.00186337
    Config     573  -0.56396611  0.31805777
    Config     602   0.07186965  0.00516525
    Config     603  -0.04953017  0.00245324
    Config     627   0.10301846  0.01061280
    Config     628  -0.05049084  0.00254932
    Config     630  -0.08629515  0.00744685
    Config     636  -0.04480853  0.00200780
    Config     638  -0.12027936  0.01446712
    Config     642  -0.06230557  0.00388198
    Config     688   0.06723035  0.00451992
    Config     703   0.04221772  0.00178234
    Config     710  -0.04230473  0.00178969
    Config     713  -0.04131283  0.00170675
    Config     739   0.08744249  0.00764619
    Config     774   0.04793197  0.00229747
    Config     811  -0.09807957  0.00961960
    Config     819  -0.05030411  0.00253050
    Config     877  -0.05915133  0.00349888
    Config     900   0.05637386  0.00317801
    Config     930   0.05214143  0.00271873
    Config     936   0.04060073  0.00164842
    Config     956   0.04424750  0.00195784
    Config    1019   0.08868560  0.00786514
    Config    1024   0.04858294  0.00236030
    Config    1146  -0.04094429  0.00167643
    Config    1165   0.04738809  0.00224563
 Total coeff printed             0.83721051
  

 **********************
 *                    *
 * JOB ENDED NORMALLY *
 *                    *
 **********************



 TOTAL JOB TIME:           864.23 SECONDS

 == MOPAC DONE ==
