 *******************************************************************************
 ** Site#: 4824         For non-commercial use only    Version 21.013L 64BITS **
 *******************************************************************************
 ** Cite this program as: MOPAC2016, Version: 21.013L, James J. P. Stewart,   **
 ** Stewart Computational Chemistry, web: HTTP://OpenMOPAC.net. Days left:  83**
 *******************************************************************************
 **                                                                           **
 **                                MOPAC2016                                  **
 **                                                                           **
 *******************************************************************************

                              INDO CALCULATION RESULTS

 *******************************************************************************
 *  CALCULATION DONE:                                Fri Oct 22 07:08:13 2021  *
 *  INDO       - The INDO Hamiltonian to be used
 *  CIS        - C.I. USES 1 ELECTRON EXCITATIONS ONLY
 *  EPS=  7.58 - USE ANDREAS KLAMT'S COSMO IMPLICIT SOLVATION MODEL
 *  n**2 =  1.400 for COSMO-CI
 *  T=         - A TIME OF 172800.0 SECONDS REQUESTED
 *  DUMP=N     - RESTART FILE WRITTEN EVERY 7200.0 SECONDS REQUESTED
 *******************************************************************************
INDO CIS EPS=7.58 N**2=1.40
 Dye104
 Calculo de Estados Excitados
   ATOM   CHEMICAL          X               Y               Z
  NUMBER   SYMBOL      (ANGSTROMS)     (ANGSTROMS)     (ANGSTROMS)
 
     1       C         -0.00011379  *   0.00001988  *   0.00014706  *
     2       C          1.51984865  *  -0.00010101  *  -0.00033119  *
     3       C          2.06080470  *   1.42753952  *  -0.00003300  *
     4       C          3.58761224  *   1.42808624  *  -0.01600439  *
     5       C          4.12676782  *   2.85680140  *  -0.00069757  *
     6       C          5.65358207  *   2.85617538  *  -0.03556624  *
     7       C          6.18747792  *   4.28694207  *  -0.00360254  *
     8       C          7.71825618  *   4.25687625  *  -0.06262994  *
     9       N          8.25739461  *   5.64757223  *  -0.00356771  *
    10       N          8.90203474  *   6.11883802  *   1.09064893  *
    11       C          9.20410733  *   7.41710435  *   0.74603591  *
    12       C          8.69781140  *   7.66198699  *  -0.58509207  *
    13       N          8.09446945  *   6.51094048  *  -1.03795998  *
    14       C          8.88791343  *   8.92533223  *  -1.20405759  *
    15       C          9.55495807  *   9.88318873  *  -0.49040859  *
    16       C         10.05203902  *   9.64144819  *   0.82218008  *
    17       C          9.89642695  *   8.43664149  *   1.45250156  *
    18       C         10.42391597  *   8.20251976  *   2.77123163  *
    19       C         11.62245099  *   8.68268946  *   3.22638502  *
    20       C         11.86796744  *   8.30661614  *   4.58372763  *
    21       C         10.84421131  *   7.56026015  *   5.09710052  *
    22       S          9.59508957  *   7.30529070  *   3.96340878  *
    23       C         10.77932606  *   7.03789346  *   6.44188323  *
    24       C         11.15826998  *   7.86514187  *   7.50651641  *
    25       C         11.12571555  *   7.41920309  *   8.81943478  *
    26       C         10.69618515  *   6.11849733  *   9.05602151  *
    27       C         10.32124785  *   5.26936738  *   7.97135405  *
    28       C         10.36203186  *   5.72774911  *   6.66864079  *
    29       C          9.95868609  *   3.98601802  *   8.52344047  *
    30       C          9.51065946  *   2.78746189  *   7.99438124  *
    31       C          9.25568958  *   1.74465763  *   8.87599820  *
    32       C          9.44846535  *   1.87380960  *  10.25694639  *
    33       C          9.89874816  *   3.06079406  *  10.81728612  *
    34       C         10.13882078  *   4.09110639  *   9.91961943  *
    35       N         10.60630344  *   5.37698298  *  10.25905373  *
    36       C         10.54264423  *   5.77030623  *  11.60964677  *
    37       C         10.70279130  *   7.11167095  *  11.96759635  *
    38       C         10.61953468  *   7.48466154  *  13.30025803  *
    39       C         10.36136991  *   6.53010603  *  14.27169749  *
    40       C         10.20604324  *   5.19888862  *  13.90740729  *
    41       C         10.30459704  *   4.77739173  *  12.58460494  *
    42       C         10.21983070  *   3.29375048  *  12.26930108  *
    43       C         11.62820624  *   2.70105192  *  12.47971521  *
    44       C         12.19419714  *   2.91455442  *  13.87147267  *
    45       C          9.13204443  *   2.63239834  *  13.13987749  *
    46       C          9.29863893  *   1.14334633  *  13.39540464  *
    47       C          8.37940095  *   9.14697663  *  -2.53270119  *
    48       C          7.21128194  *   8.63285950  *  -3.03690994  *
    49       C          7.00639127  *   9.03029870  *  -4.38732199  *
    50       C          8.02329673  *   9.83706936  *  -4.85475835  *
    51       S          9.21497936  *  10.09333913  *  -3.66878223  *
    52       C          8.03964435  *  10.35867403  *  -6.18639872  *
    53       C          8.88327622  *  11.30180306  *  -6.65780911  *
    54       C          8.77122388  *  11.72852968  *  -8.05787208  *
    55       O          7.96938378  *  11.31712072  *  -8.88517879  *
    56       O          9.66620319  *  12.67151820  *  -8.41625889  *
    57       C          9.88298128  *  11.92604758  *  -5.87365257  *
    58       N         10.70478337  *  12.45519791  *  -5.25467877  *
    59       H          7.27869616  *   9.93527998  *  -6.86414971  *
    60       H         -0.41751777  *   0.50316760  *  -0.88399872  *
    61       H         -0.40921496  *  -1.02071162  *   0.00367239  *
    62       H         -0.41702072  *   0.50926645  *   0.88099701  *
    63       H          1.90247097  *  -0.56142702  *   0.87833400  *
    64       H          1.90167840  *  -0.56141165  *  -0.87931772  *
    65       H          1.66446819  *   1.98856997  *  -0.87270190  *
    66       H          1.68199335  *   1.98097952  *   0.88514478  *
    67       H          3.98277723  *   0.85715335  *   0.85078471  *
    68       H          3.96355915  *   0.88237567  *  -0.90725030  *
    69       H          3.72158999  *   3.43199060  *  -0.86005585  *
    70       H          3.76090306  *   3.39757440  *   0.89774473  *
    71       H          6.05846508  *   2.27158097  *   0.81777347  *
    72       H          6.01769959  *   2.32601919  *  -0.94123062  *
    73       H          5.77345262  *   4.87844358  *  -0.84791669  *
    74       H          5.83989310  *   4.81303379  *   0.91083255  *
    75       H          8.15217062  *   3.66695851  *   0.77870760  *
    76       H          8.08379785  *   3.78078447  *  -1.00256217  *
    77       H          9.72022795  *  10.87814770  *  -0.91855182  *
    78       H         10.56729678  *  10.46501295  *   1.32785670  *
    79       H         12.32707534  *   9.26823635  *   2.64088767  *
    80       H         12.77320940  *   8.58122518  *   5.11902410  *
    81       H         11.48371747  *   8.89052081  *   7.30183899  *
    82       H         11.43404785  *   8.07891948  *   9.63649140  *
    83       H         10.08113875  *   5.06599303  *   5.84485404  *
    84       H          9.36495900  *   2.67322276  *   6.91787177  *
    85       H          8.89773171  *   0.78879929  *   8.48211672  *
    86       H          9.24190635  *   1.00374169  *  10.89074246  *
    87       H         10.89054787  *   7.88536390  *  11.21610613  *
    88       H         10.75085779  *   8.53431761  *  13.58022482  *
    89       H         10.28115866  *   6.82179119  *  15.32231445  *
    90       H          9.98576505  *   4.46961116  *  14.69903230  *
    91       H         11.62615355  *   1.61996954  *  12.22483176  *
    92       H         12.32296498  *   3.14731602  *  11.73337984  *
    93       H         13.12060895  *   2.33700750  *  14.01590159  *
    94       H         12.46060284  *   3.96406103  *  14.06417333  *
    95       H         11.51165589  *   2.60467188  *  14.67428838  *
    96       H          9.05702334  *   3.12669475  *  14.13535952  *
    97       H          8.14175927  *   2.82613135  *  12.67283591  *
    98       H         10.16805936  *   0.90332754  *  14.02320489  *
    99       H          8.42260330  *   0.73500330  *  13.92362246  *
   100       H          9.40245839  *   0.54738735  *  12.47543291  *
   101       H          6.51231392  *   8.00257739  *  -2.49093758  *
   102       H          6.13695270  *   8.72580091  *  -4.96732048  *
   103       H          9.55497422  *  12.92092542  *  -9.34511258  *
 


          CARTESIAN COORDINATES 

    NO.       ATOM           X           Y           Z

     1         C         -0.0001      0.0000      0.0001
     2         C          1.5198     -0.0001     -0.0003
     3         C          2.0608      1.4275     -0.0000
     4         C          3.5876      1.4281     -0.0160
     5         C          4.1268      2.8568     -0.0007
     6         C          5.6536      2.8562     -0.0356
     7         C          6.1875      4.2869     -0.0036
     8         C          7.7183      4.2569     -0.0626
     9         N          8.2574      5.6476     -0.0036
    10         N          8.9020      6.1188      1.0906
    11         C          9.2041      7.4171      0.7460
    12         C          8.6978      7.6620     -0.5851
    13         N          8.0945      6.5109     -1.0380
    14         C          8.8879      8.9253     -1.2041
    15         C          9.5550      9.8832     -0.4904
    16         C         10.0520      9.6414      0.8222
    17         C          9.8964      8.4366      1.4525
    18         C         10.4239      8.2025      2.7712
    19         C         11.6225      8.6827      3.2264
    20         C         11.8680      8.3066      4.5837
    21         C         10.8442      7.5603      5.0971
    22         S          9.5951      7.3053      3.9634
    23         C         10.7793      7.0379      6.4419
    24         C         11.1583      7.8651      7.5065
    25         C         11.1257      7.4192      8.8194
    26         C         10.6962      6.1185      9.0560
    27         C         10.3212      5.2694      7.9714
    28         C         10.3620      5.7277      6.6686
    29         C          9.9587      3.9860      8.5234
    30         C          9.5107      2.7875      7.9944
    31         C          9.2557      1.7447      8.8760
    32         C          9.4485      1.8738     10.2569
    33         C          9.8987      3.0608     10.8173
    34         C         10.1388      4.0911      9.9196
    35         N         10.6063      5.3770     10.2591
    36         C         10.5426      5.7703     11.6096
    37         C         10.7028      7.1117     11.9676
    38         C         10.6195      7.4847     13.3003
    39         C         10.3614      6.5301     14.2717
    40         C         10.2060      5.1989     13.9074
    41         C         10.3046      4.7774     12.5846
    42         C         10.2198      3.2938     12.2693
    43         C         11.6282      2.7011     12.4797
    44         C         12.1942      2.9146     13.8715
    45         C          9.1320      2.6324     13.1399
    46         C          9.2986      1.1433     13.3954
    47         C          8.3794      9.1470     -2.5327
    48         C          7.2113      8.6329     -3.0369
    49         C          7.0064      9.0303     -4.3873
    50         C          8.0233      9.8371     -4.8548
    51         S          9.2150     10.0933     -3.6688
    52         C          8.0396     10.3587     -6.1864
    53         C          8.8833     11.3018     -6.6578
    54         C          8.7712     11.7285     -8.0579
    55         O          7.9694     11.3171     -8.8852
    56         O          9.6662     12.6715     -8.4163
    57         C          9.8830     11.9260     -5.8737
    58         N         10.7048     12.4552     -5.2547
    59         H          7.2787      9.9353     -6.8641
    60         H         -0.4175      0.5032     -0.8840
    61         H         -0.4092     -1.0207      0.0037
    62         H         -0.4170      0.5093      0.8810
    63         H          1.9025     -0.5614      0.8783
    64         H          1.9017     -0.5614     -0.8793
    65         H          1.6645      1.9886     -0.8727
    66         H          1.6820      1.9810      0.8851
    67         H          3.9828      0.8572      0.8508
    68         H          3.9636      0.8824     -0.9073
    69         H          3.7216      3.4320     -0.8601
    70         H          3.7609      3.3976      0.8977
    71         H          6.0585      2.2716      0.8178
    72         H          6.0177      2.3260     -0.9412
    73         H          5.7735      4.8784     -0.8479
    74         H          5.8399      4.8130      0.9108
    75         H          8.1522      3.6670      0.7787
    76         H          8.0838      3.7808     -1.0026
    77         H          9.7202     10.8781     -0.9186
    78         H         10.5673     10.4650      1.3279
    79         H         12.3271      9.2682      2.6409
    80         H         12.7732      8.5812      5.1190
    81         H         11.4837      8.8905      7.3018
    82         H         11.4340      8.0789      9.6365
    83         H         10.0811      5.0660      5.8449
    84         H          9.3650      2.6732      6.9179
    85         H          8.8977      0.7888      8.4821
    86         H          9.2419      1.0037     10.8907
    87         H         10.8905      7.8854     11.2161
    88         H         10.7509      8.5343     13.5802
    89         H         10.2812      6.8218     15.3223
    90         H          9.9858      4.4696     14.6990
    91         H         11.6262      1.6200     12.2248
    92         H         12.3230      3.1473     11.7334
    93         H         13.1206      2.3370     14.0159
    94         H         12.4606      3.9641     14.0642
    95         H         11.5117      2.6047     14.6743
    96         H          9.0570      3.1267     14.1354
    97         H          8.1418      2.8261     12.6728
    98         H         10.1681      0.9033     14.0232
    99         H          8.4226      0.7350     13.9236
   100         H          9.4025      0.5474     12.4754
   101         H          6.5123      8.0026     -2.4909
   102         H          6.1370      8.7258     -4.9673
   103         H          9.5550     12.9209     -9.3451

           Empirical Formula: C49 H45 N5 O2 S2  =   103 atoms



      MOLECULAR POINT GROUP   :   C1  


      RHF CALCULATION, NO. OF DOUBLY OCCUPIED LEVELS = 145

 WARNING: INDO only performs single-point calculations

 Summary of symmetry occupancy in each shell:

 SHELL     
    1  145
    v  132
 TOTAL 277




    ROOT NO.    1           2           3           4           5           6

           -50.86997   -49.48646   -46.73519   -45.80278   -44.05757   -43.55966
  
  
  S  C   1   0.00035    -0.00000    -0.00002     0.00007    -0.01296     0.00860
 PX  C   1   0.00016    -0.00000    -0.00001     0.00003    -0.00501     0.00325
 PY  C   1   0.00006    -0.00000    -0.00000     0.00001    -0.00148     0.00093
 PZ  C   1  -0.00000     0.00000     0.00000    -0.00000     0.00001    -0.00000
  
  S  C   2   0.00090    -0.00000    -0.00003     0.00013    -0.02372     0.01522
 PX  C   2   0.00022    -0.00000    -0.00001     0.00002    -0.00238     0.00128
 PY  C   2   0.00031    -0.00000    -0.00001     0.00004    -0.00638     0.00395
 PZ  C   2  -0.00000     0.00000     0.00000    -0.00000     0.00002    -0.00001
  
  S  C   3   0.00217    -0.00001    -0.00006     0.00024    -0.03567     0.02172
 PX  C   3   0.00086    -0.00000    -0.00002     0.00007    -0.00791     0.00431
 PY  C   3   0.00023    -0.00000    -0.00000     0.00000     0.00145    -0.00127
 PZ  C   3  -0.00001     0.00000     0.00000    -0.00000     0.00008    -0.00004
  
  S  C   4   0.00499    -0.00001    -0.00011     0.00039    -0.04812     0.02724
 PX  C   4   0.00110    -0.00000    -0.00001     0.00004    -0.00060    -0.00055
 PY  C   4   0.00168    -0.00000    -0.00003     0.00010    -0.00979     0.00497
 PZ  C   4   0.00000     0.00000    -0.00000     0.00000    -0.00011     0.00007
  
  S  C   5   0.01173    -0.00003    -0.00019     0.00063    -0.06153     0.03169
 PX  C   5   0.00442    -0.00001    -0.00006     0.00017    -0.01094     0.00439
 PY  C   5   0.00121    -0.00000    -0.00000    -0.00000     0.00440    -0.00320
 PZ  C   5  -0.00008     0.00000     0.00000    -0.00000     0.00033    -0.00015
  
  S  C   6   0.02647    -0.00006    -0.00034     0.00100    -0.07597     0.03487
 PX  C   6   0.00548    -0.00001    -0.00004     0.00008     0.00128    -0.00229
 PY  C   6   0.00922    -0.00002    -0.00009     0.00026    -0.01411     0.00528
 PZ  C   6   0.00008     0.00000    -0.00000     0.00000    -0.00042     0.00024
  
  S  C   7   0.07298    -0.00015    -0.00065     0.00173    -0.09529     0.03729
 PX  C   7   0.03201    -0.00006    -0.00024     0.00053    -0.01805     0.00465
 PY  C   7   0.01368    -0.00002    -0.00005     0.00008     0.00592    -0.00441
 PZ  C   7  -0.00119     0.00000    -0.00000    -0.00003     0.00105    -0.00018
  
  S  C   8   0.15687    -0.00030    -0.00118     0.00272    -0.11710     0.03970
 PX  C   8   0.02187    -0.00004    -0.00010     0.00010     0.00487    -0.00349
 PY  C   8   0.08470    -0.00016    -0.00052     0.00111    -0.03453     0.00907
 PZ  C   8   0.00385    -0.00000    -0.00005     0.00002    -0.00216     0.00131
  
  S  N   9   0.51232    -0.00090    -0.00276     0.00551    -0.16534     0.04535
 PX  N   9   0.05262    -0.00007    -0.00022     0.00006     0.00533    -0.00149
 PY  N   9   0.15660    -0.00025    -0.00048     0.00080     0.00136    -0.00523
 PZ  N   9   0.00735     0.00001    -0.00020    -0.00024    -0.00069     0.00478
  
  S  N  10   0.38755    -0.00051    -0.00195     0.00124    -0.05125     0.02658
 PX  N  10  -0.06508     0.00016     0.00041    -0.00133     0.03375    -0.00655
 PY  N  10   0.05644    -0.00000    -0.00006    -0.00122     0.03554    -0.00464
 PZ  N  10  -0.19096     0.00035     0.00097    -0.00196     0.04597    -0.01047
  
  S  C  11   0.30473    -0.00009    -0.00008    -0.00508     0.15813    -0.02392
 PX  C  11  -0.07830     0.00025     0.00043    -0.00226     0.04368    -0.00282
 PY  C  11  -0.12129     0.00032     0.00132    -0.00367     0.11816    -0.02873
 PZ  C  11  -0.08169     0.00027    -0.00008    -0.00194     0.00059     0.01657
  
  S  C  12   0.30704    -0.00038     0.00186    -0.00176     0.16542    -0.07046
 PX  C  12  -0.02153     0.00009     0.00009    -0.00139     0.04314    -0.00669
 PY  C  12  -0.14890     0.00031     0.00186    -0.00312     0.11734    -0.03654
 PZ  C  12   0.06801    -0.00005    -0.00116    -0.00059     0.00270     0.01322
  
  S  N  13   0.38981    -0.00068    -0.00055     0.00335    -0.04490    -0.00710
 PX  N  13   0.07990    -0.00013    -0.00017     0.00044     0.00091    -0.00353
 PY  N  13  -0.01383     0.00004     0.00101    -0.00095     0.05763    -0.02483
 PZ  N  13   0.19277    -0.00033    -0.00106     0.00180    -0.04434     0.01103
  
  S  C  14   0.08864    -0.00001     0.00587    -0.00438     0.28570    -0.12564
 PX  C  14  -0.00181     0.00003    -0.00079    -0.00073     0.01626     0.00409
 PY  C  14  -0.03532     0.00006     0.00028    -0.00022     0.00248    -0.00033
 PZ  C  14   0.02566     0.00002    -0.00168    -0.00147     0.03895     0.00590
  
  S  C  15   0.05087     0.00012     0.00302    -0.00538     0.25361    -0.08376
 PX  C  15  -0.00563     0.00002    -0.00060     0.00005    -0.02100     0.01306
 PY  C  15  -0.02430    -0.00003    -0.00082     0.00179    -0.08558     0.02731
 PZ  C  15   0.00723     0.00006    -0.00062    -0.00130     0.02245     0.00668
  
  S  C  16   0.05057     0.00046     0.00154    -0.00927     0.26075    -0.04440
 PX  C  16  -0.01159     0.00004    -0.00033     0.00030    -0.03689     0.01464
 PY  C  16  -0.02101    -0.00015    -0.00035     0.00299    -0.07782     0.01046
 PZ  C  16  -0.00915     0.00018    -0.00046    -0.00136    -0.02307     0.02295
  
  S  C  17   0.08584     0.00096     0.00107    -0.01452     0.28780    -0.01515
 PX  C  17  -0.02148     0.00025    -0.00007    -0.00189    -0.00325     0.01398
 PY  C  17  -0.02401     0.00003     0.00031    -0.00048     0.02635    -0.00853
 PZ  C  17  -0.02908     0.00045    -0.00042    -0.00288    -0.03717     0.03525
  
  S  C  18   0.02996     0.00356     0.00038    -0.03078     0.24583     0.08544
 PX  C  18  -0.00627     0.00075     0.00000    -0.00580     0.02182     0.02310
 PY  C  18  -0.00258    -0.00015     0.00009     0.00017     0.01487    -0.00309
 PZ  C  18  -0.01176     0.00151    -0.00013    -0.00934     0.00321     0.04065
  
  S  C  19   0.01079     0.00415     0.00024    -0.03263     0.20381     0.10224
 PX  C  19  -0.00429    -0.00097    -0.00008     0.00846    -0.06116    -0.02552
 PY  C  19  -0.00194    -0.00106    -0.00002     0.00773    -0.03810    -0.02526
 PZ  C  19  -0.00195     0.00149    -0.00004    -0.00882     0.01892     0.03037
  
  S  C  20   0.00518     0.00929     0.00013    -0.04940     0.18118     0.13285
 PX  C  20  -0.00198    -0.00279    -0.00004     0.01590    -0.06207    -0.04395
 PY  C  20  -0.00051    -0.00217    -0.00001     0.00938    -0.02085    -0.02022
 PZ  C  20  -0.00172     0.00237    -0.00004    -0.00417    -0.03102    -0.00598
  
  S  C  21   0.00482     0.02017     0.00011    -0.08061     0.19001     0.16768
 PX  C  21   0.00016     0.00048     0.00001    -0.00373     0.01560     0.01261
 PY  C  21   0.00083    -0.00275     0.00002     0.00431     0.02245     0.00775
 PZ  C  21  -0.00228     0.00834    -0.00003    -0.01826    -0.03427     0.00227
  
  S  S  22   0.01281     0.00647     0.00011    -0.03461     0.14536     0.08945
 PX  S  22   0.00241     0.00300     0.00006    -0.01789     0.07533     0.05073
 PY  S  22   0.00262     0.00038     0.00005    -0.00584     0.04431     0.02195
 PZ  S  22  -0.00777     0.00273    -0.00002    -0.00860    -0.01049     0.01307
  
  S  C  23   0.00135     0.06469     0.00005    -0.16396     0.13012     0.19278
 PX  C  23   0.00010    -0.00133     0.00000     0.00110     0.00452     0.00445
 PY  C  23   0.00021    -0.01170     0.00001     0.01889     0.00858     0.00064
 PZ  C  23  -0.00044     0.02545    -0.00001    -0.04565    -0.00937     0.02077
  
  S  C  24   0.00067     0.06464     0.00003    -0.14739     0.08934     0.16384
 PX  C  24  -0.00004    -0.00898    -0.00000     0.01921    -0.00836    -0.01690
 PY  C  24  -0.00012    -0.02898    -0.00001     0.05938    -0.02293    -0.05008
 PZ  C  24  -0.00024     0.00904    -0.00001    -0.00528    -0.01822    -0.00771
  
  S  C  25   0.00033     0.10955     0.00002    -0.15808     0.04747     0.14053
 PX  C  25  -0.00003    -0.01758    -0.00000     0.02242    -0.00321    -0.01242
 PY  C  25  -0.00007    -0.04998    -0.00000     0.05644    -0.00249    -0.02312
 PZ  C  25  -0.00012     0.00065    -0.00001     0.03867    -0.02642    -0.03677
  
  S  C  26   0.00042     0.28839     0.00002    -0.26777    -0.00051     0.08546
 PX  C  26  -0.00002    -0.02753     0.00000     0.01693     0.00815     0.01539
 PY  C  26  -0.00005    -0.10011     0.00000     0.05253     0.03367     0.05897
 PZ  C  26  -0.00006     0.04713    -0.00001     0.03056    -0.03207    -0.03067
  
  S  C  27   0.00044     0.22999     0.00002    -0.26000     0.00882     0.03172
 PX  C  27   0.00003     0.00746     0.00000    -0.01660     0.00742     0.02276
 PY  C  27   0.00009    -0.00684     0.00001    -0.03150     0.03125     0.08197
 PZ  C  27   0.00001     0.09593    -0.00000    -0.05352    -0.03237    -0.04295
  
  S  C  28   0.00065     0.08785     0.00003    -0.16899     0.07196     0.12076
 PX  C  28   0.00008     0.00570     0.00000    -0.01576     0.01098     0.02043
 PY  C  28   0.00021     0.00508     0.00001    -0.03026     0.03252     0.05715
 PZ  C  28  -0.00004     0.04300     0.00000    -0.06057    -0.00072     0.01463
  
  S  C  29   0.00026     0.25044     0.00000    -0.15938    -0.05256    -0.18829
 PX  C  29   0.00003     0.02585     0.00000    -0.02663    -0.00153     0.01570
 PY  C  29   0.00008     0.05485     0.00000    -0.07711     0.00128     0.06696
 PZ  C  29   0.00004     0.07947    -0.00000    -0.01663    -0.02049    -0.05606
  
  S  C  30   0.00010     0.10676    -0.00000    -0.03917    -0.03402    -0.19271
 PX  C  30   0.00001     0.01350     0.00000    -0.00925    -0.00304    -0.01139
 PY  C  30   0.00003     0.02655     0.00000    -0.02753    -0.00450    -0.00759
 PZ  C  30   0.00003     0.04622    -0.00000    -0.00346    -0.01556    -0.08534
  
  S  C  31   0.00006     0.08822    -0.00000     0.00909    -0.02972    -0.20256
 PX  C  31   0.00001     0.01491    -0.00000     0.00022    -0.00455    -0.02808
 PY  C  31   0.00003     0.03835    -0.00000    -0.00566    -0.01286    -0.07283
 PZ  C  31   0.00001     0.01841    -0.00000     0.01632    -0.00289    -0.03363
  
  S  C  32   0.00008     0.12230    -0.00001     0.08524    -0.01958    -0.21351
 PX  C  32   0.00001     0.01699    -0.00000     0.01300    -0.00126    -0.01802
 PY  C  32   0.00003     0.04974    -0.00000     0.02012    -0.00901    -0.06638
 PZ  C  32  -0.00001    -0.00307    -0.00000     0.04396     0.01440     0.04304
  
  S  C  33   0.00015     0.24058    -0.00002     0.16600    -0.01512    -0.20051
 PX  C  33   0.00001     0.02236    -0.00000     0.01420     0.00175     0.01250
 PY  C  33   0.00004     0.05748    -0.00000    -0.01380    -0.00678     0.02422
 PZ  C  33  -0.00002    -0.01017    -0.00000     0.09021     0.02751     0.07792
  
  S  C  34   0.00030     0.37082    -0.00001    -0.07722    -0.06270    -0.18691
 PX  C  34   0.00002     0.02690     0.00000    -0.01726    -0.00147     0.02677
 PY  C  34   0.00009     0.08723     0.00000    -0.09296    -0.01101     0.07738
 PZ  C  34  -0.00003     0.00167    -0.00001     0.10422     0.01541     0.04105
  
  S  N  35   0.00038     0.44821    -0.00000    -0.16072    -0.05860     0.01890
 PX  N  35  -0.00003    -0.04292     0.00000     0.01159     0.00757     0.01224
 PY  N  35  -0.00003    -0.04781     0.00000    -0.00968     0.01112     0.05252
 PZ  N  35  -0.00006    -0.03708    -0.00001     0.11399     0.01595     0.04151
  
  S  C  36   0.00018     0.26050    -0.00001     0.10100     0.00984     0.19512
 PX  C  36  -0.00000    -0.00828     0.00000    -0.00782    -0.00018     0.00054
 PY  C  36  -0.00003    -0.05751     0.00000    -0.03147     0.00567     0.04259
 PZ  C  36  -0.00006    -0.06431    -0.00000     0.09728     0.02961     0.07392
  
  S  C  37   0.00008     0.11329    -0.00001     0.07583     0.02427     0.21629
 PX  C  37  -0.00000    -0.00712     0.00000    -0.00851    -0.00174    -0.01385
 PY  C  37  -0.00003    -0.04897     0.00000    -0.03087    -0.00490    -0.05719
 PZ  C  37  -0.00002    -0.01142    -0.00000     0.04968     0.01347     0.05425
  
  S  C  38   0.00004     0.06117    -0.00001     0.10059     0.03174     0.20896
 PX  C  38  -0.00000    -0.00293     0.00000    -0.00645    -0.00174    -0.01012
 PY  C  38  -0.00001    -0.02780     0.00000    -0.04892    -0.01353    -0.08268
 PZ  C  38  -0.00001    -0.01304     0.00000    -0.00566    -0.00222    -0.02462
  
  S  C  39   0.00003     0.06076    -0.00001     0.12578     0.03635     0.20524
 PX  C  39   0.00000     0.00163    -0.00000     0.00236     0.00083     0.00664
 PY  C  39  -0.00001    -0.01321     0.00000    -0.03051    -0.00682    -0.02244
 PZ  C  39  -0.00001    -0.02744     0.00000    -0.04792    -0.01347    -0.08317
  
  S  C  40   0.00005     0.10283    -0.00001     0.20991     0.04927     0.20246
 PX  C  40   0.00000     0.00613    -0.00000     0.01105     0.00294     0.01676
 PY  C  40  -0.00000    -0.00497     0.00000    -0.01583     0.00159     0.05881
 PZ  C  40  -0.00002    -0.04128     0.00000    -0.06308    -0.01251    -0.05617
  
  S  C  41   0.00012     0.21424    -0.00002     0.27469     0.04544     0.17154
 PX  C  41   0.00000     0.00775    -0.00000     0.00550     0.00115     0.01158
 PY  C  41  -0.00000    -0.01063     0.00000    -0.04007     0.00000     0.09043
 PZ  C  41  -0.00004    -0.05268     0.00000     0.02743     0.01634     0.03742
  
  S  C  42   0.00012     0.22131    -0.00002     0.33912     0.04208    -0.02764
 PX  C  42   0.00000     0.00780    -0.00000     0.00993     0.00228     0.01127
 PY  C  42   0.00002     0.02946    -0.00000    -0.00329    -0.00149     0.04367
 PZ  C  42  -0.00002    -0.03290    -0.00000     0.02576     0.01552     0.04546
  
  S  C  43   0.00007     0.12865    -0.00002     0.24487     0.03654    -0.01448
 PX  C  43  -0.00002    -0.04121     0.00000    -0.06940    -0.00845     0.01203
 PY  C  43   0.00002     0.02747    -0.00000     0.03357     0.00456     0.01270
 PZ  C  43  -0.00001    -0.00904    -0.00000     0.01668     0.00745     0.01888
  
  S  C  44   0.00003     0.06401    -0.00001     0.15657     0.02937     0.01838
 PX  C  44  -0.00001    -0.02020     0.00000    -0.04624    -0.00814    -0.00424
 PY  C  44   0.00000     0.00534    -0.00000     0.00729     0.00160     0.01025
 PZ  C  44  -0.00001    -0.02136     0.00000    -0.04300    -0.00678     0.00059
  
  S  C  45   0.00005     0.10950    -0.00002     0.24542     0.03910    -0.02349
 PX  C  45   0.00001     0.03013    -0.00000     0.06444     0.01029    -0.00075
 PY  C  45   0.00001     0.01499    -0.00000     0.01718     0.00276     0.01806
 PZ  C  45  -0.00001    -0.02430     0.00000    -0.03250    -0.00152     0.01989
  
  S  C  46   0.00003     0.05574    -0.00001     0.14657     0.02414    -0.03213
 PX  C  46   0.00000     0.00678    -0.00000     0.01618     0.00267    -0.00101
 PY  C  46   0.00001     0.02142    -0.00000     0.05355     0.00897    -0.00527
 PZ  C  46  -0.00001    -0.01076     0.00000    -0.02055    -0.00189     0.01214
  
  S  C  47   0.03558    -0.00003     0.01519    -0.00188     0.23853    -0.16328
 PX  C  47  -0.00052     0.00001    -0.00270    -0.00017    -0.01377     0.01958
 PY  C  47  -0.00947     0.00001     0.00048     0.00003    -0.00770     0.00409
 PZ  C  47   0.01210    -0.00000    -0.00542    -0.00049    -0.00090     0.02178
  
  S  C  48   0.02333    -0.00003     0.01596    -0.00099     0.18644    -0.14660
 PX  C  48   0.00731    -0.00001     0.00422    -0.00036     0.05686    -0.04204
 PY  C  48  -0.00070     0.00000     0.00425    -0.00022     0.03997    -0.03274
 PZ  C  48   0.00729    -0.00001    -0.00435    -0.00004    -0.01600     0.02047
  
  S  C  49   0.00864    -0.00001     0.02491    -0.00069     0.16153    -0.13831
 PX  C  49   0.00270    -0.00000     0.00800    -0.00024     0.05429    -0.04596
 PY  C  49  -0.00002     0.00000     0.00549    -0.00008     0.01881    -0.01673
 PZ  C  49   0.00366    -0.00000    -0.00128    -0.00019     0.03715    -0.02932
  
  S  C  50   0.00630    -0.00001     0.04774    -0.00064     0.15617    -0.13637
 PX  C  50  -0.00051     0.00000     0.00188     0.00005    -0.01339     0.01184
 PY  C  50  -0.00149     0.00000     0.00643     0.00012    -0.02499     0.02048
 PZ  C  50   0.00279    -0.00000    -0.01129    -0.00023     0.04336    -0.03416
  
  S  S  51   0.00905    -0.00000     0.02248    -0.00084     0.14045    -0.10979
 PX  S  51  -0.00352     0.00000    -0.00923     0.00032    -0.06816     0.05684
 PY  S  51  -0.00348     0.00000    -0.00173     0.00027    -0.04530     0.03484
 PZ  S  51   0.00288     0.00000    -0.00836    -0.00027     0.01485    -0.00330
  
  S  C  52   0.00166    -0.00000     0.11294    -0.00020     0.06802    -0.06442
 PX  C  52  -0.00003     0.00000     0.02332     0.00001     0.00109    -0.00173
 PY  C  52  -0.00032     0.00000     0.03233     0.00005    -0.00827     0.00656
 PZ  C  52   0.00080    -0.00000    -0.02908    -0.00011     0.02651    -0.02327
  
  S  C  53   0.00069    -0.00000     0.22578    -0.00003     0.02962    -0.03077
 PX  C  53  -0.00010     0.00000    -0.00137     0.00002    -0.00584     0.00559
 PY  C  53  -0.00016     0.00000     0.02957     0.00004    -0.01104     0.01033
 PZ  C  53   0.00019    -0.00000    -0.08091    -0.00007     0.01559    -0.01423
  
  S  C  54   0.00033    -0.00000     0.51345     0.00019    -0.01573     0.01124
 PX  C  54  -0.00001     0.00000     0.02583     0.00002    -0.00492     0.00498
 PY  C  54  -0.00002     0.00000     0.06848     0.00004    -0.00986     0.00954
 PZ  C  54   0.00004    -0.00000    -0.11955    -0.00007     0.01445    -0.01346
  
  S  O  55   0.00021    -0.00000     0.41141     0.00016    -0.01496     0.01101
 PX  O  55   0.00005    -0.00000     0.12404     0.00005    -0.00591     0.00479
 PY  O  55   0.00002    -0.00000     0.07404     0.00003    -0.00475     0.00412
 PZ  O  55   0.00007    -0.00000     0.10043     0.00003    -0.00152     0.00050
  
  S  O  56   0.00021    -0.00000     0.57429     0.00026    -0.03590     0.03162
 PX  O  56  -0.00005     0.00000    -0.13106    -0.00006     0.00767    -0.00662
 PY  O  56  -0.00004     0.00000    -0.10479    -0.00004     0.00530    -0.00442
 PZ  O  56   0.00000     0.00000    -0.03571    -0.00002     0.00432    -0.00414
  
  S  C  57   0.00040    -0.00000     0.11233    -0.00003     0.02076    -0.02151
 PX  C  57  -0.00014     0.00000    -0.02836     0.00001    -0.00568     0.00554
 PY  C  57  -0.00012     0.00000    -0.00875     0.00002    -0.00614     0.00589
 PZ  C  57  -0.00001     0.00000    -0.04589    -0.00002     0.00263    -0.00223
  
  S  N  58   0.00014    -0.00000     0.03929    -0.00002     0.01007    -0.01067
 PX  N  58  -0.00006     0.00000    -0.01607     0.00001    -0.00428     0.00448
 PY  N  58  -0.00003     0.00000    -0.00858     0.00001    -0.00320     0.00333
 PZ  N  58  -0.00004     0.00000    -0.01672    -0.00000    -0.00183     0.00205
  
  S  H  59   0.00061    -0.00000     0.05231    -0.00007     0.02490    -0.02372
  
  S  H  60   0.00016    -0.00000    -0.00001     0.00003    -0.00557     0.00369
  
  S  H  61   0.00010    -0.00000    -0.00000     0.00002    -0.00439     0.00295
  
  S  H  62   0.00016    -0.00000    -0.00001     0.00003    -0.00558     0.00369
  
  S  H  63   0.00040    -0.00000    -0.00001     0.00006    -0.01000     0.00639
  
  S  H  64   0.00040    -0.00000    -0.00001     0.00006    -0.01003     0.00640
  
  S  H  65   0.00097    -0.00000    -0.00003     0.00010    -0.01512     0.00917
  
  S  H  66   0.00098    -0.00000    -0.00003     0.00010    -0.01514     0.00918
  
  S  H  67   0.00221    -0.00001    -0.00005     0.00017    -0.02038     0.01150
  
  S  H  68   0.00222    -0.00001    -0.00005     0.00017    -0.02041     0.01151
  
  S  H  69   0.00538    -0.00001    -0.00008     0.00027    -0.02610     0.01337
  
  S  H  70   0.00536    -0.00001    -0.00008     0.00027    -0.02611     0.01338
  
  S  H  71   0.01146    -0.00003    -0.00015     0.00042    -0.03206     0.01472
  
  S  H  72   0.01153    -0.00003    -0.00014     0.00043    -0.03210     0.01468
  
  S  H  73   0.03459    -0.00007    -0.00027     0.00076    -0.04007     0.01526
  
  S  H  74   0.03370    -0.00007    -0.00029     0.00073    -0.03999     0.01564
  
  S  H  75   0.05509    -0.00010    -0.00044     0.00096    -0.04437     0.01578
  
  S  H  76   0.05489    -0.00011    -0.00041     0.00101    -0.04415     0.01498
  
  S  H  77   0.01148     0.00004     0.00129    -0.00151     0.07771    -0.02894
  
  S  H  78   0.01153     0.00026     0.00043    -0.00392     0.08408    -0.00736
  
  S  H  79   0.00413     0.00100     0.00011    -0.00869     0.06572     0.02601
  
  S  H  80   0.00119     0.00403     0.00003    -0.01817     0.05247     0.04338
  
  S  H  81   0.00033     0.01549     0.00001    -0.04038     0.03492     0.05517
  
  S  H  82   0.00009     0.03932     0.00000    -0.04110     0.01222     0.05113
  
  S  H  83   0.00035     0.02442     0.00001    -0.04802     0.02466     0.03238
  
  S  H  84   0.00004     0.02696     0.00000    -0.01589    -0.00789    -0.04914
  
  S  H  85   0.00001     0.02012    -0.00000     0.00395    -0.00743    -0.05499
  
  S  H  86   0.00002     0.04036    -0.00000     0.05401    -0.00004    -0.06482
  
  S  H  87   0.00004     0.04594    -0.00000     0.00197     0.00628     0.06958
  
  S  H  88   0.00001     0.01430    -0.00000     0.02397     0.00842     0.05707
  
  S  H  89   0.00001     0.01433    -0.00000     0.03365     0.01013     0.05561
  
  S  H  90   0.00002     0.03952    -0.00001     0.09308     0.02036     0.05601
  
  S  H  91   0.00003     0.04965    -0.00001     0.09981     0.01424    -0.01892
  
  S  H  92   0.00003     0.06179    -0.00001     0.09250     0.01178    -0.00780
  
  S  H  93   0.00001     0.01883    -0.00000     0.04921     0.00947     0.00432
  
  S  H  94   0.00002     0.03186    -0.00000     0.07366     0.01437     0.01984
  
  S  H  95   0.00001     0.03038    -0.00000     0.07844     0.01503     0.00935
  
  S  H  96   0.00002     0.04599    -0.00001     0.11073     0.02004     0.00924
  
  S  H  97   0.00002     0.04615    -0.00001     0.09393     0.01358    -0.01601
  
  S  H  98   0.00001     0.02541    -0.00000     0.06872     0.01189    -0.01080
  
  S  H  99   0.00001     0.01681    -0.00000     0.04722     0.00811    -0.01058
  
  S  H 100   0.00001     0.02939    -0.00000     0.06932     0.00978    -0.02565
  
  S  H 101   0.01529    -0.00002     0.00404    -0.00029     0.05684    -0.04334
  
  S  H 102   0.00215    -0.00000     0.00885    -0.00017     0.04381    -0.03833
  
  S  H 103   0.00008    -0.00000     0.24207     0.00011    -0.01586     0.01408




    ROOT NO.    7           8           9          10          11          12

           -43.34609   -42.98293   -42.54599   -41.52188   -40.99196   -40.39720
  
  
  S  C   1   0.00619     0.13573     0.06504    -0.04643    -0.02371    -0.25623
 PX  C   1   0.00232     0.05006     0.02349    -0.01586    -0.00784    -0.08137
 PY  C   1   0.00066     0.01389     0.00633    -0.00395    -0.00186    -0.01807
 PZ  C   1  -0.00000    -0.00005    -0.00002     0.00001     0.00001     0.00005
  
  S  C   2   0.01080     0.23056     0.10695    -0.07030    -0.03426    -0.35027
 PX  C   2   0.00083     0.01473     0.00507    -0.00032     0.00071     0.01804
 PY  C   2   0.00276     0.05723     0.02554    -0.01503    -0.00682    -0.06335
 PZ  C   2  -0.00001    -0.00013    -0.00006     0.00003     0.00001     0.00007
  
  S  C   3   0.01506     0.30816     0.13535    -0.07674    -0.03415    -0.31022
 PX  C   3   0.00283     0.05177     0.01918    -0.00498    -0.00046     0.01835
 PY  C   3  -0.00100    -0.02500    -0.01363     0.01203     0.00662     0.07616
 PZ  C   3  -0.00003    -0.00060    -0.00025     0.00012     0.00004     0.00030
  
  S  C   4   0.01824     0.35009     0.14079    -0.06020    -0.02146    -0.13126
 PX  C   4  -0.00065    -0.02322    -0.01547     0.01614     0.00900     0.10164
 PY  C   4   0.00314     0.05333     0.01740    -0.00108     0.00181     0.04286
 PZ  C   4   0.00005     0.00094     0.00041    -0.00022    -0.00009    -0.00077
  
  S  C   5   0.02023     0.35423     0.12357    -0.02647    -0.00124     0.10311
 PX  C   5   0.00239     0.02682     0.00063     0.01306     0.00851     0.10143
 PY  C   5  -0.00236    -0.05177    -0.02431     0.01439     0.00611     0.04846
 PZ  C   5  -0.00008    -0.00170    -0.00051     0.00004    -0.00004    -0.00107
  
  S  C   6   0.02096     0.31930     0.08632     0.01500     0.01949     0.29367
 PX  C   6  -0.00192    -0.05092    -0.02592     0.01486     0.00541     0.02612
 PY  C   6   0.00275     0.02812    -0.00088     0.01334     0.00769     0.07827
 PZ  C   6   0.00020     0.00198     0.00071     0.00002     0.00010     0.00142
  
  S  C   7   0.02039     0.24590     0.03117     0.05381     0.03343     0.35229
 PX  C   7   0.00179    -0.01164    -0.02117     0.01917     0.00704     0.02815
 PY  C   7  -0.00320    -0.05940    -0.02227     0.00195    -0.00246    -0.05901
 PZ  C   7   0.00015    -0.00232     0.00040    -0.00060    -0.00027    -0.00386
  
  S  C   8   0.02028     0.15195    -0.02620     0.08004     0.03766     0.27693
 PX  C   8  -0.00206    -0.05359    -0.01707    -0.00235    -0.00453    -0.08063
 PY  C   8   0.00377    -0.00717    -0.02768     0.02218     0.00647    -0.00054
 PZ  C   8   0.00140     0.00065     0.00018     0.00203     0.00103     0.00118
  
  S  N   9   0.02063     0.01676    -0.09836     0.08668     0.02655     0.03207
 PX  N   9   0.00107    -0.03470    -0.00141    -0.00854    -0.00524    -0.06866
 PY  N   9  -0.00447    -0.05901    -0.01293    -0.01983    -0.01328    -0.12488
 PZ  N   9   0.00777    -0.00900     0.00651     0.00478     0.00313    -0.01555
  
  S  N  10   0.02872    -0.05011    -0.01816     0.03458     0.01194    -0.08914
 PX  N  10  -0.00013    -0.00349     0.02318    -0.01318    -0.00294    -0.00280
 PY  N  10   0.00509    -0.02949     0.02816    -0.01881    -0.00556    -0.04892
 PZ  N  10  -0.00408     0.02010     0.03012    -0.01315    -0.00126     0.04067
  
  S  C  11   0.01600    -0.07014     0.14367    -0.08927    -0.02045    -0.04065
 PX  C  11   0.00778     0.00810     0.03890    -0.00558     0.00339     0.03326
 PY  C  11  -0.00863     0.01318     0.09570    -0.06631    -0.01478     0.08340
 PZ  C  11   0.02335     0.00978     0.00828     0.04139     0.01957     0.01026
  
  S  C  12  -0.05478    -0.04113     0.08385    -0.13929    -0.05056    -0.02001
 PX  C  12   0.00402    -0.00604     0.04769    -0.03057    -0.00649     0.02218
 PY  C  12  -0.02164     0.02203     0.07984    -0.06718    -0.01694     0.08546
 PZ  C  12   0.02437    -0.02749     0.03975    -0.01243    -0.00028    -0.01559
  
  S  N  13  -0.02334    -0.01824    -0.06348     0.00089    -0.00951    -0.05296
 PX  N  13  -0.00402    -0.01779    -0.00465    -0.01003    -0.00583    -0.03392
 PY  N  13  -0.02045    -0.01613     0.01839    -0.03970    -0.01595    -0.03594
 PZ  N  13   0.00534    -0.01873    -0.02689     0.01153     0.00074    -0.03539
  
  S  C  14  -0.10918     0.02188     0.11000    -0.17895    -0.06130     0.09371
 PX  C  14   0.01352    -0.01203     0.04284    -0.02594    -0.00562     0.01737
 PY  C  14  -0.00050     0.00971     0.00066     0.00506     0.00296     0.01968
 PZ  C  14   0.02621    -0.03202     0.09185    -0.06202    -0.01528     0.02330
  
  S  C  15  -0.04982    -0.00410     0.17500    -0.17752    -0.05202     0.11492
 PX  C  15   0.01414    -0.00420    -0.00128     0.01578     0.00664    -0.00639
 PY  C  15   0.01483     0.00612    -0.06298     0.06332     0.01874    -0.03165
 PZ  C  15   0.01908    -0.01429     0.04806    -0.01682    -0.00069     0.01151
  
  S  C  16   0.01232    -0.02316     0.22651    -0.12420    -0.02210     0.10340
 PX  C  16   0.00985     0.00440    -0.03121     0.03941     0.01261    -0.01733
 PY  C  16  -0.00799     0.01047    -0.06933     0.03167     0.00414    -0.02116
 PZ  C  16   0.02575     0.00139    -0.01614     0.05854     0.02287    -0.02152
  
  S  C  17   0.06086    -0.03556     0.24861    -0.05257     0.01032     0.06277
 PX  C  17   0.01732     0.00753    -0.00817     0.04171     0.01641    -0.00152
 PY  C  17  -0.00481     0.00569     0.02335    -0.02051    -0.00507     0.03176
 PZ  C  17   0.03643     0.01216    -0.04274     0.10118     0.03648    -0.02915
  
  S  C  18   0.17502     0.00263     0.13952     0.22232     0.10358    -0.01255
 PX  C  18   0.03418     0.00811    -0.00355     0.06421     0.02412    -0.00933
 PY  C  18   0.00066    -0.00046     0.01682    -0.00420     0.00143     0.01019
 PZ  C  18   0.04906     0.01608    -0.04070     0.10287     0.03211    -0.02794
  
  S  C  19   0.18175     0.01700     0.08068     0.26604     0.11154    -0.02903
 PX  C  19  -0.04876    -0.00280    -0.03067    -0.06694    -0.02956     0.00498
 PY  C  19  -0.04105    -0.00499    -0.00767    -0.06218    -0.02378     0.01104
 PZ  C  19   0.04011     0.00954    -0.01921     0.06740     0.02070    -0.01835
  
  S  C  20   0.19975     0.03164     0.00230     0.25673     0.08694    -0.04315
 PX  C  20  -0.06746    -0.01010    -0.00366    -0.08801    -0.03029     0.01454
 PY  C  20  -0.02659    -0.00557     0.01030    -0.02223    -0.00330     0.00519
 PZ  C  20  -0.02344     0.00138    -0.03593    -0.06970    -0.03650     0.00784
  
  S  C  21   0.22569     0.04466    -0.06374     0.19781     0.04031    -0.03831
 PX  C  21   0.01818     0.00317    -0.00072     0.02628     0.00953    -0.00490
 PY  C  21   0.01985     0.00017     0.02211     0.05816     0.02906    -0.00868
 PZ  C  21  -0.02396     0.00525    -0.06317    -0.11758    -0.06289     0.01610
  
  S  S  22   0.14386     0.01628     0.02616     0.17682     0.06274    -0.02855
 PX  S  22   0.08005     0.01120     0.00922     0.10834     0.03864    -0.01740
 PY  S  22   0.03965     0.00311     0.01967     0.06237     0.02710    -0.00806
 PZ  S  22   0.00711     0.00882    -0.03751    -0.00870    -0.01422    -0.00064
  
  S  C  23   0.18445     0.06005    -0.22030    -0.09919    -0.10811     0.00540
 PX  C  23   0.00438     0.00080    -0.00005     0.00750     0.00381    -0.00163
 PY  C  23   0.00539    -0.00146     0.01866     0.04248     0.02192    -0.00727
 PZ  C  23  -0.00636     0.00703    -0.05720    -0.10578    -0.04610     0.01611
  
  S  C  24   0.12157     0.04774    -0.19784    -0.14689    -0.10355     0.01497
 PX  C  24  -0.01270    -0.00532     0.02361     0.02132     0.01332    -0.00251
 PY  C  24  -0.03408    -0.01531     0.07007     0.06831     0.03882    -0.00827
 PZ  C  24  -0.02982    -0.00468     0.00311    -0.03590    -0.00339     0.00678
  
  S  C  25   0.03528     0.02913    -0.14486    -0.16208    -0.05928     0.01860
 PX  C  25  -0.00206    -0.00257     0.01392     0.01845     0.00265    -0.00199
 PY  C  25   0.00439    -0.00331     0.02228     0.03866    -0.00744    -0.00364
 PZ  C  25  -0.05522    -0.01780     0.07448     0.06056     0.05110    -0.00784
  
  S  C  26  -0.04398     0.00618    -0.06001    -0.12992     0.06113     0.00995
 PX  C  26   0.00736     0.00338    -0.01399    -0.00923    -0.01296     0.00140
 PY  C  26   0.03959     0.01584    -0.06550    -0.04314    -0.07098     0.00761
 PZ  C  26  -0.08601    -0.02468     0.10274     0.08126     0.10884    -0.01458
  
  S  C  27   0.04901     0.02035    -0.10360    -0.12667    -0.07138     0.01856
 PX  C  27   0.00300     0.00395    -0.02008    -0.02532     0.00425     0.00184
 PY  C  27   0.02038     0.01582    -0.07543    -0.08276    -0.00563     0.00690
 PZ  C  27  -0.05007    -0.01570     0.06001     0.02916     0.07022    -0.00572
  
  S  C  28   0.12259     0.04374    -0.18232    -0.13839    -0.12380     0.01734
 PX  C  28   0.01415     0.00568    -0.02351    -0.01773    -0.00904     0.00147
 PY  C  28   0.03967     0.01521    -0.05968    -0.03690    -0.01951     0.00196
 PZ  C  28   0.00648     0.00623    -0.03936    -0.06270    -0.02876     0.00964
  
  S  C  29   0.06981    -0.00525     0.03843     0.08058    -0.17632     0.00776
 PX  C  29  -0.01801    -0.00155     0.00061    -0.01786     0.04237    -0.00100
 PY  C  29  -0.05731    -0.00291    -0.00771    -0.06490     0.12605    -0.00193
 PZ  C  29  -0.00328    -0.00775     0.03750     0.03915     0.01311    -0.00433
  
  S  C  30   0.11427     0.00194     0.02337     0.11780    -0.28384     0.01019
 PX  C  30   0.00470    -0.00020     0.00184     0.00407    -0.00995     0.00051
 PY  C  30  -0.00101    -0.00066     0.00121    -0.00376     0.00110     0.00078
 PZ  C  30   0.04626    -0.00035     0.01568     0.05320    -0.10049     0.00233
  
  S  C  31   0.13218     0.00404     0.02002     0.12468    -0.28804     0.00900
 PX  C  31   0.01704     0.00029     0.00361     0.01634    -0.03407     0.00092
 PY  C  31   0.04133     0.00014     0.01170     0.04572    -0.09405     0.00259
 PZ  C  31   0.02732     0.00182    -0.00111     0.01185    -0.02676     0.00055
  
  S  C  32   0.17223     0.01151    -0.00711     0.08470    -0.22040     0.00696
 PX  C  32   0.01525     0.00111    -0.00118     0.00369    -0.00600    -0.00009
 PY  C  32   0.04374     0.00132     0.00653     0.03198    -0.05456     0.00058
 PZ  C  32  -0.00447     0.00441    -0.02484    -0.05571     0.09840    -0.00226
  
  S  C  33   0.16242     0.01034    -0.00417     0.05247    -0.06749    -0.00216
 PX  C  33  -0.01036    -0.00087     0.00131    -0.01100     0.04515    -0.00243
 PY  C  33  -0.05156    -0.00881     0.03015     0.00895     0.07528    -0.00634
 PZ  C  33  -0.00584     0.00817    -0.04354    -0.08461     0.13220    -0.00235
  
  S  C  34   0.01676    -0.01866     0.09423     0.10333     0.00835    -0.00931
 PX  C  34  -0.03332    -0.00391     0.00894    -0.01500     0.06715    -0.00321
 PY  C  34  -0.11318    -0.01466     0.03695    -0.03346     0.17820    -0.00836
 PZ  C  34  -0.01343     0.00052    -0.00196    -0.01263     0.08853    -0.00708
  
  S  N  35  -0.19904    -0.04105     0.14356     0.04520     0.28892    -0.02306
 PX  N  35   0.01017     0.00375    -0.01549    -0.00998    -0.02210     0.00240
 PY  N  35  -0.02151     0.00183    -0.01493    -0.01691    -0.02273     0.00349
 PZ  N  35  -0.01754    -0.00113     0.00904     0.02840    -0.00162    -0.00447
  
  S  C  36  -0.21934    -0.02841     0.09430     0.09156     0.00437    -0.00894
 PX  C  36   0.00010     0.00022    -0.00147    -0.00287     0.00091     0.00027
 PY  C  36  -0.02707    -0.00074    -0.00249     0.01362    -0.09199     0.00622
 PZ  C  36  -0.00130     0.00737    -0.03020     0.01625    -0.16767     0.01053
  
  S  C  37  -0.19017    -0.01880     0.05496     0.09048    -0.17208     0.00495
 PX  C  37   0.01229     0.00131    -0.00427    -0.00778     0.01340    -0.00028
 PY  C  37   0.05779     0.00690    -0.02258    -0.02695     0.01718     0.00127
 PZ  C  37  -0.02738    -0.00055     0.00043     0.02947    -0.10841     0.00534
  
  S  C  38  -0.15938    -0.01300     0.03568     0.09451    -0.25459     0.01080
 PX  C  38   0.00727     0.00055    -0.00150    -0.00466     0.01297    -0.00056
 PY  C  38   0.06098     0.00475    -0.01286    -0.03450     0.09066    -0.00367
 PZ  C  38   0.02318     0.00247    -0.00739    -0.00983     0.01263    -0.00002
  
  S  C  39  -0.14144    -0.00944     0.02251     0.08114    -0.25268     0.01190
 PX  C  39  -0.00562    -0.00054     0.00165     0.00361    -0.00824     0.00029
 PY  C  39   0.00719    -0.00082     0.00483     0.00216     0.01223    -0.00110
 PZ  C  39   0.06171     0.00486    -0.01327    -0.03538     0.09219    -0.00369
  
  S  C  40  -0.10160    -0.00094    -0.01024     0.03200    -0.18089     0.01064
 PX  C  40  -0.01177    -0.00082     0.00201     0.00563    -0.01538     0.00064
 PY  C  40  -0.06623    -0.00844     0.02874     0.05259    -0.10106     0.00297
 PZ  C  40   0.03361     0.00166    -0.00312    -0.01232     0.03111    -0.00092
  
  S  C  41  -0.08707    -0.00202    -0.00111     0.01516    -0.03567     0.00012
 PX  C  41  -0.01094    -0.00119     0.00362     0.00336     0.00030    -0.00035
 PY  C  41  -0.10772    -0.01406     0.04691     0.07235    -0.11838     0.00266
 PZ  C  41   0.01001     0.00686    -0.03068    -0.01484    -0.08605     0.00829
  
  S  C  42   0.13998     0.02647    -0.09291    -0.10758     0.12929    -0.00175
 PX  C  42  -0.00665    -0.00018    -0.00090    -0.00670     0.01956    -0.00086
 PY  C  42  -0.05984    -0.00877     0.03051     0.03018     0.00342    -0.00319
 PZ  C  42  -0.00074     0.00571    -0.02977    -0.03946     0.00017     0.00426
  
  S  C  43   0.11906     0.02445    -0.09147    -0.11496     0.11626     0.00101
 PX  C  43  -0.03581    -0.00629     0.02161     0.02352    -0.02463     0.00014
 PY  C  43  -0.00395     0.00032    -0.00174    -0.00404     0.01536    -0.00102
 PZ  C  43   0.00288     0.00313    -0.01563    -0.02212     0.00684     0.00188
  
  S  C  44   0.06548     0.01685    -0.06813    -0.08904     0.07062     0.00294
 PX  C  44  -0.01852    -0.00457     0.01799     0.02189    -0.01600    -0.00073
 PY  C  44  -0.00807    -0.00073     0.00219     0.00405    -0.00650     0.00007
 PZ  C  44  -0.01992    -0.00432     0.01655     0.02185    -0.02387    -0.00008
  
  S  C  45   0.14011     0.02836    -0.10617    -0.12308     0.08036     0.00483
 PX  C  45   0.02996     0.00648    -0.02452    -0.02964     0.02593     0.00055
 PY  C  45  -0.01531    -0.00161     0.00540     0.00718    -0.00074    -0.00086
 PZ  C  45  -0.02480    -0.00294     0.00771     0.00517    -0.00966     0.00070
  
  S  C  46   0.11021     0.02114    -0.07929    -0.09406     0.05509     0.00463
 PX  C  46   0.00891     0.00186    -0.00708    -0.00889     0.00805     0.00016
 PY  C  46   0.03254     0.00667    -0.02527    -0.03018     0.02044     0.00118
 PZ  C  46  -0.01882    -0.00270     0.00849     0.00673    -0.00132    -0.00035
  
  S  C  47  -0.19867     0.12198    -0.13620     0.00423    -0.00978     0.02893
 PX  C  47   0.03045    -0.02527     0.05121    -0.03276    -0.00885     0.01261
 PY  C  47   0.00379     0.00175    -0.00338     0.00955     0.00408     0.00070
 PZ  C  47   0.04085    -0.04268     0.09469    -0.07595    -0.02332     0.02686
  
  S  C  48  -0.19103     0.13123    -0.18979     0.06884     0.01207    -0.00432
 PX  C  48  -0.05315     0.03439    -0.04543     0.01033     0.00030     0.00250
 PY  C  48  -0.04369     0.03248    -0.04855     0.02346     0.00579    -0.00222
 PZ  C  48   0.03180    -0.02970     0.05559    -0.04236    -0.01329     0.01196
  
  S  C  49  -0.18772     0.14042    -0.22302     0.11741     0.03090    -0.02663
 PX  C  49  -0.06206     0.04607    -0.07226     0.03698     0.00958    -0.00784
 PY  C  49  -0.02315     0.01816    -0.02999     0.01878     0.00572    -0.00587
 PZ  C  49  -0.03816     0.02607    -0.03675     0.01042     0.00062     0.00299
  
  S  C  50  -0.18695     0.14300    -0.23297     0.13654     0.03985    -0.04164
 PX  C  50   0.01627    -0.01234     0.02000    -0.01032    -0.00246     0.00152
 PY  C  50   0.02716    -0.01933     0.02849    -0.01009    -0.00123    -0.00206
 PZ  C  50  -0.04445     0.03066    -0.04240     0.01086    -0.00011     0.00689
  
  S  S  51  -0.14336     0.10213    -0.14612     0.06315     0.01501    -0.00607
 PX  S  51   0.07625    -0.05609     0.08631    -0.04212    -0.01049     0.00732
 PY  S  51   0.04498    -0.03099     0.04267    -0.01390    -0.00198    -0.00215
 PZ  S  51   0.00081    -0.00605     0.02494    -0.03056    -0.01126     0.01874
  
  S  C  52  -0.09160     0.07478    -0.13270     0.09985     0.03488    -0.04925
 PX  C  52  -0.00289     0.00298    -0.00672     0.00812     0.00355    -0.00639
 PY  C  52   0.00853    -0.00582     0.00778    -0.00039     0.00115    -0.00425
 PZ  C  52  -0.03195     0.02447    -0.03980     0.02236     0.00602    -0.00460
  
  S  C  53  -0.04535     0.03926    -0.07458     0.06617     0.02539    -0.04015
 PX  C  53   0.00800    -0.00662     0.01196    -0.00962    -0.00359     0.00597
 PY  C  53   0.01464    -0.01192     0.02116    -0.01613    -0.00575     0.00864
 PZ  C  53  -0.01998     0.01602    -0.02789     0.02007     0.00677    -0.00876
  
  S  C  54   0.01414    -0.00927     0.01210    -0.00183     0.00092    -0.00497
 PX  C  54   0.00735    -0.00648     0.01289    -0.01400    -0.00642     0.01405
 PY  C  54   0.01381    -0.01176     0.02232    -0.02130    -0.00894     0.01710
 PZ  C  54  -0.01915     0.01577    -0.02852     0.02312     0.00840    -0.01180
  
  S  O  55   0.01399    -0.00928     0.01195     0.00062     0.00307    -0.01337
 PX  O  55   0.00641    -0.00476     0.00753    -0.00407    -0.00100     0.00005
 PY  O  55   0.00570    -0.00449     0.00772    -0.00562    -0.00194     0.00254
 PZ  O  55   0.00020     0.00054    -0.00248     0.00520     0.00276    -0.00663
  
  S  O  56   0.04413    -0.03544     0.06307    -0.05299    -0.02103     0.03788
 PX  O  56  -0.00914     0.00721    -0.01250     0.00969     0.00363    -0.00592
 PY  O  56  -0.00601     0.00461    -0.00772     0.00549     0.00197    -0.00315
 PZ  O  56  -0.00597     0.00505    -0.00948     0.00868     0.00347    -0.00585
  
  S  C  57  -0.03175     0.02764    -0.05296     0.04863     0.01905    -0.03025
 PX  C  57   0.00794    -0.00653     0.01163    -0.00838    -0.00274     0.00343
 PY  C  57   0.00840    -0.00688     0.01223    -0.00896    -0.00302     0.00403
 PZ  C  57  -0.00305     0.00238    -0.00409     0.00326     0.00129    -0.00230
  
  S  N  58  -0.01593     0.01420    -0.02803     0.02811     0.01161    -0.01954
 PX  N  58   0.00665    -0.00586     0.01140    -0.01095    -0.00441     0.00722
 PY  N  58   0.00494    -0.00433     0.00838    -0.00793    -0.00316     0.00514
 PZ  N  58   0.00311    -0.00284     0.00574    -0.00598    -0.00250     0.00421
  
  S  H  59  -0.03380     0.02768    -0.04931     0.03740     0.01314    -0.01890
  
  S  H  60   0.00266     0.05817     0.02784    -0.01983    -0.01012    -0.10925
  
  S  H  61   0.00213     0.04715     0.02284    -0.01676    -0.00868    -0.09546
  
  S  H  62   0.00266     0.05819     0.02785    -0.01984    -0.01012    -0.10930
  
  S  H  63   0.00453     0.09635     0.04453    -0.02901    -0.01407    -0.14314
  
  S  H  64   0.00454     0.09652     0.04460    -0.02904    -0.01409    -0.14323
  
  S  H  65   0.00635     0.12956     0.05672    -0.03192    -0.01416    -0.12809
  
  S  H  66   0.00635     0.12961     0.05673    -0.03190    -0.01414    -0.12790
  
  S  H  67   0.00769     0.14710     0.05897    -0.02501    -0.00888    -0.05411
  
  S  H  68   0.00769     0.14719     0.05897    -0.02498    -0.00885    -0.05375
  
  S  H  69   0.00850     0.14888     0.05171    -0.01103    -0.00055     0.04212
  
  S  H  70   0.00853     0.14877     0.05169    -0.01096    -0.00050     0.04244
  
  S  H  71   0.00889     0.13407     0.03630     0.00618     0.00806     0.12072
  
  S  H  72   0.00880     0.13412     0.03613     0.00622     0.00806     0.12118
  
  S  H  73   0.00795     0.10255     0.01214     0.02199     0.01349     0.14294
  
  S  H  74   0.00863     0.10168     0.01296     0.02205     0.01363     0.14212
  
  S  H  75   0.00865     0.06269    -0.00711     0.03103     0.01512     0.11258
  
  S  H  76   0.00743     0.06338    -0.00824     0.03017     0.01455     0.11402
  
  S  H  77  -0.02102     0.00420     0.04427    -0.05101    -0.01557     0.03775
  
  S  H  78   0.01338    -0.00560     0.07241    -0.02118     0.00079     0.03208
  
  S  H  79   0.05063     0.00324     0.03422     0.07139     0.03235    -0.00355
  
  S  H  80   0.06066     0.01116    -0.00951     0.06679     0.01926    -0.01217
  
  S  H  81   0.04592     0.01582    -0.05893    -0.02827    -0.02799     0.00163
  
  S  H  82  -0.00836     0.00540    -0.03142    -0.03891    -0.01410     0.00466
  
  S  H  83   0.04476     0.01357    -0.05159    -0.02688    -0.04308     0.00368
  
  S  H  84   0.03286     0.00142     0.00228     0.02962    -0.08724     0.00379
  
  S  H  85   0.03783     0.00151     0.00411     0.03500    -0.08653     0.00292
  
  S  H  86   0.07041     0.00761    -0.01841     0.00518    -0.05132     0.00277
  
  S  H  87  -0.06181    -0.00574     0.01434     0.01781    -0.03821     0.00151
  
  S  H  88  -0.04386    -0.00359     0.00982     0.02713    -0.07617     0.00338
  
  S  H  89  -0.03717    -0.00227     0.00495     0.02203    -0.07500     0.00378
  
  S  H  90  -0.00771     0.00437    -0.02109    -0.01382    -0.03587     0.00401
  
  S  H  91   0.06229     0.01159    -0.04221    -0.05054     0.04436     0.00099
  
  S  H  92   0.04016     0.00775    -0.02803    -0.03639     0.04779    -0.00067
  
  S  H  93   0.02349     0.00584    -0.02371    -0.03189     0.02611     0.00106
  
  S  H  94   0.01869     0.00641    -0.02692    -0.03351     0.02025     0.00158
  
  S  H  95   0.03387     0.00872    -0.03529    -0.04517     0.03163     0.00185
  
  S  H  96   0.04772     0.01167    -0.04594    -0.05358     0.02747     0.00283
  
  S  H  97   0.05689     0.01068    -0.03867    -0.04226     0.02502     0.00175
  
  S  H  98   0.04865     0.00977    -0.03730    -0.04580     0.02928     0.00211
  
  S  H  99   0.03726     0.00724    -0.02745    -0.03313     0.01837     0.00180
  
  S  H 100   0.05854     0.01011    -0.03606    -0.03859     0.01643     0.00224
  
  S  H 101  -0.05540     0.03580    -0.04943     0.01180     0.00035     0.00093
  
  S  H 102  -0.05253     0.03998    -0.06499     0.03666     0.01018    -0.00984
  
  S  H 103   0.01971    -0.01591     0.02844    -0.02398    -0.00946     0.01664




    ROOT NO.   13          14          15          16          17          18

           -39.65376   -39.13205   -37.45800   -37.22361   -36.97862   -36.17244
  
  
  S  C   1   0.01676    -0.00940     0.02104     0.30297    -0.02669    -0.00461
 PX  C   1   0.00503    -0.00269     0.00501     0.06989    -0.00594    -0.00089
 PY  C   1   0.00101    -0.00050     0.00056     0.00698    -0.00050    -0.00002
 PZ  C   1  -0.00000     0.00000     0.00000    -0.00000    -0.00000    -0.00000
  
  S  C   2   0.02124    -0.01125     0.02029     0.28212    -0.02393    -0.00360
 PX  C   2  -0.00202     0.00146    -0.00550    -0.08362     0.00775     0.00155
 PY  C   2   0.00329    -0.00151     0.00097     0.00924    -0.00037     0.00018
 PZ  C   2  -0.00000     0.00000     0.00001     0.00014    -0.00002    -0.00000
  
  S  C   3   0.01569    -0.00708     0.00462     0.04626    -0.00223     0.00058
 PX  C   3  -0.00290     0.00222    -0.00816    -0.12215     0.01113     0.00208
 PY  C   3  -0.00524     0.00299    -0.00658    -0.09327     0.00810     0.00129
 PZ  C   3  -0.00001     0.00000     0.00005     0.00045    -0.00007    -0.00001
  
  S  C   4   0.00150     0.00153    -0.01534    -0.23740     0.02211     0.00433
 PX  C   4  -0.00657     0.00351    -0.00492    -0.06354     0.00475     0.00035
 PY  C   4  -0.00420     0.00272    -0.00674    -0.09483     0.00814     0.00119
 PZ  C   4   0.00002     0.00000     0.00004    -0.00047    -0.00005     0.00001
  
  S  C   5  -0.01338     0.00915    -0.02297    -0.31964     0.02728     0.00381
 PX  C   5  -0.00635     0.00314    -0.00140    -0.00707    -0.00068    -0.00082
 PY  C   5  -0.00153     0.00017     0.00374     0.06389    -0.00602    -0.00136
 PZ  C   5   0.00005    -0.00000     0.00036     0.00132    -0.00046    -0.00003
  
  S  C   6  -0.02138     0.01151    -0.01114    -0.12967     0.00741    -0.00057
 PX  C   6   0.00101    -0.00155     0.00922     0.13151    -0.01239    -0.00203
 PY  C   6  -0.00361     0.00118     0.00325     0.06142    -0.00590    -0.00143
 PZ  C   6  -0.00027     0.00028     0.00076    -0.00204    -0.00108    -0.00006
  
  S  C   7  -0.01709     0.00616     0.00793     0.17133    -0.01601    -0.00409
 PX  C   7   0.00203    -0.00239     0.00991     0.13328    -0.01158    -0.00136
 PY  C   7   0.00584    -0.00375     0.00225     0.04886    -0.00043     0.00036
 PZ  C   7  -0.00051     0.00083     0.00336    -0.00463    -0.00449    -0.00024
  
  S  C   8  -0.00656    -0.00012     0.03216     0.35732    -0.04098    -0.00493
 PX  C   8   0.00483    -0.00153     0.00678    -0.01391    -0.00589     0.00075
 PY  C   8   0.00445    -0.00348     0.00674     0.07915    -0.00509     0.00016
 PZ  C   8  -0.00198     0.00276     0.01330    -0.00070    -0.01747    -0.00093
  
  S  N   9   0.01034    -0.00717     0.02529     0.18227    -0.02246    -0.00013
 PX  N   9  -0.00275     0.00662     0.02169    -0.09924    -0.02748    -0.00067
 PY  N   9   0.00655    -0.00351    -0.03000    -0.19018     0.03935     0.00337
 PZ  N   9  -0.01240     0.01750     0.07436    -0.03598    -0.09558    -0.00458
  
  S  N  10  -0.02076     0.03364     0.14378    -0.11345    -0.16675    -0.00275
 PX  N  10  -0.00436     0.00409     0.00423    -0.03030    -0.00276     0.00096
 PY  N  10  -0.01100     0.01382     0.02842    -0.11242    -0.03037     0.00057
 PZ  N  10  -0.00128    -0.00184    -0.01250     0.02777     0.01761     0.00184
  
  S  C  11  -0.05603     0.05982     0.11045    -0.14263    -0.14227    -0.01128
 PX  C  11  -0.01264     0.01257     0.03556     0.03361    -0.03691     0.00023
 PY  C  11  -0.02129     0.01398    -0.01719     0.08554     0.00730    -0.00739
 PZ  C  11  -0.01029     0.01582     0.09145     0.00941    -0.08656     0.00648
  
  S  C  12   0.01070    -0.02400    -0.15590    -0.08270     0.15576    -0.00318
 PX  C  12  -0.02107     0.02073     0.02956     0.01167    -0.04827    -0.00890
 PY  C  12  -0.01120     0.00409    -0.01600     0.08503    -0.00417    -0.00814
 PZ  C  12  -0.03578     0.04066     0.07912    -0.03906    -0.10382    -0.01225
  
  S  N  13   0.04105    -0.04744    -0.14911    -0.02137     0.19058     0.01317
 PX  N  13   0.00417    -0.00441    -0.02332    -0.04666     0.02723     0.00095
 PY  N  13   0.01044    -0.01318    -0.04773    -0.09413     0.05302     0.00373
 PZ  N  13   0.00313    -0.00199    -0.01568    -0.02004     0.02108     0.00006
  
  S  C  14   0.03854    -0.06032    -0.20701     0.07945     0.20117    -0.00012
 PX  C  14  -0.02446     0.02355     0.01532     0.01891    -0.03220    -0.01116
 PY  C  14  -0.00215     0.00295     0.01864     0.04110    -0.02562    -0.00264
 PZ  C  14  -0.04864     0.04584     0.01513     0.00804    -0.04492    -0.02061
  
  S  C  15  -0.02693     0.01114    -0.08752     0.12025     0.04601    -0.02313
 PX  C  15  -0.00969     0.01250     0.03466    -0.00438    -0.03649    -0.00134
 PY  C  15   0.01112    -0.00559     0.02881    -0.01798    -0.01569     0.00720
 PZ  C  15  -0.03078     0.03251     0.05346     0.00439    -0.06860    -0.00902
  
  S  C  16  -0.07088     0.06552     0.08598     0.09299    -0.11811    -0.01666
 PX  C  16   0.00877    -0.00600     0.01546    -0.01054    -0.00132     0.00764
 PY  C  16   0.02290    -0.02252    -0.04248    -0.00105     0.04868     0.00201
 PZ  C  16   0.00120     0.00447     0.06512    -0.02351    -0.04166     0.01398
  
  S  C  17  -0.08074     0.08445     0.20950     0.00755    -0.21000     0.00352
 PX  C  17   0.00641    -0.00465     0.01786     0.01551     0.00353     0.01005
 PY  C  17  -0.00559     0.00276    -0.01365     0.05509     0.01029    -0.00324
 PZ  C  17   0.01913    -0.01330     0.04300    -0.01239     0.00062     0.02185
  
  S  C  18  -0.00574     0.01632     0.16225    -0.00403    -0.05354     0.04457
 PX  C  18   0.01536    -0.01494    -0.01869     0.01098     0.04918     0.01066
 PY  C  18  -0.00564     0.00569     0.01772     0.01534    -0.01218     0.00405
 PZ  C  18   0.03574    -0.03613    -0.07672     0.00114     0.10817     0.00579
  
  S  C  19   0.02679    -0.01949     0.05520     0.01186     0.06313     0.04561
 PX  C  19  -0.00213    -0.00055    -0.03487    -0.00148     0.00373    -0.01155
 PY  C  19  -0.00988     0.00855     0.00334     0.00308    -0.02427    -0.00598
 PZ  C  19   0.02156    -0.02200    -0.05715    -0.00357     0.06577    -0.00032
  
  S  C  20   0.04833    -0.04545    -0.09286     0.00322     0.11501     0.00596
 PX  C  20  -0.01529     0.01396     0.02271     0.00039    -0.03427    -0.00077
 PY  C  20  -0.00606     0.00621     0.02665     0.00159    -0.00957     0.00972
 PZ  C  20  -0.00593     0.00342    -0.04615    -0.00238    -0.03042    -0.02604
  
  S  C  21   0.04581    -0.04551    -0.16400    -0.00178     0.07752    -0.04819
 PX  C  21   0.00615    -0.00617    -0.01982     0.00101     0.01395     0.00336
 PY  C  21   0.00851    -0.00730     0.00278     0.00089     0.02544     0.01964
 PZ  C  21  -0.01309     0.00960    -0.05348     0.00008    -0.06196    -0.03867
  
  S  S  22   0.02151    -0.01688     0.00279    -0.01241     0.03467     0.00124
 PX  S  22   0.01763    -0.01571    -0.01656    -0.00083     0.04232     0.00330
 PY  S  22   0.00633    -0.00449     0.01361    -0.00072     0.01254     0.01172
 PZ  S  22   0.00988    -0.01250    -0.06826     0.00928     0.03351    -0.02198
  
  S  C  23   0.00386    -0.00896    -0.16815    -0.00190    -0.07361    -0.08781
 PX  C  23   0.00203    -0.00214    -0.01721    -0.00005    -0.00746     0.00643
 PY  C  23   0.00821    -0.00818    -0.04817    -0.00015    -0.01036     0.01517
 PZ  C  23  -0.01719     0.01634     0.03378     0.00014    -0.06046     0.02097
  
  S  C  24  -0.00916     0.00486    -0.13321    -0.00147    -0.15486     0.00855
 PX  C  24   0.00203    -0.00159     0.00407     0.00011     0.00929     0.00543
 PY  C  24   0.00720    -0.00602     0.00524     0.00025     0.03237     0.00434
 PZ  C  24  -0.00904     0.00967     0.04214     0.00016    -0.03295     0.05147
  
  S  C  25  -0.01748     0.01524    -0.04738    -0.00088    -0.16368     0.11799
 PX  C  25   0.00209    -0.00199    -0.00787    -0.00005     0.00304    -0.00678
 PY  C  25   0.00440    -0.00450    -0.03148    -0.00028    -0.00598    -0.02228
 PZ  C  25   0.00610    -0.00468     0.01643     0.00025     0.03129     0.03177
  
  S  C  26  -0.01332     0.01402     0.10537     0.00111     0.01685     0.11677
 PX  C  26  -0.00084     0.00038    -0.03096    -0.00042    -0.04134     0.01380
 PY  C  26  -0.00521     0.00332    -0.09594    -0.00137    -0.13610     0.03288
 PZ  C  26   0.01267    -0.01121    -0.04746    -0.00038    -0.00743     0.04990
  
  S  C  27  -0.01971     0.01987     0.22402     0.00248     0.16301    -0.04116
 PX  C  27  -0.00183     0.00156    -0.00919    -0.00016    -0.02095     0.01176
 PY  C  27  -0.00610     0.00475    -0.05159    -0.00083    -0.08752     0.02721
 PZ  C  27   0.00301    -0.00124     0.06581     0.00102     0.06755     0.04279
  
  S  C  28  -0.01296     0.00987     0.01873    -0.00024     0.01466    -0.09507
 PX  C  28  -0.00077     0.00024    -0.01826    -0.00025    -0.01767    -0.00211
 PY  C  28   0.00041    -0.00201    -0.07340    -0.00091    -0.05831    -0.00741
 PZ  C  28  -0.01066     0.01067     0.07019     0.00074     0.01556     0.00609
  
  S  C  29  -0.00672     0.00759     0.18960     0.00244     0.19229    -0.07830
 PX  C  29  -0.00016     0.00065     0.02716     0.00035     0.02654     0.00362
 PY  C  29  -0.00160     0.00303     0.08840     0.00109     0.08183     0.01589
 PZ  C  29   0.00425    -0.00398    -0.02613    -0.00021    -0.01079     0.00815
  
  S  C  30  -0.00541     0.00435     0.05195     0.00066     0.04892    -0.06452
 PX  C  30  -0.00049     0.00058     0.01621     0.00021     0.01731    -0.00935
 PY  C  30  -0.00137     0.00181     0.05373     0.00068     0.05692    -0.02441
 PZ  C  30  -0.00032    -0.00024    -0.01529    -0.00016    -0.01492    -0.00405
  
  S  C  31  -0.00320     0.00135    -0.04550    -0.00058    -0.05996     0.01903
 PX  C  31  -0.00024     0.00004    -0.00404    -0.00005    -0.00369    -0.00628
 PY  C  31  -0.00079     0.00032    -0.00155    -0.00000     0.00105    -0.02486
 PZ  C  31   0.00024    -0.00063    -0.03157    -0.00041    -0.03749     0.03938
  
  S  C  32  -0.00183    -0.00020    -0.10011    -0.00133    -0.12603     0.12368
 PX  C  32   0.00038    -0.00054    -0.01376    -0.00018    -0.01176    -0.01284
 PY  C  32   0.00091    -0.00150    -0.04003    -0.00050    -0.03475    -0.02012
 PZ  C  32   0.00046    -0.00004     0.00121    -0.00002    -0.00412     0.05268
  
  S  C  33   0.00560    -0.00747    -0.18627    -0.00238    -0.17400     0.01209
 PX  C  33   0.00180    -0.00166    -0.01413    -0.00016    -0.00240    -0.06146
 PY  C  33   0.00541    -0.00511    -0.03920    -0.00043    -0.00777    -0.08988
 PZ  C  33   0.00001     0.00042     0.00049    -0.00005    -0.00556     0.02259
  
  S  C  34   0.00938    -0.00879    -0.04391    -0.00036     0.00545    -0.07041
 PX  C  34   0.00183    -0.00129     0.00555     0.00010     0.01225    -0.00620
 PY  C  34   0.00410    -0.00219     0.05815     0.00083     0.07280     0.01985
 PZ  C  34   0.00743    -0.00837    -0.16916    -0.00216    -0.14961    -0.01689
  
  S  N  35   0.01768    -0.01527    -0.09458    -0.00097    -0.04865     0.06507
 PX  N  35  -0.00204     0.00181     0.00415     0.00001    -0.00739     0.01218
 PY  N  35  -0.00341     0.00325     0.00363    -0.00003    -0.02912     0.08628
 PZ  N  35   0.00667    -0.00816    -0.17346    -0.00222    -0.15018    -0.03455
  
  S  C  36   0.01037    -0.01109    -0.17615    -0.00220    -0.14967     0.02131
 PX  C  36  -0.00037     0.00041     0.00300     0.00003    -0.00113     0.00758
 PY  C  36  -0.00538     0.00534     0.05693     0.00067     0.02370     0.10511
 PZ  C  36  -0.00785     0.00702     0.07135     0.00083     0.05765    -0.04584
  
  S  C  37  -0.00189     0.00100    -0.03464    -0.00050    -0.06319     0.13905
 PX  C  37   0.00002     0.00003    -0.00027    -0.00000    -0.00138    -0.00086
 PY  C  37  -0.00191     0.00214     0.03252     0.00041     0.02457     0.00597
 PZ  C  37  -0.00370     0.00337     0.05108     0.00064     0.04877    -0.01073
  
  S  C  38  -0.00692     0.00610     0.06572     0.00079     0.03944     0.09562
 PX  C  38   0.00036    -0.00033    -0.00586    -0.00008    -0.00598     0.00081
 PY  C  38   0.00221    -0.00188    -0.02282    -0.00028    -0.01981    -0.00171
 PZ  C  38  -0.00034     0.00053     0.02387     0.00033     0.03014    -0.02920
  
  S  C  39  -0.00833     0.00777     0.11629     0.00146     0.10181     0.02035
 PX  C  39  -0.00015     0.00012     0.00024     0.00000    -0.00057     0.00098
 PY  C  39   0.00098    -0.00099    -0.02003    -0.00026    -0.02325     0.03524
 PZ  C  39   0.00215    -0.00177    -0.01563    -0.00018    -0.00999    -0.01345
  
  S  C  40  -0.00824     0.00787     0.12480     0.00157     0.12101    -0.07520
 PX  C  40  -0.00039     0.00033     0.00493     0.00006     0.00626    -0.02470
 PY  C  40  -0.00129     0.00092     0.00775     0.00010     0.00332     0.03549
 PZ  C  40   0.00011     0.00025     0.01483     0.00021     0.01085     0.03247
  
  S  C  41   0.00151    -0.00237    -0.04929    -0.00064    -0.02190    -0.15221
 PX  C  41   0.00041    -0.00044    -0.00498    -0.00006    -0.00057    -0.04304
 PY  C  41  -0.00067     0.00027     0.00037     0.00001    -0.00298     0.04734
 PZ  C  41  -0.00795     0.00821     0.12839     0.00160     0.10715     0.00233
  
  S  C  42   0.00047    -0.00081    -0.04869    -0.00069    -0.04635    -0.04953
 PX  C  42   0.00055    -0.00047     0.00401     0.00008     0.01836    -0.15543
 PY  C  42   0.00372    -0.00399    -0.05016    -0.00060    -0.02335    -0.11561
 PZ  C  42  -0.00541     0.00614     0.11662     0.00148     0.10128     0.01348
  
  S  C  43  -0.00329     0.00379     0.06489     0.00082     0.07069    -0.25449
 PX  C  43   0.00005     0.00008     0.01740     0.00025     0.02361    -0.05599
 PY  C  43   0.00100    -0.00110    -0.01592    -0.00020    -0.00550    -0.07155
 PZ  C  43  -0.00263     0.00309     0.06740     0.00087     0.06456    -0.04591
  
  S  C  44  -0.00519     0.00613     0.13376     0.00174     0.14087    -0.28058
 PX  C  44   0.00116    -0.00129    -0.02135    -0.00026    -0.01852     0.00793
 PY  C  44   0.00011    -0.00019    -0.00334    -0.00004    -0.00025    -0.01967
 PZ  C  44   0.00053    -0.00063    -0.01151    -0.00015    -0.01392     0.06298
  
  S  C  45  -0.00720     0.00798     0.11212     0.00134     0.06086     0.33463
 PX  C  45  -0.00106     0.00114     0.01492     0.00018     0.01341    -0.03389
 PY  C  45   0.00123    -0.00149    -0.02593    -0.00033    -0.01021    -0.12297
 PZ  C  45  -0.00096     0.00128     0.03965     0.00053     0.03999    -0.00267
  
  S  C  46  -0.00686     0.00784     0.12405     0.00152     0.06798     0.39916
 PX  C  46  -0.00034     0.00038     0.00626     0.00008     0.00704    -0.03026
 PY  C  46  -0.00180     0.00202     0.02982     0.00036     0.01812     0.06818
 PZ  C  46   0.00029    -0.00020     0.00737     0.00011     0.01282    -0.03055
  
  S  C  47   0.13653    -0.13529    -0.09151     0.03294     0.13024     0.03786
 PX  C  47  -0.02585     0.02116    -0.02915     0.01724     0.01998    -0.00979
 PY  C  47  -0.00933     0.01286     0.02664     0.00677    -0.03406    -0.00506
 PZ  C  47  -0.02262     0.00775    -0.09853     0.02734     0.09647    -0.00528
  
  S  C  48   0.13351    -0.12470     0.01399    -0.01030     0.02260     0.03875
 PX  C  48   0.03653    -0.03373    -0.01492     0.00327     0.02582     0.01013
 PY  C  48   0.02411    -0.01896     0.02232    -0.00080    -0.01937     0.00462
 PZ  C  48  -0.00835     0.00057    -0.06984     0.01257     0.07605     0.00258
  
  S  C  49   0.06215    -0.04997     0.11895    -0.02974    -0.11887     0.00014
 PX  C  49   0.01977    -0.01093     0.03126    -0.00659    -0.03067    -0.00005
 PY  C  49  -0.01141     0.01478     0.02015    -0.00370    -0.02735    -0.00942
 PZ  C  49   0.05928    -0.05232    -0.00143     0.00024     0.02023     0.02389
  
  S  C  50  -0.05575     0.08330     0.11620    -0.02809    -0.14799    -0.04437
 PX  C  50  -0.01887     0.03240    -0.02578     0.00677     0.02592    -0.00017
 PY  C  50  -0.05435     0.05948    -0.02279     0.00470     0.01273    -0.01424
 PZ  C  50   0.10225    -0.08694     0.01447     0.00002     0.01051     0.03532
  
  S  S  51   0.03555     0.00331     0.01776     0.00817    -0.01190     0.00730
 PX  S  51  -0.03112     0.02398    -0.03476     0.00620     0.03223    -0.00150
 PY  S  51  -0.03874     0.04714    -0.01002    -0.00042     0.00351    -0.00562
 PZ  S  51   0.04521    -0.06757    -0.03475     0.01704     0.04728     0.01419
  
  S  C  52  -0.28353     0.20816     0.04073    -0.01525    -0.10388    -0.09310
 PX  C  52  -0.04747     0.06664    -0.01632     0.00292     0.00905    -0.01096
 PY  C  52  -0.06147     0.04652    -0.02595     0.00529     0.02135    -0.00788
 PZ  C  52   0.04853     0.03574     0.03277    -0.00772    -0.03872    -0.00622
  
  S  C  53  -0.25815     0.30642    -0.03925     0.00385    -0.00566    -0.06485
 PX  C  53   0.08573     0.06747    -0.01919     0.00509     0.03032     0.02044
 PY  C  53   0.08185     0.02405    -0.01693     0.00485     0.02981     0.02106
 PZ  C  53  -0.01218     0.10072    -0.00179    -0.00045    -0.00558    -0.00647
  
  S  C  54  -0.12811    -0.06709    -0.01686     0.00378     0.01772    -0.00051
 PX  C  54   0.27792     0.18324     0.02366    -0.00660    -0.03818    -0.02597
 PY  C  54   0.25209     0.08714     0.02518    -0.00577    -0.02844    -0.00792
 PZ  C  54  -0.00417     0.20788    -0.01037    -0.00044    -0.01570    -0.04106
  
  S  O  55  -0.43857    -0.41064    -0.04033     0.01272     0.07950     0.06528
 PX  O  55  -0.05759    -0.08211    -0.00409     0.00170     0.01193     0.01231
 PY  O  55  -0.00159    -0.04383     0.00086     0.00038     0.00463     0.00849
 PZ  O  55  -0.13360    -0.08007    -0.01211     0.00306     0.01630     0.00695
  
  S  O  56   0.50848     0.13209     0.05967    -0.01384    -0.07007    -0.02527
 PX  O  56  -0.06050     0.00417    -0.00698     0.00138     0.00598    -0.00001
 PY  O  56  -0.03819    -0.01503    -0.00083     0.00023     0.00129     0.00182
 PZ  O  56  -0.04372     0.05013    -0.01464     0.00275     0.01106    -0.00480
  
  S  C  57  -0.11817     0.47945    -0.14348     0.03238     0.16818     0.07052
 PX  C  57   0.02395     0.04010    -0.05040     0.01388     0.08513     0.06669
 PY  C  57   0.02974     0.02532    -0.03379     0.00935     0.05731     0.04423
 PZ  C  57  -0.02102     0.03193    -0.03476     0.00949     0.05769     0.04651
  
  S  N  58  -0.07214     0.40221    -0.16919     0.04134     0.23083     0.13624
 PX  N  58   0.02683    -0.13445     0.05052    -0.01208    -0.06631    -0.03652
[...]
  12    C        8.697811400     7.661986991    -0.585092075
  13    N        8.094469453     6.510940484    -1.037959981
  14    C        8.887913426     8.925332232    -1.204057588
  15    C        9.554958070     9.883188727    -0.490408588
  16    C       10.052039020     9.641448193     0.822180080
  17    C        9.896426948     8.436641486     1.452501556
  18    C       10.423915970     8.202519764     2.771231630
  19    C       11.622450990     8.682689456     3.226385023
  20    C       11.867967440     8.306616141     4.583727632
  21    C       10.844211310     7.560260150     5.097100517
  22    S        9.595089568     7.305290699     3.963408777
  23    C       10.779326060     7.037893456     6.441883226
  24    C       11.158269980     7.865141872     7.506516409
  25    C       11.125715550     7.419203092     8.819434781
  26    C       10.696185150     6.118497327     9.056021505
  27    C       10.321247850     5.269367382     7.971354049
  28    C       10.362031860     5.727749107     6.668640791
  29    C        9.958686086     3.986018022     8.523440473
  30    C        9.510659465     2.787461890     7.994381238
  31    C        9.255689580     1.744657628     8.875998200
  32    C        9.448465345     1.873809599    10.256946390
  33    C        9.898748160     3.060794059    10.817286120
  34    C       10.138820780     4.091106391     9.919619431
  35    N       10.606303440     5.376982985    10.259053730
  36    C       10.542644230     5.770306233    11.609646770
  37    C       10.702791300     7.111670951    11.967596350
  38    C       10.619534680     7.484661537    13.300258030
  39    C       10.361369910     6.530106030    14.271697490
  40    C       10.206043240     5.198888616    13.907407290
  41    C       10.304597040     4.777391732    12.584604940
  42    C       10.219830700     3.293750484    12.269301080
  43    C       11.628206240     2.701051917    12.479715210
  44    C       12.194197140     2.914554422    13.871472670
  45    C        9.132044425     2.632398338    13.139877490
  46    C        9.298638926     1.143346331    13.395404640
  47    C        8.379400950     9.146976635    -2.532701194
  48    C        7.211281938     8.632859496    -3.036909940
  49    C        7.006391270     9.030298702    -4.387321994
  50    C        8.023296728     9.837069361    -4.854758353
  51    S        9.214979364    10.093339130    -3.668782232
  52    C        8.039644349    10.358674030    -6.186398715
  53    C        8.883276220    11.301803060    -6.657809106
  54    C        8.771223879    11.728529680    -8.057872079
  55    O        7.969383781    11.317120720    -8.885178787
  56    O        9.666203187    12.671518200    -8.416258888
  57    C        9.882981279    11.926047580    -5.873652565
  58    N       10.704783370    12.455197910    -5.254678771
  59    H        7.278696156     9.935279980    -6.864149715
  60    H       -0.417517767     0.503167597    -0.883998722
  61    H       -0.409214960    -1.020711619     0.003672393
  62    H       -0.417020717     0.509266450     0.880997013
  63    H        1.902470973    -0.561427015     0.878333996
  64    H        1.901678398    -0.561411652    -0.879317724
  65    H        1.664468190     1.988569974    -0.872701902
  66    H        1.681993355     1.980979519     0.885144776
  67    H        3.982777235     0.857153352     0.850784708
  68    H        3.963559154     0.882375671    -0.907250297
  69    H        3.721589995     3.431990600    -0.860055852
  70    H        3.760903059     3.397574396     0.897744729
  71    H        6.058465084     2.271580971     0.817773465
  72    H        6.017699587     2.326019188    -0.941230621
  73    H        5.773452616     4.878443584    -0.847916692
  74    H        5.839893101     4.813033787     0.910832553
  75    H        8.152170622     3.666958506     0.778707601
  76    H        8.083797847     3.780784467    -1.002562175
  77    H        9.720227949    10.878147700    -0.918551820
  78    H       10.567296780    10.465012950     1.327856704
  79    H       12.327075340     9.268236350     2.640887666
  80    H       12.773209400     8.581225184     5.119024095
  81    H       11.483717470     8.890520813     7.301838986
  82    H       11.434047850     8.078919481     9.636491396
  83    H       10.081138750     5.065993034     5.844854045
  84    H        9.364959003     2.673222761     6.917871768
  85    H        8.897731709     0.788799286     8.482116715
  86    H        9.241906354     1.003741694    10.890742460
  87    H       10.890547870     7.885363902    11.216106130
  88    H       10.750857790     8.534317605    13.580224820
  89    H       10.281158660     6.821791189    15.322314450
  90    H        9.985765050     4.469611165    14.699032300
  91    H       11.626153550     1.619969544    12.224831760
  92    H       12.322964980     3.147316017    11.733379840
  93    H       13.120608950     2.337007496    14.015901590
  94    H       12.460602840     3.964061027    14.064173330
  95    H       11.511655890     2.604671877    14.674288380
  96    H        9.057023339     3.126694748    14.135359520
  97    H        8.141759267     2.826131349    12.672835910
  98    H       10.168059360     0.903327540    14.023204890
  99    H        8.422603297     0.735003301    13.923622460
 100    H        9.402458387     0.547387349    12.475432910
 101    H        6.512313920     8.002577390    -2.490937577
 102    H        6.136952702     8.725800914    -4.967320483
 103    H        9.554974221    12.920925420    -9.345112584


           Empirical Formula: C49 H45 N5 O2 S2  =   103 atoms



      MOLECULAR POINT GROUP   :   C1  


                  EIGENVALUES  
 -50.86997 -49.48646 -46.73519 -45.80278 -44.05757 -43.55966 -43.34609 -42.98293
 -42.54599 -41.52188 -40.99196 -40.39720 -39.65376 -39.13205 -37.45800 -37.22361
 -36.97862 -36.17244 -35.93548 -35.04438 -34.12681 -33.91372 -33.33635 -32.90070
 -32.64892 -31.73685 -30.77119 -30.73030 -29.95843 -29.48073 -28.98756 -28.94142
 -28.53001 -28.26030 -27.78413 -27.37152 -26.55027 -26.07443 -25.94902 -25.75022
 -25.34585 -24.81547 -24.66421 -24.35494 -23.97427 -23.84811 -23.33619 -23.19034
 -23.16453 -22.45205 -21.75381 -21.43031 -21.36790 -21.23175 -20.92770 -20.67934
 -20.29606 -20.08917 -19.81805 -19.72749 -19.23351 -19.20623 -18.96691 -18.75056
 -18.48420 -18.18339 -18.11157 -17.93843 -17.78802 -17.68701 -17.48406 -17.41724
 -17.39400 -16.79535 -16.76007 -16.70526 -16.54022 -16.30800 -15.94675 -15.82438
 -15.78660 -15.65258 -15.45913 -15.42732 -15.41023 -15.26197 -14.94726 -14.80194
 -14.75339 -14.62600 -14.50599 -14.49354 -14.43725 -14.21925 -14.14865 -14.11253
 -13.98478 -13.85573 -13.81079 -13.76989 -13.73061 -13.61504 -13.51118 -13.50794
 -13.41139 -13.37657 -13.29159 -13.14316 -13.07975 -13.05023 -12.96494 -12.94550
 -12.86857 -12.72158 -12.57300 -12.52732 -12.50520 -12.43566 -12.39134 -12.19693
 -12.08188 -11.93973 -11.75756 -11.70052 -11.65256 -11.57327 -11.41629 -11.37210
 -11.01976 -10.85861 -10.82956 -10.74479 -10.47267  -9.91809  -9.91687  -9.88904
  -9.20325  -8.84270  -8.69716  -8.68607  -8.65282  -7.97409  -7.74539  -7.34484
  -6.93045  -1.38582  -0.77850   0.03674   0.15957   0.46628   0.69907   0.79952
   0.83302   0.91652   1.07490   1.26612   1.45193   1.59388   1.66010   2.09420
   2.10911   2.36800   2.37832   2.47888   2.54969   2.59127   2.70532   2.77251
   2.91213   2.94858   2.98916   3.10985   3.19538   3.22200   3.31017   3.37343
   3.43131   3.54249   3.67807   3.71802   3.76681   3.80847   3.85553   3.95109
   3.98178   4.02295   4.10014   4.17550   4.21906   4.24475   4.30442   4.42073
   4.56351   4.62921   4.70570   4.94846   5.02540   5.06380   5.13258   5.31041
   5.33617   5.41809   5.44167   5.48310   5.59797   5.67323   5.89095   5.95534
   6.27076   6.41257   6.45712   6.52727   6.54253   6.66145   6.71287   6.74876
   6.77079   6.78280   6.79290   6.86394   6.93434   6.94922   6.97266   6.98760
   6.99901   7.00708   7.04189   7.08323   7.14724   7.38894   7.54014   7.84765
   8.34747   8.47060   8.54299   8.60612   8.63135   8.63706   8.64606   8.72702
   8.77571   8.80055   8.94789   8.98559   9.06821   9.22452   9.29348   9.66055
   9.79551   9.87400  10.14825  10.17615  10.37226  10.50956  10.55445  10.63462
  10.86879  10.89601  11.13343  11.29643  11.69073  11.77723  12.01791  12.08480
  12.19084  12.27316  12.69492  12.77247  12.92532  13.22465  13.32911  13.44236
  13.97737  14.33513  14.59025  14.61840  15.26354


              NET ATOMIC CHARGES AND DIPOLE CONTRIBUTIONS

  ATOM NO.   TYPE          CHARGE      No. of ELECS.   s-Pop       p-Pop       
    1          C          -0.027868        4.0279     1.05493     2.97294
    2          C          -0.006977        4.0070     1.04479     2.96218
    3          C          -0.008523        4.0085     1.05052     2.95800
    4          C          -0.011251        4.0113     1.05208     2.95917
    5          C          -0.010919        4.0109     1.05196     2.95896
    6          C          -0.010413        4.0104     1.05107     2.95934
    7          C          -0.000155        4.0002     1.05056     2.94960
    8          C           0.084325        3.9157     1.05780     2.85788
    9          N           0.146162        4.8538     1.26840     3.58544
   10          N          -0.262714        5.2627     1.67759     3.58512
   11          C           0.077711        3.9223     1.05766     2.86463
   12          C           0.083234        3.9168     1.05803     2.85873
   13          N          -0.265524        5.2655     1.67836     3.58717
   14          C           0.023075        3.9769     1.03346     2.94347
   15          C          -0.012726        4.0127     1.08587     2.92686
   16          C          -0.029727        4.0297     1.08371     2.94602
   17          C           0.040395        3.9596     1.03805     2.92155
   18          C           0.024877        3.9751     1.07436     2.90076
   19          C          -0.045042        4.0450     1.08865     2.95639
   20          C          -0.058057        4.0581     1.08523     2.97282
   21          C           0.036089        3.9639     1.08136     2.88255
   22          S          -0.051978        6.0520     1.77022     4.28175
   23          C           0.015876        3.9841     1.03931     2.94481
   24          C          -0.029436        4.0294     1.08265     2.94679
   25          C          -0.039663        4.0397     1.08399     2.95567
   26          C           0.070445        3.9296     1.05101     2.87855
   27          C          -0.009026        4.0090     1.05202     2.95701
   28          C          -0.028295        4.0283     1.07989     2.94840
   29          C          -0.014331        4.0143     1.04886     2.96547
   30          C          -0.034104        4.0341     1.07755     2.95656
   31          C          -0.042086        4.0421     1.08168     2.96041
   32          C          -0.049849        4.0498     1.08669     2.96316
   33          C           0.011447        3.9886     1.06071     2.92785
   34          C           0.051318        3.9487     1.05138     2.89730
   35          N          -0.130930        5.1309     1.24589     3.88504
   36          C           0.082536        3.9175     1.04054     2.87692
   37          C          -0.051726        4.0517     1.08420     2.96752
   38          C          -0.027651        4.0277     1.07947     2.94818
   39          C          -0.041770        4.0418     1.07823     2.96354
   40          C          -0.031773        4.0318     1.08813     2.94365
   41          C           0.002250        3.9978     1.06582     2.93193
   42          C           0.048690        3.9513     1.00846     2.94285
   43          C           0.008538        3.9915     1.05128     2.94018
   44          C          -0.029198        4.0292     1.05845     2.97075
   45          C          -0.004703        4.0047     1.05655     2.94815
   46          C          -0.033548        4.0335     1.06064     2.97291
   47          C           0.080527        3.9195     1.08597     2.83350
   48          C          -0.049697        4.0497     1.08296     2.96674
   49          C           0.034745        3.9653     1.10143     2.86382
   50          C          -0.004071        4.0041     1.05958     2.94450
   51          S          -0.025748        6.0257     1.76751     4.25824
   52          C           0.122299        3.8777     1.09461     2.78309
   53          C           0.003917        3.9961     1.00033     2.99575
   54          C           0.496099        3.5039     1.04493     2.45897
   55          O          -0.612825        6.6128     1.81690     4.79593
   56          O          -0.311189        6.3112     1.68767     4.62352
   57          C           0.216342        3.7837     1.14936     2.63429
   58          N          -0.397234        5.3972     1.75362     3.64362
   59          H           0.059861        0.9401     0.94014
   60          H           0.007814        0.9922     0.99219
   61          H           0.000292        0.9997     0.99971
   62          H           0.007745        0.9923     0.99226
   63          H           0.006177        0.9938     0.99382
   64          H           0.006233        0.9938     0.99377
   65          H           0.006934        0.9931     0.99307
   66          H           0.006856        0.9931     0.99314
   67          H           0.006784        0.9932     0.99322
   68          H           0.006880        0.9931     0.99312
   69          H           0.007246        0.9928     0.99275
   70          H           0.007120        0.9929     0.99288
   71          H           0.009765        0.9902     0.99024
   72          H           0.009849        0.9902     0.99015
   73          H           0.015749        0.9843     0.98425
   74          H           0.014599        0.9854     0.98540
   75          H           0.034269        0.9657     0.96573
   76          H           0.036748        0.9633     0.96325
   77          H           0.028401        0.9716     0.97160
   78          H           0.025909        0.9741     0.97409
   79          H           0.030802        0.9692     0.96920
   80          H           0.029199        0.9708     0.97080
   81          H           0.024196        0.9758     0.97580
   82          H           0.035891        0.9641     0.96411
   83          H           0.026342        0.9737     0.97366
   84          H           0.022365        0.9776     0.97763
   85          H           0.015356        0.9846     0.98464
   86          H           0.029795        0.9702     0.97021
   87          H           0.035917        0.9641     0.96408
   88          H           0.020813        0.9792     0.97919
   89          H           0.019474        0.9805     0.98053
   90          H           0.027421        0.9726     0.97258
   91          H           0.008854        0.9911     0.99115
   92          H           0.004852        0.9951     0.99515
   93          H          -0.001006        1.0010     1.00101
   94          H           0.011951        0.9880     0.98805
   95          H           0.013191        0.9868     0.98681
   96          H           0.012845        0.9872     0.98715
   97          H           0.004532        0.9955     0.99547
   98          H           0.010739        0.9893     0.98926
   99          H           0.000037        1.0000     0.99996
  100          H           0.018287        0.9817     0.98171
  101          H           0.039069        0.9609     0.96093
  102          H           0.047771        0.9522     0.95223
  103          H           0.245902        0.7541     0.75410
 DIPOLE           X         Y         Z       TOTAL
 POINT-CHG.    -2.511    -5.340     6.275     8.614
 HYBRID        -0.589     0.710    -1.179     1.497
 SUM           -3.100    -4.630     5.096     7.551


          ATOMIC ORBITAL ELECTRON POPULATIONS

     Atom    s        px        py        pz   
    1  C   1.05493   0.99093   0.98887   0.99314
    2  C   1.04479   0.99082   0.98558   0.98578
    3  C   1.05052   0.99099   0.98004   0.98697
    4  C   1.05208   0.99038   0.98214   0.98664
    5  C   1.05196   0.98854   0.98348   0.98693
    6  C   1.05107   0.99298   0.97717   0.98919
    7  C   1.05056   0.96388   0.99183   0.99389
    8  C   1.05780   0.99503   0.85340   1.00945
    9  N   1.26840   1.36095   1.10630   1.11819
   10  N   1.67759   1.22340   1.18197   1.17975
   11  C   1.05766   0.96163   0.92301   0.97998
   12  C   1.05803   0.96177   0.92124   0.97572
   13  N   1.67836   1.29987   1.08182   1.20548
   14  C   1.03346   1.00947   0.97418   0.95981
   15  C   1.08587   0.97993   0.96105   0.98588
   16  C   1.08371   0.99682   0.97017   0.97902
   17  C   1.03805   0.97934   0.97870   0.96352
   18  C   1.07436   0.98382   0.99254   0.92441
   19  C   1.08865   0.98213   0.99231   0.98195
   20  C   1.08523   0.96334   1.02142   0.98806
   21  C   1.08136   0.95413   0.99612   0.93230
   22  S   1.77022   1.37902   1.68820   1.21453
   23  C   1.03931   1.00317   0.98381   0.95784
   24  C   1.08265   1.00651   0.95641   0.98387
   25  C   1.08399   1.02232   0.96519   0.96816
   26  C   1.05101   1.00709   0.95960   0.91186
   27  C   1.05202   1.01611   0.97562   0.96528
   28  C   1.07989   1.01364   0.97386   0.96090
   29  C   1.04886   1.01580   0.95946   0.99021
   30  C   1.07755   1.01986   0.99302   0.94367
   31  C   1.08168   1.01515   0.95781   0.98745
   32  C   1.08669   1.03224   0.95879   0.97212
   33  C   1.06071   0.97662   0.98676   0.96447
   34  C   1.05138   1.00831   0.90490   0.98409
   35  N   1.24589   1.66602   1.15472   1.06430
   36  C   1.04054   1.01372   0.98416   0.87904
   37  C   1.08420   1.04066   0.95447   0.97239
   38  C   1.07947   0.99951   0.94886   0.99981
   39  C   1.07823   1.02268   0.99496   0.94590
   40  C   1.08813   1.00642   0.97190   0.96533
   41  C   1.06582   0.99820   0.95156   0.98217
   42  C   1.00846   0.98253   0.97772   0.98259
   43  C   1.05128   0.97198   0.98047   0.98774
   44  C   1.05845   0.98961   0.99366   0.98748
   45  C   1.05655   0.97568   0.99214   0.98033
   46  C   1.06064   0.99304   0.98546   0.99441
   47  C   1.08597   0.96996   0.93080   0.93274
   48  C   1.08296   0.98208   1.00678   0.97789
   49  C   1.10143   0.94637   0.92703   0.99043
   50  C   1.05958   0.97091   1.05152   0.92207
   51  S   1.76751   1.39704   1.65446   1.20674
   52  C   1.09461   0.91286   0.89424   0.97599
   53  C   1.00033   1.02692   1.05649   0.91234
   54  C   1.04493   0.77458   0.75579   0.92860
   55  O   1.81690   1.49229   1.67830   1.62534
   56  O   1.68767   1.62992   1.58667   1.40692
   57  C   1.14936   0.91024   0.87014   0.85391
   58  N   1.75362   1.20853   1.20556   1.22952
   59  H   0.94014
   60  H   0.99219
   61  H   0.99971
   62  H   0.99226
   63  H   0.99382
   64  H   0.99377
   65  H   0.99307
   66  H   0.99314
   67  H   0.99322
   68  H   0.99312
   69  H   0.99275
   70  H   0.99288
   71  H   0.99024
   72  H   0.99015
   73  H   0.98425
   74  H   0.98540
   75  H   0.96573
   76  H   0.96325
   77  H   0.97160
   78  H   0.97409
   79  H   0.96920
   80  H   0.97080
   81  H   0.97580
   82  H   0.96411
   83  H   0.97366
   84  H   0.97763
   85  H   0.98464
   86  H   0.97021
   87  H   0.96408
   88  H   0.97919
   89  H   0.98053
   90  H   0.97258
   91  H   0.99115
   92  H   0.99515
   93  H   1.00101
   94  H   0.98805
   95  H   0.98681
   96  H   0.98715
   97  H   0.99547
   98  H   0.98926
   99  H   0.99996
  100  H   0.98171
  101  H   0.96093
  102  H   0.95223
  103  H   0.75410

 **********************
 *                    *
 * JOB ENDED NORMALLY *
 *                    *
 **********************



 TOTAL JOB TIME:           680.29 SECONDS

 == MOPAC DONE ==
