 *******************************************************************************
 ** Site#: 4824         For non-commercial use only    Version 21.013L 64BITS **
 *******************************************************************************
 ** Cite this program as: MOPAC2016, Version: 21.013L, James J. P. Stewart,   **
 ** Stewart Computational Chemistry, web: HTTP://OpenMOPAC.net. Days left:  83**
 *******************************************************************************
 **                                                                           **
 **                                MOPAC2016                                  **
 **                                                                           **
 *******************************************************************************

                              INDO CALCULATION RESULTS

 *******************************************************************************
 *  CALCULATION DONE:                                Fri Oct 22 07:13:58 2021  *
 *  INDO       - The INDO Hamiltonian to be used
 *  CIS        - C.I. USES 1 ELECTRON EXCITATIONS ONLY
 *  EPS=  4.81 - USE ANDREAS KLAMT'S COSMO IMPLICIT SOLVATION MODEL
 *  n**2 =  1.400 for COSMO-CI
 *  T=         - A TIME OF 172800.0 SECONDS REQUESTED
 *  DUMP=N     - RESTART FILE WRITTEN EVERY 7200.0 SECONDS REQUESTED
 *******************************************************************************
INDO CIS EPS=4.81 N**2=1.4
 Dye116
 Calculo de Estados Excitados
   ATOM   CHEMICAL          X               Y               Z
  NUMBER   SYMBOL      (ANGSTROMS)     (ANGSTROMS)     (ANGSTROMS)
 
     1       C          0.00000000  *   0.00000000  *   0.00000000  *
     2       C          1.51998554  *   0.00000000  *   0.00000000  *
     3       C          2.06097190  *   1.42759658  *   0.00000000  *
     4       C          3.58781672  *   1.42862827  *  -0.00031936  *
     5       C          4.12567227  *   2.85751861  *   0.00011763  *
     6       C          5.65492091  *   2.85558368  *  -0.00111909  *
     7       C          6.16229012  *   4.24760425  *  -0.00921186  *
     8       C          6.00331220  *   5.10725100  *  -1.14907884  *
     9       C          6.53314715  *   6.34478780  *  -0.93190052  *
    10       S          7.23731860  *   6.49133367  *   0.62502389  *
    11       C          6.80687663  *   4.87609991  *   1.01700402  *
    12       C          7.14376019  *   4.31395660  *   2.28728957  *
    13       C          8.02751534  *   3.30007876  *   2.50869993  *
    14       C          8.12938014  *   2.96902931  *   3.90305361  *
    15       C          7.31929030  *   3.75305624  *   4.67374581  *
    16       S          6.41948069  *   4.87755988  *   3.73769915  *
    17       C          7.17235182  *   3.68741488  *   6.09325527  *
    18       S          7.48431821  *   5.08301092  *   7.08015669  *
    19       C          7.11342397  *   4.21062499  *   8.51436423  *
    20       C          6.77284604  *   2.87771943  *   8.23401658  *
    21       C          6.81276152  *   2.60017121  *   6.81669015  *
    22       C          6.44917438  *   1.96305440  *   9.23959309  *
    23       C          6.46069956  *   2.37167392  *  10.56292710  *
    24       C          6.76009515  *   3.69784353  *  10.87202805  *
    25       C          7.10327676  *   4.62108545  *   9.84222758  *
    26       N          7.44068793  *   5.85739382  *  10.42490366  *
    27       C          7.55578848  *   7.14018749  *   9.73404637  *
    28       C          6.21510232  *   7.86683486  *   9.64888508  *
    29       C          7.18542108  *   5.75474390  *  11.80955690  *
    30       C          6.79437501  *   4.42396620  *  12.11610071  *
    31       C          6.50895635  *   4.07878105  *  13.42990984  *
    32       C          6.63149930  *   5.04847175  *  14.41222184  *
    33       C          7.02819788  *   6.35298842  *  14.09871655  *
    34       C          7.30755962  *   6.73092203  *  12.79634370  *
    35       C          6.17596754  *   1.39101820  *  11.60752025  *
    36       C          4.93144581  *   0.76959607  *  11.64893751  *
    37       C          4.67277794  *  -0.18645898  *  12.62349290  *
    38       C          5.65582426  *  -0.52679473  *  13.54492380  *
    39       C          6.90058690  *   0.09029545  *  13.49502161  *
    40       C          7.16471660  *   1.05105243  *  12.52714148  *
    41       C          9.03794678  *   1.90354250  *   4.38953231  *
    42       C          8.51797004  *   0.53496257  *   3.95084134  *
    43       C          9.50493978  *  -0.58357058  *   4.27569680  *
    44       C          9.65627940  *  -0.80245530  *   5.77820933  *
    45       C         10.50809769  *  -2.03874691  *   6.06017994  *
    46       C         10.68833327  *  -2.23862740  *   7.55617388  *
    47       C          6.54479169  *   7.42841542  *  -1.86475694  *
    48       S          5.62902362  *   8.84546506  *  -1.57979921  *
    49       C          6.16914528  *   9.54505209  *  -3.04541801  *
    50       C          7.00533509  *   8.71502123  *  -3.74024535  *
    51       C          7.22523632  *   7.47745179  *  -3.04972103  *
    52       C          8.10750162  *   6.41982640  *  -3.59624884  *
    53       C          9.56122301  *   6.89481626  *  -3.58360148  *
    54       C         10.48145127  *   5.81432498  *  -4.14642638  *
    55       C         11.93313532  *   6.28748909  *  -4.13941369  *
    56       C         12.85687732  *   5.20914875  *  -4.70030221  *
    57       C         14.30177168  *   5.68096541  *  -4.69267901  *
    58       C          5.71847577  *  10.84784204  *  -3.44108014  *
    59       C          6.49331580  *  11.73024097  *  -4.10168017  *
    60       C          5.93635786  *  13.03325741  *  -4.49090508  *
    61       O          4.80489920  *  13.43733697  *  -4.26349815  *
    62       O          6.80038900  *  13.81841607  *  -5.16445807  *
    63       C          7.84986236  *  11.47706550  *  -4.42413560  *
    64       N          8.95778708  *  11.28473862  *  -4.69411279  *
    65       H          4.68328751  *  11.11012228  *  -3.17112946  *
    66       H         -0.41715764  *   0.50621771  *  -0.88248448  *
    67       H         -0.40917915  *  -1.02069071  *   0.00009563  *
    68       H         -0.41705104  *   0.50636627  *   0.88245284  *
    69       H          1.90222469  *  -0.56119144  *   0.87889071  *
    70       H          1.90231518  *  -0.56142831  *  -0.87869460  *
    71       H          1.67295995  *   1.98499187  *  -0.87869149  *
    72       H          1.67387497  *   1.98479759  *   0.87922759  *
    73       H          3.97389122  *   0.87054473  *   0.87884301  *
    74       H          3.97420727  *   0.87073740  *  -0.87945786  *
    75       H          3.73838822  *   3.41832819  *  -0.87654224  *
    76       H          3.74701507  *   3.41615431  *   0.88184845  *
    77       H          6.04739442  *   2.29398268  *   0.87369150  *
    78       H          6.05012392  *   2.31061381  *  -0.88581330  *
    79       H          5.51341534  *   4.78802267  *  -2.06612376  *
    80       H          8.60722754  *   2.79688305  *   1.73831683  *
    81       H          6.57143268  *   1.62117673  *   6.40837626  *
    82       H          6.20154815  *   0.93203573  *   8.97476479  *
    83       H          8.31011897  *   7.76206157  *  10.27197682  *
    84       H          7.98991666  *   6.98046190  *   8.72054183  *
    85       H          5.78686291  *   8.06924544  *  10.64160086  *
    86       H          6.32178456  *   8.83607599  *   9.14086012  *
    87       H          5.46204526  *   7.29348036  *   9.08946341  *
    88       H          6.18438281  *   3.06604329  *  13.68310835  *
    89       H          6.41218484  *   4.79388227  *  15.45291749  *
    90       H          7.11440555  *   7.09158697  *  14.90186184  *
    91       H          7.60861612  *   7.75305121  *  12.56054273  *
    92       H          4.16105573  *   1.03778346  *  10.91999404  *
    93       H          3.69387898  *  -0.67283265  *  12.66339616  *
    94       H          5.45068778  *  -1.28174747  *  14.30930213  *
    95       H          7.67497769  *  -0.18170644  *  14.21809003  *
    96       H          8.14280885  *   1.53996907  *  12.48359028  *
    97       H         10.06243528  *   2.08285213  *   3.99681140  *
    98       H          9.14579949  *   1.95486542  *   5.49364054  *
    99       H          7.53063071  *   0.33301216  *   4.41744031  *
   100       H          8.31046812  *   0.53843983  *   2.85877940  *
   101       H          9.16497463  *  -1.52233120  *   3.78667533  *
   102       H         10.49328893  *  -0.37504391  *   3.81396588  *
   103       H         10.11293799  *   0.08652949  *   6.26120726  *
   104       H          8.66094388  *  -0.90544531  *   6.25956960  *
   105       H         10.04756548  *  -2.94259156  *   5.60792068  *
   106       H         11.49750216  *  -1.95008668  *   5.56356011  *
   107       H          9.72927828  *  -2.37000247  *   8.07772678  *
   108       H         11.29326327  *  -3.12924671  *   7.77998921  *
   109       H         11.19408970  *  -1.38683344  *   8.03340901  *
   110       H          7.44287622  *   8.92372373  *  -4.71520466  *
   111       H          7.99752868  *   5.47494836  *  -3.02211006  *
   112       H          7.78349043  *   6.16191239  *  -4.62798941  *
   113       H          9.66780228  *   7.83605091  *  -4.16328979  *
   114       H          9.86429031  *   7.16492260  *  -2.55011002  *
   115       H         10.37855192  *   4.87567473  *  -3.56180342  *
   116       H         10.17003756  *   5.54004665  *  -5.17659152  *
   117       H         12.03771206  *   7.22546575  *  -4.72486934  *
   118       H         12.24534323  *   6.56320566  *  -3.10992737  *
   119       H         12.75850662  *   4.26940774  *  -4.11660285  *
   120       H         12.55083155  *   4.93192126  *  -5.73130327  *
   121       H         14.65712578  *   5.91980568  *  -3.67989065  *
   122       H         14.98383671  *   4.91740460  *  -5.09389156  *
   123       H         14.44827584  *   6.58512105  *  -5.30107522  *
   124       H          6.39221172  *  14.66493080  *  -5.39796785  *
 


          CARTESIAN COORDINATES 

    NO.       ATOM           X           Y           Z

     1         C          0.0000      0.0000      0.0000
     2         C          1.5200      0.0000      0.0000
     3         C          2.0610      1.4276      0.0000
     4         C          3.5878      1.4286     -0.0003
     5         C          4.1257      2.8575      0.0001
     6         C          5.6549      2.8556     -0.0011
     7         C          6.1623      4.2476     -0.0092
     8         C          6.0033      5.1073     -1.1491
     9         C          6.5331      6.3448     -0.9319
    10         S          7.2373      6.4913      0.6250
    11         C          6.8069      4.8761      1.0170
    12         C          7.1438      4.3140      2.2873
    13         C          8.0275      3.3001      2.5087
    14         C          8.1294      2.9690      3.9031
    15         C          7.3193      3.7531      4.6737
    16         S          6.4195      4.8776      3.7377
    17         C          7.1724      3.6874      6.0933
    18         S          7.4843      5.0830      7.0802
    19         C          7.1134      4.2106      8.5144
    20         C          6.7728      2.8777      8.2340
    21         C          6.8128      2.6002      6.8167
    22         C          6.4492      1.9631      9.2396
    23         C          6.4607      2.3717     10.5629
    24         C          6.7601      3.6978     10.8720
    25         C          7.1033      4.6211      9.8422
    26         N          7.4407      5.8574     10.4249
    27         C          7.5558      7.1402      9.7340
    28         C          6.2151      7.8668      9.6489
    29         C          7.1854      5.7547     11.8096
    30         C          6.7944      4.4240     12.1161
    31         C          6.5090      4.0788     13.4299
    32         C          6.6315      5.0485     14.4122
    33         C          7.0282      6.3530     14.0987
    34         C          7.3076      6.7309     12.7963
    35         C          6.1760      1.3910     11.6075
    36         C          4.9314      0.7696     11.6489
    37         C          4.6728     -0.1865     12.6235
    38         C          5.6558     -0.5268     13.5449
    39         C          6.9006      0.0903     13.4950
    40         C          7.1647      1.0511     12.5271
    41         C          9.0379      1.9035      4.3895
    42         C          8.5180      0.5350      3.9508
    43         C          9.5049     -0.5836      4.2757
    44         C          9.6563     -0.8025      5.7782
    45         C         10.5081     -2.0387      6.0602
    46         C         10.6883     -2.2386      7.5562
    47         C          6.5448      7.4284     -1.8648
    48         S          5.6290      8.8455     -1.5798
    49         C          6.1691      9.5451     -3.0454
    50         C          7.0053      8.7150     -3.7402
    51         C          7.2252      7.4775     -3.0497
    52         C          8.1075      6.4198     -3.5962
    53         C          9.5612      6.8948     -3.5836
    54         C         10.4815      5.8143     -4.1464
    55         C         11.9331      6.2875     -4.1394
    56         C         12.8569      5.2091     -4.7003
    57         C         14.3018      5.6810     -4.6927
    58         C          5.7185     10.8478     -3.4411
    59         C          6.4933     11.7302     -4.1017
    60         C          5.9364     13.0333     -4.4909
    61         O          4.8049     13.4373     -4.2635
    62         O          6.8004     13.8184     -5.1645
    63         C          7.8499     11.4771     -4.4241
    64         N          8.9578     11.2847     -4.6941
    65         H          4.6833     11.1101     -3.1711
    66         H         -0.4172      0.5062     -0.8825
    67         H         -0.4092     -1.0207      0.0001
    68         H         -0.4171      0.5064      0.8825
    69         H          1.9022     -0.5612      0.8789
    70         H          1.9023     -0.5614     -0.8787
    71         H          1.6730      1.9850     -0.8787
    72         H          1.6739      1.9848      0.8792
    73         H          3.9739      0.8705      0.8788
    74         H          3.9742      0.8707     -0.8795
    75         H          3.7384      3.4183     -0.8765
    76         H          3.7470      3.4162      0.8818
    77         H          6.0474      2.2940      0.8737
    78         H          6.0501      2.3106     -0.8858
    79         H          5.5134      4.7880     -2.0661
    80         H          8.6072      2.7969      1.7383
    81         H          6.5714      1.6212      6.4084
    82         H          6.2015      0.9320      8.9748
    83         H          8.3101      7.7621     10.2720
    84         H          7.9899      6.9805      8.7205
    85         H          5.7869      8.0692     10.6416
    86         H          6.3218      8.8361      9.1409
    87         H          5.4620      7.2935      9.0895
    88         H          6.1844      3.0660     13.6831
    89         H          6.4122      4.7939     15.4529
    90         H          7.1144      7.0916     14.9019
    91         H          7.6086      7.7531     12.5605
    92         H          4.1611      1.0378     10.9200
    93         H          3.6939     -0.6728     12.6634
    94         H          5.4507     -1.2817     14.3093
    95         H          7.6750     -0.1817     14.2181
    96         H          8.1428      1.5400     12.4836
    97         H         10.0624      2.0829      3.9968
    98         H          9.1458      1.9549      5.4936
    99         H          7.5306      0.3330      4.4174
   100         H          8.3105      0.5384      2.8588
   101         H          9.1650     -1.5223      3.7867
   102         H         10.4933     -0.3750      3.8140
   103         H         10.1129      0.0865      6.2612
   104         H          8.6609     -0.9054      6.2596
   105         H         10.0476     -2.9426      5.6079
   106         H         11.4975     -1.9501      5.5636
   107         H          9.7293     -2.3700      8.0777
   108         H         11.2933     -3.1292      7.7800
   109         H         11.1941     -1.3868      8.0334
   110         H          7.4429      8.9237     -4.7152
   111         H          7.9975      5.4749     -3.0221
   112         H          7.7835      6.1619     -4.6280
   113         H          9.6678      7.8361     -4.1633
   114         H          9.8643      7.1649     -2.5501
   115         H         10.3786      4.8757     -3.5618
   116         H         10.1700      5.5400     -5.1766
   117         H         12.0377      7.2255     -4.7249
   118         H         12.2453      6.5632     -3.1099
   119         H         12.7585      4.2694     -4.1166
   120         H         12.5508      4.9319     -5.7313
   121         H         14.6571      5.9198     -3.6799
   122         H         14.9838      4.9174     -5.0939
   123         H         14.4483      6.5851     -5.3011
   124         H          6.3922     14.6649     -5.3980

           Empirical Formula: C56 H60 N2 O2 S4  =   124 atoms



      MOLECULAR POINT GROUP   :   C1  


      RHF CALCULATION, NO. OF DOUBLY OCCUPIED LEVELS = 165

 WARNING: INDO only performs single-point calculations

 Summary of symmetry occupancy in each shell:

 SHELL     
    1  165
    v  151
 TOTAL 316




    ROOT NO.    1           2           3           4           5           6

           -48.55134   -46.78621   -44.97871   -44.74924   -44.40598   -43.73291
  
  
  S  C   1   0.00001     0.00011     0.01726    -0.01134     0.00304     0.05114
 PX  C   1   0.00001     0.00005     0.00690    -0.00449     0.00119     0.01948
 PY  C   1   0.00000     0.00002     0.00213    -0.00138     0.00035     0.00566
 PZ  C   1   0.00000    -0.00000     0.00000     0.00000     0.00001    -0.00000
  
  S  C   2   0.00003     0.00024     0.03341    -0.02163     0.00571     0.09145
 PX  C   2   0.00001     0.00004     0.00423    -0.00259     0.00065     0.00813
 PY  C   2   0.00001     0.00007     0.00950    -0.00608     0.00155     0.02405
 PZ  C   2   0.00000    -0.00000     0.00001     0.00001     0.00003    -0.00000
  
  S  C   3   0.00006     0.00045     0.05483    -0.03482     0.00876     0.13293
 PX  C   3   0.00002     0.00014     0.01409    -0.00864     0.00208     0.02731
 PY  C   3   0.00000     0.00002    -0.00060     0.00057    -0.00035    -0.00685
 PZ  C   3   0.00000    -0.00000     0.00002     0.00004     0.00011    -0.00002
  
  S  C   4   0.00012     0.00079     0.08232    -0.05071     0.01277     0.17004
 PX  C   4   0.00002     0.00009     0.00474    -0.00218     0.00076    -0.00211
 PY  C   4   0.00003     0.00023     0.01950    -0.01175     0.00257     0.03251
 PZ  C   4   0.00000    -0.00001     0.00021     0.00010     0.00047    -0.00001
  
  S  C   5   0.00022     0.00146     0.12221    -0.07387     0.01569     0.20711
 PX  C   5   0.00008     0.00042     0.02814    -0.01598     0.00355     0.03184
 PY  C   5   0.00001     0.00009    -0.00204     0.00121    -0.00216    -0.01600
 PZ  C   5   0.00002    -0.00004     0.00013     0.00079     0.00176    -0.00067
  
  S  C   6   0.00042     0.00217     0.16100    -0.09292     0.02272     0.22390
 PX  C   6   0.00005     0.00001    -0.00412     0.00457     0.00140    -0.02305
 PY  C   6   0.00009     0.00070     0.03886    -0.02350     0.00130     0.04205
 PZ  C   6   0.00008    -0.00003     0.00592    -0.00008     0.00704     0.00232
  
  S  C   7   0.00057     0.00447     0.23734    -0.14523     0.00493     0.26729
 PX  C   7   0.00006     0.00031     0.01011    -0.00500     0.00044    -0.00249
 PY  C   7   0.00000     0.00122     0.03081    -0.02526    -0.01672     0.01576
 PZ  C   7   0.00015    -0.00031     0.00850     0.00266     0.01695     0.00623
  
  S  C   8   0.00027     0.00642     0.19694    -0.14051    -0.04956     0.17206
 PX  C   8   0.00004     0.00119     0.02959    -0.02217    -0.01140     0.01678
 PY  C   8  -0.00002     0.00181     0.01256    -0.01584    -0.02473    -0.02267
 PZ  C   8   0.00011     0.00054     0.05714    -0.03442     0.00493     0.07646
  
  S  C   9   0.00021     0.01028     0.19290    -0.15244    -0.09647     0.08948
 PX  C   9  -0.00001     0.00018    -0.00403     0.00177    -0.00305    -0.01199
 PY  C   9  -0.00008     0.00130    -0.03699     0.01853    -0.01612    -0.07313
 PZ  C   9   0.00005    -0.00273     0.00249     0.00872     0.03264     0.05328
  
  S  S  10   0.00028     0.00386     0.12684    -0.08446    -0.02009     0.10186
 PX  S  10  -0.00005    -0.00105    -0.03624     0.02522     0.00732    -0.03312
 PY  S  10  -0.00017    -0.00094    -0.05942     0.03492    -0.00372    -0.06206
 PZ  S  10   0.00001    -0.00195    -0.03789     0.03249     0.02361    -0.02229
  
  S  C  11   0.00089     0.00360     0.21361    -0.11360     0.03431     0.20078
 PX  C  11   0.00006    -0.00044    -0.01801     0.01553     0.00765    -0.02942
 PY  C  11  -0.00022     0.00014    -0.02013     0.00267    -0.02078    -0.01986
 PZ  C  11   0.00024    -0.00130    -0.03460     0.03696     0.03047    -0.05382
  
  S  C  12   0.00265     0.00155     0.20736    -0.04622     0.14777     0.09517
 PX  C  12   0.00036    -0.00008     0.01315     0.00521     0.02338    -0.01094
 PY  C  12  -0.00063    -0.00001    -0.02978    -0.00211    -0.03646     0.00163
 PZ  C  12   0.00093    -0.00045     0.00845     0.02196     0.04485    -0.04312
  
  S  C  13   0.00354     0.00097     0.20462    -0.01817     0.19105     0.03634
 PX  C  13  -0.00046    -0.00026    -0.03678     0.00857    -0.02572    -0.01986
 PY  C  13   0.00017     0.00022     0.02482    -0.00841     0.01344     0.01926
 PZ  C  13   0.00148    -0.00001     0.04806     0.00982     0.06559    -0.02257
  
  S  C  14   0.00743     0.00068     0.23756     0.01409     0.25974    -0.03611
 PX  C  14  -0.00087    -0.00011    -0.02465     0.00133    -0.02040    -0.00564
 PY  C  14   0.00033     0.00011     0.01833    -0.00436     0.01127     0.01318
 PZ  C  14   0.00176    -0.00011    -0.00781     0.01145    -0.00329    -0.02392
  
  S  C  15   0.01132     0.00054     0.20016     0.02660     0.20860    -0.05133
 PX  C  15   0.00024     0.00006     0.02382     0.00099     0.02847    -0.00406
 PY  C  15  -0.00157    -0.00005    -0.02729    -0.00559    -0.03216     0.01288
 PZ  C  15   0.00386    -0.00019    -0.03539     0.01764    -0.03836    -0.03195
  
  S  S  16   0.00352     0.00058     0.12648    -0.00611     0.11623     0.01435
 PX  S  16   0.00126     0.00019     0.05234    -0.00099     0.05215     0.00243
 PY  S  16  -0.00158    -0.00020    -0.05613    -0.00001    -0.05639    -0.00081
 PZ  S  16   0.00079    -0.00023    -0.02064     0.01218    -0.00971    -0.02495
  
  S  C  17   0.03399     0.00023     0.15724     0.08465     0.14101    -0.14210
 PX  C  17  -0.00187     0.00001     0.00271    -0.00434     0.00625     0.00533
 PY  C  17  -0.00360    -0.00003    -0.02215    -0.01194    -0.02078     0.01974
 PZ  C  17   0.01484    -0.00007    -0.00052     0.03116    -0.01788    -0.04441
  
  S  S  18   0.04931     0.00007     0.07541     0.05601     0.06148    -0.10122
 PX  S  18  -0.00694    -0.00001    -0.01292    -0.01175    -0.00871     0.01872
 PY  S  18  -0.01556    -0.00005    -0.05010    -0.04168    -0.03529     0.06323
 PZ  S  18   0.02430    -0.00002    -0.00231     0.00496    -0.00371    -0.01476
  
  S  C  19   0.16071     0.00006     0.11266     0.12407     0.05571    -0.17905
 PX  C  19  -0.00752    -0.00000    -0.01095    -0.01583    -0.00028     0.01373
 PY  C  19  -0.00418    -0.00002    -0.04760    -0.06198    -0.00771     0.05493
 PZ  C  19   0.06377    -0.00003    -0.01728    -0.00607    -0.01973     0.01319
  
  S  C  20   0.11521     0.00008     0.15529     0.18142     0.05571    -0.20879
 PX  C  20   0.00321     0.00001     0.00654     0.00292     0.00820    -0.01098
 PY  C  20   0.02223     0.00001     0.01967     0.01630     0.01710    -0.03649
 PZ  C  20   0.03482    -0.00002    -0.00174     0.02433    -0.03102     0.00493
  
  S  C  21   0.04590     0.00014     0.13999     0.10834     0.10306    -0.16106
 PX  C  21   0.00255     0.00002     0.01491     0.00678     0.01520    -0.01350
 PY  C  21   0.01345     0.00004     0.03871     0.03014     0.02961    -0.04989
 PZ  C  21   0.01640    -0.00003     0.00661     0.02931    -0.01443    -0.03030
  
  S  C  22   0.10577     0.00003     0.11764     0.18655    -0.02535    -0.10948
 PX  C  22   0.01025     0.00000     0.00845     0.00884     0.00538    -0.01616
 PY  C  22   0.04344     0.00001     0.03331     0.04370     0.00850    -0.05276
 PZ  C  22   0.01776    -0.00001     0.00772     0.03458    -0.03435     0.02246
  
  S  C  23   0.15300     0.00002     0.12171     0.23647    -0.09247    -0.04372
 PX  C  23   0.01368     0.00000     0.00089    -0.00286     0.00748    -0.01242
 PY  C  23   0.04844    -0.00000    -0.00338    -0.01914     0.02584    -0.03569
 PZ  C  23  -0.00944    -0.00001    -0.01327    -0.00135    -0.03043     0.05777
  
  S  C  24   0.31055    -0.00001     0.04591     0.09337    -0.03318    -0.04082
 PX  C  24   0.02748    -0.00000    -0.00904    -0.01734     0.00777    -0.00129
 PY  C  24   0.10184    -0.00002    -0.04969    -0.08861     0.02970     0.01536
 PZ  C  24  -0.01408    -0.00001    -0.02986    -0.03635    -0.01320     0.05859
  
  S  C  25   0.36567    -0.00001     0.01543     0.01202     0.02815    -0.08432
 PX  C  25   0.00332    -0.00000    -0.01103    -0.01853     0.00406     0.00822
 PY  C  25   0.05314    -0.00002    -0.05751    -0.09141     0.01457     0.04604
 PZ  C  25   0.11340    -0.00003    -0.03991    -0.05083    -0.00636     0.04149
  
  S  N  26   0.46771    -0.00006    -0.09514    -0.15955     0.04906     0.01454
 PX  N  26  -0.05709     0.00001     0.00961     0.01528    -0.00401    -0.00161
 PY  N  26  -0.06917     0.00001    -0.00120    -0.00432     0.00140     0.00737
 PZ  N  26   0.04772    -0.00001    -0.01426    -0.01846    -0.00286     0.01971
  
  S  C  27   0.19865    -0.00002    -0.05150    -0.09132     0.03252     0.00580
 PX  C  27  -0.02718     0.00000     0.00724     0.01265    -0.00427    -0.00117
 PY  C  27  -0.07988     0.00001     0.01602     0.02814    -0.01048     0.00098
 PZ  C  27   0.04920    -0.00001    -0.01458    -0.02358     0.00522     0.00771
  
  S  C  28   0.09851    -0.00001    -0.02884    -0.05141     0.01812     0.00484
 PX  C  28   0.03046    -0.00000    -0.00873    -0.01547     0.00540     0.00137
 PY  C  28  -0.03807     0.00000     0.00913     0.01614    -0.00580    -0.00060
 PZ  C  28   0.01520    -0.00000    -0.00479    -0.00771     0.00158     0.00296
  
  S  C  29   0.36625    -0.00005    -0.08366    -0.12433     0.01105     0.07696
 PX  C  29  -0.00600     0.00000    -0.00049    -0.00270     0.00346    -0.00502
 PY  C  29  -0.06726     0.00001     0.00241    -0.00141     0.00591    -0.00521
 PZ  C  29  -0.10679     0.00001     0.01525     0.03046    -0.01973     0.02744
  
  S  C  30   0.30392    -0.00004    -0.03668    -0.03327    -0.02790     0.07423
 PX  C  30   0.02710    -0.00000    -0.00791    -0.01390     0.00473     0.00152
 PY  C  30   0.06315    -0.00001    -0.03261    -0.05706     0.01629     0.01989
 PZ  C  30  -0.08977     0.00001     0.00056     0.00377    -0.01035     0.03075
  
  S  C  31   0.12872    -0.00002    -0.01823    -0.00418    -0.03874     0.08636
 PX  C  31   0.01688    -0.00000    -0.00491    -0.00658    -0.00105     0.00872
 PY  C  31   0.03924    -0.00001    -0.02024    -0.03299     0.00488     0.02458
 PZ  C  31  -0.04363     0.00000     0.00136    -0.00331     0.00755    -0.00869
  
  S  C  32   0.09076    -0.00002    -0.02830    -0.03108    -0.02008     0.07937
 PX  C  32   0.00820    -0.00000    -0.00328    -0.00464    -0.00047     0.00605
 PY  C  32   0.00708    -0.00000    -0.00600    -0.01083     0.00307     0.00540
 PZ  C  32  -0.04470     0.00001     0.01270     0.01438     0.00771    -0.03168
  
  S  C  33   0.09326    -0.00002    -0.03444    -0.04471    -0.01226     0.07654
 PX  C  33  -0.00235     0.00000     0.00058     0.00032     0.00102    -0.00276
 PY  C  33  -0.02750     0.00000     0.00845     0.00958     0.00534    -0.02220
 PZ  C  33  -0.03835     0.00001     0.01304     0.01783     0.00250    -0.02352
  
  S  C  34   0.15091    -0.00002    -0.04975    -0.07155    -0.00252     0.07577
 PX  C  34  -0.01204     0.00000     0.00385     0.00475     0.00174    -0.00894
 PY  C  34  -0.05984     0.00001     0.01713     0.02281     0.00382    -0.03018
 PZ  C  34  -0.03883     0.00000     0.00855     0.01582    -0.00756     0.00612
  
  S  C  35   0.07981     0.00001     0.12594     0.30402    -0.20060     0.11067
 PX  C  35   0.00615    -0.00000    -0.00228    -0.00763     0.00774    -0.00897
 PY  C  35   0.01548     0.00000    -0.00918    -0.03149     0.03213    -0.03684
 PZ  C  35  -0.00620    -0.00000     0.00524     0.02688    -0.03392     0.04410
  
  S  C  36   0.04101     0.00000     0.09661     0.24236    -0.17110     0.11336
 PX  C  36   0.01591     0.00000     0.03271     0.08122    -0.05625     0.03536
 PY  C  36   0.00653     0.00000     0.00059    -0.00301     0.00735    -0.01311
 PZ  C  36   0.00223    -0.00000     0.01557     0.04542    -0.03911     0.03641
  
  S  C  37   0.02372     0.00000     0.07776     0.20398    -0.15421     0.11809
 PX  C  37   0.00971     0.00000     0.03024     0.07943    -0.06009     0.04596
 PY  C  37   0.00667     0.00000     0.01703     0.04365    -0.03179     0.02243
 PZ  C  37  -0.00216    -0.00000    -0.00380    -0.00838     0.00460    -0.00095
  
  S  C  38   0.02152     0.00000     0.07428     0.19706    -0.15142     0.11960
 PX  C  38   0.00236     0.00000     0.00630     0.01672    -0.01282     0.01002
 PY  C  38   0.00786     0.00000     0.02330     0.06132    -0.04649     0.03565
 PZ  C  38  -0.00743    -0.00000    -0.02367    -0.06203     0.04679    -0.03557
  
  S  C  39   0.02642     0.00000     0.07728     0.20415    -0.15571     0.12095
 PX  C  39  -0.00636    -0.00000    -0.02280    -0.06037     0.04624    -0.03627
 PY  C  39   0.00638     0.00000     0.01041     0.02687    -0.01963     0.01374
 PZ  C  39  -0.00933    -0.00000    -0.02412    -0.06257     0.04640    -0.03396
  
  S  C  40   0.05028     0.00000     0.09453     0.24138    -0.17444     0.12058
 PX  C  40  -0.01395    -0.00000    -0.03439    -0.08847     0.06480    -0.04624
 PY  C  40   0.00788    -0.00000    -0.00790    -0.02328     0.02076    -0.02099
 PZ  C  40  -0.01018    -0.00000    -0.00927    -0.01849     0.00748     0.00395
  
  S  C  41   0.00574     0.00035     0.16864     0.02225     0.20563    -0.06310
 PX  C  41  -0.00151    -0.00008    -0.03504    -0.00451    -0.03929     0.01026
 PY  C  41   0.00069     0.00004     0.00670    -0.00030     0.00088     0.00540
 PZ  C  41   0.00051    -0.00005    -0.01484     0.00233    -0.01775    -0.00282
  
  S  C  42   0.00358     0.00025     0.13432     0.01803     0.17455    -0.05950
 PX  C  42   0.00016     0.00002     0.01422     0.00213     0.02122    -0.00891
 PY  C  42   0.00100     0.00007     0.02580     0.00243     0.02756    -0.00455
 PZ  C  42   0.00064     0.00001     0.01272     0.00358     0.01789    -0.01016
  
  S  C  43   0.00204     0.00014     0.09611     0.01481     0.13580    -0.05548
 PX  C  43  -0.00032    -0.00002    -0.01094    -0.00154    -0.01390     0.00463
 PY  C  43   0.00060     0.00004     0.02071     0.00281     0.02615    -0.00843
 PZ  C  43   0.00028     0.00001     0.01066     0.00236     0.01656    -0.00890
  
  S  C  44   0.00167     0.00010     0.07731     0.01332     0.11353    -0.05137
 PX  C  44  -0.00017    -0.00001    -0.00174    -0.00035    -0.00106    -0.00018
 PY  C  44   0.00032     0.00001     0.00534     0.00089     0.00518    -0.00098
 PZ  C  44  -0.00033    -0.00003    -0.01734    -0.00252    -0.02424     0.00942
  
  S  C  45   0.00074     0.00005     0.04552     0.00803     0.07086    -0.03450
 PX  C  45  -0.00016    -0.00001    -0.00771    -0.00135    -0.01150     0.00532
 PY  C  45   0.00024     0.00001     0.01184     0.00205     0.01758    -0.00806
 PZ  C  45  -0.00005    -0.00000    -0.00269    -0.00033    -0.00344     0.00099
  
  S  C  46   0.00037     0.00002     0.02414     0.00443     0.03861    -0.01969
 PX  C  46  -0.00006    -0.00000    -0.00281    -0.00053    -0.00431     0.00211
 PY  C  46   0.00008     0.00000     0.00392     0.00072     0.00597    -0.00289
 PZ  C  46  -0.00013    -0.00001    -0.00884    -0.00157    -0.01395     0.00693
  
  S  C  47   0.00007     0.02353     0.17425    -0.17195    -0.19928    -0.10569
 PX  C  47   0.00000     0.00186     0.01560    -0.01676    -0.02248    -0.01790
 PY  C  47  -0.00002     0.00485    -0.00593    -0.00230    -0.02068    -0.04488
 PZ  C  47   0.00001    -0.00731    -0.02631     0.03376     0.05633     0.06227
  
  S  S  48   0.00002     0.02254     0.09146    -0.09614    -0.12455    -0.09116
 PX  S  48   0.00001     0.00731     0.03643    -0.03855    -0.05045    -0.03768
 PY  S  48  -0.00001     0.00037    -0.02502     0.02410     0.02647     0.01072
 PZ  S  48  -0.00000    -0.01187    -0.03850     0.04257     0.05962     0.05151
  
  S  C  49   0.00002     0.05904     0.11396    -0.12558    -0.17528    -0.15160
 PX  C  49   0.00000     0.00429     0.01939    -0.02120    -0.02920    -0.02450
 PY  C  49  -0.00001     0.01069    -0.03619     0.03840     0.05033     0.03727
 PZ  C  49   0.00000    -0.00982     0.00042     0.00029     0.00202     0.00484
  
  S  C  50   0.00002     0.04302     0.13845    -0.15114    -0.20791    -0.17442
 PX  C  50  -0.00000    -0.00686    -0.01215     0.01344     0.01882     0.01617
 PY  C  50  -0.00001     0.00778    -0.02297     0.02372     0.02973     0.01964
 PZ  C  50   0.00001     0.00827     0.04372    -0.04710    -0.06339    -0.05035
  
  S  C  51   0.00004     0.02980     0.18552    -0.19501    -0.25267    -0.18557
 PX  C  51  -0.00000    -0.00377    -0.01181     0.01191     0.01423     0.00768
 PY  C  51  -0.00001     0.00740     0.01114    -0.01521    -0.02711    -0.03260
 PZ  C  51   0.00001     0.00132     0.01782    -0.01586    -0.01434     0.00083
  
  S  C  52   0.00003     0.01490     0.12962    -0.13638    -0.17738    -0.13354
 PX  C  52  -0.00000    -0.00128    -0.00537     0.00385     0.00095    -0.00741
 PY  C  52   0.00000     0.00429     0.02542    -0.02794    -0.03874    -0.03278
 PZ  C  52   0.00001     0.00167     0.01781    -0.01689    -0.01798    -0.00630
  
  S  C  53   0.00002     0.01037     0.09786    -0.10660    -0.14692    -0.12757
 PX  C  53  -0.00001    -0.00298    -0.02097     0.02147     0.02644     0.01623
 PY  C  53  -0.00000    -0.00016    -0.00878     0.00955     0.01322     0.01206
 PZ  C  53   0.00000    -0.00006    -0.00047     0.00119     0.00314     0.00555
  
  S  C  54   0.00001     0.00559     0.06600    -0.07386    -0.10646    -0.10303
 PX  C  54  -0.00000    -0.00107    -0.00815     0.00814     0.00945     0.00418
 PY  C  54   0.00000     0.00124     0.01237    -0.01375    -0.01956    -0.01816
 PZ  C  54   0.00000     0.00059     0.00638    -0.00682    -0.00914    -0.00743
  
  S  C  55   0.00000     0.00320     0.04385    -0.05044    -0.07595    -0.08083
 PX  C  55  -0.00000    -0.00099    -0.01060     0.01169     0.01641     0.01469
 PY  C  55  -0.00000    -0.00018    -0.00393     0.00466     0.00734     0.00861
 PZ  C  55   0.00000     0.00003    -0.00021     0.00039     0.00094     0.00178
  
  S  C  56   0.00000     0.00168     0.02669    -0.03134    -0.04869    -0.05543
 PX  C  56  -0.00000    -0.00042    -0.00540     0.00611     0.00895     0.00888
 PY  C  56   0.00000     0.00037     0.00557    -0.00651    -0.01004    -0.01124
 PZ  C  56   0.00000     0.00020     0.00299    -0.00346    -0.00526    -0.00572
  
  S  C  57   0.00000     0.00078     0.01377    -0.01640    -0.02604    -0.03098
 PX  C  57  -0.00000    -0.00035    -0.00572     0.00675     0.01057     0.01222
 PY  C  57  -0.00000    -0.00001    -0.00022     0.00028     0.00048     0.00066
 PZ  C  57   0.00000     0.00004     0.00065    -0.00075    -0.00116    -0.00129
  
  S  C  58   0.00001     0.11921     0.04610    -0.05302    -0.07873    -0.07700
 PX  C  58   0.00000     0.02055     0.01241    -0.01419    -0.02093    -0.02027
 PY  C  58  -0.00000     0.03861    -0.01766     0.01919     0.02632     0.02196
 PZ  C  58   0.00000    -0.02498     0.00184    -0.00171    -0.00172    -0.00025
  
  S  C  59   0.00000     0.23119     0.02136    -0.02629    -0.04222    -0.04636
 PX  C  59  -0.00000    -0.02608     0.00169    -0.00172    -0.00217    -0.00160
 PY  C  59  -0.00000     0.07476    -0.01763     0.01952     0.02774     0.02558
 PZ  C  59   0.00000    -0.02419     0.00654    -0.00729    -0.01046    -0.00982
  
  S  C  60   0.00000     0.51232    -0.02266     0.02223     0.02663     0.01782
 PX  C  60   0.00000    -0.00867     0.00102    -0.00106    -0.00132    -0.00078
 PY  C  60   0.00000     0.12633    -0.01516     0.01667     0.02369     0.02247
 PZ  C  60  -0.00000    -0.05456     0.00644    -0.00710    -0.01015    -0.00980
  
  S  O  61   0.00000     0.40894    -0.02161     0.02177     0.02717     0.01988
 PX  O  61   0.00000     0.16560    -0.00914     0.00928     0.01173     0.00888
 PY  O  61  -0.00000    -0.03600     0.00012     0.00019     0.00087     0.00180
 PZ  O  61  -0.00000    -0.04386     0.00325    -0.00344    -0.00463    -0.00402
  
  S  O  62   0.00000     0.57108    -0.03746     0.03915     0.05197     0.04411
 PX  O  62  -0.00000    -0.15299     0.01034    -0.01083    -0.01443    -0.01227
 PY  O  62  -0.00000    -0.02949     0.00014     0.00011     0.00065     0.00140
 PZ  O  62   0.00000     0.06963    -0.00388     0.00395     0.00503     0.00389
  
  S  C  63   0.00000     0.11568     0.02111    -0.02516    -0.03914    -0.04151
 PX  C  63  -0.00000    -0.04684    -0.00321     0.00394     0.00624     0.00649
 PY  C  63  -0.00000     0.02761    -0.00789     0.00870     0.01227     0.01108
 PZ  C  63   0.00000     0.00219     0.00331    -0.00376    -0.00550    -0.00523
  
  S  N  64   0.00000     0.04077     0.01271    -0.01504    -0.02329    -0.02482
 PX  N  64  -0.00000    -0.02390    -0.00653     0.00772     0.01194     0.01265
 PY  N  64  -0.00000     0.00743    -0.00165     0.00176     0.00236     0.00187
 PZ  N  64   0.00000     0.00409     0.00216    -0.00252    -0.00382    -0.00392
  
  S  H  65   0.00000     0.05193     0.01349    -0.01567    -0.02355    -0.02346
  
  S  H  66   0.00001     0.00005     0.00745    -0.00489     0.00130     0.02198
  
  S  H  67   0.00000     0.00004     0.00572    -0.00378     0.00102     0.01744
  
  S  H  68   0.00001     0.00005     0.00745    -0.00489     0.00131     0.02198
  
  S  H  69   0.00001     0.00010     0.01421    -0.00917     0.00245     0.03847
  
  S  H  70   0.00001     0.00010     0.01420    -0.00918     0.00241     0.03847
  
  S  H  71   0.00002     0.00020     0.02347    -0.01493     0.00361     0.05631
  
  S  H  72   0.00003     0.00020     0.02349    -0.01488     0.00375     0.05628
  
  S  H  73   0.00006     0.00033     0.03522    -0.02137     0.00599     0.07161
  
  S  H  74   0.00005     0.00034     0.03480    -0.02146     0.00529     0.07156
  
  S  H  75   0.00009     0.00072     0.05372    -0.03333     0.00472     0.08938
  
  S  H  76   0.00011     0.00064     0.05322    -0.03178     0.00731     0.08812
  
  S  H  77   0.00031     0.00085     0.07331    -0.03740     0.01912     0.09273
  
  S  H  78   0.00014     0.00087     0.06221    -0.03674     0.00730     0.08870
  
  S  H  79   0.00008     0.00250     0.06499    -0.04806    -0.02121     0.05167
  
  S  H  80   0.00105     0.00038     0.06917    -0.00871     0.06113     0.01698
  
  S  H  81   0.01289     0.00006     0.05102     0.03358     0.04150    -0.04973
  
  S  H  82   0.02769     0.00001     0.04053     0.06682    -0.01400    -0.02791
  
  S  H  83   0.07170    -0.00001    -0.02058    -0.03591     0.01164     0.00530
  
  S  H  84   0.07043    -0.00001    -0.01524    -0.02920     0.01335    -0.00358
  
  S  H  85   0.04732    -0.00001    -0.01426    -0.02473     0.00768     0.00462
  
  S  H  86   0.02747    -0.00000    -0.00876    -0.01585     0.00578     0.00138
  
  S  H  87   0.04387    -0.00001    -0.01128    -0.02065     0.00809     0.00025
  
  S  H  88   0.03932    -0.00000     0.00694     0.02767    -0.02971     0.03443
  
  S  H  89   0.02092    -0.00000    -0.00654    -0.00632    -0.00638     0.02194
  
  S  H  90   0.02153    -0.00000    -0.00891    -0.01173    -0.00313     0.02053
  
  S  H  91   0.05023    -0.00001    -0.01728    -0.02647     0.00213     0.02078
  
  S  H  92   0.01533     0.00000     0.03096     0.07438    -0.04898     0.02743
  
  S  H  93   0.00562     0.00000     0.02008     0.05288    -0.04024     0.03129
  
  S  H  94   0.00491     0.00000     0.01893     0.05063    -0.03940     0.03193
  
  S  H  95   0.00667     0.00000     0.01989     0.05296    -0.04085     0.03246
  
  S  H  96   0.02318     0.00000     0.02901     0.07287    -0.05109     0.03261
  
  S  H  97   0.00192     0.00014     0.06559     0.00769     0.08090    -0.02348
  
  S  H  98   0.00403     0.00014     0.07509     0.01451     0.09046    -0.03588
  
  S  H  99   0.00196     0.00011     0.05870     0.00886     0.07511    -0.02690
  
  S  H 100   0.00137     0.00012     0.05789     0.00590     0.07291    -0.02062
  
  S  H 101   0.00068     0.00005     0.03513     0.00540     0.05042    -0.02097
  
  S  H 102   0.00082     0.00006     0.04032     0.00604     0.05692    -0.02291
  
  S  H 103   0.00099     0.00005     0.03697     0.00660     0.05299    -0.02382
  
  S  H 104   0.00094     0.00004     0.03405     0.00627     0.04917    -0.02255
  
  S  H 105   0.00030     0.00002     0.01877     0.00328     0.02925    -0.01421
  
  S  H 106   0.00031     0.00002     0.01919     0.00334     0.02982    -0.01440
  
  S  H 107   0.00019     0.00001     0.01050     0.00198     0.01667    -0.00851
  
  S  H 108   0.00011     0.00001     0.00793     0.00146     0.01287    -0.00667
  
  S  H 109   0.00018     0.00001     0.01060     0.00196     0.01683    -0.00855
  
  S  H 110   0.00001     0.01862     0.04407    -0.04855    -0.06779    -0.05889
  
  S  H 111   0.00002     0.00579     0.06040    -0.06068    -0.07304    -0.04535
  
  S  H 112   0.00001     0.00591     0.04963    -0.05274    -0.06973    -0.05455
  
  S  H 113   0.00001     0.00530     0.04259    -0.04671    -0.06502    -0.05746
  
  S  H 114   0.00001     0.00454     0.04273    -0.04622    -0.06305    -0.05366
  
  S  H 115   0.00000     0.00234     0.02828    -0.03145    -0.04490    -0.04278
  
  S  H 116   0.00000     0.00239     0.02788    -0.03120    -0.04495    -0.04346
  
  S  H 117   0.00000     0.00142     0.01875    -0.02156    -0.03242    -0.03438
  
  S  H 118   0.00000     0.00139     0.01880    -0.02157    -0.03235    -0.03420
  
  S  H 119   0.00000     0.00072     0.01136    -0.01330    -0.02059    -0.02328
  
  S  H 120   0.00000     0.00072     0.01134    -0.01329    -0.02060    -0.02332
  
  S  H 121   0.00000     0.00034     0.00595    -0.00707    -0.01122    -0.01332
  
  S  H 122   0.00000     0.00025     0.00456    -0.00546    -0.00874    -0.01056
  
  S  H 123   0.00000     0.00034     0.00595    -0.00707    -0.01122    -0.01332
  
  S  H 124   0.00000     0.24047    -0.01647     0.01730     0.02316     0.01995




    ROOT NO.    7           8           9          10          11          12

           -43.32426   -42.15764   -42.10561   -42.03055   -41.67206   -40.07646
  
  
  S  C   1   0.04129     0.08278    -0.06618     0.13242    -0.13779     0.04569
 PX  C   1   0.01546     0.02929    -0.02335     0.04653    -0.04746     0.01415
 PY  C   1   0.00439     0.00767    -0.00609     0.01207    -0.01194     0.00302
 PZ  C   1  -0.00000     0.00000     0.00000    -0.00000    -0.00001    -0.00001
  
  S  C   2   0.07177     0.13193    -0.10503     0.20890    -0.21114     0.06040
 PX  C   2   0.00538     0.00414    -0.00306     0.00544    -0.00229    -0.00428
 PY  C   2   0.01831     0.03027    -0.02397     0.04729    -0.04586     0.01026
 PZ  C   2  -0.00002     0.00000     0.00001    -0.00001    -0.00004    -0.00003
  
  S  C   3   0.09978     0.15801    -0.12491     0.24574    -0.23508     0.04961
 PX  C   3   0.01846     0.01801    -0.01376     0.02571    -0.01795    -0.00549
 PY  C   3  -0.00664    -0.01920     0.01548    -0.03150     0.03528    -0.01388
 PZ  C   3  -0.00009    -0.00001     0.00006    -0.00007    -0.00017    -0.00012
  
  S  C   4   0.11939     0.14926    -0.11618     0.22422    -0.19374     0.01377
 PX  C   4  -0.00525    -0.02396     0.01973    -0.04035     0.04572    -0.01856
 PY  C   4   0.02058     0.01323    -0.00978     0.01713    -0.00638    -0.00956
 PZ  C   4  -0.00033    -0.00004     0.00025    -0.00029    -0.00065    -0.00046
  
  S  C   5   0.13390     0.10766    -0.08196     0.15040    -0.09331    -0.02754
 PX  C   5   0.01537    -0.01102     0.00999    -0.02278     0.03587    -0.01879
 PY  C   5  -0.01340    -0.03046     0.02348    -0.04718     0.04918    -0.00589
 PZ  C   5  -0.00157    -0.00022     0.00107    -0.00119    -0.00274    -0.00171
  
  S  C   6   0.12883     0.04834    -0.03159     0.04891     0.01304    -0.05852
 PX  C   6  -0.02032    -0.02840     0.02363    -0.04460     0.03320    -0.00168
 PY  C   6   0.02196    -0.01379     0.01088    -0.02591     0.04512    -0.01156
 PZ  C   6  -0.00365    -0.00189     0.00469    -0.00633    -0.00681    -0.00679
  
  S  C   7   0.14824    -0.03407     0.02324    -0.07327     0.18786    -0.04548
 PX  C   7  -0.00618    -0.01818     0.01509    -0.02910     0.02448     0.00142
 PY  C   7   0.01182    -0.03434     0.01766    -0.04442     0.08080     0.02085
 PZ  C   7  -0.00689    -0.00299     0.01065    -0.01359    -0.01707    -0.01997
  
  S  C   8   0.11137    -0.05603     0.01614    -0.06843     0.20761     0.03291
 PX  C   8   0.01105    -0.01403     0.00778    -0.02025     0.03963     0.01103
 PY  C   8  -0.00897    -0.02239     0.00464    -0.01449     0.02516     0.03268
 PZ  C   8   0.04295    -0.01593     0.01003    -0.02955     0.07089    -0.01452
  
  S  C   9   0.07057    -0.08857     0.01271    -0.06605     0.18981     0.08567
 PX  C   9  -0.00700     0.00457     0.00098     0.00101    -0.00893     0.00336
 PY  C   9  -0.03972     0.00005    -0.01456     0.03270    -0.07100     0.01475
 PZ  C   9   0.02420     0.00203     0.01124    -0.02195     0.03614    -0.03221
  
  S  S  10   0.05707    -0.05360     0.02688    -0.07098     0.13370     0.01144
 PX  S  10  -0.02040     0.01574    -0.00592     0.01896    -0.04519    -0.00460
 PY  S  10  -0.03103     0.01999    -0.01736     0.03940    -0.06312     0.01006
 PZ  S  10  -0.02014     0.01829    -0.00032     0.01258    -0.05343    -0.02313
  
  S  C  11   0.08409    -0.05961     0.06024    -0.12229     0.13732    -0.05651
 PX  C  11  -0.02293     0.00051     0.00444    -0.00122    -0.03042    -0.00069
 PY  C  11   0.00013    -0.00593    -0.00592     0.00370     0.02787     0.02471
 PZ  C  11  -0.04932     0.01075     0.00922     0.00479    -0.09610    -0.01880
  
  S  C  12  -0.04940    -0.05121     0.10853    -0.14855    -0.10425    -0.09808
 PX  C  12  -0.02395    -0.00397     0.01191    -0.01388    -0.03189    -0.00754
 PY  C  12   0.02642     0.00256    -0.01561     0.01696     0.04573     0.01514
 PZ  C  12  -0.05325    -0.00261     0.02213    -0.01537    -0.08521    -0.00126
  
  S  C  13  -0.11723    -0.03858     0.09424    -0.12808    -0.15821    -0.08452
 PX  C  13   0.00438     0.01073    -0.02702     0.03185     0.03043     0.02086
 PY  C  13   0.00398    -0.01261     0.02885    -0.03313    -0.02516    -0.01951
 PZ  C  13  -0.05740    -0.00744     0.02375    -0.02651    -0.06751    -0.00600
  
  S  C  14  -0.18409    -0.02829     0.08111    -0.09758    -0.18982    -0.02590
 PX  C  14   0.00008     0.01225    -0.03526     0.03111     0.04508     0.00735
 PY  C  14   0.00961    -0.01725     0.04771    -0.04371    -0.05719    -0.01553
 PZ  C  14   0.00904     0.00615    -0.01019     0.02634     0.01754     0.04038
  
  S  C  15  -0.09569    -0.03599     0.11580    -0.08783    -0.18871     0.03439
 PX  C  15  -0.02633    -0.00156     0.00375    -0.00873    -0.01851    -0.00547
 PY  C  15   0.02289    -0.00036    -0.00160    -0.00023     0.01304    -0.00926
 PZ  C  15   0.05419     0.01127    -0.01894     0.05282     0.05425     0.06880
  
  S  S  16  -0.05458    -0.03216     0.08356    -0.09039    -0.11927    -0.03343
 PX  S  16  -0.03001    -0.01340     0.03545    -0.03928    -0.05715    -0.01613
 PY  S  16   0.03120     0.01299    -0.03683     0.03870     0.06187     0.01370
 PZ  S  16   0.00474     0.00648    -0.00865     0.02251     0.00296     0.02944
  
  S  C  17   0.07030    -0.01885     0.10246     0.02389    -0.07572     0.18689
 PX  C  17  -0.01629     0.00018    -0.00330    -0.00547    -0.00555    -0.00905
 PY  C  17  -0.00315     0.00040    -0.00812    -0.00878     0.00349    -0.02320
 PZ  C  17   0.08306     0.00348     0.00623     0.04119     0.04122     0.05616
  
  S  S  18   0.09684    -0.00629     0.03899     0.01743    -0.02004     0.12850
 PX  S  18  -0.02038     0.00120    -0.00901    -0.00644     0.00076    -0.02198
 PY  S  18  -0.05985     0.00514    -0.03810    -0.02596     0.00551    -0.07408
 PZ  S  18   0.03019     0.00330    -0.01631    -0.00185     0.01128     0.00810
  
  S  C  19   0.23039    -0.00076     0.02534     0.04344     0.03254     0.06788
 PX  C  19  -0.02031     0.00055    -0.00780    -0.01055    -0.00796     0.00742
 PY  C  19  -0.07115     0.00410    -0.04432    -0.04896    -0.02565     0.00072
 PZ  C  19   0.00707     0.00609    -0.04158    -0.02276     0.01551    -0.09370
  
  S  C  20   0.26114    -0.00671     0.08339     0.10070     0.05422     0.07232
 PX  C  20   0.00904    -0.00055     0.00417     0.00255    -0.00225     0.01849
 PY  C  20   0.04293    -0.00126     0.00997     0.00799     0.00012     0.03476
 PZ  C  20   0.02549     0.00372    -0.01830     0.00186     0.03021    -0.10927
  
  S  C  21   0.13192    -0.01116     0.08852     0.06373    -0.01637     0.17889
 PX  C  21   0.00260    -0.00085     0.00654     0.00339    -0.00556     0.01919
 PY  C  21   0.04754    -0.00502     0.03172     0.01575    -0.01090     0.06736
 PZ  C  21   0.06461     0.00063     0.00900     0.02489     0.02822     0.00488
  
  S  C  22   0.17344    -0.00089     0.03963     0.07216     0.06956    -0.09242
 PX  C  22   0.02134    -0.00022     0.00490     0.00767     0.00606    -0.00175
 PY  C  22   0.07630    -0.00044     0.01485     0.02621     0.02471    -0.02511
 PZ  C  22  -0.01198     0.00153    -0.01017    -0.00419     0.00933    -0.06383
  
  S  C  23   0.11157     0.00054     0.02558     0.05963     0.07271    -0.18237
 PX  C  23   0.01651    -0.00005     0.00300     0.00568     0.00573    -0.00945
 PY  C  23   0.04655    -0.00025     0.00925     0.01671     0.01676    -0.03194
 PZ  C  23  -0.07582    -0.00042    -0.00669    -0.01772    -0.01934     0.00942
  
  S  C  24   0.08927     0.00168     0.00976     0.03874     0.05755    -0.17987
 PX  C  24   0.00018     0.00121    -0.01096    -0.01032    -0.00425     0.00322
 PY  C  24  -0.03165     0.00260    -0.02948    -0.03441    -0.02217     0.02422
 PZ  C  24  -0.08732    -0.00455     0.02713     0.00949    -0.01485     0.01936
  
  S  C  25   0.13351     0.01321    -0.09433    -0.05920     0.01315    -0.06727
 PX  C  25  -0.01368     0.00147    -0.01585    -0.01783    -0.01111     0.01838
 PY  C  25  -0.07091     0.00693    -0.07390    -0.08197    -0.04862     0.06366
 PZ  C  25  -0.05116     0.00304    -0.02936    -0.02906    -0.00999    -0.04764
  
  S  N  26  -0.01720     0.02471    -0.22176    -0.20534    -0.07894     0.06551
 PX  N  26   0.00112    -0.00204     0.01763     0.01552     0.00453     0.00492
 PY  N  26  -0.01572     0.00048    -0.00972    -0.01563    -0.01649     0.06418
 PZ  N  26  -0.02935    -0.00346     0.02754     0.02161     0.00454    -0.01853
  
  S  C  27  -0.01062     0.01737    -0.15963    -0.15261    -0.06767     0.12161
 PX  C  27   0.00186    -0.00245     0.02248     0.02149     0.00952    -0.01725
 PY  C  27  -0.00206    -0.00535     0.04738     0.04318     0.01589    -0.01378
 PZ  C  27  -0.01171     0.00229    -0.02233    -0.02271    -0.01139     0.01445
  
  S  C  28  -0.00906     0.01013    -0.09421    -0.09142    -0.04274     0.08917
 PX  C  28  -0.00246     0.00299    -0.02762    -0.02660    -0.01209     0.02285
 PY  C  28   0.00104    -0.00305     0.02771     0.02615     0.01105    -0.01722
 PZ  C  28  -0.00467     0.00053    -0.00552    -0.00603    -0.00355     0.00593
  
  S  C  29  -0.12297    -0.01107     0.07980     0.05147    -0.00733     0.03279
 PX  C  29   0.00792     0.00303    -0.02600    -0.02277    -0.00742     0.00832
 PY  C  29   0.00344     0.00222    -0.02193    -0.02300    -0.01424     0.05215
 PZ  C  29  -0.05156    -0.02076     0.17437     0.14751     0.03828     0.01437
  
  S  C  30  -0.10692    -0.01983     0.16469     0.13792     0.03870    -0.06578
 PX  C  30  -0.00313     0.00073    -0.00698    -0.00697    -0.00327     0.00194
 PY  C  30  -0.04009    -0.00479     0.03428     0.02152    -0.00541     0.03569
 PZ  C  30  -0.05717    -0.01451     0.11662     0.09199     0.01352     0.05108
  
  S  C  31  -0.13482    -0.02977     0.24429     0.20002     0.04527     0.00069
 PX  C  31  -0.01495    -0.00337     0.02754     0.02232     0.00464     0.00193
 PY  C  31  -0.04761    -0.01195     0.09722     0.07828     0.01480     0.02048
 PZ  C  31   0.00908     0.00099    -0.00903    -0.00874    -0.00497     0.02383
  
  S  C  32  -0.13561    -0.03241     0.26452     0.21441     0.04343     0.04309
 PX  C  32  -0.01083    -0.00254     0.02057     0.01649     0.00302     0.00491
 PY  C  32  -0.01194    -0.00317     0.02554     0.02018     0.00295     0.01268
 PZ  C  32   0.05316     0.01191    -0.09701    -0.07839    -0.01576    -0.01127
  
  S  C  33  -0.13430    -0.03145     0.25529     0.20498     0.03801     0.06114
 PX  C  33   0.00467     0.00130    -0.01082    -0.00901    -0.00222    -0.00007
 PY  C  33   0.03786     0.00911    -0.07456    -0.06070    -0.01283    -0.00793
 PZ  C  33   0.04059     0.00827    -0.06634    -0.05226    -0.00828    -0.01741
  
  S  C  34  -0.13131    -0.02412     0.19062     0.14640     0.01701     0.07541
 PX  C  34   0.01543     0.00369    -0.03012    -0.02444    -0.00502    -0.00415
 PY  C  34   0.05107     0.01050    -0.08481    -0.06767    -0.01240    -0.01148
 PZ  C  34  -0.01238    -0.00770     0.06610     0.05768     0.01762    -0.00316
  
  S  C  35  -0.08755     0.00324    -0.03003    -0.02762    -0.00529    -0.04562
 PX  C  35   0.01117    -0.00082     0.00942     0.01112     0.00760    -0.01735
 PY  C  35   0.04571    -0.00219     0.02752     0.03463     0.02561    -0.05576
 PZ  C  35  -0.05648     0.00092    -0.01787    -0.02757    -0.02482     0.05189
  
  S  C  36  -0.10617     0.00467    -0.05059    -0.05609    -0.03062     0.02938
 PX  C  36  -0.03165     0.00118    -0.01250    -0.01346    -0.00640    -0.00078
 PY  C  36   0.01831    -0.00087     0.01170     0.01537     0.01228    -0.03073
 PZ  C  36  -0.04159     0.00137    -0.01840    -0.02400    -0.01804     0.03565
  
  S  C  37  -0.12229     0.00523    -0.06159    -0.07340    -0.04794     0.08304
 PX  C  37  -0.04752     0.00186    -0.02230    -0.02685    -0.01769     0.02916
 PY  C  37  -0.02193     0.00081    -0.00936    -0.01089    -0.00649     0.00681
 PZ  C  37  -0.00072    -0.00004    -0.00035    -0.00122    -0.00189     0.00766
  
  S  C  38  -0.12630     0.00518    -0.06247    -0.07584    -0.05131     0.09481
 PX  C  38  -0.01052     0.00028    -0.00375    -0.00485    -0.00348     0.00545
 PY  C  38  -0.03692     0.00133    -0.01628    -0.01985    -0.01326     0.02131
 PZ  C  38   0.03660    -0.00150     0.01769     0.02109     0.01366    -0.02196
  
  S  C  39  -0.12644     0.00452    -0.05587    -0.06879    -0.04688     0.08055
 PX  C  39   0.03811    -0.00160     0.01915     0.02307     0.01540    -0.02779
 PY  C  39  -0.01337     0.00004    -0.00144    -0.00243    -0.00183    -0.00143
 PZ  C  39   0.03406    -0.00122     0.01443     0.01721     0.01085    -0.01385
  
  S  C  40  -0.11646     0.00312    -0.03820    -0.04623    -0.02840     0.02279
 PX  C  40   0.04562    -0.00163     0.01913     0.02257     0.01388    -0.01667
 PY  C  40   0.02498    -0.00180     0.02046     0.02401     0.01619    -0.03607
 PZ  C  40  -0.01042     0.00014    -0.00470    -0.00847    -0.00936     0.02942
  
  S  C  41  -0.19243     0.01985    -0.05591     0.02622    -0.01009     0.00896
 PX  C  41   0.02628     0.00329    -0.01127     0.01026     0.02743    -0.00406
 PY  C  41   0.02137    -0.01725     0.05238    -0.03879    -0.06350     0.00227
 PZ  C  41   0.02099     0.00102    -0.00064     0.00901     0.01254     0.01307
  
  S  C  42  -0.19964     0.04471    -0.13314     0.08348     0.09607    -0.00179
 PX  C  42  -0.03200     0.01114    -0.03402     0.02286     0.03376    -0.00185
 PY  C  42  -0.01336    -0.00852     0.02672    -0.02243    -0.04579     0.00253
 PZ  C  42  -0.02205     0.00800    -0.02329     0.01830     0.02410     0.00424
  
  S  C  43  -0.18977     0.06588    -0.19961     0.13670     0.20175    -0.00913
 PX  C  43   0.01437    -0.00197     0.00549    -0.00299    -0.00009    -0.00113
 PY  C  43  -0.02633     0.00293    -0.00808     0.00379    -0.00262     0.00198
 PZ  C  43  -0.02778     0.01356    -0.04128     0.03017     0.04902    -0.00179
  
  S  C  44  -0.17373     0.07229    -0.22019     0.15551     0.24557    -0.01324
 PX  C  44  -0.00340     0.00411    -0.01306     0.00948     0.01888    -0.00269
 PY  C  44   0.00129    -0.00551     0.01766    -0.01306    -0.02739     0.00435
 PZ  C  44   0.03219    -0.00946     0.02843    -0.01883    -0.02497     0.00024
  
  S  C  45  -0.12298     0.06009    -0.18455     0.13177     0.22069    -0.01698
 PX  C  45   0.01813    -0.00776     0.02366    -0.01674    -0.02658     0.00143
 PY  C  45  -0.02745     0.01160    -0.03535     0.02498     0.03954    -0.00209
 PZ  C  45   0.00301     0.00063    -0.00219     0.00206     0.00598    -0.00128
  
  S  C  46  -0.07124     0.03776    -0.11635     0.08371     0.14393    -0.01243
 PX  C  46   0.00730    -0.00350     0.01073    -0.00769    -0.01273     0.00087
 PY  C  46  -0.00992     0.00466    -0.01425     0.01019     0.01675    -0.00109
 PZ  C  46   0.02484    -0.01253     0.03852    -0.02758    -0.04663     0.00370
  
  S  C  47  -0.02510    -0.13178    -0.03914     0.02871     0.01336     0.12141
 PX  C  47  -0.00659     0.00561     0.00102     0.00013    -0.00180     0.02189
 PY  C  47  -0.02315    -0.02915    -0.01989     0.03165    -0.05667    -0.02281
 PZ  C  47   0.02677     0.02273     0.01672    -0.02677     0.04455    -0.01981
  
  S  S  48  -0.03096    -0.11772    -0.04500     0.04852    -0.04544     0.00507
 PX  S  48  -0.01298    -0.04299    -0.01669     0.01825    -0.01722     0.01291
 PY  S  48   0.00115     0.01699     0.00353    -0.00025    -0.01053    -0.04022
 PZ  S  48   0.01969     0.05608     0.02425    -0.02937     0.03610     0.01110
  
  S  C  49  -0.05835    -0.18215    -0.07839     0.09503    -0.12119    -0.13662
 PX  C  49  -0.00924    -0.01887    -0.00861     0.01084    -0.01370     0.00603
 PY  C  49   0.01261     0.02353     0.00922    -0.00984     0.00530    -0.08864
 PZ  C  49   0.00273     0.00658     0.00399    -0.00615     0.01211     0.04390
  
  S  C  50  -0.06589    -0.13943    -0.06365     0.08034    -0.10386    -0.01622
 PX  C  50   0.00607     0.04334     0.01658    -0.01805     0.01922     0.02628
 PY  C  50   0.00607    -0.01980    -0.00713     0.00766    -0.01185    -0.08525
 PZ  C  50  -0.01815    -0.05255    -0.02152     0.02474    -0.02623     0.01853
  
  S  C  51  -0.06377    -0.08057    -0.03683     0.04542    -0.04597     0.14450
 PX  C  51   0.00151     0.06411     0.02163    -0.02017     0.01303     0.01146
 PY  C  51  -0.01447    -0.05921    -0.02548     0.03106    -0.04100    -0.03037
 PZ  C  51   0.00363    -0.03515    -0.00859     0.00372     0.01044     0.01362
  
  S  C  52  -0.04790     0.11584     0.03171    -0.02138     0.00337     0.14023
 PX  C  52  -0.00531     0.07171     0.02184    -0.01724     0.00221    -0.01010
 PY  C  52  -0.01244    -0.00683    -0.00489     0.00775    -0.01177     0.02590
 PZ  C  52  -0.00021    -0.01475    -0.00347     0.00112     0.00652     0.01986
  
  S  C  53  -0.05142     0.25276     0.07395    -0.05518     0.00640     0.06755
 PX  C  53   0.00434     0.04433     0.01478    -0.01331     0.00492    -0.04793
 PY  C  53   0.00523    -0.05460    -0.01721     0.01458    -0.00623    -0.00079
 PZ  C  53   0.00303    -0.02813    -0.00831     0.00621     0.00024     0.00794
  
  S  C  54  -0.04523     0.34876     0.10582    -0.08380     0.01775    -0.03455
 PX  C  54   0.00027     0.04360     0.01400    -0.01196     0.00314    -0.04871
 PY  C  54  -0.00767     0.04456     0.01316    -0.00994     0.00108     0.00616
 PZ  C  54  -0.00285     0.01263     0.00374    -0.00289     0.00089     0.00936
  
  S  C  55  -0.03788     0.36774     0.11293    -0.09098     0.02050    -0.12012
 PX  C  55   0.00599    -0.02752    -0.00795     0.00581    -0.00059    -0.02194
 PY  C  55   0.00430    -0.05192    -0.01613     0.01324    -0.00342     0.02520
 PZ  C  55   0.00107    -0.01771    -0.00554     0.00458    -0.00111     0.01330
  
  S  C  56  -0.02717     0.30640     0.09482    -0.07726     0.01854    -0.14585
 PX  C  56   0.00394    -0.02952    -0.00891     0.00700    -0.00139    -0.00254
 PY  C  56  -0.00544     0.05843     0.01803    -0.01463     0.00340    -0.02484
 PZ  C  56  -0.00272     0.02775     0.00855    -0.00692     0.00162    -0.00982
  
  S  C  57  -0.01562     0.19200     0.05966    -0.04889     0.01204    -0.11011
 PX  C  57   0.00604    -0.06975    -0.02161     0.01763    -0.00425     0.03457
 PY  C  57   0.00036    -0.00553    -0.00174     0.00144    -0.00039     0.00422
 PZ  C  57  -0.00062     0.00670     0.00207    -0.00168     0.00040    -0.00271
  
  S  C  58  -0.03211    -0.12328    -0.05446     0.06808    -0.09808    -0.28189
 PX  C  58  -0.00842    -0.02989    -0.01337     0.01686    -0.02446    -0.05962
 PY  C  58   0.00822     0.02283     0.00964    -0.01141     0.01283    -0.02729
 PZ  C  58   0.00026     0.00284     0.00156    -0.00232     0.00495     0.03537
  
  S  C  59  -0.02051    -0.08644    -0.03891     0.04958    -0.07581    -0.26600
 PX  C  59  -0.00057     0.00127     0.00039    -0.00034     0.00054     0.03057
 PY  C  59   0.01040     0.03566     0.01588    -0.01994     0.02850     0.06839
 PZ  C  59  -0.00403    -0.01554    -0.00683     0.00850    -0.01218    -0.04126
  
  S  C  60   0.00594     0.00901     0.00386    -0.00453     0.00393    -0.05333
 PX  C  60  -0.00017     0.00382     0.00166    -0.00214     0.00441     0.11335
 PY  C  60   0.00943     0.03717     0.01670    -0.02123     0.03233     0.12412
 PZ  C  60  -0.00417    -0.01819    -0.00815     0.01036    -0.01621    -0.09758
  
  S  O  61   0.00704     0.01185     0.00525    -0.00634     0.00599    -0.14942
 PX  O  61   0.00324     0.00728     0.00323    -0.00399     0.00486    -0.03002
 PY  O  61   0.00097     0.00660     0.00297    -0.00383     0.00644     0.05217
 PZ  O  61  -0.00161    -0.00562    -0.00251     0.00317    -0.00467    -0.01278
  
  S  O  62   0.01753     0.06401     0.02858    -0.03612     0.05447     0.28908
 PX  O  62  -0.00487    -0.01710    -0.00765     0.00966    -0.01437    -0.05788
 PY  O  62   0.00076     0.00439     0.00203    -0.00265     0.00445     0.01887
 PZ  O  62   0.00145     0.00429     0.00189    -0.00235     0.00326     0.01267
  
  S  C  63  -0.01818    -0.06819    -0.03141     0.04073    -0.06373    -0.19953
 PX  C  63   0.00274     0.01272     0.00536    -0.00642     0.00841     0.01668
 PY  C  63   0.00445     0.01222     0.00565    -0.00728     0.01066     0.02697
 PZ  C  63  -0.00214    -0.00824    -0.00358     0.00441    -0.00611    -0.01629
  
  S  N  64  -0.01097    -0.03852    -0.01825     0.02420    -0.03948    -0.13369
 PX  N  64   0.00556     0.02022     0.00943    -0.01236     0.01972     0.06347
 PY  N  64   0.00068     0.00007     0.00012    -0.00021     0.00017    -0.00336
 PZ  N  64  -0.00170    -0.00597    -0.00278     0.00363    -0.00572    -0.01829
  
  S  H  65  -0.00988    -0.04019    -0.01769     0.02206    -0.03196    -0.10480
  
  S  H  66   0.01772     0.03540    -0.02830     0.05662    -0.05885     0.01949
  
  S  H  67   0.01422     0.02937    -0.02351     0.04714    -0.04953     0.01719
  
  S  H  68   0.01772     0.03541    -0.02830     0.05662    -0.05887     0.01948
  
  S  H  69   0.03007     0.05478    -0.04357     0.08662    -0.08734     0.02458
  
  S  H  70   0.03009     0.05478    -0.04359     0.08664    -0.08729     0.02462
  
  S  H  71   0.04219     0.06597    -0.05219     0.10255    -0.09756     0.02054
  
  S  H  72   0.04208     0.06596    -0.05211     0.10248    -0.09779     0.02039
  
  S  H  73   0.04976     0.06232    -0.04826     0.09329    -0.08145     0.00517
  
  S  H  74   0.05021     0.06240    -0.04860     0.09372    -0.08064     0.00578
  
  S  H  75   0.05855     0.04428    -0.03471     0.06266    -0.03427    -0.00944
  
  S  H  76   0.05624     0.04415    -0.03328     0.06119    -0.03834    -0.01194
  
  S  H  77   0.04651     0.01962    -0.00892     0.01566    -0.00763    -0.03059
  
  S  H  78   0.05257     0.02221    -0.01565     0.02484     0.00288    -0.02116
  
  S  H  79   0.03567    -0.01288     0.00026    -0.01238     0.05710     0.01556
  
  S  H  80  -0.03730    -0.00985     0.02214    -0.03596    -0.03722    -0.02924
  
  S  H  81   0.02603    -0.00244     0.02412     0.02015    -0.00641     0.05278
  
  S  H  82   0.04536    -0.00028     0.01207     0.02152     0.01969    -0.02378
  
  S  H  83  -0.00922     0.00587    -0.05507    -0.05402    -0.02580     0.05047
  
  S  H  84   0.00404     0.00683    -0.06193    -0.05829    -0.02496     0.04858
  
  S  H  85  -0.00803     0.00382    -0.03636    -0.03627    -0.01820     0.03948
  
  S  H  86  -0.00281     0.00339    -0.03163    -0.03085    -0.01475     0.03354
  
  S  H  87  -0.00116     0.00444    -0.04082    -0.03914    -0.01771     0.03669
  
  S  H  88  -0.04569    -0.00798     0.06520     0.05315     0.01228    -0.00620
  
  S  H  89  -0.03752    -0.00927     0.07577     0.06159     0.01266     0.01335
  
  S  H  90  -0.03662    -0.00892     0.07249     0.05827     0.01077     0.02015
  
  S  H  91  -0.03638    -0.00508     0.03813     0.02659    -0.00148     0.03328
  
  S  H  92  -0.02224     0.00126    -0.01194    -0.01158    -0.00417    -0.00272
  
  S  H  93  -0.03273     0.00149    -0.01747    -0.02079    -0.01368     0.02536
  
  S  H  94  -0.03428     0.00147    -0.01782    -0.02172    -0.01495     0.02987
  
  S  H  95  -0.03444     0.00119    -0.01504    -0.01882    -0.01323     0.02434
  
  S  H  96  -0.02965     0.00018    -0.00337    -0.00477    -0.00264    -0.00736
  
  S  H  97  -0.08002     0.00953    -0.02807     0.01283     0.00216    -0.00053
  
  S  H  98  -0.07721     0.01042    -0.02679     0.02080     0.00462     0.01689
  
  S  H  99  -0.08217     0.01830    -0.05365     0.03517     0.03869     0.00228
  
  S  H 100  -0.08013     0.01513    -0.04528     0.02528     0.02634    -0.00449
  
  S  H 101  -0.07322     0.02692    -0.08180     0.05628     0.08518    -0.00467
  
  S  H 102  -0.07954     0.02736    -0.08301     0.05652     0.08355    -0.00433
  
  S  H 103  -0.07703     0.03066    -0.09301     0.06594     0.10204    -0.00417
  
  S  H 104  -0.07316     0.03017    -0.09158     0.06519     0.10193    -0.00464
  
  S  H 105  -0.05088     0.02484    -0.07630     0.05443     0.09117    -0.00709
  
  S  H 106  -0.05152     0.02496    -0.07667     0.05465     0.09137    -0.00706
  
  S  H 107  -0.03057     0.01616    -0.04976     0.03583     0.06151    -0.00527
  
  S  H 108  -0.02446     0.01338    -0.04131     0.02977     0.05172    -0.00471
  
  S  H 109  -0.03073     0.01617    -0.04979     0.03583     0.06146    -0.00524
  
  S  H 110  -0.02289    -0.03617    -0.01852     0.02534    -0.03734    -0.02389
  
  S  H 111  -0.01392     0.04887     0.01593    -0.01487     0.01514     0.06195
  
  S  H 112  -0.02014     0.05229     0.01404    -0.00896    -0.00083     0.05296
  
  S  H 113  -0.02333     0.10330     0.02946    -0.02084    -0.00121     0.02481
  
  S  H 114  -0.02138     0.10382     0.03052    -0.02299     0.00343     0.02848
  
  S  H 115  -0.01865     0.14567     0.04435    -0.03535     0.00829    -0.01370
  
  S  H 116  -0.01906     0.14576     0.04418    -0.03493     0.00724    -0.01433
  
  S  H 117  -0.01606     0.15346     0.04706    -0.03783     0.00829    -0.04957
  
  S  H 118  -0.01597     0.15354     0.04714    -0.03796     0.00856    -0.04940
  
  S  H 119  -0.01137     0.12723     0.03936    -0.03207     0.00772    -0.05941
  
  S  H 120  -0.01139     0.12722     0.03935    -0.03204     0.00766    -0.05945
  
  S  H 121  -0.00670     0.08213     0.02552    -0.02091     0.00515    -0.04695
  
  S  H 122  -0.00538     0.06809     0.02119    -0.01740     0.00433    -0.04140
  
  S  H 123  -0.00671     0.08213     0.02551    -0.02090     0.00513    -0.04696
  
  S  H 124   0.00800     0.02945     0.01318    -0.01669     0.02524     0.12374




    ROOT NO.   13          14          15          16          17          18

           -39.94036   -39.39048   -38.49611   -38.36237   -38.23441   -37.35593
  
  
  S  C   1   0.04513     0.04191     0.28741     0.07956     0.09733     0.01316
 PX  C   1   0.01384     0.01228     0.07731     0.02110     0.02545     0.00309
 PY  C   1   0.00289     0.00236     0.01242     0.00326     0.00382     0.00032
 PZ  C   1   0.00001    -0.00000     0.00000     0.00002    -0.00000     0.00001
  
  S  C   2   0.05891     0.05156     0.31824     0.08671     0.10423     0.01251
 PX  C   2  -0.00459    -0.00584    -0.05691    -0.01637    -0.02091    -0.00352
 PY  C   2   0.00969     0.00743     0.03334     0.00847     0.00955     0.00049
 PZ  C   2   0.00003    -0.00000    -0.00001     0.00008    -0.00001     0.00003
  
  S  C   3   0.04658     0.03510     0.15404     0.03902     0.04403     0.00237
 PX  C   3  -0.00623    -0.00873    -0.08777    -0.02526    -0.03208    -0.00521
 PY  C   3  -0.01405    -0.01326    -0.09198    -0.02568    -0.03103    -0.00418
 PZ  C   3   0.00011    -0.00002    -0.00005     0.00029    -0.00005     0.00011
  
  S  C   4   0.01088    -0.00227    -0.12439    -0.03732    -0.05102    -0.00972
 PX  C   4  -0.01753    -0.01616    -0.09655    -0.02505    -0.03073    -0.00265
 PY  C   4  -0.01038    -0.01152    -0.09120    -0.02574    -0.03132    -0.00429
 PZ  C   4   0.00041    -0.00008    -0.00023     0.00106    -0.00019     0.00041
  
  S  C   5  -0.03280    -0.03829    -0.31157    -0.08946    -0.10672    -0.01492
 PX  C   5  -0.01813    -0.01541    -0.07178    -0.01760    -0.02009    -0.00042
 PY  C   5  -0.00775    -0.00225     0.02321     0.00478     0.01157     0.00169
 PZ  C   5   0.00164    -0.00025    -0.00068     0.00427    -0.00068     0.00148
  
  S  C   6  -0.05461    -0.05360    -0.30584    -0.07423    -0.09393    -0.00501
 PX  C   6   0.00443     0.00542     0.07419     0.02790     0.02774     0.00699
 PY  C   6  -0.01607    -0.00793     0.00177    -0.00204     0.00643     0.00075
 PZ  C   6   0.00517    -0.00123    -0.00232     0.01441    -0.00211     0.00518
  
  S  C   7  -0.07670    -0.03583    -0.02253    -0.03376     0.01514    -0.00285
 PX  C   7   0.00466     0.00659     0.07293     0.02587     0.02640     0.00548
 PY  C   7  -0.00925     0.01575     0.16171     0.00841     0.05874    -0.00480
 PZ  C   7   0.00949    -0.00580    -0.01167     0.03777    -0.00696     0.01306
  
  S  C   8  -0.05017     0.01062     0.13793    -0.05715     0.05799    -0.02183
 PX  C   8  -0.00276     0.00777     0.05404     0.00126     0.02414    -0.00184
 PY  C   8   0.01483     0.02198     0.09381     0.00587     0.02011    -0.00351
 PZ  C   8  -0.03047    -0.01090     0.04146    -0.00923     0.01977    -0.00240
  
  S  C   9  -0.00542     0.04511     0.23438    -0.03671     0.04358    -0.02108
 PX  C   9   0.00717     0.00366    -0.00813     0.00683     0.00623     0.00198
 PY  C   9   0.03240     0.00785    -0.04190     0.00934    -0.05327     0.00436
 PZ  C   9  -0.03093    -0.01803     0.03057     0.00340     0.02548     0.00124
  
  S  S  10  -0.02082     0.00958     0.16463     0.01376     0.05041    -0.00177
 PX  S  10   0.01056    -0.00201    -0.05020     0.00415    -0.01492     0.00291
 PY  S  10   0.01585     0.00307    -0.06162    -0.01531    -0.03064    -0.00296
 PZ  S  10   0.00811    -0.01053    -0.06415     0.02197    -0.01614     0.00897
  
  S  C  11  -0.02475    -0.01920     0.09148     0.08408     0.04144     0.02462
 PX  C  11   0.01746     0.00477     0.00574     0.02291    -0.00181     0.00600
 PY  C  11  -0.00713     0.01124     0.07174    -0.02068     0.02433    -0.01055
 PZ  C  11   0.04103     0.00030    -0.05708     0.06240    -0.03012     0.01747
  
  S  C  12   0.08753    -0.00958    -0.01452     0.22747    -0.02063     0.05595
 PX  C  12   0.02164     0.00388     0.00214     0.01859    -0.00249     0.00784
 PY  C  12  -0.02571    -0.00085     0.02415    -0.02126     0.01218    -0.00940
 PZ  C  12   0.03919     0.01021    -0.00707     0.03995    -0.01264    -0.00144
  
  S  C  13   0.11652     0.00432    -0.01734     0.12543    -0.01879     0.05767
 PX  C  13  -0.01772     0.00330     0.01419    -0.07320     0.01109    -0.00808
 PY  C  13   0.01541    -0.00321    -0.00648     0.09150    -0.00975     0.00733
 PZ  C  13   0.03596     0.00915     0.00806     0.00228    -0.00153     0.00192
  
  S  C  14   0.09057     0.01906     0.01521    -0.03743     0.00185     0.00760
 PX  C  14  -0.00979     0.00133     0.01145    -0.09416     0.01380     0.00804
 PY  C  14   0.01834    -0.00211    -0.01539     0.14097    -0.01972    -0.00494
 PZ  C  14  -0.04570     0.00049     0.01016    -0.05575     0.00832    -0.03903
  
  S  C  15  -0.00105     0.00839    -0.00034     0.09573    -0.01547    -0.07069
 PX  C  15   0.01595     0.00352     0.00486    -0.02409     0.00295     0.00497
 PY  C  15   0.00230    -0.00302    -0.00632     0.04532    -0.00559     0.00667
 PZ  C  15  -0.09449    -0.00523     0.00616    -0.06627     0.00992    -0.05693
  
  S  S  16   0.04954     0.00111    -0.00861     0.16258    -0.01989     0.00170
 PX  S  16   0.02799     0.00203    -0.00312     0.06570    -0.00859     0.00351
 PY  S  16  -0.02575    -0.00186     0.00753    -0.06370     0.01028     0.00027
 PZ  S  16  -0.02612     0.00222     0.00151    -0.03666     0.00218    -0.02689
  
  S  C  17  -0.22461    -0.00963    -0.00123     0.02062    -0.00308    -0.15974
 PX  C  17   0.01516     0.00196     0.00234    -0.00983     0.00123     0.00388
 PY  C  17   0.02674     0.00041    -0.00264     0.02140    -0.00293     0.01558
 PZ  C  17  -0.08808    -0.00915    -0.00554    -0.00192     0.00128    -0.01346
  
  S  S  18  -0.16865    -0.01139    -0.00682     0.02754    -0.00324    -0.06039
 PX  S  18   0.02966     0.00221     0.00151    -0.00563     0.00066     0.01224
 PY  S  18   0.09734     0.00645     0.00322    -0.01114     0.00122     0.05968
 PZ  S  18  -0.01599    -0.00245    -0.00224    -0.00018     0.00035     0.02961
  
  S  C  19  -0.10240    -0.01033    -0.00897     0.02555    -0.00264     0.00039
 PX  C  19  -0.00816    -0.00015     0.00034    -0.00109     0.00013    -0.00954
 PY  C  19   0.00401     0.00143     0.00165    -0.00356     0.00030    -0.01132
 PZ  C  19   0.12162     0.00772     0.00341    -0.00845     0.00077     0.03920
  
  S  C  20  -0.11066    -0.01131    -0.00933     0.02140    -0.00192     0.05158
 PX  C  20  -0.02422    -0.00157    -0.00061     0.00099    -0.00005    -0.02073
 PY  C  20  -0.04763    -0.00372    -0.00253     0.00889    -0.00101    -0.04383
 PZ  C  20   0.13879     0.00792     0.00206    -0.00201    -0.00005     0.10133
  
  S  C  21  -0.23033    -0.01365    -0.00378    -0.00052     0.00069    -0.10165
 PX  C  21  -0.02263    -0.00069     0.00098    -0.00661     0.00092    -0.01804
 PY  C  21  -0.08769    -0.00569    -0.00316     0.01380    -0.00170    -0.05303
 PZ  C  21  -0.01738    -0.00415    -0.00524     0.01553    -0.00159     0.03394
  
  S  C  22   0.10837     0.00393    -0.00165     0.00404    -0.00044     0.22500
 PX  C  22   0.00086    -0.00030    -0.00048     0.00110    -0.00010     0.00040
 PY  C  22   0.02775     0.00053    -0.00107     0.00342    -0.00039     0.02360
 PZ  C  22   0.08463     0.00588     0.00297    -0.00554     0.00038     0.06592
  
  S  C  23   0.23176     0.01375     0.00517    -0.01084     0.00083     0.22611
 PX  C  23   0.01159     0.00060     0.00024    -0.00049     0.00004    -0.01549
 PY  C  23   0.04002     0.00232     0.00126    -0.00273     0.00024    -0.06758
 PZ  C  23  -0.00679     0.00108     0.00238    -0.00630     0.00064    -0.05013
  
  S  C  24   0.23412     0.01576     0.00971    -0.02327     0.00216    -0.11742
 PX  C  24  -0.00353    -0.00002     0.00039    -0.00119     0.00014    -0.04384
 PY  C  24  -0.02733    -0.00053     0.00183    -0.00572     0.00066    -0.18774
 PZ  C  24  -0.02001     0.00020     0.00207    -0.00618     0.00068    -0.06619
  
  S  C  25   0.08478     0.00490     0.00240    -0.00475     0.00038    -0.12003
 PX  C  25  -0.02294    -0.00128    -0.00047     0.00089    -0.00006    -0.00522
 PY  C  25  -0.07725    -0.00370    -0.00065     0.00042     0.00005    -0.02633
 PZ  C  25   0.06909     0.00663     0.00644    -0.01758     0.00181    -0.14327
  
  S  N  26  -0.07874    -0.00378    -0.00101     0.00113    -0.00001    -0.00834
 PX  N  26  -0.00753    -0.00082    -0.00092     0.00248    -0.00026     0.03321
 PY  N  26  -0.08631    -0.00677    -0.00599     0.01532    -0.00153     0.22849
 PZ  N  26   0.02673     0.00265     0.00295    -0.00819     0.00086    -0.10098
  
  S  C  27  -0.15958    -0.01162    -0.00968     0.02451    -0.00243     0.36650
 PX  C  27   0.02271     0.00169     0.00150    -0.00384     0.00038    -0.06555
 PY  C  27   0.01671     0.00082     0.00013    -0.00006    -0.00002     0.02493
 PZ  C  27  -0.01787    -0.00098    -0.00044     0.00078    -0.00005     0.01409
  
  S  C  28  -0.11837    -0.00903    -0.00816     0.02099    -0.00211     0.34645
 PX  C  28  -0.03008    -0.00221    -0.00188     0.00476    -0.00047     0.07303
 PY  C  28   0.02233     0.00155     0.00118    -0.00294     0.00029    -0.03876
 PZ  C  28  -0.00753    -0.00047    -0.00029     0.00063    -0.00006     0.01030
  
  S  C  29  -0.03910    -0.00152     0.00066    -0.00292     0.00039    -0.08065
 PX  C  29  -0.01077    -0.00075    -0.00058     0.00141    -0.00014     0.01868
 PY  C  29  -0.07068    -0.00570    -0.00511     0.01316    -0.00132     0.16948
 PZ  C  29  -0.02359    -0.00282    -0.00310     0.00859    -0.00089     0.08610
  
  S  C  30   0.08962     0.00745     0.00688    -0.01780     0.00178    -0.19324
 PX  C  30  -0.00193     0.00005     0.00032    -0.00101     0.00012    -0.02594
 PY  C  30  -0.04638    -0.00304    -0.00155     0.00338    -0.00028    -0.02686
[...]
  71    H        1.672959947     1.984991873    -0.878691489
  72    H        1.673874966     1.984797595     0.879227593
  73    H        3.973891223     0.870544731     0.878843007
  74    H        3.974207274     0.870737398    -0.879457862
  75    H        3.738388216     3.418328191    -0.876542235
  76    H        3.747015072     3.416154305     0.881848454
  77    H        6.047394424     2.293982678     0.873691502
  78    H        6.050123924     2.310613809    -0.885813299
  79    H        5.513415341     4.788022668    -2.066123760
  80    H        8.607227541     2.796883055     1.738316828
  81    H        6.571432676     1.621176733     6.408376255
  82    H        6.201548150     0.932035733     8.974764788
  83    H        8.310118971     7.762061572    10.271976820
  84    H        7.989916664     6.980461897     8.720541826
  85    H        5.786862907     8.069245441    10.641600860
  86    H        6.321784561     8.836075992     9.140860118
  87    H        5.462045263     7.293480362     9.089463406
  88    H        6.184382812     3.066043285    13.683108350
  89    H        6.412184840     4.793882270    15.452917490
  90    H        7.114405552     7.091586970    14.901861840
  91    H        7.608616124     7.753051206    12.560542730
  92    H        4.161055727     1.037783465    10.919994040
  93    H        3.693878984    -0.672832648    12.663396160
  94    H        5.450687779    -1.281747465    14.309302130
  95    H        7.674977686    -0.181706442    14.218090030
  96    H        8.142808848     1.539969067    12.483590280
  97    H       10.062435280     2.082852127     3.996811396
  98    H        9.145799489     1.954865418     5.493640542
  99    H        7.530630705     0.333012157     4.417440310
 100    H        8.310468120     0.538439833     2.858779405
 101    H        9.164974630    -1.522331202     3.786675328
 102    H       10.493288930    -0.375043906     3.813965877
 103    H       10.112937990     0.086529494     6.261207259
 104    H        8.660943875    -0.905445306     6.259569597
 105    H       10.047565480    -2.942591564     5.607920682
 106    H       11.497502160    -1.950086677     5.563560106
 107    H        9.729278276    -2.370002467     8.077726778
 108    H       11.293263270    -3.129246715     7.779989214
 109    H       11.194089700    -1.386833438     8.033409006
 110    H        7.442876215     8.923723734    -4.715204662
 111    H        7.997528682     5.474948356    -3.022110058
 112    H        7.783490427     6.161912387    -4.627989411
 113    H        9.667802281     7.836050911    -4.163289786
 114    H        9.864290313     7.164922602    -2.550110019
 115    H       10.378551920     4.875674730    -3.561803418
 116    H       10.170037560     5.540046651    -5.176591523
 117    H       12.037712060     7.225465754    -4.724869336
 118    H       12.245343230     6.563205658    -3.109927368
 119    H       12.758506620     4.269407741    -4.116602846
 120    H       12.550831550     4.931921258    -5.731303273
 121    H       14.657125780     5.919805678    -3.679890650
 122    H       14.983836710     4.917404596    -5.093891558
 123    H       14.448275840     6.585121047    -5.301075223
 124    H        6.392211722    14.664930800    -5.397967854


           Empirical Formula: C56 H60 N2 O2 S4  =   124 atoms



      MOLECULAR POINT GROUP   :   C1  


                  EIGENVALUES  
 -48.55134 -46.78621 -44.97871 -44.74924 -44.40598 -43.73291 -43.32426 -42.15764
 -42.10561 -42.03055 -41.67206 -40.07646 -39.94036 -39.39048 -38.49611 -38.36237
 -38.23441 -37.35593 -36.31343 -35.62543 -34.76755 -33.95944 -33.88721 -33.66636
 -32.79169 -32.75512 -32.09388 -31.94504 -30.96634 -30.52940 -29.73853 -29.10549
 -28.96396 -28.81399 -28.57481 -28.21090 -27.17035 -26.54476 -26.34368 -26.18537
 -25.97043 -25.65842 -25.38650 -25.21656 -25.16410 -24.99890 -24.63997 -24.38320
 -24.35422 -24.24418 -24.10288 -23.85810 -23.62386 -23.00222 -22.57245 -22.53031
 -21.98004 -21.57992 -21.30426 -21.23235 -21.20257 -20.65630 -20.54008 -20.43090
 -20.24640 -20.13497 -19.24427 -19.05673 -18.84403 -18.75828 -18.69327 -18.58570
 -18.53494 -18.40444 -18.33093 -18.06765 -17.94673 -17.84930 -17.72691 -17.53677
 -17.50042 -17.23255 -17.08857 -17.02503 -16.78991 -16.66886 -16.41841 -16.40889
 -16.22746 -16.06196 -15.96733 -15.88510 -15.82981 -15.70532 -15.61865 -15.49844
 -15.35043 -15.31720 -15.26899 -15.03604 -15.00444 -14.84069 -14.73850 -14.66076
 -14.62006 -14.49515 -14.45883 -14.35090 -14.12102 -14.08580 -13.95785 -13.91827
 -13.77941 -13.71138 -13.60333 -13.58452 -13.56390 -13.49004 -13.45757 -13.30442
 -13.19297 -13.15844 -13.12062 -13.03110 -13.00845 -12.94006 -12.90475 -12.78138
 -12.72087 -12.66258 -12.60945 -12.56058 -12.50384 -12.49071 -12.48693 -12.46600
 -12.40374 -12.30377 -12.23776 -12.20180 -12.09771 -12.09649 -11.91675 -11.84954
 -11.76149 -11.72321 -11.69707 -11.64121 -11.23417 -11.02456 -10.80218 -10.33936
 -10.05853  -9.63952  -9.57545  -9.53653  -9.16483  -8.97977  -8.95298  -8.42836
  -8.23301  -7.91859  -7.57819  -7.45398  -7.03726  -1.11387  -0.22226   0.15538
   0.47058   0.62591   0.74637   0.80688   0.93203   0.97745   1.12697   1.26601
   1.66005   1.91860   1.96900   1.98418   2.10769   2.14231   2.20708   2.31855
   2.33563   2.45888   2.60863   2.75181   2.87308   3.02435   3.09056   3.18637
   3.21689   3.24753   3.28536   3.39876   3.45879   3.46571   3.53998   3.61379
   3.63035   3.82135   3.83784   3.89381   3.94552   4.00894   4.09293   4.12087
   4.12743   4.15441   4.18546   4.19222   4.25800   4.35555   4.42429   4.54144
   4.57974   4.70532   4.71708   4.76947   4.90330   5.01205   5.04286   5.06954
   5.09651   5.26852   5.27422   5.27743   5.29903   5.52952   5.59334   5.82934
   5.86755   6.00310   6.15340   6.17616   6.35439   6.40032   6.50138   6.59797
   6.63976   6.65442   6.67869   6.71956   6.72142   6.74288   6.74753   6.75675
   6.77032   6.77430   6.81052   6.81101   6.84708   6.90264   6.93591   6.93887
   6.94940   6.97800   6.99519   7.00662   7.01230   7.06183   7.06760   7.07791
   7.54123   7.66043   8.18679   8.23217   8.43918   8.46219   8.47520   8.53874
   8.55707   8.57933   8.58338   8.61581   8.62386   8.69506   8.74204   8.80984
   8.84915   8.93089   9.10950   9.12880   9.13974   9.18118   9.24570   9.74147
   9.81146   9.91384  10.04141  10.09091  10.43537  10.65588  10.84420  10.92612
  10.94600  10.97979  11.20532  11.40200  11.52651  11.73082  11.74989  12.01777
  12.19345  12.58497  12.72901  12.82095  12.97596  12.99668  13.30785  13.66116
  13.85522  14.20666  14.28904  15.14424


              NET ATOMIC CHARGES AND DIPOLE CONTRIBUTIONS

  ATOM NO.   TYPE          CHARGE      No. of ELECS.   s-Pop       p-Pop       
    1          C          -0.027820        4.0278     1.05488     2.97294
    2          C          -0.006846        4.0068     1.04472     2.96213
    3          C          -0.008481        4.0085     1.05048     2.95800
    4          C          -0.011107        4.0111     1.05246     2.95865
    5          C          -0.004118        4.0041     1.05054     2.95357
    6          C           0.003148        3.9969     1.04346     2.95339
    7          C           0.001888        3.9981     1.05816     2.93995
    8          C          -0.053431        4.0534     1.08550     2.96793
    9          C           0.047443        3.9526     1.07360     2.87895
   10          S          -0.057532        6.0575     1.77372     4.28382
   11          C           0.003321        3.9967     1.06670     2.92998
   12          C           0.054437        3.9456     1.07581     2.86975
   13          C          -0.060598        4.0606     1.08476     2.97584
   14          C           0.004857        3.9951     1.05986     2.93528
   15          C          -0.000903        4.0009     1.06607     2.93483
   16          S          -0.063354        6.0634     1.77419     4.28917
   17          C           0.057838        3.9422     1.08016     2.86200
   18          S          -0.077519        6.0775     1.77788     4.29964
   19          C          -0.005816        4.0058     1.06784     2.93798
   20          C           0.010962        3.9890     1.05269     2.93635
   21          C          -0.061227        4.0612     1.08628     2.97495
   22          C          -0.065720        4.0657     1.07838     2.98734
   23          C           0.032545        3.9675     1.05021     2.91725
   24          C          -0.034935        4.0349     1.04724     2.98769
   25          C           0.083652        3.9163     1.05361     2.86274
   26          N          -0.155764        5.1558     1.25723     3.89854
   27          C           0.078490        3.9215     1.04133     2.88018
   28          C          -0.020156        4.0202     1.05393     2.96623
   29          C           0.072352        3.9276     1.05165     2.87600
   30          C          -0.013900        4.0139     1.04826     2.96564
   31          C          -0.027664        4.0277     1.08400     2.94366
   32          C          -0.044957        4.0450     1.07843     2.96653
   33          C          -0.025964        4.0260     1.08027     2.94569
   34          C          -0.042891        4.0429     1.07602     2.96687
   35          C           0.035132        3.9649     1.04792     2.91694
   36          C          -0.035826        4.0358     1.07788     2.95795
   37          C          -0.019970        4.0200     1.08183     2.93814
   38          C          -0.032876        4.0329     1.07698     2.95590
   39          C          -0.020544        4.0205     1.08137     2.93917
   40          C          -0.028919        4.0289     1.07844     2.95048
   41          C           0.005832        3.9942     1.04256     2.95161
   42          C          -0.002624        4.0026     1.04952     2.95311
   43          C          -0.009684        4.0097     1.05157     2.95812
   44          C          -0.006243        4.0062     1.04945     2.95680
   45          C          -0.006810        4.0068     1.04492     2.96189
   46          C          -0.027944        4.0279     1.05485     2.97309
   47          C           0.040638        3.9594     1.07240     2.88696
   48          S          -0.045055        6.0451     1.77199     4.27307
   49          C           0.016276        3.9837     1.06641     2.91732
   50          C           0.007475        3.9925     1.09648     2.89604
   51          C          -0.003468        4.0035     1.05570     2.94777
   52          C           0.003213        3.9968     1.04341     2.95338
   53          C          -0.004227        4.0042     1.05075     2.95348
   54          C          -0.010902        4.0109     1.05240     2.95850
   55          C          -0.008492        4.0085     1.05047     2.95802
   56          C          -0.006787        4.0068     1.04471     2.96207
   57          C          -0.027878        4.0279     1.05490     2.97298
   58          C           0.125827        3.8742     1.09440     2.77978
   59          C           0.021071        3.9789     1.00227     2.97666
   60          C           0.499897        3.5001     1.04413     2.45598
   61          O          -0.597461        6.5975     1.81658     4.78088
   62          O          -0.308205        6.3082     1.68700     4.62121
   63          C           0.213412        3.7866     1.14745     2.63914
   64          N          -0.384457        5.3845     1.75343     3.63103
   65          H           0.063966        0.9360     0.93603
   66          H           0.007834        0.9922     0.99217
   67          H           0.000637        0.9994     0.99936
   68          H           0.007842        0.9922     0.99216
   69          H           0.006346        0.9937     0.99365
   70          H           0.006331        0.9937     0.99367
   71          H           0.007137        0.9929     0.99286
   72          H           0.007049        0.9930     0.99295
   73          H           0.007419        0.9926     0.99258
   74          H           0.007599        0.9924     0.99240
   75          H           0.010202        0.9898     0.98980
   76          H           0.008295        0.9917     0.99170
   77          H           0.008413        0.9916     0.99159
   78          H           0.013663        0.9863     0.98634
   79          H           0.033381        0.9666     0.96662
   80          H           0.031045        0.9690     0.96896
   81          H           0.031524        0.9685     0.96848
   82          H           0.020772        0.9792     0.97923
   83          H           0.018951        0.9810     0.98105
   84          H           0.022116        0.9779     0.97788
   85          H           0.014187        0.9858     0.98581
   86          H           0.007383        0.9926     0.99262
   87          H           0.012119        0.9879     0.98788
   88          H           0.028280        0.9717     0.97172
   89          H           0.016340        0.9837     0.98366
   90          H           0.018850        0.9811     0.98115
   91          H           0.026860        0.9731     0.97314
   92          H           0.021852        0.9781     0.97815
   93          H           0.020538        0.9795     0.97946
   94          H           0.019776        0.9802     0.98022
   95          H           0.020781        0.9792     0.97922
   96          H           0.023718        0.9763     0.97628
   97          H           0.012207        0.9878     0.98779
   98          H           0.010077        0.9899     0.98992
   99          H           0.009443        0.9906     0.99056
  100          H           0.003254        0.9967     0.99675
  101          H           0.000208        0.9998     0.99979
  102          H           0.007328        0.9927     0.99267
  103          H           0.009112        0.9909     0.99089
  104          H           0.007991        0.9920     0.99201
  105          H           0.006553        0.9934     0.99345
  106          H           0.006401        0.9936     0.99360
  107          H           0.008146        0.9919     0.99185
  108          H           0.000804        0.9992     0.99920
  109          H           0.007949        0.9921     0.99205
  110          H           0.048082        0.9519     0.95192
  111          H           0.010097        0.9899     0.98990
  112          H           0.015464        0.9845     0.98454
  113          H           0.010630        0.9894     0.98937
  114          H           0.008843        0.9912     0.99116
  115          H           0.007589        0.9924     0.99241
  116          H           0.007864        0.9921     0.99214
  117          H           0.007739        0.9923     0.99226
  118          H           0.007075        0.9929     0.99293
  119          H           0.006150        0.9938     0.99385
  120          H           0.006413        0.9936     0.99359
  121          H           0.007776        0.9922     0.99222
  122          H           0.000507        0.9995     0.99949
  123          H           0.008174        0.9918     0.99183
  124          H           0.246291        0.7537     0.75371
 DIPOLE           X         Y         Z       TOTAL
 POINT-CHG.    -0.232    -4.425    -0.909     4.523
 HYBRID        -0.745    -3.250    -2.144     3.964
 SUM           -0.977    -7.675    -3.053     8.318


          ATOMIC ORBITAL ELECTRON POPULATIONS

     Atom    s        px        py        pz   
    1  C   1.05488   0.99062   0.98911   0.99322
    2  C   1.04472   0.99107   0.98512   0.98594
    3  C   1.05048   0.99029   0.98052   0.98719
    4  C   1.05246   0.99072   0.98056   0.98737
    5  C   1.05054   0.98005   0.98485   0.98867
    6  C   1.04346   0.99277   0.97425   0.98638
    7  C   1.05816   0.98492   0.96761   0.98742
    8  C   1.08550   1.03577   0.97725   0.95491
    9  C   1.07360   0.98764   0.98303   0.90828
   10  S   1.77372   1.74603   1.28257   1.25521
   11  C   1.06670   1.05514   0.90679   0.96805
   12  C   1.07581   0.97946   0.98561   0.90468
   13  C   1.08476   1.01804   1.00183   0.95597
   14  C   1.05986   0.98660   0.95648   0.99221
   15  C   1.06607   1.02169   0.99043   0.92271
   16  S   1.77419   1.60091   1.54041   1.14784
   17  C   1.08016   0.98010   0.94390   0.93800
   18  S   1.77788   1.86975   1.28302   1.14688
   19  C   1.06784   1.08115   0.96624   0.89059
   20  C   1.05269   0.97745   0.98427   0.97463
   21  C   1.08628   1.05984   0.93849   0.97663
   22  C   1.07838   1.07004   0.94927   0.96803
   23  C   1.05021   0.95706   0.97343   0.98676
   24  C   1.04724   1.06530   0.94886   0.97353
   25  C   1.05361   0.98671   0.91967   0.95636
   26  N   1.25723   1.70895   1.08883   1.10076
   27  C   1.04133   0.99560   0.91390   0.97068
   28  C   1.05393   0.98094   0.98809   0.99720
   29  C   1.05165   0.99127   0.99897   0.88576
   30  C   1.04826   1.02732   0.98606   0.95227
   31  C   1.08400   1.00038   0.95460   0.98869
   32  C   1.07843   1.02783   0.99080   0.94789
   33  C   1.08027   1.00275   0.97326   0.96969
   34  C   1.07602   1.03954   0.94634   0.98099
   35  C   1.04792   0.98978   0.96410   0.96306
   36  C   1.07788   0.96884   1.00339   0.98572
   37  C   1.08183   0.95474   0.98556   0.99784
   38  C   1.07698   0.99627   0.98156   0.97807
   39  C   1.08137   0.97175   0.99448   0.97294
   40  C   1.07844   0.95497   0.99860   0.99691
   41  C   1.04256   0.97490   0.99353   0.98317
   42  C   1.04952   0.98034   0.98976   0.98301
   43  C   1.05157   0.98580   0.98118   0.99114
   44  C   1.04945   0.98658   0.98698   0.98324
   45  C   1.04492   0.98778   0.98788   0.98622
   46  C   1.05485   0.99177   0.98989   0.99143
   47  C   1.07240   0.98607   0.91413   0.98677
   48  S   1.77199   1.63415   1.26786   1.37105
   49  C   1.06641   1.02123   0.95530   0.94079
   50  C   1.09648   0.95042   0.99381   0.95181
   51  C   1.05570   0.98404   0.98289   0.98084
   52  C   1.04341   0.99602   0.97146   0.98590
   53  C   1.05075   0.98439   0.98074   0.98835
   54  C   1.05240   0.99530   0.97693   0.98627
   55  C   1.05047   0.99425   0.97750   0.98627
   56  C   1.04471   0.99828   0.97805   0.98574
   57  C   1.05490   0.98873   0.99163   0.99263
   58  C   1.09440   0.96598   0.96968   0.84412
   59  C   1.00227   0.93228   0.95285   1.09153
   60  C   1.04413   0.85360   0.88622   0.71616
   61  O   1.81658   1.31833   1.83405   1.62850
   62  O   1.68700   1.55615   1.34227   1.72279
   63  C   1.14745   0.94349   0.81689   0.87877
   64  N   1.75343   1.22800   1.23324   1.16979
   65  H   0.93603
   66  H   0.99217
   67  H   0.99936
   68  H   0.99216
   69  H   0.99365
   70  H   0.99367
   71  H   0.99286
   72  H   0.99295
   73  H   0.99258
   74  H   0.99240
   75  H   0.98980
   76  H   0.99170
   77  H   0.99159
   78  H   0.98634
   79  H   0.96662
   80  H   0.96896
   81  H   0.96848
   82  H   0.97923
   83  H   0.98105
   84  H   0.97788
   85  H   0.98581
   86  H   0.99262
   87  H   0.98788
   88  H   0.97172
   89  H   0.98366
   90  H   0.98115
   91  H   0.97314
   92  H   0.97815
   93  H   0.97946
   94  H   0.98022
   95  H   0.97922
   96  H   0.97628
   97  H   0.98779
   98  H   0.98992
   99  H   0.99056
  100  H   0.99675
  101  H   0.99979
  102  H   0.99267
  103  H   0.99089
  104  H   0.99201
  105  H   0.99345
  106  H   0.99360
  107  H   0.99185
  108  H   0.99920
  109  H   0.99205
  110  H   0.95192
  111  H   0.98990
  112  H   0.98454
  113  H   0.98937
  114  H   0.99116
  115  H   0.99241
  116  H   0.99214
  117  H   0.99226
  118  H   0.99293
  119  H   0.99385
  120  H   0.99359
  121  H   0.99222
  122  H   0.99949
  123  H   0.99183
  124  H   0.75371

 **********************
 *                    *
 * JOB ENDED NORMALLY *
 *                    *
 **********************



 TOTAL JOB TIME:           892.95 SECONDS

 == MOPAC DONE ==
