 *******************************************************************************
 ** Site#: 4824         For non-commercial use only    Version 21.013L 64BITS **
 *******************************************************************************
 ** Cite this program as: MOPAC2016, Version: 21.013L, James J. P. Stewart,   **
 ** Stewart Computational Chemistry, web: HTTP://OpenMOPAC.net. Days left:  83**
 *******************************************************************************
 **                                                                           **
 **                                MOPAC2016                                  **
 **                                                                           **
 *******************************************************************************

                              INDO CALCULATION RESULTS

 *******************************************************************************
 *  CALCULATION DONE:                                Fri Oct 22 08:08:28 2021  *
 *  INDO       - The INDO Hamiltonian to be used
 *  CIS        - C.I. USES 1 ELECTRON EXCITATIONS ONLY
 *  EPS=  7.58 - USE ANDREAS KLAMT'S COSMO IMPLICIT SOLVATION MODEL
 *  n**2 =  1.400 for COSMO-CI
 *  T=         - A TIME OF 172800.0 SECONDS REQUESTED
 *  DUMP=N     - RESTART FILE WRITTEN EVERY 7200.0 SECONDS REQUESTED
 *******************************************************************************
INDO CIS EPS=7.58 N**2=1.40
 Dye105
 Calculo de Estados Excitados
   ATOM   CHEMICAL          X               Y               Z
  NUMBER   SYMBOL      (ANGSTROMS)     (ANGSTROMS)     (ANGSTROMS)
 
     1       C         -0.00254290  *   0.00521048  *  -0.00619994  *
     2       C          1.51743937  *   0.00226533  *  -0.00467248  *
     3       C          2.06054500  *   1.42905166  *  -0.00558931  *
     4       C          3.58737757  *   1.42743129  *   0.00228017  *
     5       C          4.12632172  *   2.85597917  *  -0.00245358  *
     6       C          5.65546286  *   2.85169322  *   0.01162603  *
     7       C          6.17242272  *   4.24046379  *   0.01271344  *
     8       C          5.98097085  *   5.13117860  *   1.11392973  *
     9       C          6.57116605  *   6.35104349  *   0.89538339  *
    10       S          7.33301036  *   6.42932106  *  -0.62474013  *
    11       C          6.89493527  *   4.83269144  *  -0.98895469  *
    12       C          7.29819367  *   4.19415599  *  -2.21864563  *
    13       C          6.48051578  *   4.08743118  *  -3.28024623  *
    14       C          6.95059782  *   3.41854460  *  -4.50193953  *
    15       O          8.05415626  *   2.92279985  *  -4.67835969  *
    16       O          6.03489742  *   3.37528768  *  -5.48953566  *
    17       C          5.16073167  *   4.60793990  *  -3.27419775  *
    18       N          4.08649601  *   5.03456482  *  -3.27129763  *
    19       C          6.56402873  *   7.45385709  *   1.82255170  *
    20       C          6.23460036  *   7.30949892  *   3.13338579  *
    21       C          6.19882339  *   8.41745709  *   4.04279463  *
    22       C          6.50158434  *   9.68155500  *   3.65786667  *
    23       C          6.88720277  *   9.90792991  *   2.29178781  *
    24       C          6.91670700  *   8.77040906  *   1.35694204  *
    25       N          7.28852267  *   9.11071713  *   0.12632979  *
    26       S          7.57639088  *  10.75902741  *   0.11887764  *
    27       N          7.23186895  *  11.06159313  *   1.72814849  *
    28       C          6.43901554  *  10.81080995  *   4.57480159  *
    29       C          5.29772392  *  10.97363782  *   5.36839371  *
    30       C          5.18213249  *  12.02417136  *   6.26604657  *
    31       C          6.24488004  *  12.91564844  *   6.36468764  *
    32       C          7.40534733  *  12.75586178  *   5.54742088  *
    33       C          7.50166291  *  11.70705188  *   4.65224808  *
    34       C          8.31274469  *  13.83492262  *   5.85696146  *
    35       C          9.57890795  *  14.19932312  *   5.43253733  *
    36       C         10.16035724  *  15.32193325  *   6.01084755  *
    37       C          9.49682704  *  16.08697921  *   6.97610611  *
    38       C          8.21114482  *  15.76689733  *   7.39687017  *
    39       C          7.66537938  *  14.62617051  *   6.83127985  *
    40       N          6.40250952  *  14.08498481  *   7.14354532  *
    41       C          5.72733920  *  14.57493562  *   8.27733271  *
    42       C          4.61566060  *  13.89939229  *   8.78718938  *
    43       C          3.94660499  *  14.40768311  *   9.89027273  *
    44       C          4.38150848  *  15.58255756  *  10.48266806  *
    45       C          5.49218190  *  16.24523540  *   9.97383065  *
    46       C          6.19996517  *  15.76147120  *   8.87957976  *
    47       C          7.37914216  *  16.56776771  *   8.35894428  *
    48       C          8.29239601  *  17.00081629  *   9.52695619  *
    49       C          7.95870932  *  18.32049551  *  10.20382850  *
    50       C          6.75529743  *  17.74324826  *   7.58010483  *
    51       C          7.76258359  *  18.58688169  *   6.81937785  *
    52       H          8.32318351  *   3.79312424  *  -2.24332523  *
    53       H         -0.41752796  *   0.51401957  *  -0.88824447  *
    54       H         -0.41376846  *  -1.01462450  *  -0.00834043  *
    55       H         -0.41959277  *   0.51099522  *   0.87657977  *
    56       H          1.89785391  *  -0.55926078  *   0.87479351  *
    57       H          1.89943484  *  -0.56021790  *  -0.88284265  *
    58       H          1.67878174  *   1.98513571  *  -0.88792227  *
    59       H          1.66927652  *   1.98922571  *   0.86989025  *
    60       H          3.96869628  *   0.87295282  *   0.88583082  *
    61       H          3.97643992  *   0.86452920  *  -0.87246938  *
    62       H          3.75471267  *   3.41114040  *  -0.89000757  *
    63       H          3.73180357  *   3.42161621  *   0.86765090  *
    64       H          6.04185980  *   2.31374439  *   0.90479375  *
    65       H          6.05232772  *   2.27824403  *  -0.85317967  *
    66       H          5.42274246  *   4.84360012  *   2.00123895  *
    67       H          6.38788827  *   2.92826248  *  -6.27270282  *
    68       H          5.98333221  *   6.32740678  *   3.54770692  *
    69       H          5.91777232  *   8.20752180  *   5.08086725  *
    70       H          4.46691795  *  10.26663419  *   5.27174908  *
    71       H          4.27600423  *  12.14298877  *   6.86800940  *
    72       H          8.39787505  *  11.59627432  *   4.03563580  *
    73       H         10.10131821  *  13.61510822  *   4.67158312  *
    74       H         11.16717933  *  15.61958628  *   5.70339382  *
    75       H         10.01438463  *  16.94687646  *   7.41756710  *
    76       H          4.25503723  *  12.96958300  *   8.33549138  *
    77       H          3.07533086  *  13.87890125  *  10.28860728  *
    78       H          3.85179906  *  15.99041233  *  11.34791030  *
    79       H          5.79261488  *  17.17927275  *  10.46412586  *
    80       H          8.30958003  *  16.18606865  *  10.28330320  *
    81       H          9.35167563  *  17.07008052  *   9.18878160  *
    82       H          8.08403345  *  19.19229701  *   9.54691745  *
    83       H          6.92997109  *  18.36708092  *  10.59446068  *
    84       H          8.61786843  *  18.49560299  *  11.06875887  *
    85       H          6.00451822  *  17.34311393  *   6.86251231  *
    86       H          6.15550321  *  18.38183599  *   8.26206111  *
    87       H          7.29988102  *  19.50902378  *   6.43494766  *
    88       H          8.61796177  *  18.90280090  *   7.43180027  *
    89       H          8.17266986  *  18.06613802  *   5.94164679  *
 


          CARTESIAN COORDINATES 

    NO.       ATOM           X           Y           Z

     1         C         -0.0025      0.0052     -0.0062
     2         C          1.5174      0.0023     -0.0047
     3         C          2.0605      1.4291     -0.0056
     4         C          3.5874      1.4274      0.0023
     5         C          4.1263      2.8560     -0.0025
     6         C          5.6555      2.8517      0.0116
     7         C          6.1724      4.2405      0.0127
     8         C          5.9810      5.1312      1.1139
     9         C          6.5712      6.3510      0.8954
    10         S          7.3330      6.4293     -0.6247
    11         C          6.8949      4.8327     -0.9890
    12         C          7.2982      4.1942     -2.2186
    13         C          6.4805      4.0874     -3.2802
    14         C          6.9506      3.4185     -4.5019
    15         O          8.0542      2.9228     -4.6784
    16         O          6.0349      3.3753     -5.4895
    17         C          5.1607      4.6079     -3.2742
    18         N          4.0865      5.0346     -3.2713
    19         C          6.5640      7.4539      1.8226
    20         C          6.2346      7.3095      3.1334
    21         C          6.1988      8.4175      4.0428
    22         C          6.5016      9.6816      3.6579
    23         C          6.8872      9.9079      2.2918
    24         C          6.9167      8.7704      1.3569
    25         N          7.2885      9.1107      0.1263
    26         S          7.5764     10.7590      0.1189
    27         N          7.2319     11.0616      1.7281
    28         C          6.4390     10.8108      4.5748
    29         C          5.2977     10.9736      5.3684
    30         C          5.1821     12.0242      6.2660
    31         C          6.2449     12.9156      6.3647
    32         C          7.4053     12.7559      5.5474
    33         C          7.5017     11.7071      4.6522
    34         C          8.3127     13.8349      5.8570
    35         C          9.5789     14.1993      5.4325
    36         C         10.1604     15.3219      6.0108
    37         C          9.4968     16.0870      6.9761
    38         C          8.2111     15.7669      7.3969
    39         C          7.6654     14.6262      6.8313
    40         N          6.4025     14.0850      7.1435
    41         C          5.7273     14.5749      8.2773
    42         C          4.6157     13.8994      8.7872
    43         C          3.9466     14.4077      9.8903
    44         C          4.3815     15.5826     10.4827
    45         C          5.4922     16.2452      9.9738
    46         C          6.2000     15.7615      8.8796
    47         C          7.3791     16.5678      8.3589
    48         C          8.2924     17.0008      9.5270
    49         C          7.9587     18.3205     10.2038
    50         C          6.7553     17.7432      7.5801
    51         C          7.7626     18.5869      6.8194
    52         H          8.3232      3.7931     -2.2433
    53         H         -0.4175      0.5140     -0.8882
    54         H         -0.4138     -1.0146     -0.0083
    55         H         -0.4196      0.5110      0.8766
    56         H          1.8979     -0.5593      0.8748
    57         H          1.8994     -0.5602     -0.8828
    58         H          1.6788      1.9851     -0.8879
    59         H          1.6693      1.9892      0.8699
    60         H          3.9687      0.8730      0.8858
    61         H          3.9764      0.8645     -0.8725
    62         H          3.7547      3.4111     -0.8900
    63         H          3.7318      3.4216      0.8677
    64         H          6.0419      2.3137      0.9048
    65         H          6.0523      2.2782     -0.8532
    66         H          5.4227      4.8436      2.0012
    67         H          6.3879      2.9283     -6.2727
    68         H          5.9833      6.3274      3.5477
    69         H          5.9178      8.2075      5.0809
    70         H          4.4669     10.2666      5.2717
    71         H          4.2760     12.1430      6.8680
    72         H          8.3979     11.5963      4.0356
    73         H         10.1013     13.6151      4.6716
    74         H         11.1672     15.6196      5.7034
    75         H         10.0144     16.9469      7.4176
    76         H          4.2550     12.9696      8.3355
    77         H          3.0753     13.8789     10.2886
    78         H          3.8518     15.9904     11.3479
    79         H          5.7926     17.1793     10.4641
    80         H          8.3096     16.1861     10.2833
    81         H          9.3517     17.0701      9.1888
    82         H          8.0840     19.1923      9.5469
    83         H          6.9300     18.3671     10.5945
    84         H          8.6179     18.4956     11.0688
    85         H          6.0045     17.3431      6.8625
    86         H          6.1555     18.3818      8.2621
    87         H          7.2999     19.5090      6.4349
    88         H          8.6180     18.9028      7.4318
    89         H          8.1727     18.0661      5.9416

           Empirical Formula: C43 H38 N4 O2 S2  =    89 atoms



      MOLECULAR POINT GROUP   :   C1  


      RHF CALCULATION, NO. OF DOUBLY OCCUPIED LEVELS = 127

 WARNING: INDO only performs single-point calculations

 Summary of symmetry occupancy in each shell:

 SHELL     
    1  127
    v  115
 TOTAL 242




    ROOT NO.    1           2           3           4           5           6

           -49.43452   -46.84360   -46.59101   -45.66845   -44.41559   -43.53638
  
  
  S  C   1   0.00001     0.00199     0.00123     0.00143     0.04224     0.00149
 PX  C   1   0.00000     0.00084     0.00052     0.00059     0.01656     0.00057
 PY  C   1   0.00000     0.00028     0.00017     0.00019     0.00497     0.00016
 PZ  C   1   0.00000    -0.00000     0.00000     0.00000     0.00002     0.00000
  
  S  C   2   0.00001     0.00427     0.00260     0.00288     0.07909     0.00264
 PX  C   2   0.00000     0.00075     0.00043     0.00042     0.00882     0.00022
 PY  C   2   0.00000     0.00133     0.00080     0.00085     0.02182     0.00069
 PZ  C   2   0.00000    -0.00002     0.00001     0.00000     0.00000    -0.00000
  
  S  C   3   0.00003     0.00816     0.00491     0.00505     0.12378     0.00377
 PX  C   3   0.00001     0.00257     0.00150     0.00142     0.02930     0.00075
 PY  C   3   0.00000     0.00031     0.00018     0.00006    -0.00325    -0.00022
 PZ  C   3   0.00000    -0.00008     0.00003     0.00001     0.00013     0.00000
  
  S  C   4   0.00006     0.01453     0.00846     0.00809     0.17410     0.00471
 PX  C   4   0.00001     0.00185     0.00092     0.00066     0.00501    -0.00011
 PY  C   4   0.00002     0.00411     0.00243     0.00212     0.03849     0.00087
 PZ  C   4   0.00000    -0.00038     0.00009     0.00001    -0.00030    -0.00001
  
  S  C   5   0.00014     0.02569     0.01562     0.01337     0.24127     0.00551
 PX  C   5   0.00004     0.00730     0.00436     0.00338     0.04809     0.00075
 PY  C   5   0.00002     0.00077     0.00102     0.00033    -0.00843    -0.00051
 PZ  C   5   0.00001    -0.00139     0.00056     0.00018     0.00059     0.00000
  
  S  C   6   0.00022     0.03878     0.02280     0.01843     0.29286     0.00571
 PX  C   6   0.00001     0.00112     0.00001    -0.00028    -0.01702    -0.00068
 PY  C   6   0.00008     0.01012     0.00767     0.00541     0.06806     0.00093
 PZ  C   6   0.00001    -0.00497     0.00063    -0.00012    -0.00597    -0.00012
  
  S  C   7   0.00058     0.05823     0.04971     0.03370     0.41506     0.00583
 PX  C   7   0.00005     0.00410     0.00361     0.00208     0.01247    -0.00022
 PY  C   7   0.00020     0.00552     0.01497     0.00777     0.05109    -0.00023
 PZ  C   7   0.00005    -0.00944     0.00325     0.00054    -0.01042    -0.00027
  
  S  C   8   0.00107     0.03852     0.06807     0.03647     0.32004     0.00326
 PX  C   8   0.00017     0.00617     0.01183     0.00628     0.04825     0.00015
 PY  C   8   0.00040     0.00071     0.01816     0.00645    -0.00446    -0.00100
 PZ  C   8  -0.00002    -0.01322    -0.00976    -0.00804    -0.10905    -0.00113
  
  S  C   9   0.00232     0.03764     0.11781     0.05204     0.25536    -0.00140
 PX  C   9  -0.00001    -0.00124    -0.00032    -0.00046    -0.01658    -0.00083
 PY  C   9   0.00075    -0.00622     0.02416     0.00487    -0.09299    -0.00339
 PZ  C   9   0.00055    -0.00340     0.01556     0.00290    -0.04100    -0.00019
  
  S  S  10   0.00092     0.03303     0.05737     0.02942     0.20078    -0.00061
 PX  S  10  -0.00024    -0.00936    -0.01617    -0.00866    -0.06743    -0.00015
 PY  S  10   0.00010    -0.01486    -0.00067    -0.00406    -0.10281    -0.00252
 PZ  S  10   0.00050     0.00519     0.02889     0.01290     0.05469    -0.00122
  
  S  C  11   0.00048     0.07086     0.03907     0.02809     0.34213     0.00435
 PX  C  11  -0.00007    -0.00667    -0.00675    -0.00449    -0.05463    -0.00074
 PY  C  11   0.00006    -0.00997     0.00436     0.00092    -0.01812    -0.00084
 PZ  C  11   0.00019    -0.00735     0.01719     0.00888     0.07799     0.00049
  
  S  C  12   0.00016     0.12529     0.00272     0.01095     0.18239     0.00310
 PX  C  12  -0.00004    -0.02490    -0.00166    -0.00296    -0.04872    -0.00085
 PY  C  12   0.00002    -0.00954     0.00374     0.00173     0.01984     0.00023
 PZ  C  12   0.00005    -0.04079     0.01176     0.00469     0.05236     0.00066
  
  S  C  13   0.00009     0.23206    -0.02033     0.00330     0.09624     0.00194
 PX  C  13   0.00000     0.02169    -0.00265    -0.00022     0.00032     0.00001
 PY  C  13   0.00001    -0.03645     0.00618     0.00161     0.01823     0.00027
 PZ  C  13   0.00003    -0.06787     0.01435     0.00500     0.06557     0.00107
  
  S  C  14   0.00005     0.50728    -0.06726    -0.00935    -0.05947    -0.00063
 PX  C  14  -0.00000     0.00147    -0.00020     0.00001     0.00189     0.00006
 PY  C  14   0.00000    -0.05096     0.00786     0.00178     0.02059     0.00034
 PZ  C  14   0.00000    -0.12524     0.01963     0.00464     0.05649     0.00097
  
  S  O  15   0.00004     0.40608    -0.05493    -0.00826    -0.05958    -0.00070
 PX  O  15  -0.00001    -0.16165     0.02202     0.00341     0.02604     0.00033
 PY  O  15   0.00001     0.06319    -0.00839    -0.00116    -0.00690    -0.00006
 PZ  O  15   0.00000     0.00240     0.00027     0.00042     0.00840     0.00017
  
  S  O  16   0.00004     0.56198    -0.07823    -0.01328    -0.12018    -0.00179
 PX  O  16   0.00001     0.15286    -0.02134    -0.00365    -0.03311    -0.00049
 PY  O  16  -0.00000    -0.03387     0.00491     0.00096     0.01023     0.00017
 PZ  O  16   0.00001     0.06169    -0.00811    -0.00107    -0.00560    -0.00004
  
  S  C  17   0.00006     0.11453    -0.00764     0.00341     0.07882     0.00159
 PX  C  17   0.00002     0.04436    -0.00371     0.00067     0.01625     0.00027
 PY  C  17  -0.00000    -0.02540     0.00300     0.00019    -0.00161    -0.00005
 PZ  C  17   0.00002    -0.01816     0.00494     0.00206     0.02764     0.00045
  
  S  N  18   0.00002     0.03970    -0.00177     0.00193     0.04301     0.00092
 PX  N  18   0.00001     0.02224    -0.00110     0.00097     0.02129     0.00044
 PY  N  18  -0.00001    -0.01041     0.00069    -0.00034    -0.00837    -0.00019
 PZ  N  18   0.00001    -0.00314     0.00115     0.00056     0.00801     0.00014
  
  S  C  19   0.00662     0.03438     0.22857     0.07656     0.08010    -0.00399
 PX  C  19   0.00012     0.00067     0.00838     0.00348    -0.00671    -0.00192
 PY  C  19   0.00232     0.00431     0.06459     0.01753    -0.05162    -0.00298
 PZ  C  19   0.00120    -0.00026     0.01301    -0.00172    -0.01872     0.00537
  
  S  C  20   0.00680     0.02433     0.17617     0.04877     0.04028     0.00672
 PX  C  20   0.00057     0.00236     0.01848     0.00574     0.00114    -0.00021
 PY  C  20   0.00302     0.00629     0.06156     0.01308    -0.01882     0.00326
 PZ  C  20  -0.00043    -0.00610    -0.03647    -0.01532    -0.02284     0.00261
  
  S  C  21   0.01366     0.02197     0.18489     0.02471    -0.01071     0.02230
 PX  C  21   0.00098     0.00238     0.02049     0.00461    -0.00255     0.00072
 PY  C  21   0.00553     0.00309     0.03252    -0.00709    -0.01494     0.00979
 PZ  C  21  -0.00132    -0.00808    -0.06529    -0.02144     0.00018     0.00086
  
  S  C  22   0.02740     0.02887     0.25697     0.01070    -0.04688     0.03614
 PX  C  22  -0.00010     0.00125     0.01149     0.00541    -0.00451    -0.00334
 PY  C  22   0.00673    -0.00237    -0.01430    -0.02450    -0.01057     0.00741
 PZ  C  22   0.00437    -0.00655    -0.05489    -0.03568     0.00992     0.01373
  
  S  C  23   0.01904     0.04508     0.39943     0.10295    -0.09585    -0.01049
 PX  C  23  -0.00012     0.00186     0.01796     0.00953    -0.01029    -0.00618
 PY  C  23   0.00171    -0.00171    -0.00685    -0.00730    -0.01943    -0.00175
 PZ  C  23   0.00260    -0.00844    -0.07450    -0.04503     0.02652     0.02345
  
  S  C  24   0.01107     0.04673     0.38672     0.13023    -0.04579    -0.02766
 PX  C  24   0.00013     0.00147     0.01619     0.00765    -0.01219    -0.00501
 PY  C  24   0.00272     0.00753     0.08386     0.02707    -0.05657    -0.01109
 PZ  C  24   0.00157    -0.00040    -0.00296    -0.01093     0.00716     0.01196
  
  S  N  25   0.00704     0.03570     0.30475     0.11270    -0.06267    -0.03601
 PX  N  25  -0.00058    -0.00315    -0.02524    -0.00928     0.00197     0.00249
 PY  N  25   0.00125     0.00447     0.04597     0.01586    -0.02633    -0.00627
 PZ  N  25   0.00321     0.01548     0.13226     0.04779    -0.02681    -0.01424
  
  S  S  26   0.00566     0.02363     0.21138     0.07439    -0.06385    -0.02432
 PX  S  26  -0.00121    -0.00511    -0.04565    -0.01602     0.01361     0.00509
 PY  S  26  -0.00220    -0.01091    -0.09595    -0.03542     0.02561     0.01187
 PZ  S  26   0.00348     0.01294     0.11676     0.03930    -0.03699    -0.01209
  
  S  N  27   0.01312     0.03462     0.31451     0.09148    -0.10045    -0.02292
 PX  N  27  -0.00109    -0.00225    -0.02041    -0.00448     0.00595    -0.00011
 PY  N  27  -0.00493    -0.01584    -0.14278    -0.04444     0.04320     0.01117
 PZ  N  27   0.00231    -0.00186    -0.01577    -0.01585     0.00572     0.00876
  
  S  C  28   0.06962     0.01753     0.17008    -0.11314    -0.04006     0.07569
 PX  C  28   0.00076     0.00064     0.00591     0.00237    -0.00234    -0.00680
 PY  C  28   0.02167    -0.00156    -0.01020    -0.04410     0.00197     0.01105
 PZ  C  28   0.01633    -0.00247    -0.01966    -0.03881     0.00644     0.01396
  
  S  C  29   0.06715     0.00996     0.10088    -0.11890    -0.02177     0.08069
 PX  C  29   0.02299     0.00343     0.03479    -0.04064    -0.00764     0.01988
 PY  C  29   0.02225     0.00027     0.00551    -0.03769    -0.00042     0.01819
 PZ  C  29   0.00431    -0.00180    -0.01607    -0.00645     0.00453     0.00356
  
  S  C  30   0.11092     0.00586     0.06455    -0.14419    -0.00873     0.10010
 PX  C  30   0.04482     0.00213     0.02391    -0.05974    -0.00220     0.02042
 PY  C  30   0.02883    -0.00089    -0.00762    -0.01317     0.00475     0.00832
 PZ  C  30  -0.00245    -0.00196    -0.02012     0.02442     0.00511    -0.00309
  
  S  C  31   0.28998     0.00516     0.06467    -0.26130     0.00853     0.08569
 PX  C  31   0.06908     0.00035     0.00655    -0.05638     0.00600    -0.03505
 PY  C  31   0.08662    -0.00223    -0.02006    -0.02208     0.01280    -0.01089
 PZ  C  31   0.02606    -0.00206    -0.02077     0.01913     0.00653     0.01463
  
  S  C  32   0.23208     0.00664     0.07772    -0.24575     0.00197    -0.00585
 PX  C  32  -0.03183    -0.00176    -0.01952     0.04563     0.00261    -0.04644
 PY  C  32   0.06169    -0.00225    -0.02024    -0.02195     0.01249    -0.04451
 PZ  C  32   0.06671    -0.00084    -0.00547    -0.04341     0.00859    -0.00711
  
  S  C  33   0.09103     0.01137     0.11554    -0.13754    -0.02483     0.04022
 PX  C  33  -0.02193    -0.00340    -0.03466     0.04063     0.00814    -0.02914
 PY  C  33   0.02222    -0.00226    -0.01936    -0.02599     0.00840    -0.01324
 PZ  C  33   0.03037    -0.00034    -0.00003    -0.04605     0.00378     0.00714
  
  S  C  34   0.25213     0.00088     0.01749    -0.15482     0.01657    -0.20205
 PX  C  34  -0.07888    -0.00090    -0.01299     0.07587    -0.00514    -0.05299
 PY  C  34   0.01640    -0.00143    -0.01544     0.03458     0.00209    -0.07604
 PZ  C  34   0.05922    -0.00060    -0.00454    -0.01788     0.00476    -0.02873
  
  S  C  35   0.10837    -0.00042    -0.00190    -0.03335     0.00727    -0.22221
 PX  C  35  -0.04196    -0.00009    -0.00229     0.02441    -0.00291     0.04423
 PY  C  35   0.01311    -0.00062    -0.00663     0.01493     0.00092    -0.05397
 PZ  C  35   0.03422    -0.00043    -0.00385    -0.00262     0.00243    -0.06754
  
  S  C  36   0.09025    -0.00138    -0.01368     0.01599     0.00464    -0.23777
 PX  C  36  -0.04244     0.00060     0.00579    -0.00457    -0.00219     0.09098
 PY  C  36  -0.01013    -0.00012    -0.00184     0.01379    -0.00167     0.02072
 PZ  C  36   0.01459    -0.00039    -0.00428     0.01195    -0.00002    -0.03183
  
  S  C  37   0.12637    -0.00307    -0.03351     0.09655    -0.00082    -0.26607
 PX  C  37  -0.04505     0.00117     0.01295    -0.04064     0.00129     0.05586
 PY  C  37  -0.02893     0.00014     0.00044     0.01687    -0.00359     0.06638
 PZ  C  37  -0.00120    -0.00040    -0.00516     0.02891    -0.00308     0.02770
  
  S  C  38   0.24303    -0.00558    -0.06046     0.17255    -0.00334    -0.24520
 PX  C  38  -0.04694     0.00088     0.00931    -0.02387     0.00099    -0.06730
 PY  C  38  -0.03649    -0.00064    -0.00975     0.07196    -0.00820     0.01414
 PZ  C  38  -0.00707    -0.00071    -0.00935     0.05380    -0.00572     0.05757
  
  S  C  39   0.37134    -0.00254    -0.01832    -0.08072     0.01921    -0.17050
 PX  C  39  -0.07392    -0.00005    -0.00321     0.04525    -0.00442    -0.11970
 PY  C  39  -0.05123    -0.00177    -0.02325     0.12076    -0.00884    -0.04097
 PZ  C  39   0.00729    -0.00132    -0.01569     0.06243    -0.00368     0.04155
  
  S  N  40   0.44741    -0.00153    -0.00340    -0.17502     0.02543     0.11010
 PX  N  40   0.07055    -0.00009     0.00140    -0.03904     0.00558    -0.05801
 PY  N  40  -0.00283    -0.00161    -0.01915     0.07376    -0.00322    -0.00629
 PZ  N  40  -0.01829    -0.00140    -0.01728     0.07477    -0.00446     0.04757
  
  S  C  41   0.25719    -0.00414    -0.04214     0.08485    -0.00001     0.28775
 PX  C  41   0.06399    -0.00066    -0.00564    -0.00833     0.00376    -0.05743
 PY  C  41  -0.00072    -0.00124    -0.01541     0.07381    -0.00576     0.00870
 PZ  C  41  -0.05780    -0.00042    -0.00760     0.06802    -0.00812     0.06308
  
  S  C  42   0.11184    -0.00208    -0.02233     0.06626    -0.00445     0.28916
 PX  C  42   0.03998    -0.00055    -0.00530     0.00588     0.00075     0.04201
 PY  C  42   0.02483    -0.00102    -0.01177     0.04451    -0.00308     0.08935
 PZ  C  42  -0.01722    -0.00035    -0.00505     0.03243    -0.00331     0.03587
  
  S  C  43   0.05987    -0.00199    -0.02305     0.09255    -0.00795     0.26880
 PX  C  43   0.02415    -0.00079    -0.00908     0.03515    -0.00279     0.08943
 PY  C  43   0.01040    -0.00053    -0.00628     0.02680    -0.00223     0.05048
 PZ  C  43  -0.01470     0.00032     0.00350    -0.01148     0.00083    -0.04427
  
  S  C  44   0.05894    -0.00236    -0.02772     0.11667    -0.01006     0.25833
 PX  C  44   0.01720    -0.00070    -0.00818     0.03407    -0.00277     0.05006
 PY  C  44  -0.00700     0.00018     0.00198    -0.00662     0.00053    -0.04414
 PZ  C  44  -0.02303     0.00084     0.00979    -0.03935     0.00319    -0.08727
  
  S  C  45   0.09909    -0.00400    -0.04701     0.19627    -0.01582     0.24040
 PX  C  45   0.01479    -0.00060    -0.00703     0.02863    -0.00186    -0.04291
 PY  C  45  -0.02004     0.00058     0.00657    -0.02312     0.00169    -0.09444
 PZ  C  45  -0.03251     0.00112     0.01290    -0.04933     0.00338    -0.04030
  
  S  C  46   0.20946    -0.00631    -0.07150     0.25795    -0.01627     0.21135
 PX  C  46   0.02124    -0.00055    -0.00610     0.01854    -0.00016    -0.10834
 PY  C  46  -0.02159    -0.00038    -0.00593     0.04535    -0.00499    -0.06765
 PZ  C  46  -0.04486     0.00046     0.00381     0.00845    -0.00318     0.04325
  
  S  C  47   0.21890    -0.00759    -0.08740     0.33567    -0.02157    -0.07559
 PX  C  47  -0.01140     0.00021     0.00215    -0.00537     0.00048    -0.06733
 PY  C  47  -0.03574     0.00016     0.00036     0.02286    -0.00411    -0.02050
 PZ  C  47  -0.02283     0.00019     0.00134     0.00930    -0.00252     0.04321
  
  S  C  48   0.10928    -0.00483    -0.05717     0.24481    -0.01866    -0.06780
 PX  C  48  -0.02536     0.00108     0.01274    -0.05392     0.00418    -0.01048
 PY  C  48  -0.01022     0.00013     0.00116     0.00186    -0.00093    -0.00294
 PZ  C  48  -0.03125     0.00115     0.01326    -0.05101     0.00308     0.03225
  
  S  C  49   0.05425    -0.00280    -0.03369     0.15367    -0.01293    -0.02988
 PX  C  49  -0.00412     0.00019     0.00225    -0.00978     0.00081    -0.00852
 PY  C  49  -0.01771     0.00085     0.01012    -0.04465     0.00358     0.00638
 PZ  C  49  -0.01616     0.00077     0.00919    -0.04029     0.00315     0.01452
  
  S  C  50   0.12559    -0.00505    -0.05914     0.24347    -0.01746    -0.07371
 PX  C  50   0.02142    -0.00093    -0.01095     0.04586    -0.00320    -0.03956
 PY  C  50  -0.04112     0.00121     0.01358    -0.04657     0.00236     0.00189
 PZ  C  50   0.01583    -0.00076    -0.00903     0.03966    -0.00323     0.01051
  
  S  C  51   0.06527    -0.00287    -0.03395     0.14466    -0.01069    -0.08484
 PX  C  51  -0.00690     0.00032     0.00377    -0.01654     0.00135    -0.00040
 PY  C  51  -0.02489     0.00094     0.01094    -0.04331     0.00280     0.02681
 PZ  C  51   0.01539    -0.00073    -0.00870     0.03809    -0.00298    -0.01269
  
  S  H  52   0.00005     0.05291    -0.00091     0.00324     0.05702     0.00098
  
  S  H  53   0.00000     0.00087     0.00053     0.00062     0.01821     0.00064
  
  S  H  54   0.00000     0.00063     0.00039     0.00047     0.01417     0.00051
  
  S  H  55   0.00000     0.00086     0.00054     0.00062     0.01820     0.00064
  
  S  H  56   0.00001     0.00183     0.00112     0.00123     0.03346     0.00111
  
  S  H  57   0.00001     0.00186     0.00111     0.00123     0.03344     0.00111
  
  S  H  58   0.00001     0.00364     0.00213     0.00218     0.05285     0.00160
  
  S  H  59   0.00001     0.00350     0.00217     0.00219     0.05281     0.00159
  
  S  H  60   0.00003     0.00602     0.00362     0.00343     0.07333     0.00198
  
  S  H  61   0.00002     0.00658     0.00351     0.00341     0.07360     0.00198
  
  S  H  62   0.00006     0.01325     0.00676     0.00591     0.10547     0.00237
  
  S  H  63   0.00008     0.01068     0.00781     0.00621     0.10578     0.00236
  
  S  H  64   0.00009     0.01365     0.00908     0.00717     0.11401     0.00226
  
  S  H  65   0.00008     0.02151     0.00815     0.00734     0.12201     0.00243
  
  S  H  66   0.00047     0.01207     0.02525     0.01252     0.10219     0.00136
  
  S  H  67   0.00002     0.23642    -0.03309    -0.00573    -0.05326    -0.00081
  
  S  H  68   0.00176     0.00788     0.04854     0.01439     0.02781     0.00233
  
  S  H  69   0.00590     0.00617     0.05276     0.00046    -0.00352     0.01096
  
  S  H  70   0.01640     0.00375     0.03649    -0.02905    -0.00780     0.02548
  
  S  H  71   0.03962     0.00132     0.01500    -0.03851    -0.00165     0.04749
  
  S  H  72   0.02594     0.00491     0.04804    -0.03410    -0.01170     0.00449
  
  S  H  73   0.02738     0.00016     0.00233    -0.01385     0.00153    -0.05859
  
  S  H  74   0.02066    -0.00035    -0.00361     0.00587     0.00100    -0.06527
  
  S  H  75   0.04178    -0.00138    -0.01571     0.05710    -0.00273    -0.08705
  
  S  H  76   0.04568    -0.00025    -0.00203    -0.00026    -0.00034     0.09203
  
  S  H  77   0.01405    -0.00046    -0.00535     0.02210    -0.00204     0.07339
  
  S  H  78   0.01386    -0.00061    -0.00718     0.03138    -0.00283     0.06945
  
  S  H  79   0.03816    -0.00173    -0.02060     0.08989    -0.00744     0.05846
  
  S  H  80   0.04583    -0.00195    -0.02297     0.09718    -0.00736    -0.01511
  
  S  H  81   0.04718    -0.00203    -0.02394     0.10101    -0.00738    -0.05181
  
  S  H  82   0.02518    -0.00130    -0.01560     0.07105    -0.00594    -0.01955
  
  S  H  83   0.02766    -0.00141    -0.01691     0.07688    -0.00651    -0.00155
  
  S  H  84   0.01638    -0.00088    -0.01065     0.04947    -0.00427    -0.01042
  
  S  H  85   0.05858    -0.00206    -0.02385     0.09319    -0.00622    -0.02158
  
  S  H  86   0.04769    -0.00209    -0.02475     0.10586    -0.00813    -0.01686
  
  S  H  87   0.01908    -0.00089    -0.01062     0.04645    -0.00359    -0.02631
  
  S  H  88   0.03146    -0.00142    -0.01691     0.07283    -0.00546    -0.04362
  
  S  H  89   0.03340    -0.00131    -0.01530     0.06214    -0.00418    -0.04918




    ROOT NO.    7           8           9          10          11          12

           -42.88962   -42.12368   -41.24802   -40.95950   -39.78165   -39.27970
  
  
  S  C   1   0.00527     0.20452     0.08097    -0.04584    -0.00887     0.06270
 PX  C   1   0.00194     0.07237     0.02725    -0.01515    -0.00270     0.01825
 PY  C   1   0.00053     0.01884     0.00659    -0.00356    -0.00053     0.00343
 PZ  C   1   0.00000     0.00007     0.00003    -0.00002     0.00003     0.00006
  
  S  C   2   0.00890     0.32586     0.11991    -0.06616    -0.01150     0.07649
 PX  C   2   0.00055     0.01034    -0.00083     0.00139     0.00092    -0.00901
 PY  C   2   0.00220     0.07480     0.02484    -0.01317    -0.00181     0.01080
 PZ  C   2   0.00000    -0.00001     0.00003    -0.00003     0.00012     0.00017
  
  S  C   3   0.01180     0.39052     0.12551    -0.06581    -0.00862     0.05080
 PX  C   3   0.00193     0.04459     0.00517    -0.00077     0.00134    -0.01363
 PY  C   3  -0.00099    -0.04741    -0.02184     0.01283     0.00295    -0.02001
 PZ  C   3   0.00002     0.00036     0.00029    -0.00019     0.00048     0.00079
  
  S  C   4   0.01318     0.36947     0.08932    -0.04100    -0.00213    -0.00473
 PX  C   4  -0.00099    -0.05889    -0.02964     0.01752     0.00278    -0.02351
 PY  C   4   0.00196     0.03310    -0.00225     0.00363     0.00244    -0.01728
 PZ  C   4  -0.00001    -0.00050     0.00054    -0.00045     0.00176     0.00244
  
  S  C   5   0.01302     0.26671     0.02395    -0.00166     0.01063    -0.05290
 PX  C   5   0.00078    -0.02715    -0.02685     0.01679     0.00425    -0.01792
 PY  C   5  -0.00200    -0.07601    -0.02380     0.01182     0.00461    -0.00070
 PZ  C   5   0.00009     0.00025     0.00285    -0.00215     0.00723     0.01030
  
  S  C   6   0.01075     0.12080    -0.04510     0.03669     0.01034    -0.06621
 PX  C   6  -0.00237    -0.06999    -0.01881     0.00861    -0.00578     0.00754
 PY  C   6   0.00067    -0.03576    -0.02617     0.01479     0.01106     0.00016
 PZ  C   6   0.00001     0.00161     0.00897    -0.00654     0.02004     0.02079
  
  S  C   7   0.00562    -0.09405    -0.09889     0.05512     0.07617     0.02939
 PX  C   7  -0.00182    -0.04752    -0.01367     0.00559    -0.00088     0.01418
 PY  C   7  -0.00302    -0.09215    -0.00687    -0.00439     0.05133     0.07228
 PZ  C   7   0.00026     0.00145     0.02622    -0.01904     0.05136     0.05471
  
  S  C   8   0.00403    -0.15564    -0.00267    -0.01382     0.14572     0.14711
 PX  C   8  -0.00127    -0.04422    -0.00472    -0.00134     0.02649     0.03396
 PY  C   8  -0.00156    -0.05133     0.03583    -0.02751     0.01951     0.04451
 PZ  C   8   0.00209     0.03967     0.04213    -0.02198    -0.03728    -0.02750
  
  S  C   9  -0.01101    -0.20359     0.06839    -0.06652     0.14337     0.18751
 PX  C   9  -0.00453     0.00858    -0.00805     0.00459    -0.00771    -0.00701
 PY  C   9  -0.00947     0.03167     0.05059    -0.03112    -0.03830    -0.02547
 PZ  C   9   0.00699     0.00369     0.06536    -0.03808    -0.01659    -0.00642
  
  S  S  10  -0.01382    -0.13159    -0.03669     0.00747     0.06600     0.08630
 PX  S  10   0.00266     0.04255     0.00934    -0.00102    -0.02954    -0.03206
 PY  S  10  -0.00716     0.05383     0.03418    -0.02031    -0.01013    -0.00837
 PZ  S  10  -0.00810    -0.04536     0.01222    -0.01601     0.05643     0.06707
  
  S  C  11   0.00144    -0.14335    -0.12550     0.07317    -0.03707    -0.03951
 PX  C  11  -0.00059     0.01020     0.01143    -0.00605    -0.01941     0.00020
 PY  C  11  -0.00255    -0.02358     0.01896    -0.01660     0.04943     0.05584
 PZ  C  11  -0.00119    -0.04059     0.00644    -0.01201     0.11272     0.10201
  
  S  C  12   0.00312    -0.06561    -0.12467     0.08696    -0.27560    -0.16504
 PX  C  12  -0.00097     0.01121     0.02988    -0.02099     0.04397     0.07633
 PY  C  12  -0.00001    -0.01421    -0.00826     0.00429     0.01654    -0.01937
 PZ  C  12   0.00040    -0.01468    -0.00600     0.00064     0.08146     0.00823
  
  S  C  13   0.00236    -0.03612    -0.09787     0.07197    -0.25699    -0.25277
 PX  C  13  -0.00005    -0.00569    -0.00633     0.00490    -0.08829     0.09890
 PY  C  13   0.00022    -0.00707    -0.01007     0.00666     0.00490    -0.05093
 PZ  C  13   0.00116    -0.01599    -0.03597     0.02498    -0.07413    -0.03844
  
  S  C  14  -0.00049     0.00228    -0.00125     0.00337    -0.12183     0.07573
 PX  C  14   0.00008    -0.00525    -0.01521     0.01368    -0.29877     0.26824
 PY  C  14   0.00038    -0.00491    -0.01232     0.00843     0.03364    -0.11424
 PZ  C  14   0.00113    -0.01594    -0.04619     0.03481    -0.20323    -0.02901
  
  S  O  15  -0.00062     0.00083    -0.00512     0.00866    -0.41938     0.42247
 PX  O  15   0.00031    -0.00204    -0.00312     0.00094     0.09366    -0.11251
 PY  O  15  -0.00004    -0.00081    -0.00333     0.00320    -0.06750     0.05211
 PZ  O  15   0.00022    -0.00376    -0.01144     0.00900    -0.07845     0.02162
  
  S  O  16  -0.00190     0.02758     0.07515    -0.05735     0.49261    -0.17917
 PX  O  16  -0.00052     0.00674     0.01820    -0.01346     0.07729     0.00538
 PY  O  16   0.00019    -0.00264    -0.00779     0.00586    -0.02806    -0.01741
 PZ  O  16   0.00000     0.00009    -0.00217     0.00186     0.00358    -0.03825
  
  S  C  17   0.00212    -0.01748    -0.07401     0.05543    -0.12163    -0.40899
 PX  C  17   0.00015    -0.01198    -0.01274     0.00801    -0.02291     0.04221
 PY  C  17  -0.00011    -0.00084     0.00053    -0.00022    -0.00481    -0.01505
 PZ  C  17   0.00053    -0.00407    -0.01300     0.00910    -0.03451    -0.00058
  
  S  N  18   0.00139    -0.00306    -0.04366     0.03409    -0.07436    -0.34003
 PX  N  18   0.00060    -0.00414    -0.02152     0.01642    -0.03419    -0.14865
 PY  N  18  -0.00031    -0.00086     0.00740    -0.00584     0.01033     0.05991
 PZ  N  18   0.00020     0.00044    -0.00302     0.00219    -0.00803    -0.00002
  
  S  C  19   0.00630    -0.15655     0.25841    -0.16758     0.01851     0.07311
 PX  C  19  -0.01158     0.00776    -0.01695     0.00751     0.00312     0.00344
 PY  C  19  -0.00757     0.02637     0.02559    -0.01156    -0.04302    -0.04913
 PZ  C  19   0.04095    -0.00793     0.08743    -0.03832    -0.04969    -0.05580
  
  S  C  20   0.07131    -0.12691     0.30251    -0.16856    -0.05289    -0.02453
 PX  C  20   0.00204    -0.00940     0.02284    -0.01352    -0.00387    -0.00081
 PY  C  20   0.03064    -0.01251     0.08287    -0.03807    -0.04517    -0.04865
 PZ  C  20   0.01047     0.03462    -0.04171     0.03244    -0.01800    -0.03391
  
  S  C  21   0.15580    -0.07598     0.27528    -0.11935    -0.10826    -0.11401
 PX  C  21   0.00875    -0.00548     0.02304    -0.01030    -0.01009    -0.01081
 PY  C  21   0.05492     0.00991     0.00376     0.01590    -0.01925    -0.03148
 PZ  C  21  -0.01005     0.03024    -0.09442     0.05283     0.02880     0.02371
  
  S  C  22   0.22976    -0.02844     0.19318    -0.04310    -0.11173    -0.14151
 PX  C  22  -0.01376     0.00678    -0.01402     0.00728     0.00218     0.00070
 PY  C  22   0.02768     0.03856    -0.10789     0.07191     0.03018     0.02069
 PZ  C  22   0.06191     0.00141    -0.02141     0.02359     0.01288     0.01200
  
  S  C  23  -0.02581     0.05064    -0.00338     0.01727    -0.05639    -0.08382
 PX  C  23  -0.03654     0.02166    -0.05574     0.02560     0.01515     0.01323
 PY  C  23  -0.01773     0.05245    -0.12594     0.07684     0.02188     0.00438
 PZ  C  23   0.13875    -0.04852     0.13270    -0.04411    -0.04485    -0.05008
  
  S  C  24  -0.13056    -0.00921     0.03047    -0.05008     0.01273     0.03897
 PX  C  24  -0.03186     0.02329    -0.05647     0.02674     0.01397     0.01193
 PY  C  24  -0.06426     0.07663    -0.12866     0.07082    -0.00131    -0.02298
 PZ  C  24   0.08153    -0.03819     0.13460    -0.05646    -0.05705    -0.06415
  
  S  N  25  -0.20070     0.06259    -0.16415     0.04815     0.06657     0.08513
 PX  N  25   0.01315     0.00049     0.00310     0.00197    -0.00488    -0.00802
 PY  N  25  -0.03611     0.03561    -0.06124     0.03196     0.00072    -0.00851
 PZ  N  25  -0.07703     0.02283    -0.05398     0.01397     0.02010     0.02633
  
  S  S  26  -0.13526     0.07636    -0.15832     0.06849     0.03019     0.02266
 PX  S  26   0.02814    -0.01575     0.03183    -0.01366    -0.00555    -0.00385
 PY  S  26   0.06689    -0.02857     0.06438    -0.02291    -0.01874    -0.02148
 PZ  S  26  -0.06542     0.04353    -0.08314     0.03951     0.00927     0.00041
  
  S  N  27  -0.11547     0.11221    -0.19392     0.10831     0.00448    -0.02933
 PX  N  27  -0.00155    -0.00447     0.00298    -0.00362     0.00398     0.00700
 PY  N  27   0.05740    -0.04447     0.07375    -0.03769    -0.00096     0.01053
 PZ  N  27   0.05427    -0.01256     0.03924    -0.00777    -0.01637    -0.02096
  
  S  C  28   0.37353     0.02503    -0.02896     0.09481    -0.00460    -0.02466
 PX  C  28  -0.01125     0.00376    -0.00451     0.00681    -0.00032    -0.00203
 PY  C  28   0.03590     0.01551    -0.07443     0.03810     0.04252     0.05235
 PZ  C  28   0.04112     0.00431    -0.04367     0.01926     0.03195     0.04239
  
  S  C  29   0.30808     0.02166    -0.06934     0.08093     0.03194     0.03032
 PX  C  29   0.09789     0.00812    -0.02305     0.02749     0.00892     0.00723
 PY  C  29   0.04161     0.00965    -0.04871     0.02121     0.02739     0.03444
 PZ  C  29  -0.02155     0.00149    -0.02084    -0.00100     0.01508     0.02170
  
  S  C  30   0.20025     0.02119    -0.10672     0.04157     0.05181     0.06268
 PX  C  30   0.06511     0.00772    -0.04029     0.00900     0.01772     0.02176
 PY  C  30  -0.05269    -0.00309    -0.00092    -0.03116    -0.00436    -0.00298
 PZ  C  30  -0.07980    -0.00724     0.02391    -0.02973    -0.01406    -0.01536
  
  S  C  31   0.05871     0.01183    -0.11552    -0.06596     0.03624     0.05112
 PX  C  31  -0.03289    -0.00218     0.00037    -0.01656    -0.00091     0.00172
 PY  C  31  -0.14998    -0.01406     0.02957    -0.09462    -0.03183    -0.03510
 PZ  C  31  -0.10109    -0.01020     0.02564    -0.06408    -0.02547    -0.02997
  
  S  C  32   0.12995     0.01860    -0.08491     0.06137     0.05459     0.07062
 PX  C  32  -0.05783    -0.00694     0.05105     0.02504    -0.01219    -0.01504
 PY  C  32  -0.12096    -0.01231     0.03831    -0.03917    -0.01657    -0.01511
 PZ  C  32  -0.06196    -0.00611     0.00153    -0.04592    -0.00614    -0.00323
  
  S  C  33   0.27277     0.03176    -0.08047     0.11486     0.03821     0.03523
 PX  C  33  -0.10261    -0.00962     0.03313    -0.02275    -0.01142    -0.01019
 PY  C  33  -0.03036    -0.00108    -0.01448     0.00317     0.01821     0.02784
 PZ  C  33   0.03811     0.00242    -0.02701     0.01348     0.02153     0.02958
  
  S  C  34  -0.06027    -0.00686     0.09815     0.16980     0.01829     0.02544
 PX  C  34   0.02370    -0.00070     0.05954     0.10975     0.00233    -0.00182
 PY  C  34  -0.03032    -0.00597     0.06249     0.06248    -0.00888    -0.01369
 PZ  C  34  -0.03854    -0.00444     0.01582    -0.01310    -0.00833    -0.00970
  
  S  C  35  -0.02206    -0.00670     0.15318     0.27073     0.01687     0.01715
 PX  C  35   0.01047     0.00133    -0.02127    -0.03694    -0.00367    -0.00502
 PY  C  35  -0.00702    -0.00261     0.04073     0.05809    -0.00089    -0.00307
 PZ  C  35  -0.01193    -0.00287     0.04474     0.06743     0.00138     0.00042
  
  S  C  36  -0.01104    -0.00724     0.16100     0.27342     0.01139     0.00795
 PX  C  36   0.00760     0.00296    -0.05595    -0.08965    -0.00258    -0.00118
 PY  C  36   0.01038     0.00141    -0.02249    -0.03579    -0.00182    -0.00205
 PZ  C  36   0.00298    -0.00058     0.01322     0.02088    -0.00010    -0.00105
  
  S  C  37   0.03337    -0.00352     0.11650     0.20695     0.00747     0.00265
 PX  C  37  -0.01338     0.00001    -0.00607    -0.00720     0.00214     0.00393
 PY  C  37   0.02400     0.00417    -0.06113    -0.08825    -0.00028     0.00179
 PZ  C  37   0.02131     0.00289    -0.04190    -0.06291    -0.00164    -0.00102
  
  S  C  38   0.02864    -0.00349     0.05921     0.06362    -0.01363    -0.02374
 PX  C  38   0.01434    -0.00014     0.04951     0.11542     0.01400     0.01645
 PY  C  38   0.06998     0.00727    -0.05518    -0.04289     0.00861     0.01169
 PZ  C  38   0.03438     0.00465    -0.06060    -0.08665    -0.00155    -0.00067
  
  S  C  39  -0.13890    -0.01567     0.07764    -0.00120    -0.02691    -0.03306
 PX  C  39   0.05602     0.00200     0.07157     0.17910     0.01959     0.02058
 PY  C  39   0.04884     0.00190     0.02141     0.04567    -0.00380    -0.01049
 PZ  C  39  -0.00140    -0.00033    -0.02097    -0.06678    -0.01529    -0.02135
  
  S  N  40  -0.23403    -0.01826    -0.03337    -0.26598    -0.05278    -0.05946
 PX  N  40  -0.02720    -0.00270     0.00030    -0.02552    -0.00453    -0.00356
 PY  N  40  -0.00819    -0.00234     0.01912    -0.00522    -0.01480    -0.02220
 PZ  N  40  -0.00955    -0.00186     0.01701    -0.00310    -0.01369    -0.02129
  
  S  C  41  -0.13839    -0.01134     0.06226    -0.00218    -0.02833    -0.03943
 PX  C  41  -0.02024    -0.00225    -0.03341    -0.10888    -0.01883    -0.02309
 PY  C  41   0.02762     0.00198     0.00809     0.03207     0.00314     0.00222
 PZ  C  41   0.03887     0.00344     0.04232     0.13512     0.02053     0.02383
  
  S  C  42  -0.07752    -0.00561     0.09742     0.15966     0.00692     0.00540
 PX  C  42  -0.02603    -0.00212     0.00434    -0.01712    -0.00719    -0.00956
 PY  C  42  -0.01893    -0.00155     0.03908     0.06780     0.00298     0.00221
 PZ  C  42   0.00799     0.00061     0.03046     0.07599     0.00944     0.01106
  
  S  C  43  -0.04562    -0.00314     0.11817     0.23674     0.02135     0.02378
 PX  C  43  -0.01551    -0.00107     0.03501     0.06691     0.00493     0.00500
 PY  C  43  -0.00472    -0.00026     0.02274     0.04867     0.00492     0.00568
 PZ  C  43   0.01093     0.00080    -0.01453    -0.02350    -0.00062    -0.00003
  
  S  C  44  -0.02660    -0.00134     0.10820     0.23464     0.02511     0.02939
 PX  C  44   0.00033     0.00029     0.01344     0.03344     0.00406     0.00472
 PY  C  44   0.01417     0.00122    -0.02441    -0.04163    -0.00204    -0.00166
 PZ  C  44   0.01182     0.00075    -0.03410    -0.06843    -0.00569    -0.00598
  
  S  C  45   0.01995     0.00314     0.05727     0.16495     0.02420     0.02927
 PX  C  45   0.02873     0.00258    -0.03932    -0.06291    -0.00306    -0.00301
 PY  C  45   0.02750     0.00231    -0.04691    -0.07886    -0.00323    -0.00220
 PZ  C  45  -0.00459    -0.00055    -0.00153    -0.00532     0.00049     0.00151
  
  S  C  46   0.00724     0.00120     0.01721     0.03175    -0.00346    -0.00784
 PX  C  46   0.03545     0.00259    -0.05657    -0.10442    -0.00860    -0.00980
 PY  C  46   0.07003     0.00641    -0.04672    -0.03018     0.01062     0.01535
 PZ  C  46   0.02060     0.00247     0.01994     0.08223     0.01776     0.02321
  
  S  C  47   0.14740     0.01212    -0.10501    -0.12616    -0.00130    -0.00214
 PX  C  47   0.01895     0.00092    -0.00001     0.01137     0.00341     0.00438
 PY  C  47   0.05490     0.00572    -0.03586    -0.00757     0.01451     0.02094
 PZ  C  47   0.01655     0.00258    -0.01289     0.00712     0.00940     0.01388
  
  S  C  48   0.15771     0.01455    -0.10942    -0.08548     0.01947     0.02917
 PX  C  48  -0.02660    -0.00273     0.02243     0.02138    -0.00251    -0.00383
 PY  C  48   0.01560     0.00188    -0.01542    -0.00845     0.00562     0.00893
 PZ  C  48  -0.02546    -0.00170     0.01276     0.01575     0.00155     0.00299
  
  S  C  49   0.11596     0.01159    -0.08934    -0.06369     0.02106     0.03271
 PX  C  49  -0.00298    -0.00037     0.00160    -0.00035    -0.00064    -0.00082
 PY  C  49  -0.02922    -0.00281     0.02053     0.01439    -0.00433    -0.00646
 PZ  C  49  -0.02835    -0.00262     0.02065     0.01754    -0.00315    -0.00467
  
  S  C  50   0.14256     0.01272    -0.10748    -0.11020     0.00824     0.01211
 PX  C  50   0.03438     0.00277    -0.02120    -0.01867     0.00251     0.00348
 PY  C  50  -0.00718    -0.00026     0.00559     0.01705     0.00482     0.00720
 PZ  C  50   0.02071     0.00217    -0.01626    -0.01258     0.00292     0.00439
  
  S  C  51   0.10453     0.00911    -0.07193    -0.06312     0.00964     0.01387
 PX  C  51  -0.01078    -0.00115     0.01249     0.01554    -0.00047    -0.00094
 PY  C  51  -0.02480    -0.00187     0.01350     0.01270    -0.00069    -0.00063
 PZ  C  51   0.02666     0.00250    -0.02083    -0.01939     0.00268     0.00407
  
  S  H  52   0.00099    -0.02230    -0.04241     0.02991    -0.11821    -0.03069
  
  S  H  53   0.00226     0.08751     0.03458    -0.01957    -0.00380     0.02670
  
  S  H  54   0.00183     0.07257     0.02942    -0.01679    -0.00337     0.02416
  
  S  H  55   0.00226     0.08747     0.03458    -0.01957    -0.00376     0.02676
  
  S  H  56   0.00372     0.13531     0.04943    -0.02721    -0.00463     0.03107
  
  S  H  57   0.00372     0.13524     0.04935    -0.02715    -0.00478     0.03084
  
  S  H  58   0.00496     0.16304     0.05191    -0.02713    -0.00378     0.02011
  
  S  H  59   0.00496     0.16304     0.05221    -0.02736    -0.00312     0.02131
  
  S  H  60   0.00553     0.15433     0.03742    -0.01723    -0.00022    -0.00060
  
  S  H  61   0.00552     0.15435     0.03656    -0.01658    -0.00243    -0.00355
  
  S  H  62   0.00546     0.10940     0.00686     0.00146    -0.00050    -0.03394
  
  S  H  63   0.00558     0.10902     0.01188    -0.00234     0.01066    -0.01453
  
  S  H  64   0.00448     0.05453    -0.01306     0.01156     0.00993    -0.01992
  
  S  H  65   0.00453     0.05272    -0.02408     0.01963    -0.01588    -0.04436
  
  S  H  66   0.00429    -0.03990     0.01627    -0.01380     0.04584     0.04479
  
  S  H  67  -0.00087     0.01225     0.03411    -0.02588     0.19353    -0.03678
  
  S  H  68   0.02220    -0.04952     0.09699    -0.05610    -0.00520     0.00668
  
  S  H  69   0.06701    -0.02191     0.08242    -0.03098    -0.03438    -0.03831
  
  S  H  70   0.10038     0.00315    -0.00393     0.01998     0.00061    -0.00235
  
  S  H  71   0.04197     0.00466    -0.02607     0.00900     0.01338     0.01654
  
  S  H  72   0.07908     0.01208    -0.01719     0.04510     0.00606     0.00162
  
  S  H  73  -0.00052    -0.00097     0.04161     0.08322     0.00725     0.00795
  
  S  H  74  -0.00081    -0.00184     0.04652     0.08196     0.00404     0.00314
  
  S  H  75   0.03262     0.00109     0.01773     0.04690     0.00445     0.00391
  
  S  H  76  -0.02215    -0.00126     0.01917     0.03451     0.00297     0.00314
  
  S  H  77  -0.01248    -0.00086     0.03454     0.07087     0.00700     0.00806
  
  S  H  78  -0.00543    -0.00018     0.03058     0.06965     0.00845     0.01031
  
  S  H  79   0.03360     0.00368    -0.00570     0.03020     0.01160     0.01565
  
  S  H  80   0.05745     0.00537    -0.03913    -0.02889     0.00747     0.01118
  
  S  H  81   0.06799     0.00582    -0.03995    -0.02637     0.00817     0.01179
  
  S  H  82   0.05512     0.00544    -0.04276    -0.03208     0.00945     0.01469
  
  S  H  83   0.05315     0.00542    -0.03917    -0.02376     0.01055     0.01614
  
  S  H  84   0.03975     0.00404    -0.03139    -0.02171     0.00804     0.01265
  
  S  H  85   0.04556     0.00397    -0.03662    -0.04404     0.00027     0.00048
  
  S  H  86   0.06493     0.00617    -0.04966    -0.04467     0.00659     0.00980
  
  S  H  87   0.03604     0.00327    -0.02676    -0.02376     0.00386     0.00571
  
  S  H  88   0.05403     0.00472    -0.03570    -0.02842     0.00587     0.00847
  
  S  H  89   0.04240     0.00331    -0.02225    -0.01573     0.00349     0.00455




    ROOT NO.   13          14          15          16          17          18

           -38.64733   -37.69436   -36.92275   -36.25678   -35.67012   -35.11465
  
  
  S  C   1  -0.27853    -0.15933    -0.08088     0.01136     0.01736     0.06006
 PX  C   1  -0.07637    -0.03925    -0.01792     0.00220     0.00304     0.00917
 PY  C   1  -0.01270    -0.00490    -0.00143     0.00020    -0.00005    -0.00081
 PZ  C   1  -0.00003    -0.00004    -0.00002     0.00002     0.00000     0.00001
  
  S  C   2  -0.31550    -0.15939    -0.07218     0.00854     0.01226     0.03759
 PX  C   2   0.05170     0.03920     0.02362    -0.00408    -0.00636    -0.02368
 PY  C   2  -0.03599    -0.01022    -0.00094    -0.00017    -0.00119    -0.00627
 PZ  C   2   0.00023     0.00004     0.00003     0.00006     0.00000    -0.00002
  
  S  C   3  -0.16629    -0.04714    -0.00574    -0.00009    -0.00408    -0.02161
 PX  C   3   0.07994     0.05910     0.03393    -0.00527    -0.00805    -0.02802
 PY  C   3   0.08903     0.05026     0.02472    -0.00186    -0.00438    -0.01390
 PZ  C   3   0.00055    -0.00006     0.00001     0.00017     0.00002    -0.00001
  
  S  C   4   0.10074     0.10616     0.06647    -0.01484    -0.01728    -0.05941
 PX  C   4   0.09727     0.04188     0.01318    -0.00482    -0.00053     0.00368
 PY  C   4   0.08691     0.05130     0.02454    -0.00180    -0.00363    -0.00966
 PZ  C   4   0.00166    -0.00036     0.00004     0.00125     0.00019     0.00038
  
  S  C   5   0.29975     0.17169     0.07930    -0.00622    -0.01094    -0.02753
 PX  C   5   0.07975     0.01530    -0.00654    -0.00536     0.00413     0.02071
 PY  C   5  -0.01325    -0.02780    -0.01845     0.01251     0.00682     0.02269
 PZ  C   5   0.00718    -0.00127     0.00006     0.00397     0.00062     0.00109
  
  S  C   6   0.31775     0.10530     0.01267    -0.02863     0.00317     0.03057
 PX  C   6  -0.06844    -0.05706    -0.03581    -0.00983     0.00467     0.01576
 PY  C   6   0.01595    -0.02858    -0.02316     0.01050     0.00734     0.02389
 PZ  C   6   0.01183     0.00146     0.00824     0.02717     0.00261     0.00390
  
  S  C   7   0.11203    -0.09316    -0.06945     0.05396     0.02330     0.07001
 PX  C   7  -0.06997    -0.05210    -0.02743    -0.01064     0.00067     0.00020
 PY  C   7  -0.11595    -0.08671    -0.01620     0.06882     0.00707     0.00241
 PZ  C   7   0.02552     0.01050     0.02888     0.07595     0.00616     0.00632
  
  S  C   8  -0.01998    -0.06799     0.01098     0.15632     0.01944     0.02456
 PX  C   8  -0.03922    -0.03223    -0.00512     0.02453     0.00211     0.00005
 PY  C   8  -0.08979     0.00674     0.02990     0.01075    -0.00710    -0.03211
 PZ  C   8  -0.00245     0.06396     0.02995    -0.04151    -0.00888    -0.02415
  
  S  C   9  -0.16072     0.01186     0.09207     0.08912    -0.01287    -0.06106
 PX  C   9  -0.00533     0.00181     0.00066    -0.01811    -0.00468    -0.00620
 PY  C   9  -0.01536     0.10508     0.05845    -0.08677    -0.02367    -0.04903
 PZ  C   9   0.00002     0.07631     0.03875    -0.02835    -0.00573    -0.02166
  
  S  S  10  -0.12184    -0.07738    -0.00477     0.02161    -0.00744    -0.02227
 PX  S  10   0.03183     0.02650     0.00002    -0.02588    -0.00088     0.00145
 PY  S  10   0.02860     0.08111     0.05346    -0.01696    -0.01188    -0.02414
 PZ  S  10  -0.03532     0.00161     0.03476     0.04517    -0.00447    -0.01663
  
  S  C  11  -0.08445    -0.14826    -0.12112    -0.09667     0.00405     0.02285
 PX  C  11  -0.01859     0.00547    -0.00057    -0.02972    -0.00494    -0.01278
 PY  C  11  -0.04175    -0.02089     0.01845     0.06842     0.00303    -0.00415
 PZ  C  11   0.02981    -0.04679     0.00759     0.13178     0.01628     0.03231
  
  S  C  12  -0.12209    -0.03988    -0.10835    -0.31138    -0.02706    -0.04614
 PX  C  12   0.03205    -0.00265     0.01547     0.06010     0.00575     0.01007
 PY  C  12  -0.02203    -0.01878    -0.01289    -0.00657     0.00072     0.00218
 PZ  C  12   0.02734    -0.03908    -0.02451     0.02741     0.00898     0.02707
  
  S  C  13  -0.16662     0.03450    -0.03455    -0.24037    -0.02984    -0.06670
 PX  C  13   0.02639    -0.02196    -0.03154    -0.07215    -0.00581    -0.00977
 PY  C  13  -0.02756     0.00115     0.00090     0.00142     0.00019     0.00042
 PZ  C  13  -0.01977    -0.01199    -0.03020    -0.07329    -0.00488    -0.00469
  
  S  C  14   0.00105     0.01444     0.01118    -0.00723    -0.00354    -0.01171
 PX  C  14   0.05606     0.02121     0.04693     0.13396     0.01252     0.02411
 PY  C  14  -0.04561     0.00128    -0.01785    -0.08066    -0.00931    -0.02056
 PZ  C  14  -0.05577     0.02482     0.00011    -0.07447    -0.01124    -0.02760
  
  S  O  15   0.09429     0.03513     0.07891     0.22040     0.01991     0.03675
 PX  O  15  -0.02869    -0.00653    -0.01784    -0.05257    -0.00483    -0.00894
 PY  O  15   0.00773     0.00546     0.00814     0.01586     0.00095     0.00091
 PZ  O  15  -0.00748     0.00761     0.00310    -0.01132    -0.00229    -0.00623
  
  S  O  16   0.02264    -0.05384    -0.05525    -0.07533    -0.00248     0.00161
 PX  O  16   0.01805    -0.01051    -0.00544     0.00684     0.00182     0.00506
 PY  O  16  -0.01502     0.00689     0.00283    -0.01005    -0.00208    -0.00583
 PZ  O  16  -0.01937     0.00739     0.00183    -0.01882    -0.00345    -0.00960
  
  S  C  17  -0.22512     0.13961     0.14964     0.23938     0.01284     0.01204
 PX  C  17   0.02370    -0.06798    -0.11850    -0.30712    -0.02725    -0.05034
 PY  C  17  -0.01690     0.02290     0.04352     0.11686     0.01059     0.01974
 PZ  C  17   0.00071    -0.00213    -0.00669    -0.01341    -0.00047     0.00096
  
  S  N  18  -0.19129     0.16783     0.22490     0.47544     0.03614     0.05835
 PX  N  18  -0.08402     0.06444     0.08268     0.16656     0.01207     0.01848
 PY  N  18   0.03027    -0.02750    -0.03415    -0.06739    -0.00479    -0.00725
 PZ  N  18   0.00240     0.00020    -0.00153    -0.00381    -0.00018     0.00016
  
  S  C  19  -0.11793     0.20726     0.12999    -0.08196    -0.02617    -0.08011
 PX  C  19  -0.00514     0.00415     0.00875    -0.00942    -0.00583    -0.00880
 PY  C  19   0.02996     0.02629    -0.01585    -0.05439    -0.00165     0.01354
 PZ  C  19   0.04421     0.00399    -0.05023    -0.01013     0.02210     0.04492
  
  S  C  20  -0.01935     0.13256     0.01783    -0.06266     0.01014     0.01475
 PX  C  20  -0.00448     0.01454     0.00385    -0.00815    -0.00007    -0.00378
 PY  C  20   0.02994     0.00447    -0.03490    -0.02496     0.00833     0.02835
 PZ  C  20   0.04089    -0.05829    -0.04492     0.01386     0.00742     0.03439
  
  S  C  21   0.07904    -0.02856    -0.08008    -0.01627     0.01512     0.07019
 PX  C  21   0.00744    -0.00200    -0.01304     0.00144     0.00513     0.00260
 PY  C  21   0.03715    -0.07839    -0.03362     0.03468    -0.00167     0.00673
 PZ  C  21  -0.00651    -0.03846     0.01810     0.02221    -0.01288    -0.01523
  
  S  C  22   0.13318    -0.18658    -0.14536     0.08741     0.02628     0.04569
 PX  C  22   0.00188    -0.00410    -0.01810     0.01453     0.01218    -0.00787
 PY  C  22   0.00370    -0.07558     0.00153     0.05830    -0.00459    -0.04060
 PZ  C  22  -0.00514    -0.02747     0.03877     0.00148    -0.02780    -0.03004
  
  S  C  23   0.09192    -0.12180    -0.14197     0.08354     0.05435     0.07471
 PX  C  23  -0.00516    -0.00586     0.00155     0.01001     0.00238    -0.00046
 PY  C  23   0.02708    -0.10717    -0.05321     0.09105     0.02285     0.01816
 PZ  C  23   0.04078    -0.05427    -0.05377     0.03242     0.01282     0.00009
  
  S  C  24  -0.06991     0.16038     0.11003    -0.11735    -0.04009    -0.05820
 PX  C  24  -0.00516    -0.00408     0.01264    -0.00184    -0.00727    -0.00708
 PY  C  24   0.04465    -0.07449    -0.05399     0.03485     0.01584     0.04677
 PZ  C  24   0.05212    -0.03556    -0.08992     0.03173     0.04096     0.05849
  
  S  N  25  -0.08804     0.13213     0.16136    -0.11611    -0.07188    -0.08913
 PX  N  25   0.01042    -0.01670    -0.01621     0.01226     0.00645     0.01034
 PY  N  25   0.01839    -0.02825    -0.02174     0.01272     0.00724     0.02480
 PZ  N  25  -0.02867     0.04736     0.04945    -0.03927    -0.02036    -0.02501
  
  S  S  26  -0.00479    -0.00991     0.01275     0.00223    -0.00486     0.01367
 PX  S  26   0.00030     0.00264    -0.00124    -0.00095     0.00032    -0.00382
 PY  S  26   0.02010    -0.03288    -0.04352     0.03518     0.02129     0.02126
 PZ  S  26   0.01307    -0.03419    -0.02656     0.02963     0.01425     0.02861
  
  S  N  27   0.07114    -0.16140    -0.13161     0.13567     0.06033     0.08374
 PX  N  27  -0.00910     0.01681     0.01403    -0.01214    -0.00517    -0.00719
 PY  N  27  -0.02349     0.04719     0.03947    -0.03554    -0.01706    -0.02919
 PZ  N  27   0.02106    -0.03726    -0.03524     0.03018     0.01238    -0.00348
  
  S  C  28   0.04709    -0.16688     0.02613     0.06501    -0.03937    -0.08830
 PX  C  28   0.00387     0.00233    -0.05467     0.03391     0.03301    -0.04916
 PY  C  28  -0.04837     0.06423     0.05767    -0.02997    -0.00733    -0.05255
 PZ  C  28  -0.04327     0.05870     0.08714    -0.05515    -0.03107    -0.01433
  
  S  C  29  -0.01639    -0.06451     0.19556    -0.06428    -0.10509     0.03859
 PX  C  29  -0.00208    -0.01650     0.01230     0.00922    -0.00696    -0.04592
 PY  C  29  -0.03295     0.04167     0.06755    -0.04128    -0.01717     0.01690
 PZ  C  29  -0.02418     0.04271     0.04727    -0.03999    -0.01072     0.04128
  
  S  C  30  -0.05657     0.02865     0.24496    -0.13353    -0.09073     0.18873
 PX  C  30  -0.02059     0.03020     0.02242    -0.01632    -0.00287    -0.01011
 PY  C  30  -0.00032     0.01884    -0.02424    -0.00157     0.02254     0.05073
 PZ  C  30   0.01202    -0.00386    -0.02941     0.00676     0.01861     0.05053
  
  S  C  31  -0.05715     0.12552     0.03129    -0.07035     0.01956     0.15202
 PX  C  31  -0.00713     0.06772    -0.13973     0.04895     0.06437    -0.10768
 PY  C  31   0.02792    -0.00332    -0.10603     0.03947     0.04145     0.03873
 PZ  C  31   0.02771    -0.04744     0.00312     0.00179    -0.00921     0.09740
  
  S  C  32  -0.07521     0.20204    -0.14697     0.01997     0.10289    -0.15572
 PX  C  32   0.01324    -0.00133    -0.06914     0.03434     0.02365    -0.04485
 PY  C  32   0.00594     0.04711    -0.10275     0.01858     0.04276     0.03756
 PZ  C  32  -0.00311     0.03760    -0.03791    -0.00688     0.01695     0.05740
  
  S  C  33  -0.01924    -0.00123    -0.04109     0.05951     0.03279    -0.20125
 PX  C  33   0.00417     0.02439    -0.04903     0.00774     0.02415     0.01168
 PY  C  33  -0.03415     0.09021    -0.01854    -0.02160     0.02438    -0.02669
 PZ  C  33  -0.03238     0.06368     0.02045    -0.02806     0.00183    -0.03053
  
  S  C  34  -0.03384     0.15211    -0.20281     0.04780     0.08034    -0.09062
 PX  C  34   0.00766    -0.05155     0.07232    -0.01417    -0.05151     0.02825
 PY  C  34   0.01675    -0.05552     0.05174    -0.00859    -0.04186     0.03859
 PZ  C  34   0.00870    -0.01352    -0.00190     0.00197    -0.00905     0.01543
  
  S  C  35  -0.01616     0.04752    -0.04801     0.00916    -0.01645     0.01334
 PX  C  35   0.00671    -0.03208     0.04772    -0.01363    -0.02398     0.03914
 PY  C  35   0.00542    -0.02901     0.04576    -0.01462    -0.03140     0.04953
 PZ  C  35   0.00046    -0.00454     0.00850    -0.00341    -0.01468     0.01754
  
  S  C  36  -0.00241    -0.02543     0.07209    -0.03049    -0.06705     0.12822
 PX  C  36  -0.00054     0.00910    -0.01617     0.00476     0.01180    -0.01116
 PY  C  36   0.00258    -0.01449     0.02747    -0.01055     0.00543     0.02224
 PZ  C  36   0.00236    -0.01580     0.02798    -0.00918    -0.01227     0.02313
  
  S  C  37   0.00529    -0.06897     0.14451    -0.05261    -0.05114     0.13988
 PX  C  37  -0.00604     0.02870    -0.03497     0.00530    -0.00915     0.03091
 PY  C  37  -0.00369     0.01573    -0.01160    -0.00311     0.04614     0.00456
 PZ  C  37   0.00050    -0.00062    -0.00121     0.00243    -0.00587    -0.01362
  
  S  C  38   0.03452    -0.15199     0.17219    -0.02042    -0.07004    -0.07632
 PX  C  38  -0.01688     0.04018    -0.00021    -0.02197    -0.01110     0.12574
 PY  C  38  -0.01228     0.02294     0.01740    -0.02244     0.06346     0.03896
 PZ  C  38   0.00019     0.00014    -0.00680     0.00891    -0.03801    -0.03144
  
  S  C  39   0.03194    -0.05398    -0.03410     0.03932    -0.02033    -0.10576
 PX  C  39  -0.01748     0.02371     0.01920    -0.01497    -0.01083     0.01034
 PY  C  39   0.01977    -0.10807     0.13904    -0.02075    -0.05608    -0.04125
 PZ  C  39   0.02678    -0.09987     0.09407    -0.00398    -0.06431    -0.03221
  
  S  N  40   0.05430    -0.10222     0.02275     0.00713    -0.03594     0.13026
 PX  N  40  -0.00010     0.03437    -0.09137     0.03777     0.02578    -0.11297
 PY  N  40   0.02835    -0.09480     0.05385     0.02063    -0.04612    -0.12038
 PZ  N  40   0.02868    -0.11284     0.11036    -0.00761    -0.06894    -0.00556
  
  S  C  41   0.04706    -0.15882     0.14390    -0.01439    -0.06804     0.04750
 PX  C  41   0.02443    -0.06227     0.01310     0.02591    -0.06394    -0.10298
 PY  C  41  -0.00032    -0.00182    -0.02487     0.02854    -0.01486    -0.17364
 PZ  C  41  -0.02371     0.06104    -0.04259     0.00404     0.03227    -0.05128
  
  S  C  42  -0.00231    -0.02197     0.09356    -0.05891     0.06537     0.23550
 PX  C  42   0.01102    -0.03539     0.02817     0.00020    -0.03158     0.00372
 PY  C  42  -0.00118     0.00312    -0.01149     0.00683     0.01970    -0.03256
 PZ  C  42  -0.01167     0.03802    -0.04077     0.00745     0.04498    -0.03399
  
  S  C  43  -0.02368     0.06024    -0.01379    -0.03021     0.13573     0.11925
 PX  C  43  -0.00438     0.00920    -0.00248    -0.00274     0.01660     0.00535
 PY  C  43  -0.00611     0.02276    -0.03194     0.01028     0.01595    -0.04474
 PZ  C  43  -0.00097     0.01096    -0.02625     0.01217    -0.00445    -0.04434
  
  S  C  44  -0.03141     0.10196    -0.09650     0.00851     0.09442    -0.02396
 PX  C  44  -0.00497     0.01764    -0.02626     0.01133    -0.01831    -0.04154
 PY  C  44   0.00087     0.00385    -0.01890     0.01293    -0.03789    -0.04166
 PZ  C  44   0.00549    -0.01310     0.00765     0.00091    -0.02062     0.00641
  
  S  C  45  -0.03205     0.11339    -0.14551     0.04725    -0.03905    -0.15376
 PX  C  45   0.00278    -0.00536    -0.00867     0.01334    -0.07105    -0.03220
 PY  C  45   0.00057     0.00571    -0.01144     0.00322    -0.02879     0.01988
 PZ  C  45  -0.00295     0.01449    -0.00957    -0.00656     0.01547     0.05971
  
  S  C  46   0.01277    -0.04590    -0.00682     0.04959    -0.12053    -0.26797
 PX  C  46   0.01030    -0.03066     0.01740     0.00839    -0.06288    -0.03333
 PY  C  46  -0.01869     0.06459    -0.06315     0.01105     0.00203    -0.03990
 PZ  C  46  -0.02705     0.09291    -0.08763     0.00951    -0.00711     0.02531
  
  S  C  47   0.00522    -0.03501     0.03308     0.01308    -0.05786    -0.15307
 PX  C  47  -0.00471     0.00895     0.01344    -0.01577    -0.03577     0.11791
 PY  C  47  -0.02586     0.08674    -0.05431    -0.01966     0.11837     0.10769
 PZ  C  47  -0.01835     0.07948    -0.10781     0.03232    -0.14356     0.03667
  
  S  C  48  -0.03728     0.14499    -0.16542     0.03597    -0.26312     0.19109
 PX  C  48   0.00486    -0.02014     0.03121    -0.01305     0.01709     0.04740
 PY  C  48  -0.01244     0.05273    -0.05312    -0.00026     0.00888     0.09864
 PZ  C  48  -0.00545     0.03428    -0.05561     0.01523    -0.05255     0.04529
  
  S  C  49  -0.04427     0.18816    -0.22185     0.03809    -0.21245     0.27834
 PX  C  49   0.00087    -0.00303     0.00536    -0.00296    -0.01396     0.03325
 PY  C  49   0.00831    -0.03341     0.04151    -0.01142     0.06599    -0.02698
 PZ  C  49   0.00570    -0.01844     0.01175     0.00304    -0.01227    -0.02325
  
  S  C  50  -0.01300     0.01970     0.04821    -0.05369     0.38242    -0.02806
 PX  C  50  -0.00366     0.00442     0.01907    -0.01852     0.06468     0.04793
 PY  C  50  -0.00962     0.03583    -0.01941    -0.01604     0.08633     0.09269
 PZ  C  50  -0.00578     0.02691    -0.04734     0.02259    -0.10467    -0.01965
  
  S  C  51  -0.01548     0.02612     0.06929    -0.08334     0.47164     0.11729
 PX  C  51   0.00123    -0.00278    -0.00408     0.00663    -0.06869     0.01464
 PY  C  51  -0.00012     0.00879    -0.02434     0.01152    -0.04824     0.00554
 PZ  C  51  -0.00503     0.01613    -0.00881    -0.00445     0.02894     0.01778
  
  S  H  52  -0.03627    -0.01524    -0.03934    -0.11297    -0.00990    -0.01710
  
  S  H  53  -0.11887    -0.06808    -0.03462     0.00493     0.00749     0.02600
  
  S  H  54  -0.10952    -0.06473    -0.03380     0.00482     0.00761     0.02693
  
  S  H  55  -0.11879    -0.06808    -0.03463     0.00494     0.00749     0.02600
  
  S  H  56  -0.12677    -0.06350    -0.02856     0.00318     0.00475     0.01444
  
  S  H  57  -0.12693    -0.06349    -0.02857     0.00309     0.00474     0.01443
  
  S  H  58  -0.06845    -0.01910    -0.00215     0.00071    -0.00153    -0.00835
  
  S  H  59  -0.06792    -0.01948    -0.00238     0.00078    -0.00147    -0.00823
  
  S  H  60   0.04240     0.04293     0.02650    -0.00672    -0.00696    -0.02373
  
  S  H  61   0.04045     0.04320     0.02622    -0.00861    -0.00721    -0.02415
  
  S  H  62   0.11244     0.07219     0.03621     0.00673    -0.00372    -0.01005
  
  S  H  63   0.12326     0.06787     0.03343     0.00629    -0.00333    -0.00951
  
  S  H  64   0.13604     0.04701     0.00956    -0.00523     0.00154     0.01228
  
  S  H  65   0.12218     0.04559    -0.00036    -0.03884    -0.00173     0.00716
  
  S  H  66   0.01514     0.00534     0.01681     0.05034     0.00622     0.00609
  
  S  H  67   0.02514    -0.02540    -0.02048    -0.00986     0.00194     0.00802
  
  S  H  68  -0.01449     0.04792     0.01620    -0.01141     0.00286     0.00140
  
  S  H  69   0.02994    -0.02549    -0.02164    -0.00141    -0.00136     0.02539
  
  S  H  70   0.00629    -0.04130     0.06305    -0.01893    -0.04138     0.03061
  
  S  H  71  -0.01504    -0.00123     0.10555    -0.05937    -0.03472     0.12853
  
  S  H  72   0.00534    -0.01643    -0.04995     0.04463     0.02600    -0.08029
  
  S  H  73  -0.00789     0.02464    -0.02786     0.00707     0.00083    -0.00618
  
  S  H  74  -0.00140    -0.00765     0.02686    -0.01265    -0.02400     0.05677
  
  S  H  75  -0.00176    -0.01505     0.05309    -0.02601    -0.00710     0.08566
  
  S  H  76  -0.00217    -0.01290     0.06673    -0.04101     0.01437     0.15376
  
  S  H  77  -0.00833     0.02170    -0.00247    -0.01380     0.05383     0.05829
  
  S  H  78  -0.01157     0.04040    -0.04080     0.00420     0.03427    -0.00637
  
  S  H  79  -0.01896     0.07446    -0.09607     0.02771    -0.05247    -0.03827
  
  S  H  80  -0.01444     0.05949    -0.07801     0.02370    -0.14899     0.06253
  
  S  H  81  -0.01446     0.05090    -0.04631     0.00403    -0.10339     0.11914
  
  S  H  82  -0.01976     0.08146    -0.08792     0.00869    -0.05039     0.13416
  
  S  H  83  -0.02166     0.09233    -0.11267     0.02250    -0.09665     0.10141
  
  S  H  84  -0.01747     0.07692    -0.09393     0.01712    -0.10329     0.12981
  
  S  H  85   0.00030    -0.01231     0.03792    -0.02247     0.17297    -0.04558
  
  S  H  86  -0.01182     0.03605    -0.01493    -0.01486     0.14461     0.00003
  
  S  H  87  -0.00668     0.01377     0.02442    -0.03477     0.21010     0.05145
  
  S  H  88  -0.00983     0.02303     0.01917    -0.03576     0.18613     0.08113
  
  S  H  89  -0.00435    -0.00077     0.04728    -0.04052     0.20683     0.05157




    ROOT NO.   19          20          21          22          23          24

           -34.02298   -33.26097   -32.89916   -32.73830   -31.92806   -31.00143
  
  
  S  C   1   0.33338    -0.10139     0.01636     0.11614    -0.10867    -0.02830
 PX  C   1   0.03446    -0.00651     0.00073     0.00410     0.00163     0.00212
 PY  C   1  -0.01152     0.00499    -0.00093    -0.00698     0.00811     0.00297
 PZ  C   1   0.00002    -0.00005     0.00000     0.00002    -0.00014     0.00016
  
  S  C   2   0.15454    -0.03504     0.00475     0.03086    -0.01434    -0.00047
 PX  C   2  -0.14839     0.04839    -0.00801    -0.05751     0.05683     0.01477
 PY  C   2  -0.05699     0.02160    -0.00380    -0.02799     0.03000     0.00943
 PZ  C   2  -0.00019    -0.00010     0.00000    -0.00000    -0.00039     0.00049
  
  S  C   3  -0.18927     0.06885    -0.01190    -0.08678     0.08819     0.02670
 PX  C   3  -0.14866     0.04167    -0.00634    -0.04372     0.03375     0.00552
 PY  C   3  -0.05840     0.01229    -0.00160    -0.01008     0.00104     0.00022
 PZ  C   3  -0.00035    -0.00045     0.00003     0.00010    -0.00135     0.00148
  
  S  C   4  -0.30326     0.08253    -0.01218    -0.08268     0.06141     0.00478
 PX  C   4   0.07662    -0.03314     0.00619     0.04642    -0.05005    -0.01927
 PY  C   4  -0.01504    -0.00517     0.00150     0.01282    -0.02420    -0.00627
 PZ  C   4   0.00085    -0.00182     0.00016     0.00087    -0.00435     0.00400
  
  S  C   5  -0.03013    -0.01789     0.00471     0.03900    -0.06658    -0.01360
 PX  C   5   0.15872    -0.04968     0.00825     0.05872    -0.04634    -0.01392
 PY  C   5   0.11098    -0.03105     0.00427     0.02804    -0.02440     0.00878
 PZ  C   5   0.00167    -0.00633     0.00052     0.00260    -0.01432     0.01312
  
  S  C   6   0.29578    -0.08637     0.01527     0.11038    -0.06803    -0.04313
 PX  C   6   0.04638     0.00687    -0.00161    -0.01375     0.04569    -0.00586
 PY  C   6   0.09011    -0.01161     0.00103     0.00418     0.00988     0.01502
 PZ  C   6   0.00168    -0.01199     0.00103     0.00542    -0.03423     0.03082
  
  S  C   7   0.20789     0.00677    -0.00150    -0.01498     0.06017     0.02747
 PX  C   7  -0.05430     0.05047    -0.00686    -0.04642     0.08331    -0.02627
 PY  C   7  -0.14986     0.06266    -0.01043    -0.07452     0.03441     0.04957
 PZ  C   7  -0.00767    -0.04589     0.00404     0.02218    -0.11617     0.08998
  
  S  C   8  -0.04613    -0.09711     0.00381     0.00324    -0.16990     0.16438
 PX  C   8  -0.04539     0.02280    -0.00292    -0.01859     0.01431    -0.00138
 PY  C   8  -0.13340    -0.02252     0.00108     0.00520    -0.04769    -0.01070
 PZ  C   8  -0.01741    -0.07229     0.00644     0.03589    -0.06089    -0.00192
  
  S  C   9  -0.20046    -0.04418     0.00874     0.07203    -0.17585    -0.01641
 PX  C   9   0.00593     0.05064    -0.00154     0.00244     0.03925    -0.04379
 PY  C   9   0.02261     0.00113     0.00864     0.08178    -0.01261    -0.11971
 PZ  C   9  -0.00125    -0.13393     0.01001     0.05007    -0.09030     0.00608
  
  S  S  10  -0.13038     0.15378    -0.00943    -0.03497     0.08995    -0.08367
 PX  S  10   0.03698    -0.03059     0.00222     0.00979    -0.00455     0.00179
 PY  S  10   0.04132    -0.03195     0.00944     0.07555    -0.09871     0.00063
 PZ  S  10  -0.04537     0.02533     0.00227     0.03045    -0.05943    -0.00425
  
  S  C  11  -0.00259     0.12428    -0.01601    -0.10791     0.26798    -0.11072
 PX  C  11  -0.03901     0.00690    -0.00102    -0.00659     0.01968    -0.02560
 PY  C  11  -0.09584     0.03625    -0.00414    -0.02481    -0.01566     0.02671
 PZ  C  11   0.01860     0.02920    -0.00327    -0.02089    -0.00877     0.05249
  
  S  C  12  -0.05610    -0.00169    -0.00132    -0.01260     0.07679    -0.07406
 PX  C  12   0.00354     0.01376    -0.00163    -0.01066     0.02237    -0.00976
 PY  C  12  -0.01475     0.02604    -0.00358    -0.02453     0.05753    -0.02718
 PZ  C  12   0.06074     0.05907    -0.00711    -0.04748     0.16979    -0.09414
  
  S  C  13  -0.11695    -0.08892     0.00985     0.06368    -0.21928     0.11799
 PX  C  13  -0.01319    -0.00142    -0.00012    -0.00154     0.01220    -0.01530
 PY  C  13  -0.00438     0.00966    -0.00140    -0.00982     0.02920    -0.01778
 PZ  C  13   0.01153     0.01523    -0.00219    -0.01575     0.08636    -0.06867
  
  S  C  14  -0.03097    -0.03031     0.00371     0.02505    -0.10380     0.06944
 PX  C  14   0.03637     0.02825    -0.00319    -0.02080     0.07418    -0.04398
 PY  C  14  -0.03812    -0.02853     0.00322     0.02104    -0.07892     0.04667
 PZ  C  14  -0.05354    -0.04579     0.00529     0.03479    -0.12591     0.07240
  
  S  O  15   0.05036     0.03395    -0.00360    -0.02288     0.07113    -0.03411
 PX  O  15  -0.01214    -0.00756     0.00077     0.00480    -0.01388     0.00568
 PY  O  15  -0.00126    -0.00172     0.00023     0.00165    -0.00847     0.00614
 PZ  O  15  -0.01343    -0.01191     0.00140     0.00926    -0.03455     0.02031
  
  S  O  16   0.01617     0.01765    -0.00220    -0.01490     0.06294    -0.04222
 PX  O  16   0.01046     0.00880    -0.00100    -0.00655     0.02295    -0.01231
 PY  O  16  -0.01379    -0.01223     0.00147     0.00983    -0.04097     0.02771
 PZ  O  16  -0.02311    -0.02244     0.00277     0.01874    -0.08037     0.05696
  
  S  C  17  -0.00732    -0.01253     0.00158     0.01070    -0.05164     0.03574
 PX  C  17  -0.07162    -0.04999     0.00547     0.03529    -0.11872     0.06473
 PY  C  17   0.02533     0.02439    -0.00286    -0.01890     0.06078    -0.03364
 PZ  C  17   0.00909     0.00768    -0.00095    -0.00644     0.03379    -0.02543
  
  S  N  18   0.06453     0.04245    -0.00460    -0.02951     0.08829    -0.04403
 PX  N  18   0.01762     0.01098    -0.00118    -0.00752     0.01914    -0.00758
 PY  N  18  -0.00771    -0.00296     0.00025     0.00137    -0.00330     0.00078
 PZ  N  18   0.00264     0.00213    -0.00024    -0.00158     0.00950    -0.00772
  
  S  C  19  -0.04911    -0.15708     0.01604     0.10788    -0.05810    -0.14791
 PX  C  19   0.01014     0.05032     0.00004     0.01752     0.01138    -0.03629
 PY  C  19   0.09743     0.09496    -0.00567    -0.01812     0.13372    -0.07445
 PZ  C  19   0.03821    -0.11901    -0.00506    -0.08531     0.07991     0.07370
  
  S  C  20   0.02985    -0.21608    -0.00032    -0.08312     0.05920     0.13412
 PX  C  20  -0.00001    -0.01095     0.00090     0.00929     0.01081    -0.03309
[...]
    63       H          3.73180357  *   3.42161621  *   0.86765090  *
    64       H          6.04185980  *   2.31374439  *   0.90479375  *
    65       H          6.05232772  *   2.27824403  *  -0.85317967  *
    66       H          5.42274246  *   4.84360012  *   2.00123895  *
    67       H          6.38788827  *   2.92826248  *  -6.27270282  *
    68       H          5.98333221  *   6.32740678  *   3.54770692  *
    69       H          5.91777232  *   8.20752180  *   5.08086725  *
    70       H          4.46691795  *  10.26663419  *   5.27174908  *
    71       H          4.27600423  *  12.14298877  *   6.86800940  *
    72       H          8.39787505  *  11.59627432  *   4.03563580  *
    73       H         10.10131821  *  13.61510822  *   4.67158312  *
    74       H         11.16717933  *  15.61958628  *   5.70339382  *
    75       H         10.01438463  *  16.94687646  *   7.41756710  *
    76       H          4.25503723  *  12.96958300  *   8.33549138  *
    77       H          3.07533086  *  13.87890125  *  10.28860728  *
    78       H          3.85179906  *  15.99041233  *  11.34791030  *
    79       H          5.79261488  *  17.17927275  *  10.46412586  *
    80       H          8.30958003  *  16.18606865  *  10.28330320  *
    81       H          9.35167563  *  17.07008052  *   9.18878160  *
    82       H          8.08403345  *  19.19229701  *   9.54691745  *
    83       H          6.92997109  *  18.36708092  *  10.59446068  *
    84       H          8.61786843  *  18.49560299  *  11.06875887  *
    85       H          6.00451822  *  17.34311393  *   6.86251231  *
    86       H          6.15550321  *  18.38183599  *   8.26206111  *
    87       H          7.29988102  *  19.50902378  *   6.43494766  *
    88       H          8.61796177  *  18.90280090  *   7.43180027  *
    89       H          8.17266986  *  18.06613802  *   5.94164679  *

                             CARTESIAN COORDINATES

   1    C       -0.002542896     0.005210481    -0.006199941
   2    C        1.517439368     0.002265333    -0.004672483
   3    C        2.060544996     1.429051664    -0.005589314
   4    C        3.587377571     1.427431287     0.002280169
   5    C        4.126321719     2.855979168    -0.002453579
   6    C        5.655462856     2.851693215     0.011626032
   7    C        6.172422720     4.240463787     0.012713437
   8    C        5.980970851     5.131178600     1.113929732
   9    C        6.571166045     6.351043489     0.895383386
  10    S        7.333010357     6.429321065    -0.624740131
  11    C        6.894935274     4.832691435    -0.988954690
  12    C        7.298193670     4.194155985    -2.218645634
  13    C        6.480515783     4.087431178    -3.280246229
  14    C        6.950597822     3.418544601    -4.501939535
  15    O        8.054156265     2.922799848    -4.678359687
  16    O        6.034897424     3.375287676    -5.489535661
  17    C        5.160731672     4.607939898    -3.274197750
  18    N        4.086496008     5.034564819    -3.271297627
  19    C        6.564028727     7.453857085     1.822551700
  20    C        6.234600360     7.309498919     3.133385793
  21    C        6.198823388     8.417457094     4.042794626
  22    C        6.501584342     9.681554999     3.657866674
  23    C        6.887202771     9.907929911     2.291787814
  24    C        6.916706995     8.770409065     1.356942035
  25    N        7.288522672     9.110717131     0.126329789
  26    S        7.576390882    10.759027410     0.118877636
  27    N        7.231868950    11.061593130     1.728148486
  28    C        6.439015539    10.810809950     4.574801591
  29    C        5.297723923    10.973637820     5.368393708
  30    C        5.182132485    12.024171360     6.266046570
  31    C        6.244880036    12.915648440     6.364687641
  32    C        7.405347330    12.755861780     5.547420876
  33    C        7.501662910    11.707051880     4.652248079
  34    C        8.312744691    13.834922620     5.856961462
  35    C        9.578907954    14.199323120     5.432537325
  36    C       10.160357240    15.321933250     6.010847547
  37    C        9.496827045    16.086979210     6.976106110
  38    C        8.211144825    15.766897330     7.396870168
  39    C        7.665379376    14.626170510     6.831279845
  40    N        6.402509520    14.084984810     7.143545318
  41    C        5.727339202    14.574935620     8.277332714
  42    C        4.615660600    13.899392290     8.787189377
  43    C        3.946604992    14.407683110     9.890272735
  44    C        4.381508481    15.582557560    10.482668060
  45    C        5.492181898    16.245235400     9.973830649
  46    C        6.199965169    15.761471200     8.879579760
  47    C        7.379142161    16.567767710     8.358944279
  48    C        8.292396007    17.000816290     9.526956188
  49    C        7.958709318    18.320495510    10.203828500
  50    C        6.755297432    17.743248260     7.580104829
  51    C        7.762583586    18.586881690     6.819377851
  52    H        8.323183513     3.793124240    -2.243325233
  53    H       -0.417527958     0.514019572    -0.888244474
  54    H       -0.413768455    -1.014624499    -0.008340429
  55    H       -0.419592767     0.510995224     0.876579768
  56    H        1.897853912    -0.559260777     0.874793506
  57    H        1.899434841    -0.560217903    -0.882842646
  58    H        1.678781742     1.985135706    -0.887922274
  59    H        1.669276518     1.989225708     0.869890254
  60    H        3.968696278     0.872952821     0.885830819
  61    H        3.976439922     0.864529197    -0.872469376
  62    H        3.754712667     3.411140400    -0.890007571
  63    H        3.731803569     3.421616213     0.867650901
  64    H        6.041859797     2.313744392     0.904793752
  65    H        6.052327724     2.278244032    -0.853179665
  66    H        5.422742456     4.843600120     2.001238948
  67    H        6.387888275     2.928262480    -6.272702821
  68    H        5.983332210     6.327406776     3.547706919
  69    H        5.917772318     8.207521802     5.080867248
  70    H        4.466917954    10.266634190     5.271749077
  71    H        4.276004227    12.142988770     6.868009400
  72    H        8.397875048    11.596274320     4.035635796
  73    H       10.101318210    13.615108220     4.671583123
  74    H       11.167179330    15.619586280     5.703393817
  75    H       10.014384630    16.946876460     7.417567104
  76    H        4.255037235    12.969583000     8.335491380
  77    H        3.075330859    13.878901250    10.288607280
  78    H        3.851799061    15.990412330    11.347910300
  79    H        5.792614876    17.179272750    10.464125860
  80    H        8.309580034    16.186068650    10.283303200
  81    H        9.351675634    17.070080520     9.188781601
  82    H        8.084033453    19.192297010     9.546917454
  83    H        6.929971091    18.367080920    10.594460680
  84    H        8.617868430    18.495602990    11.068758870
  85    H        6.004518218    17.343113930     6.862512312
  86    H        6.155503208    18.381835990     8.262061115
  87    H        7.299881017    19.509023780     6.434947658
  88    H        8.617961772    18.902800900     7.431800271
  89    H        8.172669861    18.066138020     5.941646789


           Empirical Formula: C43 H38 N4 O2 S2  =    89 atoms



      MOLECULAR POINT GROUP   :   C1  


                  EIGENVALUES  
 -49.43452 -46.84360 -46.59101 -45.66845 -44.41559 -43.53638 -42.88962 -42.12368
 -41.24802 -40.95950 -39.78165 -39.27970 -38.64733 -37.69436 -36.92275 -36.25678
 -35.67012 -35.11465 -34.02298 -33.26097 -32.89916 -32.73830 -31.92806 -31.00143
 -30.39302 -30.17284 -29.26985 -28.89929 -28.62990 -27.86291 -27.57449 -26.78092
 -25.74016 -25.62620 -25.30740 -24.92196 -24.55324 -24.38746 -24.17580 -23.93758
 -23.60217 -23.20189 -23.01820 -22.69633 -22.28234 -21.60367 -21.34281 -20.89175
 -20.67454 -20.49322 -19.73139 -19.38499 -19.09175 -18.88638 -18.73153 -18.54969
 -18.43458 -18.29725 -18.09287 -17.82958 -17.78708 -17.68864 -17.16373 -17.03268
 -16.88081 -16.84187 -16.68574 -16.24072 -16.03097 -15.93539 -15.86147 -15.76627
 -15.71110 -15.50050 -15.28557 -15.13070 -14.84686 -14.76177 -14.60372 -14.52585
 -14.46027 -14.38437 -14.15098 -13.92864 -13.85719 -13.81134 -13.71358 -13.65205
 -13.57062 -13.49606 -13.46837 -13.37619 -13.32875 -13.22484 -13.08143 -12.91851
 -12.87224 -12.86698 -12.75291 -12.69937 -12.47903 -12.43822 -12.40910 -12.18558
 -12.15591 -12.07096 -11.92313 -11.82028 -11.75894 -11.69279 -11.30039 -11.06181
 -11.02632 -10.91295 -10.89481 -10.58298  -9.84800  -9.80391  -9.71704  -9.60274
  -9.10814  -8.83823  -8.68780  -8.52719  -7.77156  -7.41637  -7.02792  -1.53917
  -0.73949   0.02787   0.14953   0.57739   0.74621   0.75199   0.85717   1.06096
   1.18596   1.41007   1.52011   1.68538   1.94589   2.19877   2.29642   2.45169
   2.50777   2.63726   2.72678   2.92764   2.98745   3.10343   3.16273   3.20810
   3.33099   3.33280   3.44268   3.60629   3.67429   3.71210   3.75530   3.80099
   3.86277   3.86972   4.04702   4.06314   4.16733   4.23007   4.28356   4.40189
   4.46574   4.69251   4.86210   4.98707   5.04112   5.11631   5.28424   5.30816
   5.45975   5.54370   5.62801   5.68457   5.92186   5.96700   6.06560   6.23278
   6.38025   6.39130   6.55809   6.67915   6.70472   6.75228   6.77442   6.78287
   6.83559   6.94844   6.96638   6.99058   7.01104   7.02833   7.08199   7.09767
   7.11655   7.17486   7.57825   7.68550   8.01134   8.49113   8.52131   8.56694
   8.61354   8.61377   8.65346   8.76430   8.81912   8.86203   9.11587   9.15717
   9.60051   9.66965  10.11985  10.35732  10.47929  10.51584  10.79693  10.90214
  11.10366  11.15860  11.26979  11.50199  12.03081  12.11054  12.19718  12.27699
  12.53350  12.78898  12.82381  12.94983  13.33926  13.50064  13.82234  14.11597
  14.65650  15.29900


              NET ATOMIC CHARGES AND DIPOLE CONTRIBUTIONS

  ATOM NO.   TYPE          CHARGE      No. of ELECS.   s-Pop       p-Pop       
    1          C          -0.027809        4.0278     1.05491     2.97290
    2          C          -0.006636        4.0066     1.04468     2.96196
    3          C          -0.008294        4.0083     1.05045     2.95785
    4          C          -0.010426        4.0104     1.05221     2.95821
    5          C          -0.005230        4.0052     1.05085     2.95438
    6          C           0.004492        3.9955     1.04318     2.95233
    7          C           0.013028        3.9870     1.05806     2.92891
    8          C          -0.041384        4.0414     1.08990     2.95148
    9          C           0.034308        3.9657     1.07670     2.88899
   10          S          -0.030960        6.0310     1.76726     4.26370
   11          C          -0.008342        4.0083     1.06499     2.94335
   12          C           0.151475        3.8485     1.10004     2.74849
   13          C           0.020903        3.9791     1.00105     2.97805
   14          C           0.504209        3.4958     1.04502     2.45078
   15          O          -0.598113        6.5981     1.81649     4.78163
   16          O          -0.306373        6.3064     1.68668     4.61970
   17          C           0.212556        3.7874     1.14759     2.63985
   18          N          -0.377918        5.3779     1.75298     3.62494
   19          C           0.016871        3.9831     1.03629     2.94684
   20          C           0.006931        3.9931     1.08966     2.90341
   21          C          -0.013104        4.0131     1.08438     2.92872
   22          C           0.031845        3.9682     1.04870     2.91945
   23          C           0.164568        3.8354     1.06307     2.77236
   24          C           0.163465        3.8365     1.06631     2.77022
   25          N          -0.271775        5.2718     1.68616     3.58561
   26          S           0.074606        5.9254     1.79564     4.12975
   27          N          -0.270894        5.2709     1.68496     3.58594
   28          C           0.010243        3.9898     1.04267     2.94709
   29          C          -0.029415        4.0294     1.08224     2.94718
   30          C          -0.040652        4.0407     1.08391     2.95674
   31          C           0.074433        3.9256     1.05060     2.87497
   32          C          -0.010124        4.0101     1.05227     2.95785
   33          C          -0.025318        4.0253     1.08031     2.94501
   34          C          -0.014760        4.0148     1.04863     2.96613
   35          C          -0.032999        4.0330     1.07756     2.95544
   36          C          -0.043799        4.0438     1.08061     2.96318
   37          C          -0.038605        4.0386     1.08449     2.95412
   38          C           0.009516        3.9905     1.05863     2.93186
   39          C           0.053743        3.9463     1.05069     2.89556
   40          N          -0.127033        5.1270     1.23974     3.88730
   41          C           0.084666        3.9153     1.03942     2.87591
   42          C          -0.049586        4.0496     1.08409     2.96550
   43          C          -0.029659        4.0297     1.07900     2.95065
   44          C          -0.040557        4.0406     1.07882     2.96174
   45          C          -0.042972        4.0430     1.08888     2.95410
   46          C           0.005863        3.9941     1.06766     2.92648
   47          C           0.048449        3.9516     1.00877     2.94278
   48          C          -0.002667        4.0027     1.05621     2.94646
   49          C          -0.032825        4.0328     1.06096     2.97187
   50          C           0.008081        3.9919     1.05159     2.94033
   51          C          -0.029592        4.0296     1.05892     2.97067
   52          H           0.077350        0.9227     0.92265
   53          H           0.007887        0.9921     0.99211
   54          H           0.000351        0.9996     0.99965
   55          H           0.007631        0.9924     0.99237
   56          H           0.006310        0.9937     0.99369
   57          H           0.006595        0.9934     0.99341
   58          H           0.006993        0.9930     0.99301
   59          H           0.007132        0.9929     0.99287
   60          H           0.008240        0.9918     0.99176
   61          H           0.008421        0.9916     0.99158
   62          H           0.008292        0.9917     0.99171
   63          H           0.011526        0.9885     0.98847
   64          H           0.018456        0.9815     0.98154
   65          H           0.009098        0.9909     0.99090
   66          H           0.038804        0.9612     0.96120
   67          H           0.248465        0.7515     0.75154
   68          H           0.035675        0.9643     0.96433
   69          H           0.031825        0.9682     0.96817
   70          H           0.023464        0.9765     0.97654
   71          H           0.035234        0.9648     0.96477
   72          H           0.029130        0.9709     0.97087
   73          H           0.022145        0.9779     0.97785
   74          H           0.015158        0.9848     0.98484
   75          H           0.023406        0.9766     0.97659
   76          H           0.035182        0.9648     0.96482
   77          H           0.019406        0.9806     0.98059
   78          H           0.018057        0.9819     0.98194
   79          H           0.030569        0.9694     0.96943
   80          H           0.005588        0.9944     0.99441
   81          H           0.009979        0.9900     0.99002
   82          H           0.011435        0.9886     0.98857
   83          H           0.017596        0.9824     0.98240
   84          H          -0.000141        1.0001     1.00014
   85          H           0.005635        0.9944     0.99436
   86          H           0.009208        0.9908     0.99079
   87          H          -0.001116        1.0011     1.00112
   88          H           0.012849        0.9872     0.98715
   89          H           0.011729        0.9883     0.98827
 DIPOLE           X         Y         Z       TOTAL
 POINT-CHG.    -0.396    -0.971     7.421     7.494
 HYBRID        -0.362    -3.407     2.213     4.079
 SUM           -0.758    -4.378     9.633    10.609


          ATOMIC ORBITAL ELECTRON POPULATIONS

     Atom    s        px        py        pz   
    1  C   1.05491   0.99087   0.98886   0.99317
    2  C   1.04468   0.99081   0.98511   0.98603
    3  C   1.05045   0.99022   0.98044   0.98718
    4  C   1.05221   0.99067   0.97935   0.98818
    5  C   1.05085   0.97819   0.98636   0.98983
    6  C   1.04318   0.99388   0.97018   0.98828
    7  C   1.05806   0.96770   0.97260   0.98862
    8  C   1.08990   1.01086   0.98462   0.95600
    9  C   1.07670   0.99741   0.98491   0.90667
   10  S   1.76726   1.71800   1.25416   1.29154
   11  C   1.06499   1.05394   0.91681   0.97260
   12  C   1.10004   0.96441   0.81086   0.97322
   13  C   1.00105   0.94109   1.08877   0.94819
   14  C   1.04502   0.84513   0.72972   0.87593
   15  O   1.81649   1.34238   1.53037   1.90888
   16  O   1.68668   1.54950   1.78235   1.28785
   17  C   1.14759   0.93722   0.88140   0.82123
   18  N   1.75298   1.22462   1.18322   1.21710
   19  C   1.03629   1.02081   0.95327   0.97276
   20  C   1.08966   0.95272   0.96493   0.98576
   21  C   1.08438   0.98782   0.98344   0.95746
   22  C   1.04870   0.97205   0.98585   0.96155
   23  C   1.06307   0.86570   0.95665   0.95000
   24  C   1.06631   0.86233   0.96037   0.94753
   25  N   1.68616   1.24335   1.05757   1.28469
   26  S   1.79564   1.81407   1.13647   1.17921
   27  N   1.68496   1.23216   1.31635   1.03742
   28  C   1.04267   0.98905   0.97476   0.98328
   29  C   1.08224   0.96998   0.98275   0.99445
   30  C   1.08391   0.95603   1.00084   0.99986
   31  C   1.05060   0.99477   0.90876   0.97145
   32  C   1.05227   0.98871   0.97437   0.99477
   33  C   1.08031   0.96601   0.98745   0.99156
   34  C   1.04863   0.96688   0.98975   1.00950
   35  C   1.07756   0.98212   0.99007   0.98325
   36  C   1.08061   0.95514   0.99873   1.00932
   37  C   1.08449   0.98059   0.97520   0.99833
   38  C   1.05863   0.97650   0.97292   0.98244
   39  C   1.05069   0.91421   0.98122   1.00013
   40  N   1.23974   1.25552   1.30369   1.32809
   41  C   1.03942   0.97367   0.98303   0.91921
   42  C   1.08409   0.99226   0.97157   1.00167
   43  C   1.07900   0.96583   0.98947   0.99535
   44  C   1.07882   0.99298   0.99793   0.97083
   45  C   1.08888   0.99330   0.96786   0.99293
   46  C   1.06766   0.97552   0.96703   0.98393
   47  C   1.00877   0.97142   0.99175   0.97961
   48  C   1.05621   0.97804   0.98666   0.98176
   49  C   1.06096   0.99395   0.98790   0.99002
   50  C   1.05159   0.97537   0.97725   0.98772
   51  C   1.05892   0.99186   0.98649   0.99232
   52  H   0.92265
   53  H   0.99211
   54  H   0.99965
   55  H   0.99237
   56  H   0.99369
   57  H   0.99341
   58  H   0.99301
   59  H   0.99287
   60  H   0.99176
   61  H   0.99158
   62  H   0.99171
   63  H   0.98847
   64  H   0.98154
   65  H   0.99090
   66  H   0.96120
   67  H   0.75154
   68  H   0.96433
   69  H   0.96817
   70  H   0.97654
   71  H   0.96477
   72  H   0.97087
   73  H   0.97785
   74  H   0.98484
   75  H   0.97659
   76  H   0.96482
   77  H   0.98059
   78  H   0.98194
   79  H   0.96943
   80  H   0.99441
   81  H   0.99002
   82  H   0.98857
   83  H   0.98240
   84  H   1.00014
   85  H   0.99436
   86  H   0.99079
   87  H   1.00112
   88  H   0.98715
   89  H   0.98827

 **********************
 *                    *
 * JOB ENDED NORMALLY *
 *                    *
 **********************



 TOTAL JOB TIME:           553.83 SECONDS

 == MOPAC DONE ==
