 *******************************************************************************
 ** Site#: 37966        For non-commercial use only           Version 21.186W **
 *******************************************************************************
 ** Cite this program as: MOPAC2016, Version: 21.186W, James J. P. Stewart,   **
 ** Stewart Computational Chemistry, web: HTTP://OpenMOPAC.net. Days left: 257**
 *******************************************************************************
 **                                                                           **
 **                                MOPAC2016                                  **
 **                                                                           **
 *******************************************************************************

                              INDO CALCULATION RESULTS

 *******************************************************************************
 *  CALCULATION DONE:                                Thu Oct 21 13:02:45 2021  *
 *  INDO       - The INDO Hamiltonian to be used
 *  CIS        - C.I. USES 1 ELECTRON EXCITATIONS ONLY
 *  EPS=4.81   - USE ANDREAS KLAMT'S COSMO IMPLICIT SOLVATION MODEL
 *  N**2=1.4   - USED IN COSMO-CI
 *  T=         - A TIME OF 172800.0 SECONDS REQUESTED
 *  DUMP=N     - RESTART FILE WRITTEN EVERY 7200.0 SECONDS REQUESTED
 *******************************************************************************
INDO CIS EPS=4.81 N**2=1.4
 Dye31
 Calculo de Estados Excitados
   ATOM   CHEMICAL          X               Y               Z
  NUMBER   SYMBOL      (ANGSTROMS)     (ANGSTROMS)     (ANGSTROMS)
 
     1       C          0.00000000  *   0.00000000  *   0.00000000  *
     2       C          1.52014633  *   0.00000000  *   0.00000000  *
     3       C          2.06017903  *   1.43040469  *   0.00000000  *
     4       C          3.58573612  *   1.42542390  *  -0.04675579  *
     5       C          4.21537839  *   2.80514951  *   0.16990668  *
     6       C          4.15146996  *   3.71647953  *  -1.07053463  *
     7       N          2.77648261  *   4.10582301  *  -1.45992658  *
     8       C          2.05394457  *   4.99517815  *  -0.59730288  *
     9       C          1.91550485  *   4.97740911  *   0.78653665  *
    10       C          1.06719319  *   5.90208735  *   1.37793817  *
    11       C          0.35854372  *   6.83741045  *   0.61445716  *
    12       C          0.49626318  *   6.87107754  *  -0.77117669  *
    13       C          1.34717961  *   5.95575951  *  -1.36168290  *
    14       C          1.70911883  *   5.75181943  *  -2.74126594  *
    15       C          2.58371759  *   4.63043202  *  -2.78764940  *
    16       C          3.01445223  *   4.20280814  *  -4.03988751  *
    17       C          2.69068221  *   5.01486678  *  -5.16026388  *
    18       C          1.87509969  *   6.13320430  *  -5.08821921  *
    19       C          1.34444771  *   6.48776803  *  -3.85775815  *
    20       C          3.35567820  *   4.44776264  *  -6.30803637  *
    21       C          4.02135477  *   3.27919737  *  -5.86987964  *
    22       N          3.86547909  *   3.10605223  *  -4.44586849  *
    23       C          3.42716130  *   1.75062483  *  -4.01007081  *
    24       C          4.57737912  *   0.72411168  *  -4.09858342  *
    25       C          4.01211490  *  -0.65111696  *  -3.71157400  *
    26       C          5.02300155  *  -1.76859544  *  -3.95806241  *
    27       C          4.39752748  *  -3.13203446  *  -3.66734372  *
    28       C          5.40724678  *  -4.24595126  *  -3.89139575  *
    29       C          5.76494351  *   1.12305451  *  -3.21385662  *
    30       C          7.08370190  *   1.08284206  *  -3.97224166  *
    31       C          4.76565042  *   2.52438313  *  -6.76618397  *
    32       C          4.82943243  *   2.95177355  *  -8.08744922  *
    33       C          4.17320255  *   4.10476660  *  -8.51488119  *
    34       C          3.42971097  *   4.86823711  *  -7.62333942  *
    35       C         -0.50741869  *   7.77610919  *   1.28792632  *
    36       S         -2.09431971  *   8.11448119  *   0.69325383  *
    37       C         -2.37434532  *   9.19137401  *   1.96137349  *
    38       C         -1.28560091  *   9.28786012  *   2.82505171  *
    39       C         -0.19818665  *   8.46079133  *   2.42971513  *
    40       S         -1.56295736  *  10.36118775  *   4.09327352  *
    41       C         -3.14857265  *  10.70593276  *   3.49656905  *
    42       C         -3.45984687  *  10.01874071  *   2.35398126  *
    43       C         -3.99392579  *  11.62837819  *   4.18416148  *
    44       C         -4.27499036  *  11.63916070  *   5.52277241  *
    45       C         -5.14723661  *  12.71520740  *   5.87859625  *
    46       C         -5.49052487  *  13.47537936  *   4.79304402  *
    47       S         -4.77748382  *  12.89945088  *   3.34757314  *
    48       C         -6.36286554  *  14.61419813  *   4.77449515  *
    49       C         -6.40511678  *  15.52335822  *   5.76605813  *
    50       C         -7.30999539  *  16.68224546  *   5.75544991  *
    51       O         -7.21371499  *  17.70391096  *   6.41379912  *
    52       O         -8.35193047  *  16.54269174  *   4.90397618  *
    53       C         -5.54963173  *  15.46799222  *   6.89670353  *
    54       N         -4.85705107  *  15.43758669  *   7.82217541  *
    55       C          5.70133788  *   2.62473493  *   0.53305521  *
    56       C          6.33730131  *   3.93470175  *   0.96916930  *
    57       H         -7.00405885  *  14.71607255  *   3.88650786  *
    58       H         -0.40949209  *  -1.02055589  *   0.00700652  *
    59       H         -0.41645175  *   0.51276335  *   0.87903196  *
    60       H         -0.41781500  *   0.50084762  *  -0.88527035  *
    61       H          1.89944268  *  -0.56470228  *   0.87802822  *
    62       H          1.90189998  *  -0.56092842  *  -0.87930384  *
    63       H          1.63334172  *   1.99038192  *  -0.85682514  *
    64       H          1.69473786  *   1.96873468  *   0.89973011  *
    65       H          3.96355663  *   0.72398022  *   0.73090492  *
    66       H          3.94296800  *   0.98519965  *  -0.99960235  *
    67       H          3.71413885  *   3.29712233  *   1.04284610  *
    68       H          4.77724058  *   4.62979018  *  -0.88862355  *
    69       H          4.64575626  *   3.21189450  *  -1.93796435  *
    70       H          2.45120697  *   4.25740518  *   1.41295525  *
    71       H          0.94460473  *   5.89195613  *   2.46607604  *
    72       H         -0.04165865  *   7.60170756  *  -1.38063319  *
    73       H          1.65460535  *   6.71311527  *  -5.98722200  *
    74       H          0.66593758  *   7.33821908  *  -3.75955363  *
    75       H          3.03255586  *   1.81267125  *  -2.96995937  *
    76       H          2.55672945  *   1.39827852  *  -4.61692398  *
    77       H          4.91288393  *   0.65466569  *  -5.16736708  *
    78       H          3.67893153  *  -0.66113704  *  -2.65275090  *
    79       H          3.08609735  *  -0.85796742  *  -4.29150355  *
    80       H          5.39487924  *  -1.73539415  *  -5.00412780  *
    81       H          5.92982629  *  -1.63022525  *  -3.33325774  *
    82       H          4.01148714  *  -3.16933398  *  -2.62665818  *
    83       H          3.50244311  *  -3.29595549  *  -4.30414891  *
    84       H          4.97478309  *  -5.23661364  *  -3.68925526  *
    85       H          5.77891931  *  -4.26993916  *  -4.92597180  *
    86       H          6.28803706  *  -4.14870974  *  -3.24037904  *
    87       H          5.62503083  *   2.14417668  *  -2.78810668  *
    88       H          5.83596882  *   0.47589522  *  -2.31333641  *
    89       H          7.93792508  *   1.29349782  *  -3.31182192  *
    90       H          7.27875269  *   0.10409644  *  -4.43381019  *
    91       H          7.12418227  *   1.82991662  *  -4.77839197  *
    92       H          5.29729867  *   1.61935824  *  -6.45513701  *
    93       H          5.41127519  *   2.36841006  *  -8.80811240  *
    94       H          4.24721577  *   4.41195377  *  -9.56175310  *
    95       H          2.91771773  *   5.77742155  *  -7.94743627  *
    96       H          0.74483329  *   8.40351416  *   2.96701187  *
    97       H         -4.40177462  *  10.07675615  *   1.81434882  *
    98       H         -3.89681992  *  10.92258804  *   6.24846536  *
    99       H         -5.50113452  *  12.86563696  *   6.89710588  *
   100       H         -8.92655138  *  17.32117458  *   4.92693187  *
   101       H          5.81127380  *   1.87834892  *   1.34897661  *
   102       H          6.26176808  *   2.18412620  *  -0.31885994  *
   103       H          7.40952050  *   3.81693720  *   1.18237914  *
   104       H          6.25140643  *   4.71871114  *   0.19912693  *
   105       H          5.87683217  *   4.33865184  *   1.88239363  *
 


          CARTESIAN COORDINATES 

    NO.       ATOM           X           Y           Z

     1         C          0.0000      0.0000      0.0000
     2         C          1.5201      0.0000      0.0000
     3         C          2.0602      1.4304      0.0000
     4         C          3.5857      1.4254     -0.0468
     5         C          4.2154      2.8051      0.1699
     6         C          4.1515      3.7165     -1.0705
     7         N          2.7765      4.1058     -1.4599
     8         C          2.0539      4.9952     -0.5973
     9         C          1.9155      4.9774      0.7865
    10         C          1.0672      5.9021      1.3779
    11         C          0.3585      6.8374      0.6145
    12         C          0.4963      6.8711     -0.7712
    13         C          1.3472      5.9558     -1.3617
    14         C          1.7091      5.7518     -2.7413
    15         C          2.5837      4.6304     -2.7876
    16         C          3.0145      4.2028     -4.0399
    17         C          2.6907      5.0149     -5.1603
    18         C          1.8751      6.1332     -5.0882
    19         C          1.3444      6.4878     -3.8578
    20         C          3.3557      4.4478     -6.3080
    21         C          4.0214      3.2792     -5.8699
    22         N          3.8655      3.1061     -4.4459
    23         C          3.4272      1.7506     -4.0101
    24         C          4.5774      0.7241     -4.0986
    25         C          4.0121     -0.6511     -3.7116
    26         C          5.0230     -1.7686     -3.9581
    27         C          4.3975     -3.1320     -3.6673
    28         C          5.4072     -4.2460     -3.8914
    29         C          5.7649      1.1231     -3.2139
    30         C          7.0837      1.0828     -3.9722
    31         C          4.7657      2.5244     -6.7662
    32         C          4.8294      2.9518     -8.0874
    33         C          4.1732      4.1048     -8.5149
    34         C          3.4297      4.8682     -7.6233
    35         C         -0.5074      7.7761      1.2879
    36         S         -2.0943      8.1145      0.6933
    37         C         -2.3743      9.1914      1.9614
    38         C         -1.2856      9.2879      2.8251
    39         C         -0.1982      8.4608      2.4297
    40         S         -1.5630     10.3612      4.0933
    41         C         -3.1486     10.7059      3.4966
    42         C         -3.4598     10.0187      2.3540
    43         C         -3.9939     11.6284      4.1842
    44         C         -4.2750     11.6392      5.5228
    45         C         -5.1472     12.7152      5.8786
    46         C         -5.4905     13.4754      4.7930
    47         S         -4.7775     12.8995      3.3476
    48         C         -6.3629     14.6142      4.7745
    49         C         -6.4051     15.5234      5.7661
    50         C         -7.3100     16.6822      5.7554
    51         O         -7.2137     17.7039      6.4138
    52         O         -8.3519     16.5427      4.9040
    53         C         -5.5496     15.4680      6.8967
    54         N         -4.8571     15.4376      7.8222
    55         C          5.7013      2.6247      0.5331
    56         C          6.3373      3.9347      0.9692
    57         H         -7.0041     14.7161      3.8865
    58         H         -0.4095     -1.0206      0.0070
    59         H         -0.4165      0.5128      0.8790
    60         H         -0.4178      0.5008     -0.8853
    61         H          1.8994     -0.5647      0.8780
    62         H          1.9019     -0.5609     -0.8793
    63         H          1.6333      1.9904     -0.8568
    64         H          1.6947      1.9687      0.8997
    65         H          3.9636      0.7240      0.7309
    66         H          3.9430      0.9852     -0.9996
    67         H          3.7141      3.2971      1.0428
    68         H          4.7772      4.6298     -0.8886
    69         H          4.6458      3.2119     -1.9380
    70         H          2.4512      4.2574      1.4130
    71         H          0.9446      5.8920      2.4661
    72         H         -0.0417      7.6017     -1.3806
    73         H          1.6546      6.7131     -5.9872
    74         H          0.6659      7.3382     -3.7596
    75         H          3.0326      1.8127     -2.9700
    76         H          2.5567      1.3983     -4.6169
    77         H          4.9129      0.6547     -5.1674
    78         H          3.6789     -0.6611     -2.6528
    79         H          3.0861     -0.8580     -4.2915
    80         H          5.3949     -1.7354     -5.0041
    81         H          5.9298     -1.6302     -3.3333
    82         H          4.0115     -3.1693     -2.6267
    83         H          3.5024     -3.2960     -4.3041
    84         H          4.9748     -5.2366     -3.6893
    85         H          5.7789     -4.2699     -4.9260
    86         H          6.2880     -4.1487     -3.2404
    87         H          5.6250      2.1442     -2.7881
    88         H          5.8360      0.4759     -2.3133
    89         H          7.9379      1.2935     -3.3118
    90         H          7.2788      0.1041     -4.4338
    91         H          7.1242      1.8299     -4.7784
    92         H          5.2973      1.6194     -6.4551
    93         H          5.4113      2.3684     -8.8081
    94         H          4.2472      4.4120     -9.5618
    95         H          2.9177      5.7774     -7.9474
    96         H          0.7448      8.4035      2.9670
    97         H         -4.4018     10.0768      1.8143
    98         H         -3.8968     10.9226      6.2485
    99         H         -5.5011     12.8656      6.8971
   100         H         -8.9266     17.3212      4.9269
   101         H          5.8113      1.8783      1.3490
   102         H          6.2618      2.1841     -0.3189
   103         H          7.4095      3.8169      1.1824
   104         H          6.2514      4.7187      0.1991
   105         H          5.8768      4.3387      1.8824

           Empirical Formula: C48 H49 N3 O2 S3  =   105 atoms



      MOLECULAR POINT GROUP   :   C1  


      RHF CALCULATION, NO. OF DOUBLY OCCUPIED LEVELS = 143

 WARNING: INDO only performs single-point calculations


 ALL CONVERGERS ARE NOW FORCED ON
 SHIFT=10, PULAY ON, CAMP-KING ON
 AND ITERATION COUNTER RESET



 Summary of symmetry occupancy in each shell:

 SHELL     
    1  143
    v  130
 TOTAL 273




    ROOT NO.    1           2           3           4           5           6

           -49.19537   -47.54611   -46.79221   -44.76545   -44.33053   -43.43867
  
  
  S  C   1   0.01274    -0.01171    -0.00002     0.05828     0.00741     0.05601
 PX  C   1   0.00558    -0.00485    -0.00001     0.02319     0.00294     0.02095
 PY  C   1   0.00237    -0.00224    -0.00000     0.00673     0.00067     0.00640
 PZ  C   1  -0.00040    -0.00002     0.00000    -0.00055    -0.00013     0.00042
  
  S  C   2   0.02763    -0.02324    -0.00003     0.11120     0.01396     0.09809
 PX  C   2   0.00479    -0.00299    -0.00000     0.01345     0.00165     0.00774
 PY  C   2   0.00960    -0.00866    -0.00001     0.02929     0.00293     0.02701
 PZ  C   2  -0.00152    -0.00030     0.00000    -0.00250    -0.00073     0.00201
  
  S  C   3   0.06026    -0.05325    -0.00006     0.16855     0.01668     0.14739
 PX  C   3   0.01545    -0.01238    -0.00002     0.03952     0.00308     0.03115
 PY  C   3   0.00885    -0.00984    -0.00001    -0.00640    -0.00296    -0.00488
 PZ  C   3  -0.00574     0.00141     0.00000    -0.00449    -0.00012     0.00195
  
  S  C   4   0.08215    -0.06697    -0.00008     0.22869     0.02128     0.18855
 PX  C   4  -0.00041     0.00239     0.00000     0.00162     0.00006    -0.00211
 PY  C   4   0.02468    -0.02466    -0.00003     0.04164    -0.00021     0.04282
 PZ  C   4  -0.00713    -0.00181     0.00000    -0.00525    -0.00166     0.01133
  
  S  C   5   0.11909    -0.11081    -0.00012     0.26168     0.01381     0.23757
 PX  C   5  -0.00979     0.01158     0.00001     0.01188     0.00262     0.01303
 PY  C   5   0.01157    -0.01550    -0.00001    -0.01834    -0.00635    -0.01134
 PZ  C   5  -0.02577     0.01689     0.00002    -0.02706     0.00173    -0.01472
  
  S  C   6   0.18894    -0.15853    -0.00017     0.18685    -0.01559     0.15948
 PX  C   6  -0.06150     0.06328     0.00006     0.00258     0.01676    -0.00388
 PY  C   6   0.01277    -0.02294    -0.00001    -0.04827    -0.01318    -0.03076
 PZ  C   6  -0.01365    -0.00834    -0.00000     0.03790     0.00787     0.04509
  
  S  N   7   0.33418    -0.32086    -0.00029     0.04485    -0.07201     0.05632
 PX  N   7  -0.00105     0.01593    -0.00000     0.05480     0.00397     0.04539
 PY  N   7   0.06856    -0.08285    -0.00006    -0.04672    -0.02169    -0.03107
 PZ  N   7  -0.01746    -0.00730     0.00000     0.03145     0.01348     0.02181
  
  S  C   8   0.24468    -0.28804    -0.00015    -0.06462     0.00842    -0.09135
 PX  C   8   0.02351    -0.01573    -0.00005     0.04259    -0.02814     0.05806
 PY  C   8  -0.01524     0.00696     0.00005    -0.04994     0.02656    -0.06394
 PZ  C   8  -0.07931     0.07508     0.00009     0.02166     0.04801    -0.00742
  
  S  C   9   0.10424    -0.14282    -0.00000    -0.03390     0.06874    -0.08774
 PX  C   9   0.00142     0.00512    -0.00003     0.03110    -0.02397     0.04517
 PY  C   9   0.00550    -0.01474     0.00004    -0.03832     0.02852    -0.05576
 PZ  C   9  -0.04573     0.05679     0.00003     0.01357    -0.00193     0.02205
  
  S  C  10   0.06161    -0.09848     0.00015    -0.07884     0.12564    -0.13934
 PX  C  10   0.00571    -0.00679    -0.00005     0.00787    -0.01593     0.00558
 PY  C  10  -0.00268     0.00181     0.00006    -0.01423     0.02502    -0.01463
 PZ  C  10  -0.02882     0.04401    -0.00001     0.03188    -0.03114     0.05695
  
  S  C  11   0.06071    -0.09993     0.00032    -0.11146     0.18365    -0.16820
 PX  C  11   0.01536    -0.02294    -0.00007    -0.01118    -0.00614    -0.02878
 PY  C  11  -0.01598     0.02387     0.00008     0.01009     0.01002     0.02938
 PZ  C  11  -0.01308     0.01811     0.00007     0.01060     0.01522     0.02293
  
  S  C  12   0.08061    -0.11513     0.00011    -0.11057     0.10214    -0.15910
 PX  C  12   0.02482    -0.03240    -0.00003    -0.02027     0.00084    -0.02900
 PY  C  12  -0.02937     0.03972     0.00002     0.02567    -0.00739     0.03904
 PZ  C  12   0.00182    -0.01171     0.00007    -0.01420     0.04763    -0.03505
  
  S  C  13   0.19711    -0.23034    -0.00008    -0.14328     0.02017    -0.15748
 PX  C  13   0.04883    -0.04895    -0.00006    -0.00541    -0.02608     0.00891
 PY  C  13  -0.05637     0.05990     0.00006     0.00705     0.02364    -0.00304
 PZ  C  13  -0.01200    -0.00931     0.00005     0.00004     0.04991    -0.04341
  
  S  C  14   0.22251    -0.15994    -0.00012    -0.16771    -0.07419    -0.06135
 PX  C  14   0.03968    -0.02148    -0.00003    -0.01184    -0.01807     0.00859
 PY  C  14  -0.05339     0.03998     0.00004     0.01161     0.01933    -0.00346
 PZ  C  14   0.03001    -0.08359    -0.00004     0.01333     0.01321    -0.03413
  
  S  C  15   0.29785    -0.15573    -0.00016    -0.10591    -0.09042    -0.00416
 PX  C  15  -0.00777     0.03261     0.00002     0.03865     0.00980     0.02256
 PY  C  15   0.00576    -0.02887    -0.00001    -0.05249    -0.01422    -0.01998
 PZ  C  15   0.04609    -0.14222    -0.00010     0.03432    -0.00574    -0.01008
  
  S  C  16   0.29202     0.17398     0.00005    -0.11530    -0.05458     0.03986
 PX  C  16   0.01901     0.05712     0.00003     0.02611     0.01608     0.00636
 PY  C  16  -0.01984    -0.06339    -0.00004    -0.05521    -0.02781     0.00536
 PZ  C  16  -0.03147    -0.12363    -0.00008     0.03383    -0.00620    -0.02042
  
  S  C  17   0.21677     0.17347     0.00007    -0.17014    -0.06181     0.06222
 PX  C  17   0.02995     0.05571     0.00003     0.00069     0.00679     0.01513
 PY  C  17  -0.05431    -0.07886    -0.00004     0.00441    -0.00554    -0.01614
 PZ  C  17   0.03333    -0.01449    -0.00002    -0.02421    -0.01788    -0.01135
  
  S  C  18   0.10841     0.03464     0.00000    -0.13156    -0.05695     0.01915
 PX  C  18   0.02001     0.01775     0.00001    -0.01689    -0.00648     0.00908
 PY  C  18  -0.03686    -0.02258    -0.00001     0.03389     0.01424    -0.01056
 PZ  C  18   0.03105    -0.01102    -0.00001    -0.03716    -0.01898    -0.00647
  
  S  C  19   0.10956    -0.02709    -0.00003    -0.13234    -0.05532    -0.01739
 PX  C  19   0.02980    -0.00072    -0.00001    -0.03136    -0.01670     0.00280
 PY  C  19  -0.04116     0.00643     0.00001     0.04164     0.02113     0.00047
 PZ  C  19   0.01387    -0.02862    -0.00002    -0.00623     0.00076    -0.01758
  
  S  C  20   0.18826     0.23822     0.00013    -0.13086    -0.02318     0.10244
 PX  C  20   0.00882     0.02146     0.00001     0.00003     0.00520     0.01013
 PY  C  20  -0.03655    -0.05409    -0.00003     0.00423    -0.00567    -0.01115
 PZ  C  20   0.06271     0.05864     0.00003    -0.01991    -0.00880    -0.00323
  
  S  C  21   0.23366     0.29849     0.00016    -0.06611     0.00731     0.05850
 PX  C  21  -0.03841    -0.04222    -0.00002     0.02281     0.00722    -0.01400
 PY  C  21   0.02702     0.03407     0.00002    -0.05108    -0.01665     0.04007
 PZ  C  21   0.06626     0.06203     0.00002     0.01842     0.00453    -0.02664
  
  S  N  22   0.32066     0.33659     0.00016     0.01814     0.02275    -0.00939
 PX  N  22  -0.05862    -0.05602    -0.00002     0.01609     0.00538    -0.01147
 PY  N  22   0.02352     0.02332     0.00001    -0.06696    -0.02543     0.04871
 PZ  N  22  -0.03592    -0.07123    -0.00004     0.03289     0.00064    -0.01394
  
  S  C  23   0.18086     0.16998     0.00007     0.15712     0.06529    -0.11663
 PX  C  23   0.02476     0.02837     0.00001     0.04884     0.02132    -0.04116
 PY  C  23   0.05895     0.05483     0.00002    -0.03748    -0.01487     0.04195
 PZ  C  23  -0.01890    -0.04132    -0.00003     0.01529    -0.00193     0.00441
  
  S  C  24   0.11492     0.11519     0.00005     0.25915     0.10984    -0.23666
 PX  C  24  -0.01051    -0.01057    -0.00000     0.00511     0.00184    -0.00619
 PY  C  24   0.02588     0.02374     0.00001    -0.01026    -0.00551     0.02733
 PZ  C  24   0.00494    -0.00441    -0.00001     0.03486     0.01041    -0.02024
  
  S  C  25   0.05960     0.06023     0.00002     0.21929     0.09438    -0.22881
 PX  C  25   0.00775     0.00890     0.00000     0.03954     0.01756    -0.04498
 PY  C  25   0.01857     0.01637     0.00001     0.02887     0.01039    -0.01214
 PZ  C  25  -0.00297    -0.00680    -0.00000    -0.00643    -0.00481     0.01576
  
  S  C  26   0.03196     0.03610     0.00001     0.16994     0.07676    -0.20789
 PX  C  26  -0.00482    -0.00535    -0.00000    -0.02433    -0.01093     0.02932
 PY  C  26   0.01039     0.01033     0.00000     0.02968     0.01189    -0.02196
 PZ  C  26   0.00151     0.00078    -0.00000     0.00999     0.00395    -0.00978
  
  S  C  27   0.01437     0.01752     0.00001     0.10454     0.04893    -0.14487
 PX  C  27   0.00139     0.00190     0.00000     0.01290     0.00621    -0.01940
 PY  C  27   0.00558     0.00616     0.00000     0.02896     0.01283    -0.03330
 PZ  C  27  -0.00068    -0.00111    -0.00000    -0.00506    -0.00255     0.00803
  
  S  C  28   0.00611     0.00808     0.00000     0.05548     0.02670    -0.08378
 PX  C  28  -0.00109    -0.00142    -0.00000    -0.00965    -0.00462     0.01436
 PY  C  28   0.00269     0.00338     0.00000     0.02079     0.00980    -0.02931
 PZ  C  28   0.00017     0.00017     0.00000     0.00166     0.00076    -0.00231
  
  S  C  29   0.08128     0.06602     0.00002     0.21863     0.08475    -0.17009
 PX  C  29  -0.02196    -0.01786    -0.00001    -0.03618    -0.01371     0.02524
 PY  C  29   0.00513    -0.00194    -0.00000    -0.01677    -0.00997     0.03141
 PZ  C  29  -0.01220    -0.02096    -0.00001    -0.02760    -0.01581     0.04294
  
  S  C  30   0.03866     0.03711     0.00001     0.12382     0.05116    -0.11100
 PX  C  30  -0.01767    -0.01663    -0.00001    -0.04777    -0.01958     0.04136
 PY  C  30   0.00119    -0.00003    -0.00000    -0.00543    -0.00289     0.00939
 PZ  C  30   0.00309     0.00016    -0.00000     0.01388     0.00432    -0.00744
  
  S  C  31   0.09823     0.14438     0.00008    -0.02107     0.01656     0.03137
 PX  C  31  -0.02603    -0.03683    -0.00002     0.01383     0.00010    -0.01470
 PY  C  31   0.02633     0.04162     0.00003    -0.03185    -0.00484     0.03425
 PZ  C  31   0.02440     0.02548     0.00001     0.01901     0.00747    -0.02185
  
  S  C  32   0.05576     0.09362     0.00006    -0.04492     0.00342     0.05838
 PX  C  32  -0.01362    -0.02248    -0.00001     0.01379     0.00071    -0.01631
 PY  C  32   0.01137     0.01965     0.00001    -0.01706    -0.00229     0.01986
 PZ  C  32   0.02186     0.03433     0.00002    -0.01052     0.00245     0.01300
  
  S  C  33   0.05200     0.08817     0.00006    -0.05691    -0.00226     0.06962
 PX  C  33  -0.00282    -0.00401    -0.00000     0.00414     0.00106    -0.00365
 PY  C  33  -0.00606    -0.01076    -0.00001     0.00355    -0.00120    -0.00573
 PZ  C  33   0.02605     0.04241     0.00003    -0.02508    -0.00116     0.02875
  
  S  C  34   0.07449     0.11252     0.00007    -0.07858    -0.00985     0.08017
 PX  C  34   0.00779     0.01554     0.00001    -0.00724     0.00120     0.01209
 PY  C  34  -0.02289    -0.03778    -0.00002     0.01954    -0.00005    -0.02428
 PZ  C  34   0.02831     0.03628     0.00002    -0.02288    -0.00493     0.01622
  
  S  C  35   0.01961    -0.03824     0.00090    -0.08949     0.27689    -0.05907
 PX  C  35   0.00562    -0.00943    -0.00017    -0.00352    -0.02222    -0.02743
 PY  C  35  -0.00521     0.00829     0.00025    -0.00200     0.04447     0.02679
 PZ  C  35  -0.00316     0.00446     0.00023    -0.00534     0.04844     0.01734
  
  S  S  36   0.00637    -0.01379     0.00084    -0.05165     0.19700    -0.00269
 PX  S  36   0.00373    -0.00762     0.00020    -0.02093     0.06700    -0.01275
 PY  S  36  -0.00065     0.00068     0.00025    -0.00717     0.04196     0.01186
 PZ  S  36   0.00123    -0.00360     0.00046    -0.02270     0.10038     0.00881
  
  S  C  37   0.00402    -0.01102     0.00245    -0.07758     0.36103     0.06403
 PX  C  37   0.00156    -0.00387     0.00011    -0.01795     0.07069    -0.00367
 PY  C  37  -0.00060     0.00118     0.00048    -0.00150     0.02004     0.01971
 PZ  C  37   0.00022    -0.00098     0.00074    -0.01408     0.07492     0.02447
  
  S  C  38   0.00463    -0.01236     0.00226    -0.07978     0.36309     0.05419
 PX  C  38   0.00017     0.00011    -0.00073     0.01176    -0.06755    -0.02705
 PY  C  38  -0.00124     0.00283     0.00018     0.00810    -0.02316     0.01334
 PZ  C  38  -0.00155     0.00387    -0.00023     0.01892    -0.07695    -0.00014
  
  S  C  39   0.00928    -0.02039     0.00108    -0.07250     0.27469    -0.01075
 PX  C  39  -0.00036     0.00189    -0.00049     0.02095    -0.09850    -0.01402
 PY  C  39  -0.00249     0.00454     0.00012     0.00305     0.00694     0.01708
 PZ  C  39  -0.00331     0.00681    -0.00015     0.01750    -0.05496     0.01249
  
  S  S  40   0.00122    -0.00383     0.00261    -0.03776     0.19233     0.06096
 PX  S  40  -0.00020     0.00080    -0.00141     0.01152    -0.06337    -0.02907
 PY  S  40  -0.00041     0.00120     0.00009     0.00916    -0.04262    -0.00453
 PZ  S  40  -0.00069     0.00214    -0.00072     0.01998    -0.09922    -0.02444
  
  S  C  41   0.00113    -0.00386     0.00674    -0.04756     0.25733     0.11805
 PX  C  41   0.00027    -0.00084    -0.00148    -0.00649     0.02799    -0.00789
 PY  C  41  -0.00037     0.00117     0.00131     0.01055    -0.04931     0.00088
 PZ  C  41  -0.00032     0.00102     0.00104     0.00960    -0.04575    -0.00122
  
  S  C  42   0.00149    -0.00481     0.00352    -0.05078     0.26183     0.08647
 PX  C  42   0.00074    -0.00226     0.00051    -0.02033     0.09959     0.02162
 PY  C  42  -0.00025     0.00067     0.00059     0.00337    -0.01222     0.00687
 PZ  C  42   0.00016    -0.00062     0.00117    -0.00914     0.05068     0.02410
  
  S  C  43   0.00032    -0.00128     0.01832    -0.02601     0.16646     0.16731
 PX  C  43   0.00008    -0.00028    -0.00425    -0.00190     0.00482    -0.02006
 PY  C  43  -0.00010     0.00035     0.00450     0.00291    -0.01026     0.01809
 PZ  C  43  -0.00007     0.00022     0.00461     0.00076     0.00258     0.02786
  
  S  C  44   0.00013    -0.00061     0.02098    -0.01739     0.12167     0.15835
 PX  C  44   0.00002    -0.00005    -0.00435     0.00054    -0.00702    -0.01999
 PY  C  44  -0.00001    -0.00000     0.00745    -0.00238     0.02052     0.03960
 PZ  C  44  -0.00006     0.00025    -0.00480     0.00608    -0.04049    -0.04560
  
  S  C  45   0.00006    -0.00034     0.03823    -0.01382     0.10429     0.16273
 PX  C  45   0.00001    -0.00006    -0.00301    -0.00188     0.01312     0.01627
 PY  C  45  -0.00001     0.00004     0.00923     0.00099    -0.00594    -0.00356
 PZ  C  45  -0.00003     0.00014    -0.01047     0.00537    -0.03996    -0.06008
  
  S  C  46   0.00006    -0.00032     0.05840    -0.01316     0.10082     0.16323
 PX  C  46   0.00001    -0.00007    -0.00748    -0.00255     0.01813     0.02384
 PY  C  46  -0.00002     0.00010     0.01222     0.00360    -0.02562    -0.03372
 PZ  C  46   0.00000    -0.00002     0.00949    -0.00111     0.00923     0.01760
  
  S  S  47   0.00010    -0.00046     0.02097    -0.01291     0.09023     0.11760
 PX  S  47   0.00003    -0.00011    -0.00296    -0.00172     0.00948     0.00339
 PY  S  47  -0.00005     0.00021     0.00083     0.00422    -0.02643    -0.02371
 PZ  S  47   0.00003    -0.00016     0.01253    -0.00622     0.04645     0.07023
  
  S  C  48   0.00002    -0.00013     0.12947    -0.00531     0.04395     0.08340
 PX  C  48   0.00001    -0.00003    -0.01473    -0.00169     0.01321     0.02248
 PY  C  48  -0.00001     0.00002     0.04291     0.00176    -0.01316    -0.02014
 PZ  C  48   0.00000    -0.00002     0.03241    -0.00078     0.00680     0.01425
  
  S  C  49   0.00001    -0.00011     0.22974    -0.00255     0.02334     0.05141
 PX  C  49   0.00000     0.00000    -0.05840    -0.00111     0.00858     0.01512
 PY  C  49  -0.00000     0.00001     0.05768     0.00174    -0.01371    -0.02434
 PZ  C  49  -0.00000     0.00001    -0.01447     0.00029    -0.00245    -0.00459
  
  S  C  50   0.00001    -0.00013     0.51138     0.00243    -0.01568    -0.01931
 PX  C  50  -0.00000     0.00002    -0.11002    -0.00123     0.00948     0.01719
 PY  C  50  -0.00000    -0.00001     0.08024     0.00128    -0.01016    -0.01906
 PZ  C  50  -0.00000     0.00001    -0.03582    -0.00017     0.00112     0.00163
  
  S  O  51   0.00000    -0.00009     0.40817     0.00273    -0.01920    -0.02917
 PX  O  51  -0.00000     0.00001    -0.03642    -0.00035     0.00262     0.00467
 PY  O  51  -0.00000     0.00003    -0.13576    -0.00082     0.00561     0.00796
 PZ  O  51  -0.00000     0.00002    -0.10468    -0.00073     0.00518     0.00807
  
  S  O  52   0.00001    -0.00013     0.57377     0.00364    -0.02552    -0.03886
 PX  O  52   0.00000    -0.00002     0.08883     0.00037    -0.00225    -0.00228
 PY  O  52   0.00000    -0.00002     0.08879     0.00079    -0.00591    -0.01019
 PZ  O  52   0.00000    -0.00003     0.11576     0.00074    -0.00519    -0.00783
  
  S  C  53   0.00001    -0.00007     0.10087    -0.00248     0.02183     0.04648
 PX  C  53  -0.00000     0.00001    -0.03346    -0.00005     0.00016    -0.00034
 PY  C  53  -0.00000     0.00001     0.01327     0.00077    -0.00606    -0.01056
 PZ  C  53  -0.00000     0.00002    -0.03224     0.00058    -0.00491    -0.00945
  
  S  N  54   0.00000    -0.00003     0.03384    -0.00139     0.01225     0.02665
 PX  N  54  -0.00000     0.00001    -0.01342     0.00038    -0.00336    -0.00746
 PY  N  54  -0.00000     0.00000     0.00233     0.00022    -0.00171    -0.00294
 PZ  N  54  -0.00000     0.00001    -0.01582     0.00066    -0.00575    -0.01219
  
  S  C  55   0.06249    -0.05758    -0.00007     0.19184     0.01387     0.18138
 PX  C  55  -0.01936     0.01809     0.00002    -0.04855    -0.00323    -0.04410
 PY  C  55   0.00823    -0.00967    -0.00001     0.01669    -0.00042     0.02103
 PZ  C  55  -0.00999     0.00543     0.00001    -0.02033    -0.00177    -0.01116
  
  S  C  56   0.03663    -0.03686    -0.00004     0.11270     0.00653     0.11560
 PX  C  56  -0.01230     0.01231     0.00001    -0.03070    -0.00161    -0.03009
 PY  C  56  -0.00720     0.00684     0.00001    -0.02809    -0.00236    -0.02738
 PZ  C  56  -0.00848     0.00734     0.00001    -0.01927    -0.00083    -0.01728
  
  S  H  57   0.00001    -0.00005     0.06009    -0.00155     0.01299     0.02517
  
  S  H  58   0.00382    -0.00351    -0.00000     0.01961     0.00259     0.01904
  
  S  H  59   0.00557    -0.00540    -0.00001     0.02476     0.00308     0.02442
  
  S  H  60   0.00613    -0.00538    -0.00001     0.02533     0.00319     0.02390
  
  S  H  61   0.01088    -0.00947    -0.00001     0.04643     0.00583     0.04166
  
  S  H  62   0.01329    -0.00843    -0.00001     0.05174     0.00768     0.03706
  
  S  H  63   0.03966    -0.03272    -0.00004     0.07386     0.00561     0.06095
  
  S  H  64   0.02775    -0.02761    -0.00003     0.07005     0.00724     0.06406
  
  S  H  65   0.02832    -0.02393    -0.00003     0.09359     0.00962     0.07971
  
  S  H  66   0.04353    -0.02159    -0.00003     0.11573     0.01567     0.06499
  
  S  H  67   0.05547    -0.05799    -0.00006     0.10617     0.00689     0.09968
  
  S  H  68   0.07531    -0.06689    -0.00007     0.07348    -0.00668     0.06721
  
  S  H  69   0.08953    -0.03941    -0.00006     0.09851     0.00164     0.05489
  
  S  H  70   0.04167    -0.05270    -0.00002     0.02061     0.01799     0.00586
  
  S  H  71   0.01521    -0.02549     0.00008    -0.02325     0.04901    -0.03900
  
  S  H  72   0.02316    -0.03140     0.00006    -0.03721     0.03459    -0.04696
  
  S  H  73   0.02823     0.01415     0.00000    -0.03811    -0.01534     0.00885
  
  S  H  74   0.02876    -0.01235    -0.00001    -0.03911    -0.01234    -0.01121
  
  S  H  75   0.08308     0.04703     0.00001     0.08259     0.02466    -0.03539
  
  S  H  76   0.07030     0.07076     0.00003     0.05562     0.02508    -0.04647
  
  S  H  77   0.05390     0.06072     0.00003     0.10734     0.04874    -0.10496
  
  S  H  78   0.02761     0.02274     0.00001     0.09957     0.04005    -0.08941
  
  S  H  79   0.02487     0.02596     0.00001     0.08539     0.03732    -0.09155
  
  S  H  80   0.01441     0.01678     0.00001     0.07255     0.03306    -0.08944
  
  S  H  81   0.01550     0.01670     0.00001     0.07922     0.03522    -0.09325
  
  S  H  82   0.00638     0.00739     0.00000     0.04471     0.02066    -0.06026
  
  S  H  83   0.00618     0.00753     0.00000     0.04345     0.02035    -0.06008
  
  S  H  84   0.00185     0.00252     0.00000     0.01840     0.00894    -0.02866
  
  S  H  85   0.00269     0.00357     0.00000     0.02392     0.01152    -0.03608
  
  S  H  86   0.00274     0.00356     0.00000     0.02423     0.01161    -0.03622
  
  S  H  87   0.05265     0.02680     0.00000     0.10407     0.03328    -0.04923
  
  S  H  88   0.03269     0.02177     0.00000     0.10249     0.03763    -0.07126
  
  S  H  89   0.01248     0.01090     0.00000     0.04315     0.01727    -0.03658
  
  S  H  90   0.01622     0.01689     0.00001     0.05721     0.02443    -0.05582
  
  S  H  91   0.01943     0.01997     0.00001     0.05083     0.02164    -0.04570
  
  S  H  92   0.03912     0.05320     0.00003     0.02144     0.01657    -0.01782
  
  S  H  93   0.01308     0.02266     0.00001    -0.00986     0.00167     0.01405
  
  S  H  94   0.01169     0.02062     0.00001    -0.01478    -0.00067     0.01882
  
  S  H  95   0.02104     0.02987     0.00002    -0.02562    -0.00472     0.02348
  
  S  H  96   0.00394    -0.00810     0.00028    -0.02239     0.07782    -0.00957
  
  S  H  97   0.00036    -0.00119     0.00127    -0.01352     0.07130     0.02718
  
  S  H  98   0.00005    -0.00023     0.00536    -0.00566     0.03821     0.04518
  
  S  H  99   0.00002    -0.00009     0.01659    -0.00383     0.02955     0.04863
  
  S  H 100   0.00000    -0.00005     0.24156     0.00167    -0.01192    -0.01890
  
  S  H 101   0.02193    -0.02079    -0.00003     0.07516     0.00603     0.07215
  
  S  H 102   0.02905    -0.02176    -0.00003     0.08715     0.00797     0.07128
  
  S  H 103   0.01077    -0.01092    -0.00001     0.03717     0.00232     0.03884
  
  S  H 104   0.02258    -0.02184    -0.00003     0.05540     0.00223     0.05561
  
  S  H 105   0.01541    -0.01618    -0.00002     0.04657     0.00273     0.04870




    ROOT NO.    7           8           9          10          11          12

           -43.15864   -42.66955   -41.83567   -41.10371   -40.10070   -39.72816
  
  
  S  C   1  -0.04064     0.00915    -0.04304     0.14155     0.30495    -0.03218
 PX  C   1  -0.01502     0.00326    -0.01495     0.04734     0.09449    -0.00968
 PY  C   1  -0.00444     0.00103    -0.00390     0.01047     0.02050    -0.00202
 PZ  C   1  -0.00034     0.00019    -0.00029     0.00023    -0.00032     0.00014
  
  S  C   2  -0.06963     0.01439    -0.06725     0.20919     0.40225    -0.04080
 PX  C   2  -0.00475     0.00027    -0.00152    -0.00140    -0.02923     0.00392
 PY  C   2  -0.01833     0.00361    -0.01543     0.03991     0.06850    -0.00649
 PZ  C   2  -0.00137     0.00060    -0.00114     0.00046    -0.00111     0.00045
  
  S  C   3  -0.09883     0.01901    -0.07719     0.20239     0.32842    -0.03074
 PX  C   3  -0.01842     0.00116    -0.00815     0.00731    -0.04032     0.00568
 PY  C   3   0.00546    -0.00054     0.01253    -0.04805    -0.09312     0.00968
 PZ  C   3  -0.00301     0.00276    -0.00305     0.00569    -0.00405     0.00201
  
  S  C   4  -0.11993     0.01543    -0.07774     0.16234     0.08396    -0.00083
 PX  C   4   0.00314    -0.00301     0.00705    -0.03309    -0.12478     0.01481
 PY  C   4  -0.02335     0.00169    -0.00565    -0.00995    -0.06818     0.00830
 PZ  C   4  -0.00883     0.00424    -0.00651     0.01289    -0.00591     0.00345
  
  S  C   5  -0.14112     0.01529    -0.06241     0.07147    -0.20430     0.03272
 PX  C   5  -0.00854    -0.00208    -0.00891     0.00642    -0.10635     0.01601
 PY  C   5   0.01142    -0.00145     0.01997    -0.05022    -0.04045     0.00129
 PZ  C   5   0.00108     0.00804    -0.00949     0.02286    -0.00174     0.00630
  
  S  C   6  -0.05653    -0.02631     0.03174    -0.10062    -0.12803    -0.00517
 PX  C   6  -0.01653     0.01210    -0.04394     0.06439    -0.06326     0.01981
 PY  C   6   0.02790    -0.00644     0.03522    -0.04495     0.02761    -0.00920
 PZ  C   6  -0.04009     0.02140    -0.02357     0.04334    -0.06105     0.01696
  
  S  N   7   0.05480    -0.06253     0.18122    -0.24631     0.07291    -0.05427
 PX  N   7  -0.02118    -0.01067    -0.01325    -0.01871    -0.03940    -0.00192
 PY  N   7   0.03537    -0.00754     0.05902    -0.04634     0.02849    -0.00909
 PZ  N   7  -0.03596     0.03813    -0.01763     0.00606    -0.01810     0.01143
  
  S  C   8  -0.00979     0.12840     0.01716    -0.10389     0.05651     0.02168
 PX  C   8   0.01584    -0.05799     0.06131    -0.05108    -0.00071    -0.02294
 PY  C   8  -0.01144     0.05725    -0.05657     0.04653    -0.00863     0.02366
 PZ  C   8  -0.06390     0.07634    -0.11170     0.05849    -0.04388     0.03331
  
  S  C   9  -0.08496     0.19332    -0.12704     0.00096    -0.01073     0.05599
 PX  C   9   0.01420    -0.04743     0.04351    -0.01915    -0.00121    -0.01295
 PY  C   9  -0.01712     0.05986    -0.04995     0.01512    -0.00639     0.01686
 PZ  C   9   0.00279    -0.03270    -0.00201     0.02531    -0.01440    -0.00716
  
  S  C  10  -0.10868     0.21565    -0.18863     0.05081    -0.03704     0.04251
 PX  C  10   0.00560     0.00595     0.00558    -0.00786     0.00631     0.01278
 PY  C  10  -0.01160     0.00416    -0.01529     0.01063    -0.01038    -0.01281
 PZ  C  10   0.02916    -0.08513     0.06140    -0.01246     0.00283    -0.02565
  
  S  C  11  -0.13241     0.21565    -0.21249     0.07624    -0.05539     0.01139
 PX  C  11  -0.00494     0.05213    -0.02961     0.00291     0.00498     0.02815
 PY  C  11   0.00386    -0.05618     0.03086    -0.00175    -0.00676    -0.03226
 PZ  C  11  -0.00606    -0.03475     0.01372    -0.00499    -0.00918    -0.02521
  
  S  C  12  -0.07089     0.18785    -0.15176     0.07367    -0.02069     0.04125
 PX  C  12  -0.00047     0.03420    -0.01311     0.00323     0.00780     0.01590
 PY  C  12   0.00628    -0.04924     0.02418    -0.00422    -0.00789    -0.01945
 PZ  C  12  -0.04190     0.06312    -0.06353     0.00622    -0.01613     0.00486
  
  S  C  13   0.01341     0.12305    -0.02282     0.02336     0.04040     0.03521
 PX  C  13   0.02792    -0.03133     0.05625    -0.03782     0.02199    -0.01293
 PY  C  13  -0.02515     0.02043    -0.05441     0.04827    -0.02922     0.01174
 PZ  C  13  -0.05710     0.10919    -0.08575    -0.01761    -0.00720     0.02678
  
  S  C  14   0.11819    -0.11727     0.07727     0.17551    -0.00548    -0.00295
 PX  C  14   0.02051    -0.03352     0.02416    -0.00554     0.00383    -0.00903
 PY  C  14  -0.02316     0.02786    -0.03506     0.03465    -0.01959     0.01245
 PZ  C  14  -0.01190     0.07073     0.03401    -0.13572     0.06008    -0.00455
  
  S  C  15   0.12167    -0.16326     0.09092     0.01093     0.02461    -0.03286
 PX  C  15  -0.01947     0.00573    -0.02438    -0.05049    -0.00519    -0.00229
 PY  C  15   0.02250    -0.01482     0.02328     0.08632    -0.01418     0.00611
 PZ  C  15   0.00419     0.04188     0.10227    -0.15354     0.06121    -0.02168
  
  S  C  16   0.05384    -0.15816    -0.14258     0.05347    -0.02573     0.00386
 PX  C  16  -0.02420     0.02638    -0.04631    -0.08879     0.01973     0.00165
 PY  C  16   0.02547    -0.03540     0.06158     0.14590    -0.04202     0.00193
 PZ  C  16   0.03236    -0.01877     0.07333    -0.01569     0.01318    -0.01692
  
  S  C  17   0.02254    -0.11095    -0.06734     0.23305    -0.08556     0.02039
 PX  C  17  -0.02644     0.02990    -0.02266    -0.06412     0.01653     0.00154
 PY  C  17   0.02353    -0.01839     0.04857     0.07826    -0.02111    -0.00222
 PZ  C  17   0.04451    -0.07719    -0.03620     0.05575    -0.01500    -0.00031
  
  S  C  18   0.05988    -0.12803    -0.00379     0.30327    -0.09870     0.01449
 PX  C  18  -0.00002    -0.00892    -0.00483     0.02007    -0.00840     0.00182
 PY  C  18  -0.00971     0.02866     0.00931    -0.05314     0.01826    -0.00314
 PZ  C  18   0.03366    -0.05530    -0.00410     0.08808    -0.02334     0.00173
  
  S  C  19   0.08266    -0.12954     0.00970     0.28903    -0.07694     0.01170
 PX  C  19   0.02126    -0.03923     0.00258     0.06515    -0.01902     0.00088
 PY  C  19  -0.02862     0.04798    -0.00481    -0.07755     0.01955    -0.00082
 PZ  C  19   0.00594     0.01120     0.01049    -0.02576     0.01907    -0.00134
  
  S  C  20  -0.10718     0.12927     0.11498     0.07251    -0.02709     0.00871
 PX  C  20  -0.02711     0.05200     0.05067    -0.02689     0.01243    -0.00395
 PY  C  20   0.02633    -0.04195    -0.01577     0.04599    -0.01719     0.00188
 PZ  C  20   0.03304    -0.09067    -0.15012    -0.00618    -0.00813     0.01119
  
  S  C  21  -0.09714     0.13322     0.04396    -0.07994     0.02687     0.00216
 PX  C  21   0.00010     0.02346     0.05208    -0.00145     0.00526    -0.00562
 PY  C  21  -0.02304     0.00891     0.00522     0.03962    -0.01776     0.00593
 PZ  C  21   0.04711    -0.10667    -0.19716    -0.06929     0.01151     0.00884
  
  S  N  22   0.00401    -0.05789    -0.25221    -0.21994     0.05742     0.00423
 PX  N  22  -0.00195     0.02609     0.05952     0.02652    -0.00666    -0.00205
 PY  N  22  -0.01690    -0.01379    -0.02104     0.03838    -0.02063     0.00736
 PZ  N  22   0.02228    -0.02406     0.01809     0.00747    -0.00282    -0.00673
  
  S  C  23   0.05539    -0.03129    -0.09769    -0.14149     0.05911    -0.01046
 PX  C  23   0.01614     0.00273    -0.00007    -0.02211     0.00405    -0.00221
 PY  C  23  -0.01617    -0.02049    -0.07830    -0.06806     0.01239     0.00126
 PZ  C  23   0.00340    -0.00575     0.02140     0.02547    -0.00515    -0.00249
  
  S  C  24   0.10627     0.00202     0.04942    -0.01711     0.01778    -0.00997
 PX  C  24   0.00234     0.00469     0.02005     0.01503    -0.01488     0.00031
 PY  C  24  -0.01481    -0.00505    -0.04850    -0.06645     0.01650    -0.00371
 PZ  C  24   0.01230    -0.00628     0.00635     0.01252    -0.00379    -0.00101
  
  S  C  25   0.10878     0.00465     0.11353     0.11390    -0.01577     0.00335
 PX  C  25   0.02142     0.00219     0.02772     0.02459    -0.01173     0.00144
 PY  C  25   0.00372    -0.00163    -0.02030    -0.04472     0.01990    -0.00724
 PZ  C  25  -0.00722    -0.00155    -0.00714     0.00119     0.00356    -0.00041
  
  S  C  26   0.10220     0.00746     0.14665     0.18203    -0.05846     0.01705
 PX  C  26  -0.01444    -0.00074    -0.01947    -0.02575     0.00500    -0.00208
 PY  C  26   0.00888     0.00058    -0.00304    -0.02172     0.01317    -0.00596
 PZ  C  26   0.00498    -0.00014     0.00724     0.01166    -0.00278     0.00092
  
  S  C  27   0.07362     0.00543     0.12631     0.18185    -0.06685     0.02271
 PX  C  27   0.01000     0.00083     0.01863     0.02715    -0.01183     0.00382
 PY  C  27   0.01612     0.00106     0.02032     0.02266    -0.00415     0.00090
 PZ  C  27  -0.00408    -0.00039    -0.00700    -0.00923     0.00412    -0.00128
  
  S  C  28   0.04337     0.00339     0.08210     0.12471    -0.05116     0.01778
 PX  C  28  -0.00741    -0.00056    -0.01370    -0.02071     0.00800    -0.00282
 PY  C  28   0.01493     0.00114     0.02592     0.03713    -0.01401     0.00466
 PZ  C  28   0.00120     0.00007     0.00230     0.00371    -0.00137     0.00050
  
  S  C  29   0.07722    -0.00031     0.04670    -0.00546    -0.01559    -0.00825
 PX  C  29  -0.01180     0.00312     0.00444     0.00947    -0.00961     0.00159
 PY  C  29  -0.01469    -0.00330    -0.02230    -0.02584    -0.00008    -0.00059
 PZ  C  29  -0.01907    -0.00291    -0.01113     0.00863    -0.00762     0.00254
  
  S  C  30   0.04947     0.00562     0.04358     0.00213    -0.01502    -0.00561
 PX  C  30  -0.01844    -0.00123    -0.01258     0.00179     0.00237     0.00194
 PY  C  30  -0.00477    -0.00026    -0.00669    -0.00891     0.00108    -0.00045
 PZ  C  30   0.00407    -0.00176     0.00167     0.00207    -0.00456    -0.00017
  
  S  C  31  -0.09526     0.19141     0.21557    -0.02873     0.02426    -0.01266
 PX  C  31   0.02225    -0.03412    -0.02916     0.00677    -0.00395     0.00071
 PY  C  31  -0.04352     0.06650     0.07508     0.00622     0.00129    -0.00214
 PZ  C  31   0.02180    -0.03807    -0.07498    -0.03270     0.00693     0.00335
  
  S  C  32  -0.11105     0.21222     0.27987     0.01887     0.01077    -0.01507
 PX  C  32   0.02579    -0.04538    -0.05769    -0.00666    -0.00072     0.00235
 PY  C  32  -0.02762     0.04662     0.06173     0.01139    -0.00106    -0.00229
 PZ  C  32  -0.02853     0.05424     0.06324    -0.00213     0.00459    -0.00300
  
  S  C  33  -0.11474     0.21002     0.28359     0.04014     0.00154    -0.01320
 PX  C  33   0.00324    -0.00362    -0.00457    -0.00565     0.00239    -0.00059
 PY  C  33   0.01322    -0.02650    -0.03354     0.00320    -0.00379     0.00240
 PZ  C  33  -0.04587     0.08072     0.10214     0.01368     0.00031    -0.00377
  
  S  C  34  -0.11191     0.18711     0.24766     0.07084    -0.01485    -0.00596
 PX  C  34  -0.02350     0.04490     0.05701    -0.00245     0.00446    -0.00348
 PY  C  34   0.04065    -0.07218    -0.08792    -0.00320    -0.00369     0.00394
 PZ  C  34  -0.01362     0.01141     0.00530     0.01821    -0.00819     0.00339
  
  S  C  35  -0.13693    -0.00167    -0.08177     0.04586    -0.06445    -0.10640
 PX  C  35  -0.00330     0.05484    -0.04062     0.01283    -0.00645     0.01896
 PY  C  35  -0.00667    -0.06219     0.03943    -0.01101     0.00130    -0.03190
 PZ  C  35  -0.01369    -0.04588     0.02381    -0.00681    -0.00366    -0.03144
  
  S  S  36  -0.07617    -0.06429     0.00062     0.01047    -0.02573    -0.07267
 PX  S  36  -0.03368    -0.00529    -0.01754     0.01174    -0.01745    -0.03297
 PY  S  36  -0.00914    -0.03227     0.01861    -0.00589     0.00212    -0.01107
 PZ  S  36  -0.03417    -0.04838     0.01483    -0.00132    -0.00831    -0.03709
  
  S  C  37  -0.07946    -0.19129     0.09509    -0.02804     0.01482    -0.03193
 PX  C  37  -0.03542    -0.02773    -0.00152     0.00600    -0.01700    -0.05022
 PY  C  37   0.01510    -0.02069     0.02545    -0.01301     0.02046     0.04149
 PZ  C  37  -0.00319    -0.04674     0.03357    -0.01372     0.01636     0.02265
  
  S  C  38  -0.09181    -0.18459     0.08186    -0.02088     0.00215    -0.05870
 PX  C  38  -0.00223     0.04735    -0.03779     0.01605    -0.02079    -0.03143
 PY  C  38   0.02528    -0.00044     0.01671    -0.01066     0.01992     0.04582
 PZ  C  38   0.03299     0.03184    -0.00313    -0.00362     0.01299     0.04139
  
  S  C  39  -0.11395    -0.07868    -0.01266     0.01873    -0.04499    -0.11433
 PX  C  39   0.03016     0.05652    -0.02319     0.00412     0.00507     0.03580
 PY  C  39   0.00759    -0.02927     0.02663    -0.01022     0.00967     0.00228
 PZ  C  39   0.02907     0.00038     0.01820    -0.01052     0.01574     0.02719
  
  S  S  40   0.00049    -0.09803     0.06807    -0.02667     0.03131     0.05031
 PX  S  40  -0.01670     0.02697    -0.02535     0.01143    -0.01706    -0.04050
 PY  S  40   0.01769     0.02964    -0.01424     0.00423    -0.00159     0.01118
 PZ  S  40   0.01480     0.05915    -0.03641     0.01335    -0.01332    -0.01012
  
  S  C  41   0.07589    -0.09283     0.08903    -0.03971     0.05884     0.14806
 PX  C  41  -0.03821    -0.03953     0.01719    -0.00509     0.00144    -0.02317
 PY  C  41   0.03890     0.05278    -0.02703     0.00925    -0.00695     0.01382
 PZ  C  41   0.03212     0.04734    -0.02547     0.00908    -0.00790     0.00757
  
  S  C  42   0.00392    -0.13808     0.09955    -0.04015     0.04976     0.08369
 PX  C  42  -0.02061    -0.06197     0.03634    -0.01287     0.01172     0.00296
 PY  C  42   0.02103     0.01529    -0.00296    -0.00054     0.00478     0.02449
 PZ  C  42   0.01503    -0.02083     0.02043    -0.00941     0.01440     0.03551
  
  S  C  43   0.26529     0.09564     0.00007    -0.00885     0.03283     0.18743
 PX  C  43  -0.05338    -0.04390     0.01957    -0.00702     0.00715    -0.00221
 PY  C  43   0.05338     0.04754    -0.02252     0.00838    -0.00941    -0.00456
 PZ  C  43   0.06609     0.04887    -0.01981     0.00664    -0.00512     0.01613
  
  S  C  44   0.28288     0.13872    -0.02948     0.00403     0.01336     0.14032
 PX  C  44  -0.04350    -0.02961     0.01152    -0.00398     0.00428     0.00139
 PY  C  44   0.07997     0.04901    -0.01661     0.00514    -0.00391     0.01048
 PZ  C  44  -0.07625    -0.03176     0.00313     0.00125    -0.00800    -0.05394
  
  S  C  45   0.31110     0.17519    -0.05281     0.01514    -0.01146     0.01776
 PX  C  45   0.02808     0.01234    -0.00122    -0.00077     0.00578     0.04509
 PY  C  45  -0.00267     0.00326    -0.00447     0.00288    -0.00991    -0.06714
 PZ  C  45  -0.11315    -0.06172     0.01714    -0.00425     0.00001    -0.03615
  
  S  C  46   0.31648     0.18345    -0.05929     0.01891    -0.02361    -0.05593
 PX  C  46   0.04226     0.01989    -0.00306    -0.00049     0.00687     0.05533
 PY  C  46  -0.05973    -0.02802     0.00415     0.00086    -0.01085    -0.09036
 PZ  C  46   0.03593     0.02283    -0.00874     0.00334    -0.00661    -0.03520
  
  S  S  47   0.21062     0.10424    -0.02329     0.00402     0.00565     0.07596
 PX  S  47  -0.00052    -0.00738     0.00623    -0.00308     0.00636     0.02570
 PY  S  47  -0.03449    -0.00839    -0.00379     0.00318    -0.00918    -0.04802
 PZ  S  47   0.13249     0.07252    -0.02030     0.00512    -0.00060     0.03646
  
  S  C  48   0.17056     0.10926    -0.04319     0.01738    -0.03794    -0.18782
 PX  C  48   0.04442     0.02672    -0.00935     0.00330    -0.00606    -0.03778
 PY  C  48  -0.03818    -0.02104     0.00583    -0.00133    -0.00106    -0.01688
 PZ  C  48   0.03004     0.02033    -0.00889     0.00397    -0.01092    -0.07293
  
  S  C  49   0.10945     0.07505    -0.03340     0.01513    -0.04294    -0.30146
 PX  C  49   0.03051     0.01925    -0.00759     0.00315    -0.00872    -0.07348
 PY  C  49  -0.04900    -0.03062     0.01160    -0.00443     0.00776     0.01301
 PZ  C  49  -0.00924    -0.00565     0.00187    -0.00047    -0.00243    -0.06313
  
  S  C  50  -0.03478    -0.01778     0.00446    -0.00087    -0.00387    -0.09072
 PX  C  50   0.03534     0.02327    -0.01017     0.00480    -0.01815    -0.20302
 PY  C  50  -0.03935    -0.02588     0.01088    -0.00459     0.00741    -0.04679
 PZ  C  50   0.00326     0.00218    -0.00122     0.00091    -0.00942    -0.18209
  
  S  O  51  -0.05669    -0.03363     0.01174    -0.00389    -0.00451    -0.27054
 PX  O  51   0.00955     0.00626    -0.00271     0.00126    -0.00430    -0.04103
 PY  O  51   0.01509     0.00852    -0.00264     0.00070     0.00273     0.08668
 PZ  O  51   0.01584     0.00961    -0.00357     0.00137    -0.00177     0.01735
  
  S  O  52  -0.07603    -0.04621     0.01797    -0.00792     0.03137     0.40437
 PX  O  52  -0.00371    -0.00145     0.00004     0.00014    -0.00024     0.01056
 PY  O  52  -0.02065    -0.01328     0.00554    -0.00247     0.00752     0.06295
 PZ  O  52  -0.01524    -0.00914     0.00341    -0.00140     0.00431     0.04410
  
  S  C  53   0.09867     0.06774    -0.03074     0.01448    -0.04710    -0.39515
 PX  C  53  -0.00094    -0.00078     0.00032    -0.00006    -0.00053    -0.00536
 PY  C  53  -0.02105    -0.01288     0.00464    -0.00166     0.00219    -0.00549
 PZ  C  53  -0.01925    -0.01212     0.00447    -0.00156     0.00143    -0.00910
  
  S  N  54   0.05715     0.04007    -0.01902     0.00944    -0.03375    -0.29810
 PX  N  54  -0.01607    -0.01134     0.00542    -0.00270     0.00970     0.08711
 PY  N  54  -0.00583    -0.00351     0.00121    -0.00040     0.00029    -0.00440
 PZ  N  54  -0.02593    -0.01790     0.00825    -0.00397     0.01349     0.11588
  
  S  C  55  -0.11171     0.01106    -0.06027     0.07180    -0.30166     0.04989
 PX  C  55   0.02708    -0.00356     0.01381    -0.01772     0.02604    -0.00478
 PY  C  55  -0.01183     0.00102    -0.00332    -0.00452    -0.06092     0.00867
 PZ  C  55   0.00551     0.00137     0.00144     0.00127     0.00825     0.00024
  
  S  C  56  -0.07051     0.00689    -0.03591     0.03520    -0.24948     0.04023
 PX  C  56   0.01822    -0.00224     0.00826    -0.00704     0.04752    -0.00748
 PY  C  56   0.01738    -0.00200     0.01038    -0.01320     0.05232    -0.00901
 PZ  C  56   0.00961    -0.00002     0.00345    -0.00119     0.03087    -0.00406
  
  S  H  57   0.05170     0.03335    -0.01329     0.00535    -0.01107    -0.04153
  
  S  H  58  -0.01396     0.00316    -0.01535     0.05203     0.11458    -0.01222
  
  S  H  59  -0.01774     0.00415    -0.01862     0.06030     0.13005    -0.01365
  
  S  H  60  -0.01727     0.00385    -0.01822     0.05980     0.13031    -0.01383
  
  S  H  61  -0.02960     0.00615    -0.02838     0.08756     0.16300    -0.01624
  
  S  H  62  -0.02697     0.00549    -0.02611     0.08833     0.16429    -0.01673
  
  S  H  63  -0.03863     0.00640    -0.02717     0.07146     0.14174    -0.01502
  
  S  H  64  -0.04505     0.01230    -0.03454     0.08373     0.13384    -0.01109
  
  S  H  65  -0.05230     0.00784    -0.03659     0.08020     0.03701     0.00106
  
  S  H  66  -0.04224     0.00324    -0.02919     0.06654     0.03538    -0.00184
  
  S  H  67  -0.06509     0.01713    -0.03026     0.02993    -0.07876     0.01620
  
  S  H  68  -0.02561    -0.00837     0.01246    -0.04044    -0.08283     0.00327
  
  S  H  69  -0.01643    -0.02035    -0.00122    -0.04452    -0.05538    -0.00308
  
  S  H  70  -0.03873     0.05385    -0.03821     0.00303    -0.01292     0.01735
  
  S  H  71  -0.03951     0.05995    -0.06055     0.01900    -0.01743     0.00511
  
  S  H  72  -0.02033     0.04646    -0.04400     0.03432    -0.01105     0.00730
  
  S  H  73   0.01154    -0.02888     0.00510     0.09425    -0.03234     0.00518
  
  S  H  74   0.02176    -0.02950     0.00101     0.08823    -0.02280     0.00536
  
  S  H  75   0.02180    -0.02126    -0.03593    -0.04821     0.03088    -0.00760
  
  S  H  76   0.02085    -0.00932    -0.03541    -0.04992     0.02462    -0.00334
  
  S  H  77   0.04276     0.01146     0.03192    -0.01170     0.00831    -0.00437
  
  S  H  78   0.04207     0.00106     0.04349     0.05542     0.00264     0.00055
  
  S  H  79   0.04358     0.00172     0.04457     0.04627    -0.00470     0.00181
  
  S  H  80   0.04365     0.00376     0.06226     0.07418    -0.02484     0.00698
  
  S  H  81   0.04560     0.00328     0.06395     0.07698    -0.02593     0.00683
  
  S  H  82   0.03055     0.00218     0.05194     0.07556    -0.02628     0.00915
  
  S  H  83   0.03049     0.00223     0.05185     0.07453    -0.02693     0.00926
  
  S  H  84   0.01495     0.00118     0.02931     0.04557    -0.01914     0.00676
  
  S  H  85   0.01865     0.00148     0.03517     0.05313    -0.02193     0.00758
  
  S  H  86   0.01872     0.00146     0.03523     0.05329    -0.02191     0.00757
  
  S  H  87   0.02270    -0.00553     0.00311    -0.02095    -0.01592    -0.00352
  
  S  H  88   0.03224     0.00005     0.02595     0.01597    -0.01317    -0.00189
  
  S  H  89   0.01641     0.00160     0.01513     0.00154    -0.00788    -0.00187
  
  S  H  90   0.02512     0.00335     0.02536     0.00845    -0.00739    -0.00192
  
  S  H  91   0.01899     0.00501     0.01839    -0.00483    -0.00408    -0.00289
  
  S  H  92  -0.01417     0.05164     0.05787    -0.02116     0.01189    -0.00511
  
  S  H  93  -0.02968     0.05950     0.08161     0.00499     0.00371    -0.00499
  
  S  H  94  -0.03127     0.05846     0.08236     0.01291     0.00015    -0.00420
  
  S  H  95  -0.02909     0.04695     0.06849     0.03335    -0.00949    -0.00075
  
  S  H  96  -0.03602    -0.01131    -0.01380     0.00895    -0.01629    -0.03280
  
  S  H  97   0.00844    -0.03406     0.02719    -0.01150     0.01554     0.03140
  
  S  H  98   0.07759     0.03481    -0.00542    -0.00015     0.00598     0.04674
  
  S  H  99   0.09481     0.05555    -0.01835     0.00601    -0.00839    -0.03038
  
  S  H 100  -0.03744    -0.02322     0.00928    -0.00411     0.01480     0.16794
  
  S  H 101  -0.04552     0.00539    -0.02663     0.03683    -0.11297     0.02003
  
  S  H 102  -0.04378     0.00301    -0.02383     0.02885    -0.12498     0.01979
  
  S  H 103  -0.02390     0.00225    -0.01287     0.01347    -0.09275     0.01517
  
  S  H 104  -0.03242     0.00210    -0.01379     0.00939    -0.11591     0.01744
  
  S  H 105  -0.03018     0.00378    -0.01555     0.01528    -0.10400     0.01716




    ROOT NO.   13          14          15          16          17          18

           -39.36331   -39.29657   -38.46248   -36.38356   -36.11202   -35.35962
  
  
  S  C   1   0.00422    -0.01802     0.01049    -0.00713     0.09531     0.22545
 PX  C   1   0.00103    -0.00517     0.00279    -0.00148     0.01881     0.03650
 PY  C   1   0.00053    -0.00111     0.00049     0.00004    -0.00114    -0.00200
 PZ  C   1   0.00008     0.00014    -0.00026    -0.00010     0.00021     0.00110
  
  S  C   2   0.00289    -0.02117     0.01137    -0.00619     0.07933     0.15019
 PX  C   2  -0.00221     0.00316    -0.00225     0.00205    -0.02881    -0.08505
 PY  C   2   0.00059    -0.00312     0.00133     0.00035    -0.00615    -0.01900
 PZ  C   2   0.00032     0.00043    -0.00083    -0.00035     0.00097     0.00386
  
  S  C   3   0.00600    -0.01555     0.00664     0.00149    -0.02347    -0.06478
 PX  C   3  -0.00283     0.00443    -0.00278     0.00295    -0.03720    -0.09962
 PY  C   3   0.00488     0.00355    -0.00228     0.00335    -0.04258    -0.05649
 PZ  C   3   0.00120     0.00198    -0.00368    -0.00140     0.00433     0.00721
  
  S  C   4  -0.01227     0.00745    -0.00814     0.00268    -0.04683    -0.19588
 PX  C   4  -0.00929     0.01144    -0.00791    -0.00260     0.02412     0.01621
 PY  C   4   0.00580     0.00304    -0.00214     0.00265    -0.02946    -0.03931
 PZ  C   4   0.00538     0.00251    -0.00628    -0.00316     0.01620     0.00909
  
  S  C   5   0.00264     0.02254    -0.02144    -0.00073    -0.01670    -0.09425
 PX  C   5  -0.01685     0.01655    -0.01481    -0.01085     0.10740     0.09493
 PY  C   5   0.01537    -0.00580     0.00561     0.00265    -0.01783     0.05361
 PZ  C   5  -0.00198     0.00909    -0.01590    -0.00920     0.05655     0.03741
  
  S  C   6   0.03722    -0.02981     0.04786     0.02667    -0.15564    -0.06441
 PX  C   6  -0.03544     0.03023    -0.03208    -0.01395     0.09962     0.04827
 PY  C   6   0.01986    -0.01462     0.01306     0.00242    -0.01046     0.04119
 PZ  C   6   0.00161     0.01639    -0.02431    -0.00734     0.01728     0.00012
  
  S  N   7   0.08759    -0.08742     0.10069     0.03085    -0.15865    -0.00104
 PX  N   7   0.01111    -0.01076     0.02158     0.01565    -0.09050    -0.05520
 PY  N   7   0.00864    -0.00997     0.00542    -0.00636     0.04808     0.06654
 PZ  N   7   0.01740     0.00882    -0.02096    -0.00053    -0.07406    -0.01626
  
  S  C   8   0.06357     0.02004    -0.07200    -0.01808    -0.06066     0.05629
 PX  C   8   0.01641    -0.03496     0.05104     0.01483    -0.06026    -0.01241
 PY  C   8  -0.01934     0.03600    -0.05120    -0.01606     0.07906     0.02329
 PZ  C   8   0.00922     0.03583    -0.05420     0.00034    -0.11592    -0.06512
  
  S  C   9   0.05459     0.05810    -0.11524    -0.01028    -0.19560    -0.04870
 PX  C   9   0.00283    -0.01713     0.02381     0.00277    -0.00020     0.00171
 PY  C   9  -0.00082     0.02102    -0.03019    -0.00372    -0.00123     0.00271
 PZ  C   9  -0.01599    -0.00762     0.02336     0.00694     0.00429    -0.02131
  
  S  C  10   0.01960     0.04015    -0.04784     0.01271    -0.14827    -0.06255
 PX  C  10   0.01098     0.01732    -0.04150    -0.01100    -0.02368     0.00001
 PY  C  10  -0.01217    -0.01824     0.04619     0.01296     0.02575     0.00014
 PZ  C  10  -0.00969    -0.03065     0.05185     0.00792     0.01425     0.00048
  
  S  C  11  -0.01290    -0.00072     0.05221     0.03344    -0.03367    -0.04414
 PX  C  11   0.01214     0.03637    -0.06878    -0.01285    -0.02081    -0.00188
 PY  C  11  -0.01505    -0.04170     0.07998     0.01470     0.03001     0.00386
 PZ  C  11  -0.00246    -0.03639     0.06808     0.01896    -0.05167    -0.01702
  
  S  C  12  -0.02340     0.05434    -0.06309    -0.01298     0.12755     0.00902
 PX  C  12   0.00193     0.02298    -0.04389    -0.01324     0.02654     0.01498
 PY  C  12  -0.00434    -0.02678     0.05021     0.01370    -0.02175    -0.01526
 PZ  C  12   0.01182    -0.00253     0.01389     0.01480    -0.06819    -0.02025
  
  S  C  13  -0.02502     0.06053    -0.10185    -0.04297     0.22906     0.08790
 PX  C  13   0.00842    -0.01587     0.01635     0.00005    -0.00252     0.02607
 PY  C  13  -0.01635     0.01569    -0.01208     0.00041     0.01444    -0.03168
 PZ  C  13   0.03836     0.02286    -0.04715    -0.00037    -0.09247    -0.00535
  
  S  C  14  -0.12717     0.03331    -0.01270    -0.02253     0.23861    -0.00706
 PX  C  14   0.00271    -0.01251     0.01985     0.00668    -0.02990     0.00503
 PY  C  14  -0.01495     0.01858    -0.02274    -0.00549     0.01958    -0.02530
 PZ  C  14   0.05413    -0.01315    -0.01073    -0.01331     0.07526     0.09694
  
  S  C  15  -0.02970    -0.03257     0.06267     0.01115     0.04926    -0.00862
 PX  C  15   0.03445    -0.01415     0.01388     0.01049    -0.07158    -0.01548
 PY  C  15  -0.04768     0.02091    -0.01806    -0.01048     0.06418     0.01643
 PZ  C  15   0.03985    -0.03169     0.02591    -0.00033     0.01782     0.06043
  
  S  C  16   0.06369    -0.01827     0.01460     0.01048    -0.05643     0.01032
 PX  C  16   0.05893    -0.01241    -0.00431    -0.00285     0.00898     0.03184
 PY  C  16  -0.06633     0.01677     0.00233     0.00595    -0.06154    -0.00035
 PZ  C  16  -0.05997    -0.00379     0.02853     0.00523     0.05552    -0.07787
  
  S  C  17   0.00811     0.01360    -0.01260     0.01469    -0.23226     0.06637
 PX  C  17   0.06400    -0.01432    -0.00309    -0.00196    -0.01280     0.06762
 PY  C  17  -0.08138     0.01806     0.00372     0.00344    -0.00509    -0.07227
 PZ  C  17  -0.03308     0.00665     0.00510     0.00033     0.04982    -0.05721
  
  S  C  18  -0.12385     0.04249    -0.00916     0.01201    -0.13031    -0.09592
 PX  C  18   0.00873    -0.00121     0.00012     0.00328    -0.04844     0.02446
 PY  C  18   0.00319    -0.00266     0.00025    -0.00410     0.05342    -0.01579
 PZ  C  18  -0.05323     0.01459    -0.00066    -0.00132     0.04526    -0.05679
  
  S  C  19  -0.16185     0.05291    -0.01755    -0.00614     0.08634    -0.12915
 PX  C  19  -0.02925     0.00712     0.00216     0.00265    -0.01467    -0.02141
 PY  C  19   0.03688    -0.00921    -0.00135    -0.00095    -0.00486     0.02072
 PZ  C  19   0.00082     0.00075    -0.00611    -0.01041     0.09961     0.02861
  
  S  C  20   0.05743    -0.00736    -0.00829     0.00754    -0.18476     0.13724
 PX  C  20  -0.00184    -0.00287     0.00299    -0.00305     0.04816    -0.00793
 PY  C  20  -0.02145     0.00638     0.00061     0.00567    -0.06628    -0.00308
 PZ  C  20   0.06852    -0.00657    -0.01294    -0.00167    -0.03469     0.06142
  
  S  C  21   0.06189    -0.01092    -0.01154    -0.01129     0.07399     0.05421
 PX  C  21  -0.04768     0.00720     0.00494    -0.00170     0.05307    -0.04268
 PY  C  21   0.04946    -0.00850    -0.00246     0.00556    -0.10719     0.08174
 PZ  C  21   0.07336    -0.00897    -0.01268    -0.00461     0.01289     0.03127
  
  S  N  22   0.11844    -0.02296    -0.01129    -0.01315     0.14742    -0.02354
 PX  N  22  -0.04792     0.01087    -0.00047    -0.00022    -0.00385     0.00701
 PY  N  22   0.08074    -0.01618    -0.00080     0.00522    -0.09590     0.10138
 PZ  N  22  -0.04197     0.00243     0.01413     0.00669    -0.00955    -0.05903
  
  S  C  23  -0.08772     0.01755    -0.00067    -0.00856     0.16499    -0.22625
 PX  C  23  -0.05578     0.01391    -0.00295    -0.00151     0.01406    -0.00490
 PY  C  23   0.06739    -0.01675     0.00181    -0.00230     0.04134     0.02695
 PZ  C  23  -0.01819     0.00108     0.00674     0.00552    -0.04414    -0.00446
  
  S  C  24  -0.21871     0.05252    -0.00719    -0.00112     0.00617    -0.08945
 PX  C  24  -0.03920     0.01042    -0.00141     0.00407    -0.07852     0.14970
 PY  C  24  -0.04023     0.00851    -0.00030    -0.00237     0.04376     0.00475
 PZ  C  24  -0.03019     0.00686     0.00098     0.00324    -0.03832     0.01197
  
  S  C  25   0.02270    -0.00372    -0.00151     0.00045    -0.01291    -0.14307
 PX  C  25  -0.00218     0.00148    -0.00091     0.00138    -0.02963     0.03425
 PY  C  25  -0.12788     0.02958    -0.00254    -0.00006     0.00336    -0.03639
 PZ  C  25  -0.00004    -0.00033     0.00068     0.00085    -0.00906     0.01289
  
  S  C  26   0.25795    -0.05813     0.00351     0.00044    -0.01399    -0.00735
 PX  C  26  -0.03738     0.00863    -0.00061     0.00047    -0.00864     0.03838
 PY  C  26  -0.12363     0.02940    -0.00345     0.00145    -0.03283    -0.02421
 PZ  C  26   0.01453    -0.00332     0.00035     0.00032    -0.00413     0.00214
  
  S  C  27   0.39529    -0.09148     0.00821    -0.00216     0.04681     0.03289
 PX  C  27   0.06567    -0.01519     0.00141    -0.00030     0.00688     0.02051
 PY  C  27   0.00601    -0.00096    -0.00045     0.00056    -0.01400    -0.02567
 PZ  C  27  -0.02156     0.00496    -0.00040     0.00018    -0.00322    -0.00141
  
  S  C  28   0.31896    -0.07427     0.00726    -0.00239     0.05416     0.06704
 PX  C  28  -0.05058     0.01177    -0.00112     0.00037    -0.00811    -0.00476
 PY  C  28   0.08006    -0.01849     0.00162    -0.00034     0.00722     0.00858
 PZ  C  28   0.00906    -0.00212     0.00022    -0.00004     0.00124     0.00177
  
  S  C  29  -0.26726     0.06544    -0.00667     0.00902    -0.15897     0.24232
 PX  C  29   0.00355     0.00018    -0.00099     0.00227    -0.05286     0.13223
 PY  C  29   0.00107    -0.00111     0.00170    -0.00025     0.01749    -0.00189
 PZ  C  29   0.04693    -0.01121     0.00208     0.00012     0.01194    -0.03505
  
  S  C  30  -0.20628     0.05136    -0.00680     0.00892    -0.18238     0.35867
 PX  C  30   0.05962    -0.01462     0.00175    -0.00153     0.02975    -0.04567
 PY  C  30  -0.00486     0.00092     0.00027    -0.00015     0.00536     0.00078
 PZ  C  30  -0.01997     0.00511    -0.00043     0.00148    -0.02367     0.03482
  
  S  C  31  -0.07581     0.00937     0.00684    -0.00919     0.15678    -0.07373
 PX  C  31  -0.00639     0.00210     0.00005     0.00132    -0.01188     0.00088
 PY  C  31   0.00420    -0.00348     0.00308    -0.00009     0.00625     0.00133
 PZ  C  31   0.01720     0.00016    -0.00770    -0.00336     0.00609     0.02741
  
  S  C  32  -0.08256     0.00640     0.01703    -0.00171     0.11110    -0.10482
 PX  C  32   0.00931     0.00006    -0.00300    -0.00061    -0.00186     0.00766
 PY  C  32  -0.00730    -0.00080     0.00385     0.00184    -0.01105    -0.00591
 PZ  C  32  -0.01629     0.00171     0.00168    -0.00207     0.03053    -0.00730
  
  S  C  33  -0.06874     0.00371     0.01789     0.00440     0.02225    -0.07386
 PX  C  33  -0.00297     0.00031     0.00038    -0.00142     0.02662    -0.01449
 PY  C  33   0.01136    -0.00071    -0.00233     0.00176    -0.03936     0.02388
 PZ  C  33  -0.01714     0.00054     0.00445     0.00101    -0.00272    -0.00344
  
  S  C  34  -0.03829     0.00258     0.01005     0.00959    -0.10881     0.01532
 PX  C  34  -0.01254    -0.00020     0.00404    -0.00058     0.02616    -0.01843
 PY  C  34   0.01284     0.00062    -0.00449     0.00023    -0.01794     0.01102
 PZ  C  34   0.01649    -0.00107    -0.00399     0.00178    -0.05669     0.04640
  
  S  C  35  -0.04643    -0.14859     0.29319     0.05801     0.00748    -0.00904
 PX  C  35   0.00302     0.01975    -0.01650     0.00974    -0.02133    -0.01973
 PY  C  35  -0.00753    -0.03755     0.05021    -0.00358     0.02042     0.02093
 PZ  C  35  -0.00673    -0.03969     0.06085     0.00397    -0.00271     0.01074
  
  S  S  36  -0.02608    -0.09220     0.15122     0.01340     0.02768     0.01522
 PX  S  36  -0.01468    -0.04582     0.09075     0.01676     0.01152     0.00201
 PY  S  36  -0.00105    -0.01060     0.00359    -0.00745     0.00428     0.00770
 PZ  S  36  -0.01041    -0.04517     0.06526     0.00123     0.00940     0.01147
  
  S  C  37   0.00228    -0.01528    -0.06248    -0.04360     0.01012     0.01513
 PX  C  37  -0.01756    -0.06659     0.11654     0.01213     0.01580     0.01500
 PY  C  37   0.01789     0.06162    -0.12913    -0.02147    -0.01392    -0.01101
 PZ  C  37   0.01258     0.03891    -0.09671    -0.02072    -0.00894    -0.00499
  
  S  C  38  -0.00859    -0.05490     0.02107    -0.02721     0.01380     0.02140
 PX  C  38  -0.01605    -0.05214     0.12572     0.02774     0.00734     0.00564
 PY  C  38   0.01807     0.06503    -0.12776    -0.01930    -0.01227    -0.01102
 PZ  C  38   0.01387     0.05344    -0.08868    -0.00709    -0.01283    -0.01158
  
  S  C  39  -0.03989    -0.15084     0.26488     0.03674     0.01144     0.01428
 PX  C  39   0.00970     0.04207    -0.05582     0.00283    -0.01636    -0.01576
 PY  C  39   0.00368     0.00789    -0.03103    -0.01409     0.01024     0.01054
 PZ  C  39   0.01182     0.03863    -0.07839    -0.01620    -0.00243     0.00162
  
  S  S  40   0.02353     0.07690    -0.15805    -0.01976    -0.01238    -0.00832
 PX  S  40  -0.01451    -0.05345     0.08396    -0.00038     0.00836     0.00891
 PY  S  40   0.00038     0.00744     0.01508     0.01493    -0.00072    -0.00342
 PZ  S  40  -0.00892    -0.02415     0.07783     0.02220     0.00462     0.00125
  
  S  C  41   0.04955     0.18592    -0.25857     0.01501    -0.02665    -0.02870
 PX  C  41  -0.00070    -0.01351    -0.04097    -0.03133    -0.00106     0.00291
 PY  C  41  -0.00384    -0.00158     0.07587     0.03772     0.00465     0.00042
 PZ  C  41  -0.00507    -0.00768     0.07909     0.03611     0.00606     0.00258
  
  S  C  42   0.03870     0.12854    -0.27178    -0.04109    -0.02268    -0.01897
 PX  C  42   0.00718     0.01660    -0.07281    -0.02607    -0.00278     0.00067
 PY  C  42   0.00561     0.02574    -0.01649     0.01351    -0.00470    -0.00666
 PZ  C  42   0.01249     0.04631    -0.07097     0.00146    -0.00828    -0.00856
  
  S  C  43   0.03104     0.15928     0.04596     0.11798    -0.00029    -0.01106
 PX  C  43   0.00628     0.01552    -0.07546    -0.00803    -0.00765    -0.00774
 PY  C  43  -0.00835    -0.02380     0.08422     0.00352     0.00855     0.00910
 PZ  C  43  -0.00393    -0.00262     0.08666     0.03278     0.00976     0.00813
  
  S  C  44   0.01399     0.09651     0.15235     0.12446     0.01484     0.00601
 PX  C  44   0.00392     0.01113    -0.04029     0.00019    -0.00447    -0.00522
 PY  C  44  -0.00336    -0.00456     0.06004     0.00969     0.00626     0.00637
 PZ  C  44  -0.00753    -0.04189    -0.02637    -0.02953    -0.00041     0.00253
  
  S  C  45  -0.00951    -0.01828     0.13225     0.01932     0.01317     0.01348
 PX  C  45   0.00608     0.03633     0.04342     0.05067     0.00554     0.00208
 PY  C  45  -0.00936    -0.05347    -0.05247    -0.06146    -0.00621    -0.00194
 PZ  C  45   0.00107    -0.00913    -0.06550     0.01086    -0.00271    -0.00343
  
  S  C  46  -0.02610    -0.10463     0.05936    -0.15374    -0.00466     0.00631
 PX  C  46   0.00891     0.05189     0.06492     0.07756     0.00927     0.00436
 PY  C  46  -0.01229    -0.07493    -0.10252    -0.10581    -0.01357    -0.00704
 PZ  C  46  -0.00473    -0.02480    -0.00919    -0.00632     0.00070     0.00160
  
  S  S  47   0.00383     0.03694     0.07899     0.00467     0.00184     0.00073
 PX  S  47   0.00695     0.03127    -0.00543     0.03584     0.00034    -0.00261
 PY  S  47  -0.00955    -0.04713    -0.01096    -0.04920    -0.00140     0.00263
 PZ  S  47  -0.00100     0.01049     0.07227     0.00589     0.00470     0.00443
  
  S  C  48  -0.05076    -0.24867    -0.15037    -0.33668    -0.03217    -0.01113
 PX  C  48   0.00061    -0.00157     0.00649    -0.02156    -0.00031     0.00147
 PY  C  48  -0.00528    -0.03008    -0.05287    -0.01765    -0.00549    -0.00522
 PZ  C  48  -0.00847    -0.05029    -0.05365    -0.05195    -0.00637    -0.00328
  
  S  C  49  -0.02634    -0.17065    -0.20442    -0.23577    -0.02863    -0.01498
 PX  C  49   0.00339     0.00170    -0.02240     0.02275     0.00200     0.00096
 PY  C  49   0.02232     0.09711     0.04069     0.05763     0.00486     0.00083
 PZ  C  49   0.02124     0.07906     0.00660     0.10771     0.00938     0.00283
  
  S  C  50   0.02879     0.10670     0.01850    -0.07021    -0.00745    -0.00379
 PX  C  50   0.03121     0.09789    -0.01737    -0.10196    -0.01096    -0.00521
 PY  C  50   0.06190     0.26137     0.14004     0.04167     0.00837     0.00628
 PZ  C  50   0.06015     0.22803     0.06760    -0.03970    -0.00225     0.00010
  
  S  O  51   0.13125     0.52077     0.20614    -0.07289    -0.00174     0.00264
 PX  O  51   0.00314     0.00586    -0.01279    -0.02100    -0.00263    -0.00150
 PY  O  51  -0.03529    -0.13704    -0.04545     0.02289     0.00139     0.00016
 PZ  O  51  -0.01760    -0.07328    -0.03616     0.00083    -0.00089    -0.00096
  
  S  O  52  -0.08888    -0.31309    -0.04729     0.17150     0.01543     0.00537
 PX  O  52  -0.00823    -0.03426    -0.01824    -0.03182    -0.00388    -0.00221
 PY  O  52  -0.00109     0.00699     0.02642     0.05732     0.00653     0.00333
 PZ  O  52  -0.00605    -0.01845     0.00306     0.01422     0.00136     0.00047
  
  S  C  53  -0.00184    -0.08648    -0.24609     0.32170     0.02112     0.00205
 PX  C  53  -0.00238    -0.01302    -0.02878     0.21107     0.01875     0.00645
 PY  C  53   0.01008     0.04164     0.01275     0.00335    -0.00020    -0.00071
 PZ  C  53   0.00517     0.01755    -0.02734     0.29920     0.02629     0.00859
  
  S  N  54   0.00046    -0.06045    -0.21752     0.56877     0.04481     0.01124
 PX  N  54  -0.00124     0.01262     0.05801    -0.13389    -0.01021    -0.00227
 PY  N  54   0.00260     0.00998    -0.00002     0.00894     0.00051    -0.00013
 PZ  N  54   0.00041     0.02549     0.08006    -0.17460    -0.01337    -0.00308
  
  S  C  55  -0.02479     0.04536    -0.04635    -0.02556     0.22048     0.15179
 PX  C  55  -0.00095    -0.00326     0.00286    -0.00256     0.03210     0.06277
[...]
    Config     643   0.06774157  0.00458892
    Config     665   0.04317504  0.00186408
    Config     669   0.06243008  0.00389751
    Config     672   0.04135504  0.00171024
    Config     686   0.04272999  0.00182585
    Config     688  -0.04690527  0.00220010
    Config     693   0.05888033  0.00346689
    Config     706   0.04646459  0.00215896
    Config     712  -0.05187022  0.00269052
    Config     718  -0.04073258  0.00165914
    Config     729  -0.04845399  0.00234779
    Config     750   0.04651704  0.00216384
    Config     753   0.05289359  0.00279773
    Config     760   0.04998029  0.00249803
    Config     764   0.04697403  0.00220656
    Config     770  -0.04141687  0.00171536
    Config     783  -0.08532771  0.00728082
    Config     786   0.04273021  0.00182587
    Config     821  -0.05442288  0.00296185
    Config     833   0.07129943  0.00508361
    Config     839  -0.11013334  0.01212935
    Config     887  -0.04698562  0.00220765
    Config     897  -0.04143301  0.00171669
    Config     910  -0.04300376  0.00184932
    Config     916  -0.09399682  0.00883540
    Config     936   0.04936698  0.00243710
    Config     961  -0.06966223  0.00485283
    Config    1115   0.04688604  0.00219830
    Config    1223   0.05794473  0.00335759
    Config    1237  -0.05332592  0.00284365
    Config    1254  -0.04275267  0.00182779
    Config    1320   0.08546244  0.00730383
    Config    1423  -0.08228551  0.00677091
 Total coeff printed             0.68295955
  
State  498 10.1052     CI coeff  CI percent
    Config     164   0.07564832  0.00572267
    Config     166  -0.05536840  0.00306566
    Config     168   0.13459156  0.01811489
    Config     177  -0.04138777  0.00171295
    Config     178   0.05413901  0.00293103
    Config     179  -0.06393521  0.00408771
    Config     187  -0.12778388  0.01632872
    Config     196  -0.05218120  0.00272288
    Config     210   0.15849303  0.02512004
    Config     218  -0.06881031  0.00473486
    Config     220   0.04513038  0.00203675
    Config     228   0.07017456  0.00492447
    Config     229  -0.10147756  0.01029770
    Config     235   0.08424593  0.00709738
    Config     240   0.07057443  0.00498075
    Config     255   0.06273291  0.00393542
    Config     264  -0.04758130  0.00226398
    Config     272   0.04664572  0.00217582
    Config     273  -0.04680884  0.00219107
    Config     280   0.05558957  0.00309020
    Config     291   0.04389895  0.00192712
    Config     300  -0.05226062  0.00273117
    Config     302   0.15887197  0.02524030
    Config     309  -0.04625559  0.00213958
    Config     314  -0.07902142  0.00624438
    Config     317   0.05325674  0.00283628
    Config     338   0.04999660  0.00249966
    Config     343  -0.04346232  0.00188897
    Config     344  -0.10643943  0.01132935
    Config     363  -0.05975586  0.00357076
    Config     377  -0.09317840  0.00868221
    Config     380  -0.07376051  0.00544061
    Config     381  -0.04342608  0.00188582
    Config     384   0.05659744  0.00320327
    Config     386  -0.07052052  0.00497314
    Config     387   0.08396702  0.00705046
    Config     388   0.06146339  0.00377775
    Config     389  -0.10246382  0.01049884
    Config     395   0.04822522  0.00232567
    Config     396  -0.09409030  0.00885298
    Config     398   0.04356204  0.00189765
    Config     399  -0.08195102  0.00671597
    Config     405   0.06110377  0.00373367
    Config     406   0.05133134  0.00263491
    Config     414   0.04509839  0.00203387
    Config     422   0.09358137  0.00875747
    Config     426  -0.06606108  0.00436407
    Config     427  -0.12551491  0.01575399
    Config     428  -0.05013034  0.00251305
    Config     429   0.04801176  0.00230513
    Config     431  -0.04822511  0.00232566
    Config     445   0.04960674  0.00246083
    Config     446   0.07060406  0.00498493
    Config     449  -0.05650826  0.00319318
    Config     453   0.06748331  0.00455400
    Config     456  -0.05981950  0.00357837
    Config     460   0.07709762  0.00594404
    Config     461  -0.04810350  0.00231395
    Config     462   0.08317591  0.00691823
    Config     476   0.05074360  0.00257491
    Config     478   0.04624068  0.00213820
    Config     488  -0.04929317  0.00242982
    Config     500   0.05122951  0.00262446
    Config     501  -0.09748617  0.00950355
    Config     507   0.05414338  0.00293151
    Config     513   0.05850969  0.00342338
    Config     515   0.08136310  0.00661995
    Config     517   0.05859880  0.00343382
    Config     523  -0.18023055  0.03248305
    Config     525  -0.06791667  0.00461267
    Config     529   0.06374444  0.00406335
    Config     530   0.05615158  0.00315300
    Config     533   0.05429208  0.00294763
    Config     534  -0.06983480  0.00487690
    Config     536  -0.06587484  0.00433949
    Config     540  -0.04461087  0.00199013
    Config     541   0.04989381  0.00248939
    Config     546  -0.05856823  0.00343024
    Config     556   0.04592610  0.00210921
    Config     563   0.04269993  0.00182328
    Config     565  -0.06087704  0.00370601
    Config     569   0.04375889  0.00191484
    Config     582   0.06223311  0.00387296
    Config     585  -0.15788356  0.02492722
    Config     586   0.04362277  0.00190295
    Config     593   0.04213777  0.00177559
    Config     595   0.06961632  0.00484643
    Config     598   0.05929195  0.00351553
    Config     600  -0.08216809  0.00675160
    Config     608  -0.07961779  0.00633899
    Config     614   0.04411768  0.00194637
    Config     618  -0.07137801  0.00509482
    Config     622  -0.08852497  0.00783667
    Config     626   0.05960799  0.00355311
    Config     638  -0.04534121  0.00205583
    Config     643  -0.05108801  0.00260998
    Config     646  -0.05040469  0.00254063
    Config     655   0.04612801  0.00212779
    Config     662   0.05006619  0.00250662
    Config     679   0.04072549  0.00165857
    Config     680   0.06287955  0.00395384
    Config     690  -0.04252712  0.00180856
    Config     691  -0.05385158  0.00289999
    Config     693  -0.05342099  0.00285380
    Config     695  -0.05890543  0.00346985
    Config     705  -0.05091890  0.00259273
    Config     735   0.04587809  0.00210480
    Config     743  -0.05435192  0.00295413
    Config     749   0.06173068  0.00381068
    Config     756  -0.04067876  0.00165476
    Config     772   0.07674926  0.00589045
    Config     773  -0.06097758  0.00371826
    Config     800   0.04798302  0.00230237
    Config     814  -0.04560005  0.00207936
    Config     815  -0.05196094  0.00269994
    Config     819   0.05410273  0.00292711
    Config     821   0.06977945  0.00486917
    Config     836   0.18255327  0.03332570
    Config     852   0.04227825  0.00178745
    Config     887   0.08865518  0.00785974
    Config     897   0.05198119  0.00270204
    Config     911  -0.04860016  0.00236198
    Config     935  -0.06792093  0.00461325
    Config     945  -0.04378417  0.00191705
    Config     950  -0.05553715  0.00308438
    Config     956  -0.05305151  0.00281446
    Config     966   0.04596259  0.00211256
    Config     984   0.05495045  0.00301955
    Config     991   0.05467484  0.00298934
    Config    1051  -0.06235384  0.00388800
    Config    1058  -0.08729606  0.00762060
    Config    1060  -0.06673831  0.00445400
    Config    1076  -0.04760044  0.00226580
    Config    1089  -0.04425990  0.00195894
    Config    1129   0.06855925  0.00470037
    Config    1149   0.04325718  0.00187118
    Config    1172  -0.05175022  0.00267809
    Config    1238   0.04521138  0.00204407
    Config    1308   0.06211297  0.00385802
    Config    1346   0.08438330  0.00712054
    Config    1402   0.04565648  0.00208451
    Config    1586   0.04138380  0.00171262
 Total coeff printed             0.69453080
  
State  499 10.1068     CI coeff  CI percent
    Config      88  -0.06325131  0.00400073
    Config     162   0.05210599  0.00271503
    Config     165  -0.07626780  0.00581678
    Config     199   0.07283253  0.00530458
    Config     204   0.05608560  0.00314559
    Config     221  -0.04164693  0.00173447
    Config     224  -0.07956301  0.00633027
    Config     226  -0.05481553  0.00300474
    Config     233   0.04563159  0.00208224
    Config     249   0.05248801  0.00275499
    Config     250   0.04903964  0.00240489
    Config     261   0.04731793  0.00223899
    Config     266   0.18743177  0.03513067
    Config     270   0.06346457  0.00402775
    Config     274   0.04802743  0.00230663
    Config     289   0.05119889  0.00262133
    Config     293  -0.06943823  0.00482167
    Config     296  -0.04032089  0.00162577
    Config     302   0.05373084  0.00288700
    Config     306  -0.18394758  0.03383671
    Config     343   0.04932455  0.00243291
    Config     349   0.09858755  0.00971950
    Config     350   0.05499240  0.00302416
    Config     354   0.04835046  0.00233777
    Config     361  -0.05128527  0.00263018
    Config     371  -0.08055890  0.00648974
    Config     375  -0.04330256  0.00187511
    Config     383   0.07864853  0.00618559
    Config     399   0.04998601  0.00249860
    Config     401   0.05310114  0.00281973
    Config     404   0.07762876  0.00602623
    Config     406  -0.26789099  0.07176558
    Config     409   0.04746924  0.00225333
    Config     413  -0.08915315  0.00794828
    Config     417   0.04952700  0.00245292
    Config     418   0.04276002  0.00182842
    Config     423   0.04199517  0.00176359
    Config     430   0.07100619  0.00504188
    Config     437  -0.06362756  0.00404847
    Config     446  -0.04315089  0.00186200
    Config     447  -0.04247925  0.00180449
    Config     450   0.08256413  0.00681684
    Config     453  -0.05741916  0.00329696
    Config     457  -0.04674517  0.00218511
    Config     459   0.04736181  0.00224314
    Config     461  -0.05001089  0.00250109
    Config     464   0.07325125  0.00536575
    Config     465   0.07377749  0.00544312
    Config     475   0.15487088  0.02398499
    Config     480   0.04641390  0.00215425
    Config     495  -0.10423253  0.01086442
    Config     499  -0.05804587  0.00336932
    Config     503   0.06363313  0.00404918
    Config     514  -0.08167863  0.00667140
    Config     515   0.20378263  0.04152736
    Config     520  -0.07525808  0.00566378
    Config     521  -0.07122888  0.00507355
    Config     522  -0.04246361  0.00180316
    Config     529  -0.04113502  0.00169209
    Config     530   0.10920200  0.01192508
    Config     532  -0.11261181  0.01268142
    Config     537  -0.26175648  0.06851646
    Config     547   0.08109084  0.00657572
    Config     564  -0.05201938  0.00270602
    Config     571  -0.06578961  0.00432827
    Config     572  -0.04061210  0.00164934
    Config     573   0.04139234  0.00171333
    Config     575  -0.04166123  0.00173566
    Config     577  -0.06266240  0.00392658
    Config     581  -0.06354627  0.00403813
    Config     587   0.04509702  0.00203374
    Config     590   0.04638602  0.00215166
    Config     591   0.04049399  0.00163976
    Config     592  -0.04374010  0.00191320
    Config     600  -0.05968689  0.00356252
    Config     607   0.06963434  0.00484894
    Config     613  -0.04312403  0.00185968
    Config     619   0.04485887  0.00201232
    Config     620  -0.05584202  0.00311833
    Config     632   0.06204057  0.00384903
    Config     642  -0.05199772  0.00270376
    Config     659  -0.06226711  0.00387719
    Config     665  -0.04897716  0.00239876
    Config     669   0.05047285  0.00254751
    Config     672   0.07693248  0.00591861
    Config     678  -0.04046557  0.00163746
    Config     687   0.04926340  0.00242688
    Config     692   0.07215575  0.00520645
    Config     722  -0.05580666  0.00311438
    Config     724   0.04347117  0.00188974
    Config     732   0.06657596  0.00443236
    Config     733   0.07070881  0.00499974
    Config     734  -0.09527195  0.00907674
    Config     736  -0.05995115  0.00359414
    Config     738   0.06501899  0.00422747
    Config     742   0.05088698  0.00258949
    Config     745  -0.04675177  0.00218573
    Config     750   0.04809947  0.00231356
    Config     753   0.05011891  0.00251191
    Config     758  -0.07417432  0.00550183
    Config     764   0.05462477  0.00298387
    Config     770  -0.04379370  0.00191789
    Config     779  -0.04075168  0.00166070
    Config     799   0.06789670  0.00460996
    Config     803   0.06568962  0.00431513
    Config     839  -0.06102758  0.00372437
    Config     842   0.04798729  0.00230278
    Config     845  -0.06186093  0.00382677
    Config     848   0.05594096  0.00312939
    Config     871  -0.04543486  0.00206433
    Config     916   0.04066765  0.00165386
    Config     936   0.05581552  0.00311537
    Config     965  -0.06384295  0.00407592
    Config    1057  -0.04246394  0.00180319
    Config    1104   0.04962832  0.00246297
    Config    1235  -0.04265738  0.00181965
    Config    1246   0.06912938  0.00477887
    Config    1262  -0.04827778  0.00233074
    Config    1344   0.04445564  0.00197630
    Config    1466  -0.04056050  0.00164515
    Config    1490   0.04156002  0.00172724
    Config    1638  -0.04310374  0.00185793
 Total coeff printed             0.69002610
  
State  500 10.1090     CI coeff  CI percent
    Config     114   0.06106682  0.00372916
    Config     130   0.05342937  0.00285470
    Config     164  -0.07408938  0.00548924
    Config     168   0.10248277  0.01050272
    Config     173   0.04030268  0.00162431
    Config     179  -0.10781884  0.01162490
    Config     187   0.10698546  0.01144589
    Config     191   0.04506037  0.00203044
    Config     210  -0.14663248  0.02150108
    Config     220   0.11722947  0.01374275
    Config     221  -0.04204413  0.00176771
    Config     226   0.07443165  0.00554007
    Config     228   0.10646259  0.01133428
    Config     229   0.09815272  0.00963396
    Config     235   0.18601527  0.03460168
    Config     240   0.04045948  0.00163697
    Config     248  -0.05778828  0.00333948
    Config     249  -0.04413593  0.00194798
    Config     264   0.04646268  0.00215878
    Config     272   0.06476090  0.00419397
    Config     294  -0.05063276  0.00256368
    Config     302   0.18927095  0.03582349
    Config     312  -0.04675991  0.00218649
    Config     314   0.04938464  0.00243884
    Config     317  -0.04495422  0.00202088
    Config     324  -0.05584306  0.00311845
    Config     331   0.04520501  0.00204349
    Config     340  -0.07801695  0.00608664
    Config     342   0.07678794  0.00589639
    Config     344   0.08532923  0.00728108
    Config     347   0.09266009  0.00858589
    Config     349  -0.05069606  0.00257009
    Config     351   0.09267638  0.00858891
    Config     364   0.05459591  0.00298071
    Config     366  -0.04278357  0.00183043
    Config     371   0.04418105  0.00195196
    Config     373  -0.04162868  0.00173295
    Config     396  -0.07672608  0.00588689
    Config     403   0.04407720  0.00194280
    Config     406  -0.04966290  0.00246640
    Config     429   0.04448728  0.00197912
    Config     452   0.04728126  0.00223552
    Config     459  -0.05907433  0.00348978
    Config     460  -0.07509261  0.00563890
    Config     471  -0.04187898  0.00175385
    Config     473  -0.04628642  0.00214243
    Config     477   0.04015467  0.00161240
    Config     479   0.04170297  0.00173914
    Config     494   0.04144971  0.00171808
    Config     496   0.04459178  0.00198843
    Config     500   0.04191147  0.00175657
    Config     502  -0.04161799  0.00173206
    Config     507  -0.06282244  0.00394666
    Config     509   0.05234848  0.00274036
    Config     512  -0.11081121  0.01227912
    Config     515  -0.08783031  0.00771416
    Config     520  -0.10947804  0.01198544
    Config     521  -0.05084421  0.00258513
    Config     528  -0.06544195  0.00428265
    Config     529  -0.05724216  0.00327666
    Config     530   0.04321807  0.00186780
    Config     531   0.05731797  0.00328535
    Config     533  -0.11750342  0.01380705
    Config     540  -0.08224450  0.00676416
    Config     565  -0.06498889  0.00422356
    Config     567   0.05026791  0.00252686
    Config     570  -0.04003529  0.00160282
    Config     575   0.10154398  0.01031118
    Config     582  -0.04680475  0.00219068
    Config     583  -0.04017131  0.00161373
    Config     585   0.04609225  0.00212450
    Config     589   0.04861317  0.00236324
    Config     595   0.07083159  0.00501711
    Config     600   0.05238150  0.00274382
    Config     607   0.07222322  0.00521619
    Config     614  -0.04260572  0.00181525
    Config     622  -0.04301386  0.00185019
    Config     626  -0.04232540  0.00179144
    Config     628  -0.06055272  0.00366663
    Config     647  -0.04305103  0.00185339
    Config     653  -0.06360781  0.00404595
    Config     679   0.04290088  0.00184049
    Config     690  -0.05760459  0.00331829
    Config     705  -0.05445786  0.00296566
    Config     735  -0.04369193  0.00190899
    Config     752  -0.08825190  0.00778840
    Config     768   0.05320775  0.00283107
    Config     770  -0.06952940  0.00483434
    Config     772   0.07894525  0.00623235
    Config     773   0.11139563  0.01240899
    Config     775   0.06526292  0.00425925
    Config     782  -0.10590567  0.01121601
    Config     797   0.04740190  0.00224694
    Config     801   0.08519482  0.00725816
    Config     808  -0.17986072  0.03234988
    Config     812  -0.05075155  0.00257572
    Config     814  -0.04887671  0.00238893
    Config     830  -0.07884598  0.00621669
    Config     831   0.04992155  0.00249216
    Config     836   0.11291950  0.01275081
    Config     852  -0.06634828  0.00440209
    Config     865   0.04231425  0.00179050
    Config     889  -0.05545928  0.00307573
    Config     891   0.04907431  0.00240829
    Config     911   0.09030787  0.00815551
    Config     916  -0.10182853  0.01036905
    Config     935  -0.05690385  0.00323805
    Config     936  -0.05836786  0.00340681
    Config     957  -0.04488249  0.00201444
    Config     961  -0.04374874  0.00191395
    Config     964   0.08077603  0.00652477
    Config     982   0.07627080  0.00581724
    Config     984   0.04986557  0.00248657
    Config     991  -0.04772506  0.00227768
    Config     996   0.05523978  0.00305143
    Config    1022   0.08038183  0.00646124
    Config    1033   0.04262118  0.00181656
    Config    1051  -0.08008738  0.00641399
    Config    1058  -0.05349417  0.00286163
    Config    1061  -0.04037048  0.00162978
    Config    1064   0.04848634  0.00235093
    Config    1077   0.05600646  0.00313672
    Config    1107   0.04294192  0.00184401
    Config    1116   0.05097815  0.00259877
    Config    1124  -0.04992572  0.00249258
    Config    1149  -0.04074759  0.00166037
    Config    1154   0.04456042  0.00198563
    Config    1170   0.07356428  0.00541170
    Config    1205   0.04437705  0.00196932
    Config    1314  -0.06200180  0.00384422
    Config    1334   0.04076759  0.00166200
    Config    1346   0.05028098  0.00252818
    Config    1380  -0.04073876  0.00165965
    Config    1432   0.04259867  0.00181465
    Config    1473   0.04528942  0.00205113
 Total coeff printed             0.67098218
  

 **********************
 *                    *
 * JOB ENDED NORMALLY *
 *                    *
 **********************



 TOTAL JOB TIME:           602.46 SECONDS

 == MOPAC DONE ==
