 *******************************************************************************
 ** Site#: 4824         For non-commercial use only    Version 21.013L 64BITS **
 *******************************************************************************
 ** Cite this program as: MOPAC2016, Version: 21.013L, James J. P. Stewart,   **
 ** Stewart Computational Chemistry, web: HTTP://OpenMOPAC.net. Days left:  84**
 *******************************************************************************
 **                                                                           **
 **                                MOPAC2016                                  **
 **                                                                           **
 *******************************************************************************

                              INDO CALCULATION RESULTS

 *******************************************************************************
 *  CALCULATION DONE:                                Thu Oct 21 11:51:13 2021  *
 *  INDO       - The INDO Hamiltonian to be used
 *  CIS        - C.I. USES 1 ELECTRON EXCITATIONS ONLY
 *  EPS=  4.81 - USE ANDREAS KLAMT'S COSMO IMPLICIT SOLVATION MODEL
 *  n**2 =  1.400 for COSMO-CI
 *  T=         - A TIME OF 172800.0 SECONDS REQUESTED
 *  DUMP=N     - RESTART FILE WRITTEN EVERY 7200.0 SECONDS REQUESTED
 *******************************************************************************
INDO CIS EPS=4.81 N**2=1.4
 Dye28
 Calculo de Estados Excitados
   ATOM   CHEMICAL          X               Y               Z
  NUMBER   SYMBOL      (ANGSTROMS)     (ANGSTROMS)     (ANGSTROMS)
 
     1       C          0.00000000  *   0.00000000  *   0.00000000  *
     2       C          1.51998027  *   0.00000000  *   0.00000000  *
     3       C          2.06086483  *   1.42764149  *   0.00000000  *
     4       C          3.58775387  *   1.42872350  *   0.00109001  *
     5       C          4.12648310  *   2.85764128  *  -0.00041439  *
     6       C          5.65364141  *   2.85837541  *   0.00048029  *
     7       C          6.18812058  *   4.28771579  *   0.00014960  *
     8       C          7.72405233  *   4.27300283  *   0.00183992  *
     9       N          8.27326705  *   5.62550758  *   0.01059964  *
    10       C          8.32923738  *   6.46398679  *   1.14457091  *
    11       C          8.09317238  *   6.16107738  *   2.48292932  *
    12       C          8.26656324  *   7.18000382  *   3.40549792  *
    13       C          8.66352137  *   8.46592290  *   3.01175749  *
    14       C          8.89542895  *   8.77078661  *   1.67560499  *
    15       C          8.72247442  *   7.76680908  *   0.73747475  *
    16       C          8.85974744  *   7.73646714  *  -0.69641324  *
    17       C          8.54310137  *   6.41226314  *  -1.11862800  *
    18       C          8.55895704  *   6.06073492  *  -2.46824897  *
    19       C          8.92263437  *   7.03674689  *  -3.37936169  *
    20       C          9.25769007  *   8.33508900  *  -2.96661551  *
    21       C          9.21159993  *   8.69920342  *  -1.62203857  *
    22       C          9.63667824  *   9.33877740  *  -3.94559870  *
    23       C         10.51637011  *   9.10087728  *  -4.93407631  *
    24       C         10.89519933  *  10.10740738  *  -5.93594034  *
    25       O         11.88477926  *  10.11075110  *  -6.64851551  *
    26       O         10.00631151  *  11.12213770  *  -6.04063857  *
    27       C         11.19399344  *   7.86116207  *  -5.07294450  *
    28       N         11.75169182  *   6.85578201  *  -5.19578688  *
    29       C          8.83601640  *   9.50131527  *   4.02575848  *
    30       C          7.82474292  *   9.73879486  *   4.95856336  *
    31       C          7.97990725  *  10.71886535  *   5.92199580  *
    32       C          9.16667177  *  11.46636583  *   5.94747712  *
    33       C         10.18262676  *  11.24036709  *   5.02360775  *
    34       C         10.00535146  *  10.25092560  *   4.06170777  *
    35       O          9.19564398  *  12.39900550  *   6.94285736  *
    36       C         10.35367057  *  13.18527766  *   7.05772703  *
    37       H          9.16919591  *  10.32685181  *  -3.82792844  *
    38       H         -0.41718681  *   0.50669194  *  -0.88220470  *
    39       H         -0.40909375  *  -1.02073427  *  -0.00056951  *
    40       H         -0.41717824  *   0.50573970  *   0.88275399  *
    41       H          1.90220719  *  -0.56128181  *   0.87884243  *
    42       H          1.90227828  *  -0.56136327  *  -0.87875252  *
    43       H          1.67379824  *   1.98447313  *  -0.87947470  *
    44       H          1.67252544  *   1.98517835  *   0.87845868  *
    45       H          3.97303237  *   0.87153292  *   0.88114166  *
    46       H          3.97428802  *   0.86933309  *  -0.87703825  *
    47       H          3.74095763  *   3.41448523  *  -0.88060950  *
    48       H          3.73984124  *   3.41703853  *   0.87766924  *
    49       H          6.03894798  *   2.30069210  *   0.88042199  *
    50       H          6.03987074  *   2.30015879  *  -0.87874726  *
    51       H          5.80763991  *   4.84889391  *  -0.87927265  *
    52       H          5.80807088  *   4.85021457  *   0.87945974  *
    53       H          8.11769479  *   3.72248494  *   0.88851571  *
    54       H          8.12165499  *   3.72190195  *  -0.88162719  *
    55       H          7.78370255  *   5.16346534  *   2.80017932  *
    56       H          8.09870435  *   6.97255406  *   4.46759328  *
    57       H          9.19688691  *   9.77361364  *   1.36244458  *
    58       H          8.29842733  *   5.05516664  *  -2.80431325  *
    59       H          8.92343730  *   6.78946922  *  -4.44671916  *
    60       H          9.45634453  *   9.71417507  *  -1.29640954  *
    61       H         10.28684508  *  11.76223123  *  -6.71003196  *
    62       H          6.89926908  *   9.15522322  *   4.92358437  *
    63       H          7.19069080  *  10.91239024  *   6.65435600  *
    64       H         11.11486429  *  11.80851452  *   5.02527861  *
    65       H         10.80222847  *  10.05933686  *   3.33573183  *
    66       H         10.53926486  *  13.81935195  *   6.17502410  *
    67       H         10.13758052  *  13.83629524  *   7.91907868  *
    68       H         11.26031786  *  12.59804143  *   7.27863924  *
 


          CARTESIAN COORDINATES 

    NO.       ATOM           X           Y           Z

     1         C          0.0000      0.0000      0.0000
     2         C          1.5200      0.0000      0.0000
     3         C          2.0609      1.4276      0.0000
     4         C          3.5878      1.4287      0.0011
     5         C          4.1265      2.8576     -0.0004
     6         C          5.6536      2.8584      0.0005
     7         C          6.1881      4.2877      0.0001
     8         C          7.7241      4.2730      0.0018
     9         N          8.2733      5.6255      0.0106
    10         C          8.3292      6.4640      1.1446
    11         C          8.0932      6.1611      2.4829
    12         C          8.2666      7.1800      3.4055
    13         C          8.6635      8.4659      3.0118
    14         C          8.8954      8.7708      1.6756
    15         C          8.7225      7.7668      0.7375
    16         C          8.8597      7.7365     -0.6964
    17         C          8.5431      6.4123     -1.1186
    18         C          8.5590      6.0607     -2.4682
    19         C          8.9226      7.0367     -3.3794
    20         C          9.2577      8.3351     -2.9666
    21         C          9.2116      8.6992     -1.6220
    22         C          9.6367      9.3388     -3.9456
    23         C         10.5164      9.1009     -4.9341
    24         C         10.8952     10.1074     -5.9359
    25         O         11.8848     10.1108     -6.6485
    26         O         10.0063     11.1221     -6.0406
    27         C         11.1940      7.8612     -5.0729
    28         N         11.7517      6.8558     -5.1958
    29         C          8.8360      9.5013      4.0258
    30         C          7.8247      9.7388      4.9586
    31         C          7.9799     10.7189      5.9220
    32         C          9.1667     11.4664      5.9475
    33         C         10.1826     11.2404      5.0236
    34         C         10.0054     10.2509      4.0617
    35         O          9.1956     12.3990      6.9429
    36         C         10.3537     13.1853      7.0577
    37         H          9.1692     10.3269     -3.8279
    38         H         -0.4172      0.5067     -0.8822
    39         H         -0.4091     -1.0207     -0.0006
    40         H         -0.4172      0.5057      0.8828
    41         H          1.9022     -0.5613      0.8788
    42         H          1.9023     -0.5614     -0.8788
    43         H          1.6738      1.9845     -0.8795
    44         H          1.6725      1.9852      0.8785
    45         H          3.9730      0.8715      0.8811
    46         H          3.9743      0.8693     -0.8770
    47         H          3.7410      3.4145     -0.8806
    48         H          3.7398      3.4170      0.8777
    49         H          6.0389      2.3007      0.8804
    50         H          6.0399      2.3002     -0.8787
    51         H          5.8076      4.8489     -0.8793
    52         H          5.8081      4.8502      0.8795
    53         H          8.1177      3.7225      0.8885
    54         H          8.1217      3.7219     -0.8816
    55         H          7.7837      5.1635      2.8002
    56         H          8.0987      6.9726      4.4676
    57         H          9.1969      9.7736      1.3624
    58         H          8.2984      5.0552     -2.8043
    59         H          8.9234      6.7895     -4.4467
    60         H          9.4563      9.7142     -1.2964
    61         H         10.2868     11.7622     -6.7100
    62         H          6.8993      9.1552      4.9236
    63         H          7.1907     10.9124      6.6544
    64         H         11.1149     11.8085      5.0253
    65         H         10.8022     10.0593      3.3357
    66         H         10.5393     13.8194      6.1750
    67         H         10.1376     13.8363      7.9191
    68         H         11.2603     12.5980      7.2786

           Empirical Formula: C31 H32 N2 O3  =    68 atoms



      MOLECULAR POINT GROUP   :   C1  


      RHF CALCULATION, NO. OF DOUBLY OCCUPIED LEVELS = 92

 WARNING: INDO only performs single-point calculations

 Summary of symmetry occupancy in each shell:

 SHELL     
    1   92
    v   84
 TOTAL 176




    ROOT NO.    1           2           3           4           5           6

           -48.64071   -46.79182   -46.72341   -44.11063   -43.49059   -42.79649
  
  
  S  C   1   0.00118    -0.00021    -0.00028    -0.00492    -0.05330     0.14047
 PX  C   1   0.00052    -0.00009    -0.00012    -0.00190    -0.02011     0.05134
 PY  C   1   0.00018    -0.00003    -0.00004    -0.00056    -0.00576     0.01408
 PZ  C   1   0.00000    -0.00000     0.00000     0.00000    -0.00000     0.00000
  
  S  C   2   0.00277    -0.00044    -0.00060    -0.00903    -0.09383     0.23523
 PX  C   2   0.00059    -0.00008    -0.00010    -0.00092    -0.00764     0.01331
 PY  C   2   0.00091    -0.00014    -0.00018    -0.00243    -0.02423     0.05742
 PZ  C   2   0.00000    -0.00000     0.00000     0.00000    -0.00001     0.00001
  
  S  C   3   0.00591    -0.00083    -0.00113    -0.01363    -0.13282     0.30700
 PX  C   3   0.00210    -0.00026    -0.00035    -0.00305    -0.02582     0.04801
 PY  C   3   0.00041    -0.00003    -0.00004     0.00053     0.00812    -0.02752
 PZ  C   3   0.00000    -0.00000     0.00000     0.00001    -0.00002     0.00002
  
  S  C   4   0.01205    -0.00149    -0.00200    -0.01849    -0.16433     0.33552
 PX  C   4   0.00214    -0.00019    -0.00025    -0.00027     0.00435    -0.02864
 PY  C   4   0.00372    -0.00041    -0.00055    -0.00378    -0.02933     0.04693
 PZ  C   4   0.00000    -0.00000     0.00000     0.00005     0.00001    -0.00012
  
  S  C   5   0.02479    -0.00266    -0.00354    -0.02375    -0.18779     0.31952
 PX  C   5   0.00849    -0.00079    -0.00105    -0.00427    -0.02447     0.01479
 PY  C   5   0.00169    -0.00007    -0.00008     0.00169     0.01993    -0.05341
 PZ  C   5   0.00005    -0.00002     0.00001     0.00020    -0.00020    -0.00004
  
  S  C   6   0.04958    -0.00463    -0.00617    -0.02976    -0.20145     0.26053
 PX  C   6   0.00839    -0.00055    -0.00073     0.00023     0.01550    -0.05497
 PY  C   6   0.01581    -0.00131    -0.00173    -0.00554    -0.02913     0.01337
 PZ  C   6   0.00016    -0.00006     0.00003     0.00080    -0.00059    -0.00045
  
  S  C   7   0.11256    -0.00894    -0.01182    -0.03799    -0.20950     0.16097
 PX  C   7   0.04300    -0.00299    -0.00402    -0.00807    -0.02265    -0.02965
 PY  C   7   0.01447    -0.00072    -0.00090     0.00220     0.02528    -0.05539
 PZ  C   7   0.00101    -0.00030     0.00014     0.00359    -0.00282    -0.00188
  
  S  C   8   0.20658    -0.01473    -0.01990    -0.05047    -0.20999     0.05009
 PX  C   8   0.01621    -0.00067    -0.00109     0.00025     0.02422    -0.04431
 PY  C   8   0.09385    -0.00615    -0.00828    -0.01537    -0.04427    -0.03411
 PZ  C   8   0.00080    -0.00072     0.00048     0.00991    -0.00742    -0.00514
  
  S  N   9   0.47483    -0.02942    -0.03985    -0.07223    -0.21214    -0.09643
 PX  N   9   0.00186     0.00074     0.00050     0.00193     0.03085    -0.01379
 PY  N   9   0.09784    -0.00447    -0.00592     0.00003     0.02843    -0.04816
 PZ  N   9  -0.00144    -0.00222     0.00206     0.03364    -0.02179    -0.01610
  
  S  C  10   0.36657    -0.02720    -0.01189     0.12352    -0.09144    -0.12298
 PX  C  10   0.01409    -0.00063     0.00025     0.00771     0.01398    -0.00946
 PY  C  10   0.00305    -0.00065     0.00805     0.06450     0.05795    -0.01397
 PZ  C  10  -0.12633     0.00484     0.01832     0.09295     0.04263     0.02703
  
  S  C  11   0.15146    -0.01587     0.01039     0.18543    -0.03097    -0.05776
 PX  C  11   0.01517    -0.00164     0.00184     0.02447     0.00385    -0.00885
 PY  C  11   0.03239    -0.00443     0.00901     0.08837     0.02171    -0.01819
 PZ  C  11  -0.06282     0.00444     0.00559    -0.00199     0.03154     0.02289
  
  S  C  12   0.09935    -0.01502     0.03610     0.26455     0.03884    -0.01781
 PX  C  12   0.00690    -0.00118     0.00384     0.02256     0.00649     0.00032
 PY  C  12   0.00703    -0.00267     0.01524     0.05801     0.02542     0.01608
 PZ  C  12  -0.04606     0.00480    -0.00187    -0.07118     0.00113     0.02765
  
  S  C  13   0.10468    -0.01951     0.06979     0.35230     0.08972     0.02639
 PX  C  13  -0.00370     0.00014     0.00245    -0.00267     0.00349     0.00623
 PY  C  13  -0.02561     0.00085     0.01452    -0.01486     0.01624     0.03850
 PZ  C  13  -0.02938     0.00080     0.01445    -0.01188     0.01017     0.03857
  
  S  C  14   0.12997    -0.01497     0.03363     0.24704     0.06621    -0.02332
 PX  C  14  -0.01448     0.00162    -0.00136    -0.02390    -0.00106     0.00737
 PY  C  14  -0.05746     0.00505    -0.00000    -0.06239    -0.00145     0.03215
 PZ  C  14  -0.01069    -0.00297     0.01781     0.07541     0.01218     0.01889
  
  S  C  15   0.30126    -0.01935    -0.00137     0.13701     0.03133    -0.09430
 PX  C  15  -0.02361     0.00213     0.00115    -0.00878     0.01194     0.01078
 PY  C  15  -0.10380     0.00659     0.00998     0.01215     0.03872     0.03940
 PZ  C  15  -0.04274    -0.00331     0.01525     0.11604    -0.00937    -0.00630
  
  S  C  16   0.30286     0.00182    -0.02008    -0.10254     0.17430     0.00868
 PX  C  16  -0.03155     0.00321     0.00249    -0.00186     0.01826     0.01501
 PY  C  16  -0.10215     0.00631     0.00925     0.02272     0.02621     0.02898
 PZ  C  16   0.04085    -0.01412     0.00025     0.08017    -0.10681    -0.07734
  
  S  C  17   0.36854    -0.00469    -0.03100    -0.15249     0.08211     0.00257
 PX  C  17  -0.00947     0.00335     0.00114    -0.00855     0.04179     0.01108
 PY  C  17   0.00907     0.00651     0.00081    -0.02051     0.10257     0.02003
 PZ  C  17   0.12728    -0.01578    -0.00937     0.03426    -0.12099    -0.08559
  
  S  C  18   0.15190     0.01430    -0.01385    -0.15015     0.17992     0.09321
 PX  C  18   0.00439     0.00340    -0.00019    -0.01402     0.03260     0.01265
 PY  C  18   0.03582     0.00929    -0.00273    -0.05462     0.10441     0.04216
 PZ  C  18   0.06276    -0.00460    -0.00596    -0.02025    -0.01351    -0.01012
  
  S  C  19   0.10159     0.04016    -0.00672    -0.16502     0.28143     0.14449
 PX  C  19  -0.00135     0.00602     0.00083    -0.00377     0.01319     0.00766
 PY  C  19   0.00919     0.01446     0.00067    -0.02520     0.05887     0.02986
 PZ  C  19   0.04664     0.00135    -0.00475    -0.05406     0.08000     0.03401
  
  S  C  20   0.10572     0.06423    -0.00399    -0.18321     0.34333     0.17456
 PX  C  20  -0.00981     0.00686     0.00184     0.00880    -0.00998    -0.00184
 PY  C  20  -0.02616     0.00515     0.00353     0.03174    -0.04383    -0.01816
 PZ  C  20   0.02948    -0.01453    -0.00443    -0.02198     0.03138     0.00424
  
  S  C  21   0.13146     0.02852    -0.00790    -0.13723     0.26758     0.10914
 PX  C  21  -0.01664     0.00104     0.00150     0.00972    -0.01432    -0.00250
 PY  C  21  -0.05850    -0.00355     0.00512     0.05232    -0.08090    -0.02844
 PZ  C  21   0.01064    -0.01431    -0.00069     0.03820    -0.06083    -0.04459
  
  S  C  22   0.03943     0.13312     0.01158    -0.09346     0.19766     0.11536
 PX  C  22  -0.00132     0.03066     0.00395     0.00202    -0.00056     0.00239
 PY  C  22  -0.01311     0.00326     0.00214     0.03423    -0.06714    -0.03740
 PZ  C  22   0.00846    -0.04381    -0.00643    -0.01912     0.03445     0.01498
  
  S  C  23   0.02480     0.22962     0.02546    -0.05051     0.11669     0.07588
 PX  C  23  -0.00396     0.00742     0.00149     0.01340    -0.02726    -0.01530
 PY  C  23  -0.00192     0.06492     0.00851     0.01789    -0.03491    -0.02009
 PZ  C  23   0.00538    -0.04808    -0.00683    -0.02525     0.05103     0.02884
  
  S  C  24   0.01790     0.50587     0.06155     0.02977    -0.04680    -0.02003
 PX  C  24  -0.00154    -0.00872    -0.00087     0.00517    -0.01184    -0.00724
 PY  C  24   0.00131     0.11514     0.01447     0.02091    -0.04252    -0.02558
 PZ  C  24   0.00025    -0.07747    -0.00991    -0.01926     0.04026     0.02425
  
  S  O  25   0.01121     0.40339     0.04958     0.03853    -0.07053    -0.03679
 PX  O  25  -0.00409    -0.14704    -0.01807    -0.01393     0.02540     0.01327
 PY  O  25   0.00031     0.02244     0.00282     0.00421    -0.00875    -0.00542
 PZ  O  25   0.00269     0.08880     0.01087     0.00693    -0.01187    -0.00561
  
  S  O  26   0.01694     0.56740     0.06957     0.04986    -0.08990    -0.04773
 PX  O  26   0.00397     0.14330     0.01762     0.01386    -0.02548    -0.01370
 PY  O  26  -0.00294    -0.07757    -0.00940    -0.00301     0.00345     0.00061
 PZ  O  26  -0.00055    -0.04476    -0.00562    -0.00806     0.01655     0.00988
  
  S  C  27   0.01613     0.10126     0.01041    -0.04483     0.10052     0.06586
 PX  C  27  -0.00497    -0.01608    -0.00135     0.01189    -0.02421    -0.01383
 PY  C  27   0.00278     0.04507     0.00531    -0.00188     0.00566     0.00363
 PZ  C  27   0.00347    -0.00563    -0.00118    -0.01060     0.02106     0.01179
  
  S  N  28   0.00682     0.03399     0.00323    -0.02446     0.05545     0.03767
 PX  N  28  -0.00274    -0.00924    -0.00076     0.00880    -0.01906    -0.01229
 PY  N  28   0.00292     0.01883     0.00192    -0.00994     0.02293     0.01566
 PZ  N  28   0.00123     0.00053    -0.00011    -0.00393     0.00812     0.00491
  
  S  C  29   0.04343    -0.02344     0.15312     0.32658     0.13292     0.15246
 PX  C  29  -0.00115    -0.00055     0.00608    -0.00053     0.00251     0.00548
 PY  C  29  -0.00796    -0.00307     0.03384    -0.00146     0.01233     0.03365
 PZ  C  29  -0.00812    -0.00301     0.03281    -0.00085     0.01082     0.03289
  
  S  C  30   0.02335    -0.02035     0.14718     0.22556     0.10226     0.13743
 PX  C  30   0.00699    -0.00719     0.05340     0.07417     0.03509     0.04846
 PY  C  30  -0.00155    -0.00393     0.03522     0.00843     0.01046     0.02314
 PZ  C  30  -0.00585     0.00039     0.00320    -0.03762    -0.01155    -0.00690
  
  S  C  31   0.01390    -0.02724     0.21889     0.11462     0.06288     0.09981
 PX  C  31   0.00421    -0.01042     0.08536     0.02375     0.01489     0.02529
 PY  C  31  -0.00126    -0.00416     0.03857    -0.04813    -0.02057    -0.02645
 PZ  C  31  -0.00412     0.00237    -0.01467    -0.06790    -0.03228    -0.04563
  
  S  C  32   0.01619    -0.05089     0.42427    -0.00303     0.01464     0.03936
 PX  C  32  -0.00007    -0.00261     0.02328    -0.02477    -0.01125    -0.01579
 PY  C  32  -0.00127    -0.00998     0.09055    -0.11389    -0.05211    -0.07231
 PZ  C  32  -0.00134    -0.00917     0.08344    -0.10787    -0.04944    -0.06846
  
  S  C  33   0.01440    -0.02963     0.23956     0.10183     0.05783     0.09216
 PX  C  33  -0.00489     0.00945    -0.07573    -0.04359    -0.02375    -0.03719
 PY  C  33  -0.00322    -0.00057     0.00982    -0.06841    -0.03188    -0.04398
 PZ  C  33  -0.00033    -0.00693     0.06136    -0.04595    -0.01914    -0.02327
  
  S  C  34   0.02408    -0.02082     0.15148     0.22276     0.10295     0.13597
 PX  C  34  -0.00801     0.00625    -0.04424    -0.07762    -0.03474    -0.04482
 PY  C  34  -0.00470    -0.00109     0.01449    -0.02632    -0.00643     0.00047
 PZ  C  34  -0.00042    -0.00528     0.04501     0.02092     0.01513     0.03019
  
  S  O  35   0.01320    -0.07169     0.61381    -0.26115    -0.10534    -0.13006
 PX  O  35   0.00202    -0.01239     0.10655    -0.05486    -0.02322    -0.03034
 PY  O  35  -0.00120     0.00419    -0.03507    -0.00097    -0.00225    -0.00562
 PZ  O  35  -0.00259     0.01247    -0.10622     0.03403     0.01240     0.01330
  
  S  C  36   0.00623    -0.03497     0.29985    -0.13706    -0.05653    -0.07183
 PX  C  36  -0.00263     0.01541    -0.13228     0.06316     0.02624     0.03352
 PY  C  36  -0.00249     0.01348    -0.11543     0.04879     0.01963     0.02416
 PZ  C  36  -0.00103     0.00483    -0.04109     0.01271     0.00458     0.00485
  
  S  H  37   0.01365     0.06106     0.00595    -0.02921     0.06338     0.03684
  
  S  H  38   0.00052    -0.00009    -0.00012    -0.00212    -0.02288     0.06019
  
  S  H  39   0.00036    -0.00007    -0.00009    -0.00166    -0.01829     0.04902
  
  S  H  40   0.00052    -0.00009    -0.00012    -0.00211    -0.02288     0.06018
  
  S  H  41   0.00122    -0.00019    -0.00026    -0.00381    -0.03941     0.09821
  
  S  H  42   0.00121    -0.00019    -0.00026    -0.00381    -0.03941     0.09820
  
  S  H  43   0.00261    -0.00036    -0.00049    -0.00579    -0.05608     0.12892
  
  S  H  44   0.00261    -0.00036    -0.00049    -0.00578    -0.05608     0.12890
  
  S  H  45   0.00529    -0.00065    -0.00087    -0.00781    -0.06936     0.14077
  
  S  H  46   0.00527    -0.00064    -0.00087    -0.00787    -0.06932     0.14081
  
  S  H  47   0.01104    -0.00115    -0.00155    -0.01021    -0.07919     0.13411
  
  S  H  48   0.01111    -0.00117    -0.00154    -0.00992    -0.07941     0.13395
  
  S  H  49   0.02146    -0.00202    -0.00262    -0.01213    -0.08525     0.10922
  
  S  H  50   0.02130    -0.00194    -0.00266    -0.01314    -0.08448     0.10973
  
  S  H  51   0.05109    -0.00373    -0.00535    -0.01866    -0.08567     0.06793
  
  S  H  52   0.05284    -0.00427    -0.00506    -0.01228    -0.09009     0.06473
  
  S  H  53   0.07538    -0.00577    -0.00694    -0.01327    -0.08535     0.02249
  
  S  H  54   0.07535    -0.00490    -0.00762    -0.02539    -0.07676     0.02855
  
  S  H  55   0.04989    -0.00500     0.00119     0.04475    -0.02490    -0.01316
  
  S  H  56   0.02462    -0.00480     0.01642     0.08838     0.01769     0.00521
  
  S  H  57   0.03680    -0.00429     0.01496     0.07815     0.03224     0.00413
  
  S  H  58   0.04918     0.00278    -0.00476    -0.04340     0.03368     0.02698
  
  S  H  59   0.02553     0.01990    -0.00069    -0.05123     0.09223     0.05123
  
  S  H  60   0.03663     0.01071    -0.00105    -0.03357     0.08142     0.03255
  
  S  H  61   0.00667     0.23894     0.02937     0.02362    -0.04393    -0.02406
  
  S  H  62   0.00983    -0.00586     0.03908     0.07882     0.03231     0.03937
  
  S  H  63   0.00371    -0.00900     0.07369     0.01940     0.01215     0.02109
  
  S  H  64   0.00413    -0.01101     0.09096     0.01025     0.00841     0.01572
  
  S  H  65   0.01051    -0.00605     0.04093     0.07729     0.03331     0.03878
  
  S  H  66   0.00238    -0.01275     0.10918    -0.04697    -0.01911    -0.02394
  
  S  H  67   0.00190    -0.01120     0.09623    -0.04764    -0.02006    -0.02611
  
  S  H  68   0.00238    -0.01277     0.10933    -0.04697    -0.01910    -0.02393




    ROOT NO.    7           8           9          10          11          12

           -41.67326   -40.22521   -39.54177   -38.91507   -37.25594   -36.39908
  
  
  S  C   1   0.10360     0.22005     0.08396    -0.13627     0.23668     0.04578
 PX  C   1   0.03569     0.06897     0.02493    -0.03825     0.05480     0.00925
 PY  C   1   0.00900     0.01500     0.00492    -0.00675     0.00556     0.00041
 PZ  C   1   0.00000     0.00000     0.00000    -0.00000     0.00000    -0.00000
  
  S  C   2   0.15875     0.29557     0.10508    -0.15893     0.22125     0.03718
 PX  C   2   0.00172    -0.01821    -0.01080     0.02316    -0.06499    -0.01488
 PY  C   2   0.03455     0.05169     0.01579    -0.01976     0.00759    -0.00115
 PZ  C   2   0.00001     0.00001     0.00000    -0.00001     0.00000    -0.00001
  
  S  C   3   0.17726     0.25144     0.07499    -0.09213     0.03769    -0.00330
 PX  C   3   0.01364    -0.02157    -0.01585     0.03563    -0.09515    -0.02032
 PY  C   3  -0.02622    -0.06644    -0.02642     0.04369    -0.07305    -0.01314
 PZ  C   3   0.00003     0.00000     0.00001    -0.00002    -0.00001    -0.00004
  
  S  C   4   0.14572     0.08827     0.00227     0.03554    -0.18436    -0.04198
 PX  C   4  -0.03494    -0.08768    -0.03262     0.04907    -0.05015    -0.00478
 PY  C   4   0.00542    -0.04209    -0.02197     0.04125    -0.07428    -0.01246
 PZ  C   4   0.00000    -0.00007     0.00001    -0.00008     0.00006    -0.00012
  
  S  C   5   0.07503    -0.11407    -0.07133     0.14049    -0.25047    -0.04044
 PX  C   5  -0.02629    -0.08758    -0.03110     0.04170    -0.00632     0.00632
 PY  C   5  -0.03330    -0.03663    -0.00645    -0.00102     0.04932     0.01296
 PZ  C   5   0.00022    -0.00022     0.00004    -0.00023    -0.00003    -0.00049
  
  S  C   6  -0.01672    -0.26500    -0.10631     0.15769    -0.10341     0.00059
 PX  C   6  -0.03548    -0.01331     0.00779    -0.03024     0.10268     0.02043
 PY  C   6  -0.02780    -0.06347    -0.01658     0.01206     0.04709     0.01345
 PZ  C   6   0.00074    -0.00069     0.00021    -0.00096     0.00008    -0.00165
  
  S  C   7  -0.10932    -0.28891    -0.07937     0.06930     0.12739     0.03695
 PX  C   7  -0.04635    -0.01032     0.01454    -0.04532     0.10177     0.01342
 PY  C   7  -0.00923     0.05713     0.02839    -0.04790     0.03662    -0.00172
 PZ  C   7   0.00313    -0.00307     0.00083    -0.00387     0.00037    -0.00612
  
  S  C   8  -0.18195    -0.19761    -0.01344    -0.06121     0.27402     0.04388
 PX  C   8  -0.00070     0.07051     0.02841    -0.03932    -0.00671    -0.00866
 PY  C   8  -0.05662     0.01942     0.02760    -0.06027     0.05117    -0.00565
 PZ  C   8   0.00884    -0.00768     0.00247    -0.01063    -0.00191    -0.01802
  
  S  N   9  -0.21773     0.04301     0.07957    -0.16933     0.08150    -0.03492
 PX  N   9   0.02411     0.04836     0.00554     0.01140    -0.06948    -0.00946
 PY  N   9   0.03195     0.11220     0.02246     0.00583    -0.18192    -0.04493
 PZ  N   9   0.03032    -0.02273     0.00724    -0.03011    -0.00917    -0.04867
  
  S  C  10   0.10790     0.00642     0.03962    -0.08730    -0.05822    -0.08994
 PX  C  10   0.01944     0.02307     0.00164     0.00893    -0.04474    -0.00652
 PY  C  10   0.11743     0.01928    -0.01590     0.05288    -0.09814    -0.00333
 PZ  C  10   0.13040    -0.10682    -0.03817     0.03662     0.11147     0.03309
  
  S  C  11   0.19785    -0.11872    -0.01090    -0.03315     0.12472    -0.01501
 PX  C  11   0.02978    -0.00486    -0.00099     0.00047    -0.00209    -0.00204
 PY  C  11   0.10702    -0.02877    -0.01143     0.01531     0.00698     0.00717
 PZ  C  11   0.00511    -0.00453    -0.01284     0.02804     0.01889     0.02996
  
  S  C  12   0.22906    -0.12787    -0.03340     0.01821     0.15124     0.05307
 PX  C  12   0.01557    -0.00561    -0.00267     0.00424     0.00347     0.00619
 PY  C  12   0.01004    -0.00614    -0.00692     0.01511     0.01059     0.02781
 PZ  C  12  -0.10375     0.03861     0.00798    -0.00167    -0.01393     0.00793
  
  S  C  13   0.19486    -0.11218    -0.04047     0.04614     0.12636     0.09064
 PX  C  13  -0.01620     0.00764     0.00097     0.00164    -0.01022     0.00039
 PY  C  13  -0.09930     0.03353     0.00608     0.00123    -0.01817     0.00995
 PZ  C  13  -0.09841     0.01728     0.00635    -0.00969     0.03368     0.01918
  
  S  C  14   0.23127    -0.05928    -0.03392     0.05969    -0.02986     0.02106
 PX  C  14  -0.02979     0.01012     0.00234    -0.00139    -0.00367    -0.00039
 PY  C  14  -0.09876     0.01809     0.00491    -0.00576     0.02227     0.01438
 PZ  C  14   0.01699    -0.04405    -0.00814    -0.00235     0.08690     0.04153
  
  S  C  15   0.19956     0.06600     0.00166     0.03823    -0.22789    -0.06950
 PX  C  15  -0.00481     0.00069    -0.00524     0.01233    -0.00045     0.00659
 PY  C  15   0.02421    -0.03992    -0.02679     0.04294     0.04120     0.03239
 PZ  C  15   0.10792    -0.09520    -0.01353    -0.01265     0.09427     0.01503
  
  S  C  16   0.04258     0.15744    -0.03469     0.15137    -0.19872     0.00499
 PX  C  16   0.00946    -0.01541    -0.00925     0.01170     0.01809     0.00173
 PY  C  16   0.04112    -0.05227    -0.02226     0.02020     0.03120    -0.01597
 PZ  C  16   0.01877     0.02320     0.04199    -0.07510    -0.11702    -0.06895
  
  S  C  17  -0.09676     0.13901    -0.00581     0.08101    -0.01523     0.10764
 PX  C  17   0.02210     0.01286    -0.01027     0.02988    -0.01922     0.00724
 PY  C  17   0.06217     0.04639    -0.02536     0.08019    -0.09444    -0.00642
 PZ  C  17  -0.03970     0.05512     0.05709    -0.10468    -0.13090    -0.11039
  
  S  C  18  -0.03677     0.02267    -0.05494     0.14218     0.16513     0.21386
 PX  C  18   0.00896     0.00138    -0.00566     0.01467     0.00352     0.01128
 PY  C  18   0.01897     0.01400    -0.02614     0.06416     0.01744     0.03885
 PZ  C  18  -0.03271     0.03290     0.00031     0.01254    -0.00597     0.01224
  
  S  C  19   0.02988    -0.05993    -0.04297     0.06706     0.14701     0.09947
 PX  C  19   0.00748    -0.02065     0.01239    -0.03343    -0.01244    -0.02585
 PY  C  19   0.02078    -0.03627     0.00283    -0.04178    -0.00687    -0.08891
 PZ  C  19  -0.00121     0.03342    -0.04019     0.09879     0.04391     0.06532
  
  S  C  20   0.06521    -0.11080    -0.04544    -0.01675     0.10195    -0.13153
 PX  C  20   0.00361    -0.02552     0.01899    -0.05415    -0.01599    -0.04498
 PY  C  20   0.00464    -0.02534     0.01305    -0.07661    -0.03268    -0.11756
 PZ  C  20  -0.00157     0.06594    -0.04105     0.13123     0.00063     0.07616
  
  S  C  21   0.06095     0.01828    -0.07338     0.13305    -0.01177    -0.04611
 PX  C  21  -0.00074    -0.01638     0.00742    -0.02653     0.00692    -0.01937
 PY  C  21  -0.00530    -0.03438     0.02284    -0.07492     0.00233    -0.05352
 PZ  C  21  -0.00164     0.05233     0.00824     0.02964    -0.07872     0.03766
  
  S  C  22   0.05690    -0.18434     0.00657    -0.27771     0.01563    -0.33084
 PX  C  22   0.00315    -0.02825     0.02540    -0.06204    -0.02236    -0.03552
 PY  C  22  -0.01533     0.04850    -0.03290     0.03141    -0.01717     0.03203
 PZ  C  22   0.00478     0.01386    -0.00962     0.07284     0.03234     0.01777
  
  S  C  23   0.04191    -0.19629     0.15522    -0.29400    -0.05838    -0.23113
 PX  C  23  -0.00681     0.00817     0.08808     0.06019    -0.01610     0.07346
 PY  C  23  -0.00885     0.04280    -0.07389     0.02882     0.02031    -0.05677
 PZ  C  23   0.01335    -0.03633    -0.03747    -0.07331     0.00949    -0.07168
  
  S  C  24  -0.00550    -0.01093     0.13205     0.05772     0.00877    -0.06738
 PX  C  24  -0.00386    -0.01687     0.31275     0.22428     0.05104    -0.03121
 PY  C  24  -0.01346     0.07928    -0.20028     0.01166     0.00665     0.09353
 PZ  C  24   0.01287    -0.04513    -0.08526    -0.17159    -0.03885    -0.05840
  
  S  O  25  -0.01590     0.00231     0.48764     0.39771     0.09352    -0.06468
 PX  O  25   0.00575    -0.00849    -0.10013    -0.09526    -0.02046     0.00429
 PY  O  25  -0.00299     0.01927    -0.05127     0.00308     0.00359     0.02044
 PZ  O  25  -0.00196    -0.00735     0.10687     0.06624     0.01313    -0.02125
  
  S  O  26  -0.02136     0.12652    -0.48428    -0.14610    -0.04031     0.16416
 PX  O  26  -0.00623     0.02874    -0.06067     0.00756     0.00109     0.02860
 PY  O  26  -0.00069     0.00461     0.01941     0.03160     0.00538     0.03223
 PZ  O  26   0.00529    -0.02486     0.02759    -0.03127    -0.00447    -0.04913
  
  S  C  27   0.03599    -0.20683     0.28628    -0.28896    -0.19354     0.29078
 PX  C  27  -0.00583     0.01132     0.02684     0.00855    -0.04916     0.16848
 PY  C  27   0.00228    -0.00006    -0.00383     0.03544     0.07970    -0.29186
 PZ  C  27   0.00497    -0.01121    -0.02372    -0.02365     0.01352    -0.04818
  
  S  N  28   0.02147    -0.14526     0.22546    -0.23539    -0.22886     0.52227
 PX  N  28  -0.00636     0.03727    -0.04860     0.05775     0.04476    -0.09672
 PY  N  28   0.00911    -0.06076     0.09803    -0.09124    -0.08478     0.17607
 PZ  N  28   0.00230    -0.01040     0.00632    -0.01797    -0.00889     0.01882
  
  S  C  29  -0.16158     0.00551    -0.00351     0.00886     0.05607     0.05437
 PX  C  29  -0.01657     0.00813     0.00213    -0.00101    -0.01514    -0.00651
 PY  C  29  -0.10278     0.04149     0.01406    -0.01498    -0.05077    -0.03493
 PZ  C  29  -0.10107     0.03766     0.01409    -0.01757    -0.03664    -0.03204
  
  S  C  30  -0.21159     0.04168     0.01235    -0.01329    -0.00028    -0.00146
 PX  C  30  -0.07891     0.01783     0.00515    -0.00490    -0.00710    -0.00296
 PY  C  30  -0.06461     0.02593     0.00910    -0.01019    -0.03545    -0.02714
 PZ  C  30  -0.01608     0.01464     0.00609    -0.00785    -0.02980    -0.02596
  
  S  C  31  -0.19889     0.05878     0.02021    -0.02360    -0.05445    -0.04784
 PX  C  31  -0.05381     0.01703     0.00577    -0.00643    -0.01849    -0.01435
 PY  C  31   0.03906    -0.00730    -0.00204     0.00204    -0.00200    -0.00232
 PZ  C  31   0.07864    -0.01959    -0.00613     0.00648     0.01091     0.00733
  
  S  C  32  -0.10911     0.04002     0.01442    -0.01710    -0.05042    -0.04298
 PX  C  32   0.02822    -0.00773    -0.00272     0.00340     0.00640     0.00723
 PY  C  32   0.12619    -0.03390    -0.01100     0.01199     0.02838     0.02170
 PZ  C  32   0.11904    -0.03195    -0.01020     0.01080     0.02700     0.01898
  
  S  C  33  -0.18472     0.05610     0.01842    -0.01964    -0.05885    -0.04187
 PX  C  33   0.07290    -0.02126    -0.00708     0.00786     0.01928     0.01515
 PY  C  33   0.07417    -0.01863    -0.00561     0.00548     0.01255     0.00722
 PZ  C  33   0.03214    -0.00615    -0.00133     0.00054     0.00117    -0.00227
  
  S  C  34  -0.20789     0.04504     0.01142    -0.00808    -0.02132    -0.00233
 PX  C  34   0.06391    -0.01105    -0.00253     0.00166    -0.00302    -0.00528
 PY  C  34  -0.02790     0.01661     0.00677    -0.00874    -0.02866    -0.02489
 PZ  C  34  -0.07484     0.02581     0.00959    -0.01186    -0.02782    -0.02410
  
  S  O  35   0.19621    -0.04640    -0.01432     0.01492     0.03490     0.02550
 PX  O  35   0.05042    -0.01361    -0.00455     0.00518     0.01400     0.01244
 PY  O  35   0.01639    -0.00680    -0.00265     0.00342     0.01178     0.01167
 PZ  O  35  -0.01444     0.00131     0.00003     0.00039     0.00388     0.00472
  
  S  C  36   0.11443    -0.02949    -0.00964     0.01075     0.02867     0.02488
 PX  C  36  -0.05361     0.01375     0.00443    -0.00482    -0.01260    -0.01005
 PY  C  36  -0.03623     0.00846     0.00260    -0.00272    -0.00596    -0.00442
 PZ  C  36  -0.00512     0.00040    -0.00000     0.00012     0.00161     0.00163
  
  S  H  37   0.01922    -0.05547    -0.02530    -0.10022     0.00516    -0.13108
  
  S  H  38   0.04427     0.09384     0.03579    -0.05811     0.10125     0.01965
  
  S  H  39   0.03723     0.08241     0.03211    -0.05316     0.09778     0.01953
  
  S  H  40   0.04426     0.09383     0.03579    -0.05811     0.10125     0.01965
  
  S  H  41   0.06563     0.12062     0.04262    -0.06408     0.08773     0.01459
  
  S  H  42   0.06562     0.12061     0.04261    -0.06407     0.08773     0.01460
  
  S  H  43   0.07379     0.10363     0.03078    -0.03769     0.01561    -0.00120
  
  S  H  44   0.07381     0.10363     0.03079    -0.03773     0.01564    -0.00124
  
  S  H  45   0.06059     0.03614     0.00088     0.01451    -0.07428    -0.01689
  
  S  H  46   0.06054     0.03622     0.00087     0.01459    -0.07428    -0.01672
  
  S  H  47   0.03109    -0.04661    -0.02914     0.05727    -0.10095    -0.01597
  
  S  H  48   0.03136    -0.04690    -0.02907     0.05693    -0.10090    -0.01659
  
  S  H  49  -0.00649    -0.10965    -0.04348     0.06375    -0.04088    -0.00044
  
  S  H  50  -0.00743    -0.10877    -0.04372     0.06491    -0.04087     0.00164
  
  S  H  51  -0.04694    -0.11508    -0.03265     0.03070     0.04946     0.01845
  
  S  H  52  -0.04147    -0.11982    -0.03142     0.02497     0.05031     0.00996
  
  S  H  53  -0.06317    -0.08950    -0.00789    -0.02378     0.11189     0.01177
  
  S  H  54  -0.07381    -0.08099    -0.01061    -0.01204     0.11504     0.03230
  
  S  H  55   0.03997    -0.04893    -0.00250    -0.01948     0.06515    -0.00520
  
  S  H  56   0.05441    -0.04091    -0.01112     0.00606     0.06470     0.02660
  
  S  H  57   0.05743    -0.01174    -0.01305     0.02728    -0.01788     0.01025
  
  S  H  58  -0.02536    -0.00472    -0.01413     0.03429     0.07666     0.08286
  
  S  H  59   0.01372    -0.04720     0.00559    -0.02207     0.04378     0.03077
  
  S  H  60   0.02817    -0.00225    -0.02306     0.02937    -0.01644    -0.04603
  
  S  H  61  -0.01135     0.06179    -0.18197    -0.02274    -0.00901     0.09112
  
  S  H  62  -0.04774     0.00346     0.00067    -0.00104     0.01558     0.00958
  
  S  H  63  -0.04595     0.01470     0.00532    -0.00657    -0.01569    -0.01529
  
  S  H  64  -0.03617     0.01239     0.00414    -0.00438    -0.01598    -0.01104
  
  S  H  65  -0.04618     0.00652     0.00019     0.00243     0.00065     0.00801
  
  S  H  66   0.03738    -0.00942    -0.00307     0.00345     0.00895     0.00806
  
  S  H  67   0.04329    -0.01178    -0.00395     0.00450     0.01293     0.01151
  
  S  H  68   0.03732    -0.00940    -0.00306     0.00343     0.00892     0.00803




    ROOT NO.   13          14          15          16          17          18

           -34.94578   -34.81946   -33.56669   -32.96041   -32.11188   -30.96228
  
  
  S  C   1   0.27835     0.04993    -0.05270    -0.15752    -0.19069    -0.14016
 PX  C   1   0.04022     0.00694    -0.00417    -0.00729     0.00086     0.01177
 PY  C   1  -0.00480    -0.00097     0.00230     0.00876     0.01379     0.01324
 PZ  C   1  -0.00000     0.00001     0.00000     0.00002    -0.00001    -0.00000
  
  S  C   2   0.16649     0.02891    -0.02049    -0.04637    -0.03038     0.00406
 PX  C   2  -0.11220    -0.02045     0.02455     0.07706     0.09858     0.07610
 PY  C   2  -0.03284    -0.00627     0.01048     0.03642     0.05178     0.04418
 PZ  C   2  -0.00001     0.00003     0.00002     0.00006    -0.00003    -0.00000
  
  S  C   3  -0.11216    -0.02134     0.03379     0.11355     0.15346     0.12160
 PX  C   3  -0.12930    -0.02314     0.02242     0.06150     0.06177     0.02843
 PY  C   3  -0.06284    -0.01090     0.00749     0.01543     0.00548    -0.01035
 PZ  C   3  -0.00003     0.00010     0.00005     0.00019    -0.00010    -0.00001
  
  S  C   4  -0.27156    -0.04856     0.04506     0.11943     0.11228     0.04293
 PX  C   4   0.02735     0.00575    -0.01530    -0.05771    -0.08684    -0.07570
 PY  C   4  -0.04036    -0.00651    -0.00085    -0.01455    -0.03786    -0.04562
 PZ  C   4   0.00009     0.00036     0.00014     0.00048    -0.00044    -0.00010
  
  S  C   5  -0.11557    -0.01812    -0.00483    -0.04769    -0.10769    -0.11356
 PX  C   5   0.10435     0.01954    -0.02608    -0.07946    -0.08891    -0.04592
 PY  C   5   0.09745     0.01791    -0.01710    -0.04537    -0.04115    -0.00989
 PZ  C   5   0.00000     0.00122     0.00050     0.00162    -0.00133    -0.00032
  
  S  C   6   0.17464     0.03223    -0.04792    -0.14410    -0.15341    -0.07112
 PX  C   6   0.08108     0.01268    -0.00091     0.01939     0.06136     0.07218
 PY  C   6   0.09345     0.01667    -0.01148    -0.02012     0.00176     0.02957
 PZ  C   6   0.00021     0.00393     0.00154     0.00506    -0.00390    -0.00092
  
  S  C   7   0.25567     0.04050    -0.02768    -0.03252     0.02606     0.07823
 PX  C   7  -0.00932    -0.00891     0.01855     0.07881     0.10660     0.06085
 PY  C   7  -0.06730    -0.01307     0.01845     0.05777     0.05125     0.01476
 PZ  C   7   0.00056     0.01414     0.00542     0.01644    -0.01236    -0.00331
  
  S  C   8   0.06119    -0.01679     0.02803     0.15194     0.21788     0.11390
 PX  C   8  -0.11161    -0.02730     0.01598     0.03588     0.01310    -0.03720
 PY  C   8  -0.08874    -0.03145     0.01655     0.06432     0.02837    -0.03434
 PZ  C   8   0.00517     0.03534     0.01328     0.04389    -0.02987    -0.01338
  
  S  N   9  -0.15797    -0.10954     0.00333     0.11345     0.00424    -0.11452
 PX  N   9  -0.00995    -0.01004    -0.01474    -0.04911    -0.05487    -0.02623
 PY  N   9   0.00856    -0.01344    -0.04182    -0.10648    -0.17162    -0.08639
 PZ  N   9   0.01639     0.08975     0.03712     0.09314    -0.05389    -0.06088
  
  S  C  10  -0.06088     0.19359     0.07957     0.01548    -0.10503    -0.12347
 PX  C  10   0.02241    -0.01665    -0.01046    -0.03250     0.00793    -0.01812
 PY  C  10   0.08911     0.01018    -0.01448    -0.11610     0.06029    -0.00244
 PZ  C  10  -0.03889     0.16404     0.07083     0.00309     0.02916     0.09535
  
  S  C  11  -0.16119     0.34502     0.11323     0.05164    -0.17891     0.12904
 PX  C  11  -0.00569     0.01626     0.00819    -0.01107     0.00419    -0.00950
 PY  C  11  -0.01841     0.05044     0.00270    -0.04571    -0.00088     0.01384
 PZ  C  11  -0.01487    -0.02690    -0.03969    -0.01488    -0.04352     0.09698
  
  S  C  12  -0.16537     0.11456    -0.05061     0.01894    -0.20307     0.17695
 PX  C  12   0.00555    -0.03330    -0.00174    -0.00548     0.01903    -0.01935
 PY  C  12   0.01709    -0.16268    -0.08096    -0.00168     0.04003    -0.05886
 PZ  C  12   0.00815    -0.10607    -0.06714     0.03073    -0.04625     0.01172
  
  S  C  13  -0.03695    -0.27430    -0.09419     0.01319     0.02996    -0.04456
 PX  C  13   0.02921    -0.05166     0.04442    -0.00148     0.04051    -0.03388
 PY  C  13   0.05031    -0.18031    -0.01362     0.03044     0.04200    -0.07494
 PZ  C  13  -0.07274    -0.07217    -0.09520     0.06150    -0.20271     0.06597
  
  S  C  14   0.17737    -0.15715     0.03639    -0.05331     0.36726    -0.10988
 PX  C  14   0.00645    -0.01921     0.00858     0.01139    -0.00536     0.00373
 PY  C  14  -0.01391    -0.09011    -0.01457     0.04575    -0.03752     0.00522
 PZ  C  14  -0.07970    -0.10017    -0.00809     0.00580    -0.04493    -0.04557
  
  S  C  15   0.22115     0.03370     0.00575    -0.08736     0.16531    -0.04447
 PX  C  15   0.02570    -0.02178    -0.00330     0.01130     0.03319     0.02229
 PY  C  15   0.07974    -0.05228     0.00447     0.02850     0.17613     0.05760
 PZ  C  15  -0.05079     0.05738     0.06627    -0.04005     0.12165    -0.09110
  
  S  C  16   0.21456    -0.01513    -0.07403     0.05491    -0.04616     0.24226
 PX  C  16   0.01869     0.01122     0.00552     0.04457     0.01875     0.02858
 PY  C  16   0.09438     0.03453     0.01635     0.14041     0.09105     0.07181
 PZ  C  16   0.05528    -0.02934    -0.01072    -0.07440     0.03940    -0.10693
  
  S  C  17  -0.10774    -0.09983    -0.04615    -0.18292    -0.04640     0.10366
 PX  C  17   0.01713     0.01654    -0.00218    -0.00318    -0.01928     0.02502
 PY  C  17   0.10168     0.04969    -0.02097     0.02353    -0.08298     0.07843
 PZ  C  17   0.05196    -0.05832    -0.04367     0.08396    -0.08622    -0.09380
  
  S  C  18  -0.20902    -0.00163     0.04716    -0.32200     0.10630     0.02588
 PX  C  18  -0.00665     0.01235     0.00533    -0.00748    -0.00748    -0.01132
 PY  C  18  -0.01508     0.03260     0.00975    -0.01890    -0.02899    -0.00138
 PZ  C  18  -0.00110    -0.04339    -0.02788     0.00816    -0.01427     0.10894
  
  S  C  19  -0.15672     0.06462     0.07380    -0.16715     0.04973    -0.24436
 PX  C  19   0.01473    -0.00024    -0.00261     0.03970    -0.01248    -0.03020
 PY  C  19   0.04421     0.00936    -0.00525     0.14195    -0.04440    -0.08157
 PZ  C  19  -0.02324     0.01888     0.00533    -0.02523    -0.00302     0.08724
  
  S  C  20   0.01047     0.05824     0.03170     0.23837    -0.03966    -0.23711
 PX  C  20   0.01025    -0.01531    -0.00695     0.01079    -0.00081    -0.00760
 PY  C  20   0.06441    -0.02546    -0.02182     0.13434    -0.01447     0.00333
 PZ  C  20   0.06094     0.02999    -0.01135     0.11229    -0.01926     0.17510
  
  S  C  21   0.19884     0.05120    -0.02351     0.36014    -0.01819     0.17879
 PX  C  21  -0.00837    -0.00269     0.00378     0.01210     0.00241    -0.03488
 PY  C  21  -0.00576    -0.01536     0.00627     0.02752     0.02428    -0.07891
 PZ  C  21   0.06760    -0.02470    -0.02496    -0.06772     0.03932     0.15461
  
  S  C  22   0.00447    -0.05886    -0.01544     0.03610    -0.01220    -0.09893
 PX  C  22  -0.00657    -0.03018    -0.01416    -0.09371     0.00994     0.10331
 PY  C  22   0.01395    -0.00966    -0.01261    -0.02565     0.00495     0.12362
 PZ  C  22   0.02460     0.04246     0.01743     0.17990    -0.02062    -0.15033
  
  S  C  23  -0.01681    -0.10408    -0.04361    -0.23877     0.02141     0.25328
 PX  C  23   0.00743     0.00813    -0.00208    -0.01014     0.00221     0.07107
 PY  C  23   0.00231    -0.01374    -0.00872    -0.02188     0.00208     0.08068
 PZ  C  23  -0.00250    -0.00486     0.00381     0.03913    -0.00648    -0.11216
  
  S  C  24  -0.00440    -0.02821    -0.01489    -0.08525     0.00912     0.14392
 PX  C  24   0.00091     0.01706     0.01018     0.06095    -0.00631    -0.09089
 PY  C  24   0.00460     0.03831     0.01785     0.09604    -0.00951    -0.13393
 PZ  C  24  -0.00322    -0.04224    -0.02121    -0.11077     0.01084     0.16197
  
  S  O  25  -0.00115     0.02394     0.01467     0.08343    -0.00832    -0.12413
 PX  O  25   0.00009    -0.00728    -0.00362    -0.01757     0.00151     0.01978
 PY  O  25   0.00070     0.01053     0.00553     0.02961    -0.00306    -0.04894
 PZ  O  25  -0.00054    -0.00282    -0.00152    -0.00796     0.00097     0.02007
  
  S  O  26   0.00477     0.03215     0.01140     0.04663    -0.00395    -0.05440
 PX  O  26   0.00060     0.00910     0.00374     0.01615    -0.00138    -0.01839
 PY  O  26   0.00209     0.01751     0.00929     0.05034    -0.00537    -0.08805
 PZ  O  26  -0.00157    -0.02057    -0.01007    -0.04811     0.00476     0.07869
  
  S  C  27   0.02810     0.00443    -0.01029    -0.02300     0.00140     0.07579
 PX  C  27   0.02502     0.03122     0.00455     0.07882    -0.00905    -0.00952
 PY  C  27  -0.02859    -0.06226    -0.01931    -0.14420     0.01405     0.12359
 PZ  C  27  -0.00819    -0.00556     0.00182    -0.00677     0.00043    -0.03748
  
  S  N  28   0.05675     0.06674     0.00911     0.13839    -0.01519    -0.04401
 PX  N  28  -0.00702    -0.01148    -0.00272    -0.01699     0.00115     0.01778
 PY  N  28   0.02001     0.01816     0.00031     0.03396    -0.00416     0.00733
 PZ  N  28   0.00035     0.00305     0.00161     0.00601    -0.00051    -0.01667
  
  S  C  29  -0.02736    -0.29826    -0.09315     0.07261    -0.13453    -0.02609
 PX  C  29   0.04107    -0.03271     0.19439    -0.01636     0.02599    -0.01936
 PY  C  29   0.03468     0.09668     0.10207    -0.02031     0.02706    -0.00102
 PZ  C  29  -0.01383     0.14732    -0.03527    -0.00557    -0.04391     0.04455
  
  S  C  30  -0.06475     0.04970    -0.36407     0.04480    -0.07260     0.01929
 PX  C  30   0.00360    -0.01437     0.03456     0.00423    -0.02536     0.00173
 PY  C  30   0.01686     0.11498     0.00377    -0.02501     0.07251    -0.01363
 PZ  C  30   0.00814     0.13767    -0.02502    -0.02771     0.07800    -0.00451
  
  S  C  31  -0.02663     0.29104    -0.30941    -0.03145     0.16927    -0.03657
 PX  C  31   0.01139     0.05566     0.05732    -0.01868     0.03655    -0.00479
 PY  C  31   0.01189     0.01695     0.04892    -0.01851     0.06526    -0.02422
 PZ  C  31   0.00375    -0.01800     0.01391    -0.00720     0.04258    -0.02052
  
  S  C  32   0.01439     0.22099     0.01325    -0.05710     0.16258    -0.02644
 PX  C  32   0.01861    -0.07694     0.19260     0.00268    -0.08754     0.04168
 PY  C  32  -0.00537    -0.08626    -0.01187     0.01265    -0.00718    -0.01522
 PZ  C  32  -0.01894    -0.04276    -0.14144     0.01232     0.04804    -0.04301
  
  S  C  33   0.06260     0.09257     0.43558    -0.05341    -0.02552     0.06208
 PX  C  33  -0.00189    -0.06865     0.01921     0.01142    -0.03461     0.00673
 PY  C  33  -0.01032    -0.00130    -0.05578     0.00117     0.01361    -0.00050
 PZ  C  33  -0.01155     0.04603    -0.07415    -0.00608     0.03349    -0.00260
  
  S  C  34   0.06189    -0.14364     0.36842     0.00002    -0.07228    -0.00088
 PX  C  34   0.00738     0.03685     0.06693    -0.01622     0.01323     0.01560
 PY  C  34   0.01504     0.10830     0.11029    -0.02839     0.00915     0.03343
 PZ  C  34   0.00376     0.10292     0.07240    -0.01919    -0.01810     0.03607
  
  S  O  35  -0.01672    -0.08275    -0.10975     0.01985     0.01655    -0.03863
 PX  O  35   0.00122    -0.08005     0.05969     0.01894    -0.09474     0.03460
 PY  O  35   0.00027    -0.08604     0.05288     0.02525    -0.11903     0.04226
 PZ  O  35  -0.00073    -0.04192     0.01806     0.01539    -0.06875     0.02381
  
  S  C  36  -0.00194    -0.15195     0.07877     0.04149    -0.19387     0.07407
 PX  C  36   0.00529     0.04385     0.02604    -0.01188     0.01757     0.00681
 PY  C  36   0.00055     0.01743    -0.00318    -0.00151    -0.00172     0.00529
 PZ  C  36  -0.00290    -0.00898    -0.02076     0.00601    -0.01310     0.00136
  
  S  H  37   0.01339    -0.02300    -0.00946     0.03956    -0.00672    -0.01646
  
  S  H  38   0.12062     0.02166    -0.02317    -0.06986    -0.08582    -0.06477
  
  S  H  39   0.12589     0.02270    -0.02532    -0.07782    -0.09810    -0.07638
  
  S  H  40   0.12063     0.02167    -0.02317    -0.06985    -0.08585    -0.06479
  
  S  H  41   0.06387     0.01107    -0.00752    -0.01630    -0.00906     0.00450
  
  S  H  42   0.06387     0.01104    -0.00754    -0.01638    -0.00901     0.00450
  
  S  H  43  -0.04368    -0.00836     0.01307     0.04380     0.05905     0.04641
  
  S  H  44  -0.04364    -0.00822     0.01313     0.04399     0.05887     0.04637
  
  S  H  45  -0.10807    -0.01914     0.01799     0.04780     0.04490     0.01782
  
  S  H  46  -0.10808    -0.01958     0.01780     0.04717     0.04542     0.01795
  
  S  H  47  -0.04606    -0.00784    -0.00226    -0.02016    -0.04278    -0.04550
  
  S  H  48  -0.04599    -0.00623    -0.00162    -0.01810    -0.04449    -0.04588
  
  S  H  49   0.06983     0.01505    -0.01781    -0.05301    -0.06015    -0.02653
  
  S  H  50   0.06951     0.01020    -0.01968    -0.05932    -0.05523    -0.02536
  
  S  H  51   0.09886     0.00877    -0.01409    -0.02577     0.01198     0.03018
  
  S  H  52   0.09887     0.02900    -0.00651    -0.00413    -0.00474     0.02665
  
  S  H  53   0.03204     0.01803     0.01974     0.08034     0.07737     0.05108
  
  S  H  54   0.02522    -0.02063     0.00610     0.03091     0.11206     0.06317
  
  S  H  55  -0.06772     0.13738     0.04706     0.05027    -0.09050     0.07572
  
  S  H  56  -0.07922     0.01956    -0.05834     0.02698    -0.13234     0.10177
  
  S  H  57   0.09619    -0.11021     0.01836     0.00229     0.16623    -0.04047
  
  S  H  58  -0.09100    -0.01183     0.02217    -0.14559     0.07466    -0.00036
  
  S  H  59  -0.06819     0.01978     0.03300    -0.08751     0.03126    -0.15395
  
  S  H  60   0.10571     0.01061    -0.01136     0.17879     0.01553     0.06750
  
  S  H  61   0.00312     0.02715     0.01203     0.05731    -0.00558    -0.08788
  
  S  H  62  -0.04054    -0.00347    -0.19481     0.02805    -0.05036     0.01643
  
  S  H  63  -0.01484     0.11446    -0.16313    -0.01222     0.08979    -0.02614
  
  S  H  64   0.02675     0.00980     0.20845    -0.01933    -0.03100     0.03639
  
  S  H  65   0.03291    -0.10500     0.16975     0.00266    -0.01742    -0.01293
  
  S  H  66   0.00186    -0.05614     0.05391     0.01435    -0.08466     0.03798
  
  S  H  67  -0.00225    -0.07212     0.02570     0.02232    -0.09868     0.03686
  
  S  H  68   0.00181    -0.05588     0.05374     0.01430    -0.08453     0.03798




    ROOT NO.   19          20          21          22          23          24

           -30.23196   -29.15184   -28.62716   -26.99422   -26.21764   -26.08603
  
  
  S  C   1  -0.10763     0.27052     0.07327     0.12253    -0.04923    -0.11808
 PX  C   1   0.01529    -0.06535    -0.02183    -0.06226     0.02817     0.09392
 PY  C   1   0.01158    -0.03343    -0.00919    -0.01500     0.01810    -0.05881
 PZ  C   1   0.00001    -0.00003     0.00015     0.00005     0.00015     0.00008
  
  S  C   2   0.01642    -0.09289    -0.03283    -0.09454     0.02545     0.22494
 PX  C   2   0.05935    -0.14902    -0.04017    -0.06005     0.01115     0.10511
 PY  C   2   0.03596    -0.09308    -0.02436    -0.03096     0.03139    -0.10762
 PZ  C   2   0.00004    -0.00010     0.00042     0.00014     0.00036     0.00020
  
  S  C   3   0.09422    -0.22648    -0.05706    -0.06782     0.06335    -0.18976
 PX  C   3   0.01177     0.01300     0.00919     0.04775    -0.04511     0.04697
 PY  C   3  -0.01537     0.06713     0.02296     0.05502     0.00492    -0.20873
 PZ  C   3   0.00012    -0.00025     0.00113     0.00034     0.00083     0.00041
  
  S  C   4   0.01142     0.05427     0.02366     0.09388    -0.09524     0.13340
 PX  C   4  -0.06094     0.15046     0.03709     0.04202    -0.04530     0.14766
 PY  C   4  -0.04178     0.11997     0.03421     0.04301     0.02088    -0.17807
 PZ  C   4   0.00030    -0.00065     0.00294     0.00075     0.00193     0.00084
  
  S  C   5  -0.09539     0.23585     0.06225     0.04213     0.04238    -0.17960
 PX  C   5  -0.02092    -0.01321    -0.01436    -0.06501     0.00615     0.18431
 PY  C   5   0.00438    -0.05836    -0.01857    -0.06604     0.07938    -0.14992
 PZ  C   5   0.00082    -0.00162     0.00778     0.00178     0.00433     0.00155
  
  S  C   6  -0.02731    -0.04138    -0.03111    -0.08665    -0.00801     0.25640
 PX  C   6   0.06186    -0.14869    -0.03995    -0.00540    -0.03971     0.07152
 PY  C   6   0.03521    -0.11907    -0.02953    -0.04535     0.06264    -0.19071
 PZ  C   6   0.00235    -0.00450     0.02005     0.00428     0.00986     0.00311
  
  S  C   7   0.08415    -0.24544    -0.05632    -0.05007     0.06754    -0.20796
 PX  C   7   0.03011     0.01531     0.01104     0.09483    -0.07370     0.06536
 PY  C   7   0.00047     0.04108     0.02566     0.03055     0.03123    -0.14674
 PZ  C   7   0.00723    -0.01222     0.05425     0.00972     0.02226     0.00649
  
  S  C   8   0.04667     0.07086     0.01595     0.17650    -0.10117     0.05633
 PX  C   8  -0.05128     0.16867     0.02951     0.03463    -0.02239     0.08578
 PY  C   8  -0.04037     0.11854     0.03268     0.00251     0.07487    -0.06641
 PZ  C   8   0.02077    -0.03268     0.13000     0.02877     0.05437     0.01525
  
  S  N   9  -0.08597     0.14002    -0.00036     0.02364     0.10832     0.03948
 PX  N   9  -0.01763    -0.02071    -0.03882    -0.03559    -0.01308     0.04612
 PY  N   9  -0.00773    -0.17889    -0.05315    -0.09932     0.05442    -0.01080
 PZ  N   9   0.07298    -0.07843     0.29423     0.06588     0.10897     0.02934
  
  S  C  10   0.09368    -0.07318     0.22820    -0.10479     0.08708     0.02294
 PX  C  10   0.00922    -0.01379    -0.04658     0.01233    -0.01877     0.01607
 PY  C  10   0.05735    -0.04476    -0.16890     0.00533    -0.08146    -0.02259
 PZ  C  10   0.01738     0.08049     0.05608    -0.10647    -0.05151    -0.00719
  
  S  C  11  -0.01562     0.01643     0.15878    -0.13216    -0.13834    -0.02302
 PX  C  11   0.00238     0.00498    -0.01398    -0.01077     0.01741     0.01310
 PY  C  11  -0.01121     0.00300    -0.13433     0.00538     0.02153     0.00262
 PZ  C  11  -0.07813    -0.00388    -0.17621     0.08651    -0.12691    -0.02567
  
  S  C  12  -0.15338    -0.03945    -0.23532     0.16095    -0.07817    -0.01660
 PX  C  12  -0.01280    -0.00241    -0.01211     0.00025     0.04883     0.01234
 PY  C  12  -0.02483    -0.02376    -0.07033     0.09230     0.17085     0.03077
 PZ  C  12  -0.02618    -0.04369    -0.01434     0.11392    -0.04588    -0.01110
  
  S  C  13  -0.13911    -0.02405    -0.07849     0.05197     0.22106     0.04283
 PX  C  13  -0.01383     0.00135     0.06943    -0.07494    -0.00199     0.00280
 PY  C  13   0.01138    -0.01706     0.17923    -0.08529    -0.00072     0.00079
 PZ  C  13  -0.05760    -0.11588     0.00795     0.12330    -0.09246    -0.01868
  
  S  C  14   0.06275     0.16222     0.01065    -0.03986     0.06304     0.00906
 PX  C  14  -0.01060    -0.00254     0.03172    -0.01021    -0.02946    -0.00351
 PY  C  14  -0.05233    -0.01059     0.08212    -0.02035    -0.00086    -0.00004
 PZ  C  14  -0.10430    -0.03159     0.00133    -0.09225     0.20914     0.04446
  
  S  C  15   0.17022    -0.02161    -0.02335     0.10544    -0.17890    -0.03848
 PX  C  15  -0.00347     0.02801     0.00316     0.02565    -0.03582    -0.00151
 PY  C  15   0.01193     0.13955    -0.00774     0.06114    -0.07564    -0.01985
 PZ  C  15   0.03682     0.09923    -0.02108    -0.12376     0.12773     0.02636
  
  S  C  16  -0.02399    -0.04990     0.04914     0.13253    -0.09994    -0.01888
 PX  C  16  -0.00594     0.03804     0.03094     0.01336    -0.00085     0.00711
 PY  C  16   0.01873     0.11055     0.09138     0.08475    -0.07141    -0.01281
 PZ  C  16   0.09240    -0.07012    -0.05893     0.10087    -0.18988    -0.04084
  
  S  C  17  -0.11365     0.03984    -0.20467    -0.18201    -0.00010    -0.00666
 PX  C  17   0.00377    -0.02158     0.03840     0.01206     0.01202     0.02056
 PY  C  17   0.02487    -0.13581     0.12825     0.07645     0.06237     0.00979
 PZ  C  17  -0.02502    -0.07989    -0.06384     0.09085     0.01630     0.01038
  
  S  C  18   0.04671     0.07508    -0.01805    -0.12989    -0.14189    -0.04034
 PX  C  18   0.01285    -0.02143     0.03848     0.02856     0.02833     0.01314
 PY  C  18   0.01833    -0.06030     0.09408     0.04420     0.11844     0.02304
 PZ  C  18  -0.10031     0.08323    -0.13667    -0.15625     0.03802     0.00546
  
  S  C  19   0.16480    -0.13620     0.13956     0.22103    -0.00879     0.00297
 PX  C  19  -0.00282    -0.01550    -0.01425     0.03006     0.02240     0.00984
 PY  C  19  -0.02045    -0.03784    -0.03966     0.04302     0.10781     0.02917
 PZ  C  19  -0.03020     0.03717     0.03692    -0.09823     0.09118     0.01588
  
  S  C  20   0.00367    -0.03085    -0.06891    -0.00496     0.09343     0.02404
 PX  C  20  -0.00855     0.00854    -0.04185    -0.01322    -0.03915    -0.00722
 PY  C  20  -0.06594     0.07934    -0.14774    -0.16136    -0.10192    -0.02932
 PZ  C  20  -0.07729     0.09100     0.07762    -0.09044     0.13828     0.02979
  
  S  C  21  -0.10134     0.14375     0.05774    -0.02974     0.04520     0.01353
 PX  C  21  -0.00060     0.00901    -0.02583    -0.01981    -0.01064    -0.00086
 PY  C  21   0.00553     0.03852    -0.07505    -0.04926    -0.09197    -0.02303
 PZ  C  21   0.01915     0.00971     0.07588     0.12569    -0.12798    -0.02535
  
  S  C  22  -0.02087     0.01207    -0.19073    -0.15711    -0.18061    -0.05305
 PX  C  22  -0.00385     0.00514     0.05381     0.03619     0.01950     0.00747
 PY  C  22  -0.03597     0.05809     0.01590    -0.12215    -0.02152    -0.01556
 PZ  C  22  -0.01108     0.00889    -0.09534    -0.05360    -0.00500    -0.00107
  
  S  C  23  -0.01992     0.02351     0.11066     0.04621     0.06496     0.01916
 PX  C  23  -0.00967     0.01550     0.07176     0.04277     0.10081     0.02924
 PY  C  23  -0.02676     0.04353     0.00768    -0.12689    -0.01174    -0.01563
 PZ  C  23   0.01142    -0.02449    -0.10556    -0.01951    -0.11763    -0.02849
  
  S  C  24  -0.01967     0.03419     0.08502    -0.03494     0.07587     0.01280
 PX  C  24   0.00980    -0.01683    -0.05273     0.01277    -0.03953    -0.00655
 PY  C  24   0.01471    -0.02179    -0.07422    -0.01833    -0.06807    -0.01822
 PZ  C  24  -0.02123     0.03266     0.07821    -0.02080     0.05837     0.01116
  
  S  O  25   0.01185    -0.01807    -0.07992    -0.02393    -0.08026    -0.02084
 PX  O  25  -0.00230     0.00260     0.00401    -0.00219    -0.00476    -0.00134
 PY  O  25   0.00606    -0.00955    -0.03116    -0.00565    -0.03420    -0.00882
 PZ  O  25  -0.00344     0.00606     0.01520    -0.00226     0.02088     0.00485
  
  S  O  26   0.01098    -0.01637    -0.00669     0.04255     0.00754     0.00646
 PX  O  26   0.00249    -0.00253    -0.00452    -0.00667    -0.00280    -0.00205
 PY  O  26   0.01447    -0.02656    -0.04490     0.06320    -0.02950     0.00190
 PZ  O  26  -0.01415     0.02378     0.03018    -0.05413     0.01376    -0.00340
  
  S  C  27  -0.00760     0.00223     0.04969     0.07215     0.06033     0.02239
 PX  C  27  -0.02093     0.02689    -0.03201    -0.08913    -0.01234    -0.00993
 PY  C  27   0.00079    -0.00126     0.08768     0.09297     0.08471     0.02930
 PZ  C  27   0.01225    -0.01858    -0.01778     0.02826    -0.02517    -0.00362
  
  S  N  28  -0.02032     0.02118    -0.05729    -0.09174    -0.04160    -0.01753
 PX  N  28  -0.00404     0.00590     0.00511    -0.01205     0.00848     0.00117
 PY  N  28  -0.00910     0.00886    -0.00279    -0.01145     0.01039     0.00235
 PZ  N  28   0.00398    -0.00604    -0.00838     0.00723    -0.01176    -0.00225
  
  S  C  29   0.00026    -0.09848     0.16629    -0.03567    -0.10504    -0.01910
 PX  C  29  -0.07942    -0.02209     0.07739    -0.13211    -0.05417    -0.00520
 PY  C  29   0.07523     0.03884     0.05336    -0.10421    -0.09582    -0.01701
 PZ  C  29   0.11664     0.02839    -0.04177     0.03697    -0.09895    -0.02139
  
  S  C  30   0.25981     0.06233     0.00039     0.03766    -0.05193    -0.01367
 PX  C  30  -0.00564    -0.02380     0.03280    -0.01449    -0.05044    -0.00921
 PY  C  30   0.04384     0.05683     0.00282    -0.09032     0.02657     0.00786
 PZ  C  30   0.04228     0.06811    -0.03751    -0.06340     0.05162     0.01231
  
  S  C  31   0.05816     0.09146    -0.01874    -0.10928     0.10125     0.02409
 PX  C  31  -0.08722    -0.02793    -0.01044     0.02502     0.00912     0.00147
 PY  C  31  -0.16217    -0.05112     0.01310    -0.00048     0.03386     0.00805
 PZ  C  31  -0.12038    -0.03938     0.01661    -0.01062     0.02780     0.00713
  
  S  C  32  -0.22782    -0.03854    -0.07230     0.09359     0.12626     0.02284
 PX  C  32   0.02758    -0.00074    -0.07765     0.12758     0.02861     0.00056
 PY  C  32  -0.09352    -0.06362     0.04569     0.03042    -0.04826    -0.01066
 PZ  C  32  -0.11972    -0.06950     0.09939    -0.04920    -0.07304    -0.01228
  
  S  C  33  -0.06507     0.01508    -0.18665     0.17841     0.11721     0.01715
 PX  C  33   0.01306    -0.00245    -0.00276     0.00940     0.00028    -0.00014
 PY  C  33  -0.01161     0.00659    -0.04821     0.07855     0.09386     0.01588
 PZ  C  33  -0.02189     0.00653    -0.05478     0.08458     0.09953     0.01686
  
  S  C  34  -0.06512    -0.05959     0.12687    -0.14860    -0.16609    -0.02713
 PX  C  34  -0.02978     0.01170    -0.06714     0.04138     0.03874     0.00662
 PY  C  34   0.01694     0.03750    -0.10987     0.07810     0.04645     0.00598
 PZ  C  34   0.03454     0.02253    -0.09003     0.07621     0.01370    -0.00012
  
  S  O  35  -0.11052    -0.08967     0.13757    -0.06699    -0.19267    -0.03659
 PX  O  35   0.15310     0.04999    -0.03355     0.01663     0.00034    -0.00143
 PY  O  35   0.23815     0.08411    -0.02133    -0.04641    -0.02993    -0.00544
 PZ  O  35   0.16084     0.05925    -0.00156    -0.06166    -0.03361    -0.00511
  
  S  C  36   0.41769     0.17342    -0.09009    -0.05146     0.12592     0.02692
 PX  C  36   0.00310     0.02710    -0.05978     0.03596     0.12744     0.02517
 PY  C  36   0.04976     0.03366    -0.01872    -0.02596     0.05239     0.01194
 PZ  C  36   0.05212     0.01913     0.01816    -0.05170    -0.02521    -0.00321
  
  S  H  37  -0.02921     0.03744    -0.10280    -0.15672    -0.10612    -0.03677
  
  S  H  38  -0.05083     0.13307     0.03696     0.06868    -0.02424    -0.10100
  
  S  H  39  -0.06091     0.16201     0.04497     0.08143    -0.04076    -0.04316
  
  S  H  40  -0.05082     0.13306     0.03715     0.06876    -0.02407    -0.10087
  
  S  H  41   0.00922    -0.04631    -0.01612    -0.04749     0.00310     0.17125
  
  S  H  42   0.00917    -0.04619    -0.01665    -0.04767     0.00264     0.17100
  
  S  H  43   0.03571    -0.08504    -0.02142    -0.02392     0.04235    -0.17726
  
  S  H  44   0.03585    -0.08534    -0.02000    -0.02352     0.04344    -0.17690
  
  S  H  45   0.00548     0.01924     0.00980     0.03933    -0.06245     0.16541
  
  S  H  46   0.00512     0.02000     0.00610     0.03836    -0.06492     0.16476
  
  S  H  47  -0.03865     0.09405     0.02126     0.01090     0.04458    -0.18641
  
  S  H  48  -0.03760     0.09193     0.03105     0.01304     0.05010    -0.18491
  
  S  H  49  -0.00861    -0.01627    -0.00140    -0.02270    -0.03086     0.20945
  
  S  H  50  -0.01146    -0.01068    -0.02623    -0.02813    -0.04327     0.20565
  
  S  H  51   0.02834    -0.09713    -0.05249    -0.04333     0.04592    -0.17164
  
  S  H  52   0.03729    -0.11204     0.01566    -0.03250     0.07196    -0.16399
  
  S  H  53   0.03342     0.01702     0.07562     0.10015    -0.05362     0.07969
  
  S  H  54   0.01314     0.05345    -0.06401     0.06834    -0.11440     0.06261
  
  S  H  55  -0.01284     0.00461     0.12572    -0.04819    -0.10706    -0.01941
  
  S  H  56  -0.08049    -0.04122    -0.11636     0.13948    -0.09424    -0.02054
  
  S  H  57   0.01643     0.08102     0.05980    -0.02265    -0.01706    -0.00497
  
  S  H  58   0.02950     0.05946    -0.04272    -0.06137    -0.15255    -0.03485
  
  S  H  59   0.10025    -0.08420     0.05446     0.16529    -0.07413    -0.01188
  
  S  H  60  -0.04286     0.09817    -0.00275    -0.02690    -0.05844    -0.01242
  
  S  H  61   0.01527    -0.02576    -0.03502     0.05815    -0.01888     0.00297
  
  S  H  62   0.11333     0.02270    -0.02329     0.06348    -0.00972    -0.00511
  
  S  H  63   0.00267     0.03607     0.00436    -0.07157     0.05896     0.01474
  
  S  H  64  -0.01424     0.01515    -0.11368     0.11887     0.09705     0.01525
  
  S  H  65  -0.05851    -0.03305     0.08124    -0.09732    -0.07316    -0.01053
  
  S  H  66   0.18996     0.08841    -0.06877     0.00030     0.11050     0.02237
  
  S  H  67   0.23692     0.10022    -0.03631    -0.06109     0.05547     0.01335
  
  S  H  68   0.18937     0.08811    -0.06892     0.00070     0.11044     0.02236




    ROOT NO.   25          26          27          28          29          30

           -25.75502   -25.22808   -24.94952   -24.45285   -24.40987   -24.04364
  
  
  S  C   1  -0.01532    -0.21032     0.00222     0.01624    -0.01230     0.07848
 PX  C   1   0.01186     0.17444    -0.00103    -0.01554    -0.00904    -0.09198
 PY  C   1  -0.00249     0.00945    -0.00493    -0.00482     0.12274     0.02848
 PZ  C   1   0.00013     0.00001     0.00037     0.00016    -0.00004     0.00116
  
  S  C   2   0.02161     0.24780     0.00348    -0.01608    -0.12440    -0.13856
 PX  C   2   0.00879     0.07173     0.00224    -0.00089    -0.06115    -0.02181
 PY  C   2  -0.00520    -0.00391    -0.00826    -0.00538     0.20682     0.06533
 PZ  C   2   0.00032     0.00002     0.00083     0.00035    -0.00010     0.00247
  
  S  C   3  -0.00737     0.02606    -0.01278    -0.01059     0.27933     0.06276
 PX  C   3  -0.00289    -0.13137     0.00902     0.01941    -0.19809     0.02276
 PY  C   3  -0.01483    -0.10525    -0.00563     0.00139     0.12347     0.04699
 PZ  C   3   0.00070     0.00004     0.00172     0.00069    -0.00016     0.00468
  
  S  C   4  -0.00433    -0.24284     0.01394     0.03111    -0.24045     0.07535
 PX  C   4   0.00531    -0.01245     0.00565     0.00277    -0.07991    -0.01633
 PY  C   4  -0.00845     0.02118    -0.00645    -0.01219     0.10524    -0.04550
 PZ  C   4   0.00150     0.00029     0.00343     0.00127    -0.00010     0.00842
  
  S  C   5  -0.00252     0.13957    -0.00431    -0.01936    -0.00891    -0.13437
 PX  C   5   0.01337     0.10951    -0.00036    -0.00637     0.05846     0.01478
 PY  C   5   0.00185     0.16358    -0.00629    -0.01491     0.03441    -0.07024
 PZ  C   5   0.00322     0.00077     0.00678     0.00237     0.00005     0.01502
  
  S  C   6   0.01321     0.08343    -0.00631    -0.01142     0.25037     0.06542
 PX  C   6  -0.00451    -0.14554    -0.00064     0.01094     0.07922     0.09048
 PY  C   6  -0.00425     0.02939    -0.00008     0.00440    -0.11514    -0.02236
 PZ  C   6   0.00691     0.00162     0.01343     0.00431     0.00038     0.02642
  
  S  C   7  -0.00571    -0.06684     0.00924     0.02061    -0.27438     0.02653
 PX  C   7  -0.00801    -0.15810     0.00249     0.00115     0.04584     0.00537
 PY  C   7  -0.00151     0.00615     0.00841     0.00872    -0.23052    -0.03697
 PZ  C   7   0.01600     0.00407     0.02637     0.00822     0.00059     0.04761
  
  S  C   8  -0.01939    -0.15376    -0.00238    -0.01784     0.11302    -0.08521
 PX  C   8  -0.00006     0.10631    -0.00888    -0.02139     0.15819    -0.06272
 PY  C   8   0.00547     0.15347     0.00941    -0.01116    -0.12753    -0.04979
 PZ  C   8   0.04122     0.00341     0.05293     0.01057     0.00357     0.07363
  
  S  N   9  -0.00774     0.16348     0.04240    -0.03559     0.02275    -0.06635
 PX  N   9  -0.01336     0.00127    -0.00559    -0.00064     0.08800     0.01596
 PY  N   9   0.00354    -0.04223     0.02735     0.01569    -0.03599     0.08921
 PZ  N   9   0.14407     0.00310     0.08438     0.00488     0.01342     0.09142
  
  S  C  10   0.15199    -0.05749    -0.08805    -0.00698     0.01036     0.04944
 PX  C  10  -0.00205    -0.02871    -0.00924    -0.01406     0.04077    -0.04491
 PY  C  10  -0.01085    -0.13835    -0.09512    -0.03500     0.00578    -0.14801
 PZ  C  10  -0.01296    -0.02427    -0.12354     0.02150    -0.00281     0.03471
  
  S  C  11  -0.08327     0.08114     0.00328     0.07762    -0.01584     0.15624
 PX  C  11   0.00916    -0.02990    -0.02728    -0.01447     0.02079    -0.04396
 PY  C  11  -0.01098    -0.08197    -0.05985    -0.05383     0.01115    -0.16601
 PZ  C  11  -0.15133     0.06656     0.13173     0.00991    -0.00112    -0.05238
  
  S  C  12  -0.10704     0.04636     0.15131    -0.02097     0.00837    -0.12377
 PX  C  12   0.01157    -0.03323    -0.00417    -0.00273     0.01087    -0.03469
 PY  C  12   0.12209    -0.07062    -0.02845    -0.04433     0.01047    -0.05835
 PZ  C  12   0.01169     0.07536     0.10931     0.00258    -0.00365     0.03902
  
  S  C  13   0.02555    -0.04896     0.06765     0.02461     0.00761     0.02392
 PX  C  13  -0.06139    -0.00698     0.04019     0.02602     0.00319     0.02147
 PY  C  13   0.00922     0.04227     0.01256     0.08214    -0.01339     0.18456
 PZ  C  13   0.06086     0.02459     0.05151     0.03334     0.00919    -0.00706
  
  S  C  14  -0.03870     0.10291     0.02070     0.01183    -0.02416     0.11147
 PX  C  14  -0.03220     0.02990     0.04360     0.00723     0.00055     0.03091
 PY  C  14  -0.05149     0.08945     0.10958     0.04678    -0.01570     0.16039
 PZ  C  14  -0.03113    -0.10170     0.01909     0.00675     0.00654     0.03851
  
  S  C  15   0.05975    -0.00889    -0.03272    -0.01139     0.00593    -0.08528
 PX  C  15  -0.02211     0.04810     0.03123     0.00919     0.00752     0.01622
 PY  C  15  -0.04074     0.15281     0.03964     0.01885    -0.02126     0.04228
 PZ  C  15   0.04570    -0.05772    -0.15492    -0.05538     0.00234    -0.06579
  
  S  C  16  -0.06875    -0.00622     0.08551     0.04683    -0.00234     0.04592
 PX  C  16   0.00572     0.04111    -0.00308    -0.00060     0.01274    -0.00638
 PY  C  16   0.05278     0.16201     0.02440     0.00638     0.00355    -0.03496
 PZ  C  16   0.02722     0.05804     0.07558     0.01935     0.00416    -0.02088
  
  S  C  17  -0.11232    -0.06532    -0.09799     0.02470    -0.02463     0.08946
 PX  C  17  -0.00223    -0.03286     0.00630     0.00217     0.03180     0.01928
 PY  C  17  -0.00980    -0.13846     0.06319     0.00952    -0.00528     0.04469
 PZ  C  17  -0.06478     0.02673     0.09083    -0.01862     0.01727    -0.08602
  
  S  C  18   0.14643     0.08316    -0.02185     0.04367    -0.01361     0.11175
 PX  C  18  -0.00223    -0.01443     0.01787    -0.00820     0.01328    -0.01070
 PY  C  18  -0.01977    -0.08706     0.03016    -0.02755    -0.00334    -0.02712
 PZ  C  18  -0.10731    -0.07694    -0.15956     0.00839    -0.02061     0.06223
  
  S  C  19   0.02678     0.05187     0.16244    -0.02879     0.01917    -0.11588
 PX  C  19  -0.06621    -0.01065    -0.02875    -0.00479     0.00298    -0.01320
 PY  C  19  -0.14525    -0.08498    -0.06371    -0.03690     0.00122    -0.07466
 PZ  C  19   0.03948    -0.08213    -0.06423    -0.01625    -0.00561     0.02890
  
  S  C  20  -0.04998    -0.05797    -0.05870    -0.04966     0.00876    -0.09650
 PX  C  20  -0.03030     0.02576    -0.04030     0.02230    -0.00496     0.04909
 PY  C  20   0.07848     0.03338    -0.04247     0.03426    -0.00981     0.08391
 PZ  C  20   0.07240    -0.02011    -0.05949    -0.03923     0.00949    -0.04631
  
  S  C  21   0.05695     0.11419    -0.03970    -0.01181     0.01133    -0.04363
 PX  C  21   0.00782     0.01999    -0.01801    -0.00026     0.00337     0.00045
 PY  C  21   0.07024     0.09606     0.00560     0.01125    -0.00011     0.00396
 PZ  C  21  -0.02424     0.10986     0.09001     0.05314    -0.00493     0.05990
  
  S  C  22   0.11514    -0.04956     0.08933     0.05676    -0.01671     0.13264
 PX  C  22  -0.05370     0.02020    -0.04244     0.01421    -0.00452     0.03817
 PY  C  22   0.19564    -0.04235     0.11740    -0.00674     0.00476     0.00062
 PZ  C  22  -0.00114     0.00747    -0.05889    -0.01017     0.00087    -0.01731
  
  S  C  23  -0.07111     0.02699    -0.07998     0.00350    -0.00335     0.02158
 PX  C  23  -0.07282     0.03656    -0.11602    -0.02558     0.00445    -0.04361
 PY  C  23   0.24943    -0.08758     0.20376    -0.03795     0.01579    -0.08525
 PZ  C  23  -0.03868     0.00289    -0.00186     0.06001    -0.01813     0.13413
  
  S  C  24   0.13793    -0.04729     0.11104    -0.06289     0.02186    -0.14974
 PX  C  24  -0.07517     0.02813    -0.07300     0.03414    -0.01246     0.08553
 PY  C  24   0.02719    -0.01892     0.06530     0.01249    -0.00140     0.01129
 PZ  C  24   0.06744    -0.01867     0.03234    -0.02837     0.00892    -0.05525
  
  S  O  25   0.00842    -0.00667     0.02990     0.03197    -0.00878     0.06928
 PX  O  25  -0.00212     0.00123    -0.00406     0.00775    -0.00259     0.02222
 PY  O  25   0.00444    -0.00565     0.02372     0.01092    -0.00236     0.01823
 PZ  O  25   0.01023    -0.00149    -0.00295    -0.01146     0.00320    -0.02384
  
  S  O  26  -0.09218     0.03349    -0.08683     0.01589    -0.00708     0.04275
 PX  O  26   0.03400    -0.01673     0.04882    -0.01304     0.00565    -0.04121
 PY  O  26  -0.20455     0.07899    -0.20898     0.06591    -0.02600     0.17531
 PZ  O  26   0.14330    -0.05202     0.13278    -0.03611     0.01442    -0.09092
  
  S  C  27  -0.15177     0.05701    -0.15666     0.00964    -0.00699     0.03244
 PX  C  27   0.12001    -0.04790     0.07608    -0.01424     0.00450    -0.02331
 PY  C  27  -0.16256     0.06275    -0.17136     0.00294    -0.00540     0.02084
 PZ  C  27  -0.05095     0.01411    -0.02102     0.01820    -0.00531     0.03609
  
  S  N  28   0.12660    -0.05302     0.10656    -0.00628     0.00348    -0.01422
 PX  N  28   0.01279    -0.00748    -0.00048    -0.00383     0.00041    -0.00311
 PY  N  28  -0.00317    -0.00049    -0.01952    -0.00160    -0.00072     0.00226
 PZ  N  28  -0.01193     0.00341    -0.00042     0.00636    -0.00154     0.01161
  
  S  C  29   0.06982    -0.01416    -0.09143     0.17467     0.01250    -0.02390
 PX  C  29  -0.17639    -0.04864     0.10600     0.02518     0.01588    -0.09859
 PY  C  29  -0.05918    -0.01619    -0.07662     0.04009     0.00392    -0.09641
 PZ  C  29   0.06493     0.00535    -0.13561     0.00919     0.00282    -0.11547
  
  S  C  30   0.12686     0.04164    -0.15689    -0.20925    -0.02887     0.10348
 PX  C  30   0.02190    -0.02199    -0.06905     0.25046     0.02377    -0.14502
 PY  C  30  -0.10655    -0.02873     0.04701     0.04107     0.00811    -0.05972
 PZ  C  30  -0.12913    -0.01564     0.11107    -0.12641    -0.00404     0.00556
  
  S  C  31  -0.20224    -0.03270     0.21608    -0.08167     0.00379     0.01863
 PX  C  31   0.03487    -0.00982    -0.03289     0.28130     0.02338    -0.11008
 PY  C  31  -0.03907    -0.01548     0.08904     0.14355     0.01624    -0.02647
 PZ  C  31  -0.06518    -0.01030     0.12247    -0.03218     0.00306     0.03626
  
  S  C  32   0.06674     0.01657     0.04537     0.24701     0.01333     0.03715
 PX  C  32   0.17544     0.04835    -0.13175    -0.03291    -0.01748     0.09713
 PY  C  32   0.06455     0.02140    -0.05123    -0.11214    -0.01454     0.08497
 PZ  C  32  -0.04633    -0.00955     0.03332    -0.10126    -0.00362     0.02281
  
  S  C  33   0.13560     0.04840    -0.02133    -0.14197    -0.02164     0.13147
 PX  C  33  -0.01763     0.01223     0.05472    -0.26230    -0.02061     0.11627
[...]
                                                       Thu Oct 21 12:02:22 2021
                                                       No. of days remaining =  84




          FINAL HEAT OF FORMATION =    -149374.87298 KCAL/MOL = -624984.46856 KJ/MOL
          VAN DER WAALS AREA      =        537.03 SQUARE ANGSTROMS


          TOTAL ENERGY            =      -6797.08623 EV
          ELECTRONIC ENERGY       =     -16575.97749 EV  POINT GROUP:     C1  
          CORE-CORE REPULSION     =       9778.89126 EV

          DIELECTRIC ENERGY       =         -0.46132 EV
          COSMO AREA              =        537.03 SQUARE ANGSTROMS
          COSMO VOLUME            =        605.61 CUBIC ANGSTROMS

          IONIZATION POTENTIAL    =          7.406472 EV
          HOMO LUMO ENERGIES (EV) =         -7.406 -0.831
          NO. OF FILLED LEVELS    =         92
          MOLECULAR WEIGHT        =        480.6054

          MOLECULAR DIMENSIONS (Angstroms)

            Atom       Atom       Distance
            H    67    H    39    19.86667
            H    63    O    25    13.71172
            H    61    H    53     5.89594


          SCF CALCULATIONS        =          2
 
          WALL-CLOCK TIME         = 11 MINUTES AND  8.457 SECONDS
          COMPUTATION TIME        = 11 MINUTES AND 23.312 SECONDS




   ATOM   CHEMICAL          X               Y               Z
  NUMBER   SYMBOL      (ANGSTROMS)     (ANGSTROMS)     (ANGSTROMS)
 
     1       C          0.00000000  *   0.00000000  *   0.00000000  *
     2       C          1.51998027  *   0.00000000  *   0.00000000  *
     3       C          2.06086483  *   1.42764149  *   0.00000000  *
     4       C          3.58775387  *   1.42872350  *   0.00109001  *
     5       C          4.12648310  *   2.85764128  *  -0.00041439  *
     6       C          5.65364141  *   2.85837541  *   0.00048029  *
     7       C          6.18812058  *   4.28771579  *   0.00014960  *
     8       C          7.72405233  *   4.27300283  *   0.00183992  *
     9       N          8.27326705  *   5.62550758  *   0.01059964  *
    10       C          8.32923738  *   6.46398679  *   1.14457091  *
    11       C          8.09317238  *   6.16107738  *   2.48292932  *
    12       C          8.26656324  *   7.18000382  *   3.40549792  *
    13       C          8.66352137  *   8.46592290  *   3.01175749  *
    14       C          8.89542895  *   8.77078661  *   1.67560499  *
    15       C          8.72247442  *   7.76680908  *   0.73747475  *
    16       C          8.85974744  *   7.73646714  *  -0.69641324  *
    17       C          8.54310137  *   6.41226314  *  -1.11862800  *
    18       C          8.55895704  *   6.06073492  *  -2.46824897  *
    19       C          8.92263437  *   7.03674689  *  -3.37936169  *
    20       C          9.25769007  *   8.33508900  *  -2.96661551  *
    21       C          9.21159993  *   8.69920342  *  -1.62203857  *
    22       C          9.63667824  *   9.33877740  *  -3.94559870  *
    23       C         10.51637011  *   9.10087728  *  -4.93407631  *
    24       C         10.89519933  *  10.10740738  *  -5.93594034  *
    25       O         11.88477926  *  10.11075110  *  -6.64851551  *
    26       O         10.00631151  *  11.12213770  *  -6.04063857  *
    27       C         11.19399344  *   7.86116207  *  -5.07294450  *
    28       N         11.75169182  *   6.85578201  *  -5.19578688  *
    29       C          8.83601640  *   9.50131527  *   4.02575848  *
    30       C          7.82474292  *   9.73879486  *   4.95856336  *
    31       C          7.97990725  *  10.71886535  *   5.92199580  *
    32       C          9.16667177  *  11.46636583  *   5.94747712  *
    33       C         10.18262676  *  11.24036709  *   5.02360775  *
    34       C         10.00535146  *  10.25092560  *   4.06170777  *
    35       O          9.19564398  *  12.39900550  *   6.94285736  *
    36       C         10.35367057  *  13.18527766  *   7.05772703  *
    37       H          9.16919591  *  10.32685181  *  -3.82792844  *
    38       H         -0.41718681  *   0.50669194  *  -0.88220470  *
    39       H         -0.40909375  *  -1.02073427  *  -0.00056951  *
    40       H         -0.41717824  *   0.50573970  *   0.88275399  *
    41       H          1.90220719  *  -0.56128181  *   0.87884243  *
    42       H          1.90227828  *  -0.56136327  *  -0.87875252  *
    43       H          1.67379824  *   1.98447313  *  -0.87947470  *
    44       H          1.67252544  *   1.98517835  *   0.87845868  *
    45       H          3.97303237  *   0.87153292  *   0.88114166  *
    46       H          3.97428802  *   0.86933309  *  -0.87703825  *
    47       H          3.74095763  *   3.41448523  *  -0.88060950  *
    48       H          3.73984124  *   3.41703853  *   0.87766924  *
    49       H          6.03894798  *   2.30069210  *   0.88042199  *
    50       H          6.03987074  *   2.30015879  *  -0.87874726  *
    51       H          5.80763991  *   4.84889391  *  -0.87927265  *
    52       H          5.80807088  *   4.85021457  *   0.87945974  *
    53       H          8.11769479  *   3.72248494  *   0.88851571  *
    54       H          8.12165499  *   3.72190195  *  -0.88162719  *
    55       H          7.78370255  *   5.16346534  *   2.80017932  *
    56       H          8.09870435  *   6.97255406  *   4.46759328  *
    57       H          9.19688691  *   9.77361364  *   1.36244458  *
    58       H          8.29842733  *   5.05516664  *  -2.80431325  *
    59       H          8.92343730  *   6.78946922  *  -4.44671916  *
    60       H          9.45634453  *   9.71417507  *  -1.29640954  *
    61       H         10.28684508  *  11.76223123  *  -6.71003196  *
    62       H          6.89926908  *   9.15522322  *   4.92358437  *
    63       H          7.19069080  *  10.91239024  *   6.65435600  *
    64       H         11.11486429  *  11.80851452  *   5.02527861  *
    65       H         10.80222847  *  10.05933686  *   3.33573183  *
    66       H         10.53926486  *  13.81935195  *   6.17502410  *
    67       H         10.13758052  *  13.83629524  *   7.91907868  *
    68       H         11.26031786  *  12.59804143  *   7.27863924  *

                             CARTESIAN COORDINATES

   1    C        0.000000000     0.000000000     0.000000000
   2    C        1.519980269     0.000000000     0.000000000
   3    C        2.060864830     1.427641493     0.000000000
   4    C        3.587753871     1.428723498     0.001090015
   5    C        4.126483100     2.857641282    -0.000414394
   6    C        5.653641405     2.858375406     0.000480288
   7    C        6.188120577     4.287715791     0.000149600
   8    C        7.724052326     4.273002832     0.001839919
   9    N        8.273267049     5.625507576     0.010599638
  10    C        8.329237383     6.463986790     1.144570912
  11    C        8.093172379     6.161077384     2.482929319
  12    C        8.266563240     7.180003817     3.405497923
  13    C        8.663521370     8.465922900     3.011757494
  14    C        8.895428950     8.770786611     1.675604994
  15    C        8.722474422     7.766809076     0.737474752
  16    C        8.859747437     7.736467140    -0.696413244
  17    C        8.543101371     6.412263144    -1.118628005
  18    C        8.558957045     6.060734923    -2.468248971
  19    C        8.922634368     7.036746888    -3.379361691
  20    C        9.257690075     8.335088996    -2.966615515
  21    C        9.211599931     8.699203421    -1.622038571
  22    C        9.636678237     9.338777396    -3.945598700
  23    C       10.516370110     9.100877276    -4.934076309
  24    C       10.895199330    10.107407380    -5.935940343
  25    O       11.884779260    10.110751100    -6.648515508
  26    O       10.006311510    11.122137700    -6.040638574
  27    C       11.193993440     7.861162065    -5.072944499
  28    N       11.751691820     6.855782013    -5.195786880
  29    C        8.836016404     9.501315269     4.025758483
  30    C        7.824742918     9.738794863     4.958563361
  31    C        7.979907246    10.718865350     5.921995798
  32    C        9.166671768    11.466365830     5.947477123
  33    C       10.182626760    11.240367090     5.023607754
  34    C       10.005351460    10.250925600     4.061707765
  35    O        9.195643976    12.399005500     6.942857356
  36    C       10.353670570    13.185277660     7.057727033
  37    H        9.169195915    10.326851810    -3.827928444
  38    H       -0.417186808     0.506691940    -0.882204704
  39    H       -0.409093747    -1.020734266    -0.000569506
  40    H       -0.417178239     0.505739701     0.882753994
  41    H        1.902207191    -0.561281812     0.878842426
  42    H        1.902278280    -0.561363275    -0.878752520
  43    H        1.673798243     1.984473131    -0.879474696
  44    H        1.672525442     1.985178351     0.878458681
  45    H        3.973032373     0.871532921     0.881141656
  46    H        3.974288020     0.869333086    -0.877038251
  47    H        3.740957631     3.414485234    -0.880609502
  48    H        3.739841238     3.417038532     0.877669244
  49    H        6.038947983     2.300692101     0.880421988
  50    H        6.039870741     2.300158788    -0.878747255
  51    H        5.807639908     4.848893914    -0.879272649
  52    H        5.808070881     4.850214566     0.879459739
  53    H        8.117694788     3.722484942     0.888515711
  54    H        8.121654994     3.721901955    -0.881627190
  55    H        7.783702555     5.163465344     2.800179315
  56    H        8.098704352     6.972554064     4.467593277
  57    H        9.196886914     9.773613641     1.362444578
  58    H        8.298427334     5.055166643    -2.804313251
  59    H        8.923437303     6.789469222    -4.446719164
  60    H        9.456344532     9.714175075    -1.296409538
  61    H       10.286845080    11.762231230    -6.710031964
  62    H        6.899269075     9.155223221     4.923584366
  63    H        7.190690802    10.912390240     6.654355999
  64    H       11.114864290    11.808514520     5.025278606
  65    H       10.802228470    10.059336860     3.335731828
  66    H       10.539264860    13.819351950     6.175024104
  67    H       10.137580520    13.836295240     7.919078677
  68    H       11.260317860    12.598041430     7.278639244


           Empirical Formula: C31 H32 N2 O3  =    68 atoms



      MOLECULAR POINT GROUP   :   C1  


                  EIGENVALUES  
 -48.64071 -46.79182 -46.72341 -44.11063 -43.49059 -42.79649 -41.67326 -40.22521
 -39.54177 -38.91507 -37.25594 -36.39908 -34.94578 -34.81946 -33.56669 -32.96041
 -32.11188 -30.96228 -30.23196 -29.15184 -28.62716 -26.99422 -26.21764 -26.08603
 -25.75502 -25.22808 -24.94952 -24.45285 -24.40987 -24.04364 -23.84258 -23.30274
 -22.06086 -21.43928 -21.23442 -20.93892 -20.15676 -19.49160 -19.25150 -19.01351
 -18.88908 -18.49476 -17.93787 -17.80736 -17.44774 -17.29237 -17.15976 -16.82028
 -16.61185 -16.50348 -16.22351 -15.89457 -15.82038 -15.57325 -15.42133 -15.34265
 -15.10335 -15.09734 -14.77922 -14.76428 -14.36620 -14.19495 -14.12621 -13.77662
 -13.66157 -13.58572 -13.51369 -13.42574 -13.36803 -13.17885 -12.93921 -12.88469
 -12.73329 -12.51692 -12.45148 -12.39258 -12.17214 -12.05566 -11.98361 -11.83062
 -11.74024 -11.63229 -11.55473 -11.01741 -10.81769 -10.10939  -9.81047  -9.14551
  -8.99130  -8.36023  -7.73966  -7.40647  -0.83060   0.07995   0.45458   0.70447
   0.77597   1.01040   1.27561   1.47854   1.78547   2.15425   2.51258   2.73186
   2.76348   2.95850   2.98435   3.15264   3.17776   3.35846   3.40825   3.53415
   3.65400   3.80596   3.90515   3.91634   4.00455   4.11031   4.17340   4.24036
   4.31415   4.50419   4.75094   4.85769   5.07986   5.30161   5.40989   5.51408
   5.75225   5.79299   5.99186   6.15769   6.27213   6.41486   6.53983   6.67775
   6.72965   6.73871   6.73990   6.75227   6.77268   6.82889   6.85670   6.97338
   7.00092   7.07224   7.41603   8.00152   8.14607   8.34180   8.40833   8.47823
   8.60486   8.63802   8.85602   9.02161   9.09598   9.21459   9.70461   9.88005
  10.19399  10.75710  10.95044  11.33920  11.50381  11.69825  11.79380  12.28594
  12.47672  12.66298  12.90165  13.06347  13.59887  14.03158  14.23314  15.16342


              NET ATOMIC CHARGES AND DIPOLE CONTRIBUTIONS

  ATOM NO.   TYPE          CHARGE      No. of ELECS.   s-Pop       p-Pop       
    1          C          -0.027781        4.0278     1.05490     2.97289
    2          C          -0.006914        4.0069     1.04476     2.96215
    3          C          -0.008504        4.0085     1.05052     2.95799
    4          C          -0.011324        4.0113     1.05209     2.95923
    5          C          -0.011111        4.0111     1.05197     2.95914
    6          C          -0.011361        4.0114     1.05106     2.96030
    7          C          -0.004266        4.0043     1.05252     2.95175
    8          C           0.074054        3.9259     1.04923     2.87671
    9          N          -0.151545        5.1515     1.24548     3.90606
   10          C           0.068863        3.9311     1.04956     2.88157
   11          C          -0.040023        4.0400     1.07853     2.96149
   12          C          -0.032124        4.0321     1.08170     2.95043
   13          C           0.009189        3.9908     1.04681     2.94400
   14          C          -0.030766        4.0308     1.07984     2.95093
   15          C          -0.015998        4.0160     1.05035     2.96565
   16          C          -0.014216        4.0142     1.04922     2.96500
   17          C           0.091069        3.9089     1.05162     2.85731
   18          C          -0.041607        4.0416     1.07677     2.96483
   19          C          -0.008717        4.0087     1.08318     2.92554
   20          C          -0.006203        4.0062     1.03560     2.97060
   21          C          -0.007844        4.0078     1.08066     2.92719
   22          C           0.123292        3.8767     1.10435     2.77236
   23          C           0.017621        3.9824     1.00340     2.97898
   24          C           0.501859        3.4981     1.04590     2.45224
   25          O          -0.590377        6.5904     1.81519     4.77519
   26          O          -0.312027        6.3120     1.68869     4.62334
   27          C           0.212375        3.7876     1.15056     2.63706
   28          N          -0.387992        5.3880     1.75338     3.63461
   29          C           0.016308        3.9837     1.04568     2.93801
   30          C          -0.026717        4.0267     1.08108     2.94564
   31          C          -0.034758        4.0348     1.08131     2.95345
   32          C           0.140712        3.8593     1.04253     2.81676
   33          C          -0.033300        4.0333     1.07826     2.95504
   34          C          -0.028845        4.0288     1.08141     2.94743
   35          O          -0.324461        6.3245     1.69018     4.63428
   36          C           0.108590        3.8914     1.05681     2.83460
   37          H           0.064628        0.9354     0.93537
   38          H           0.007757        0.9922     0.99224
   39          H           0.000549        0.9995     0.99945
   40          H           0.007716        0.9923     0.99228
   41          H           0.006204        0.9938     0.99380
   42          H           0.006280        0.9937     0.99372
   43          H           0.006806        0.9932     0.99319
   44          H           0.006740        0.9933     0.99326
   45          H           0.006697        0.9933     0.99330
   46          H           0.006810        0.9932     0.99319
   47          H           0.006638        0.9934     0.99336
   48          H           0.006539        0.9935     0.99346
   49          H           0.008324        0.9917     0.99168
   50          H           0.008433        0.9916     0.99157
   51          H           0.011301        0.9887     0.98870
   52          H           0.011591        0.9884     0.98841
   53          H           0.020315        0.9797     0.97968
   54          H           0.021273        0.9787     0.97873
   55          H           0.026397        0.9736     0.97360
   56          H           0.021681        0.9783     0.97832
   57          H           0.026031        0.9740     0.97397
   58          H           0.029934        0.9701     0.97007
   59          H           0.030592        0.9694     0.96941
   60          H           0.032007        0.9680     0.96799
   61          H           0.246225        0.7538     0.75378
   62          H           0.023229        0.9768     0.97677
   63          H           0.026666        0.9733     0.97333
   64          H           0.030676        0.9693     0.96932
   65          H           0.023822        0.9762     0.97618
   66          H           0.029695        0.9703     0.97030
   67          H           0.012979        0.9870     0.98702
   68          H           0.030313        0.9697     0.96969
 DIPOLE           X         Y         Z       TOTAL
 POINT-CHG.    -5.506     0.552     4.661     7.235
 HYBRID         0.052     1.335    -0.747     1.530
 SUM           -5.455     1.886     3.914     6.974


          ATOMIC ORBITAL ELECTRON POPULATIONS

     Atom    s        px        py        pz   
    1  C   1.05490   0.99076   0.98903   0.99310
    2  C   1.04476   0.99098   0.98534   0.98584
    3  C   1.05052   0.99087   0.98027   0.98685
    4  C   1.05209   0.99052   0.98211   0.98660
    5  C   1.05197   0.98938   0.98337   0.98639
    6  C   1.05106   0.99259   0.97971   0.98800
    7  C   1.05252   0.97223   0.98867   0.99085
    8  C   1.04923   0.99237   0.88601   0.99834
    9  N   1.24548   1.66528   1.13194   1.10885
   10  C   1.04956   1.00790   0.95964   0.91403
   11  C   1.07853   1.03148   0.95760   0.97241
   12  C   1.08170   1.01513   0.98668   0.94862
   13  C   1.04681   0.98961   0.97567   0.97872
   14  C   1.07984   1.01981   0.95270   0.97842
   15  C   1.05035   1.02406   0.98079   0.96080
   16  C   1.04922   1.02186   0.97851   0.96464
   17  C   1.05162   0.97490   0.96529   0.91712
   18  C   1.07677   1.03932   0.95672   0.96879
   19  C   1.08318   0.99584   0.97454   0.95516
   20  C   1.03560   1.03190   0.97172   0.96698
   21  C   1.08066   0.99143   0.95605   0.97970
   22  C   1.10435   0.86622   0.97943   0.92670
   23  C   1.00340   1.05990   0.92176   0.99732
   24  C   1.04590   0.81320   0.82883   0.81021
   25  O   1.81519   1.39391   1.86058   1.52071
   26  O   1.68869   1.59615   1.37485   1.65235
   27  C   1.15056   0.87276   0.92262   0.84169
   28  N   1.75338   1.20833   1.22743   1.19885
   29  C   1.04568   0.98858   0.97461   0.97482
   30  C   1.08108   0.96297   0.99007   0.99261
   31  C   1.08131   0.96389   1.00393   0.98563
   32  C   1.04253   0.99797   0.91073   0.90806
   33  C   1.07826   0.95637   1.00106   0.99761
   34  C   1.08141   0.97211   0.99522   0.98009
   35  O   1.69018   1.49314   1.53423   1.60691
   36  C   1.05681   0.89007   0.94426   1.00028
   37  H   0.93537
   38  H   0.99224
   39  H   0.99945
   40  H   0.99228
   41  H   0.99380
   42  H   0.99372
   43  H   0.99319
   44  H   0.99326
   45  H   0.99330
   46  H   0.99319
   47  H   0.99336
   48  H   0.99346
   49  H   0.99168
   50  H   0.99157
   51  H   0.98870
   52  H   0.98841
   53  H   0.97968
   54  H   0.97873
   55  H   0.97360
   56  H   0.97832
   57  H   0.97397
   58  H   0.97007
   59  H   0.96941
   60  H   0.96799
   61  H   0.75378
   62  H   0.97677
   63  H   0.97333
   64  H   0.96932
   65  H   0.97618
   66  H   0.97030
   67  H   0.98702
   68  H   0.96969

 **********************
 *                    *
 * JOB ENDED NORMALLY *
 *                    *
 **********************



 TOTAL JOB TIME:           668.83 SECONDS

 == MOPAC DONE ==
