 *******************************************************************************
 ** Site#: 4824         For non-commercial use only    Version 21.013L 64BITS **
 *******************************************************************************
 ** Cite this program as: MOPAC2016, Version: 21.013L, James J. P. Stewart,   **
 ** Stewart Computational Chemistry, web: HTTP://OpenMOPAC.net. Days left:  84**
 *******************************************************************************
 **                                                                           **
 **                                MOPAC2016                                  **
 **                                                                           **
 *******************************************************************************

                              INDO CALCULATION RESULTS

 *******************************************************************************
 *  CALCULATION DONE:                                Thu Oct 21 11:51:13 2021  *
 *  INDO       - The INDO Hamiltonian to be used
 *  CIS        - C.I. USES 1 ELECTRON EXCITATIONS ONLY
 *  EPS=  4.81 - USE ANDREAS KLAMT'S COSMO IMPLICIT SOLVATION MODEL
 *  n**2 =  1.400 for COSMO-CI
 *  T=         - A TIME OF 172800.0 SECONDS REQUESTED
 *  DUMP=N     - RESTART FILE WRITTEN EVERY 7200.0 SECONDS REQUESTED
 *******************************************************************************
INDO CIS EPS=4.81 N**2=1.4
 Dye27
 Calculo de Estados Excitados
   ATOM   CHEMICAL          X               Y               Z
  NUMBER   SYMBOL      (ANGSTROMS)     (ANGSTROMS)     (ANGSTROMS)
 
     1       C          0.00000000  *   0.00000000  *   0.00000000  *
     2       C          1.51999322  *   0.00000000  *   0.00000000  *
     3       C          2.06073049  *   1.42770361  *   0.00000000  *
     4       C          3.58762312  *   1.42898056  *  -0.00187944  *
     5       C          4.12593044  *   2.85803833  *  -0.00164473  *
     6       C          5.65310924  *   2.85924077  *  -0.00314177  *
     7       C          6.18674657  *   4.28887153  *  -0.00477629  *
     8       C          7.72239355  *   4.27548611  *  -0.00027876  *
     9       N          8.27470775  *   5.62797280  *   0.00457517  *
    10       C          8.50565985  *   6.42074302  *  -1.14288222  *
    11       C          8.56805495  *   6.04629976  *  -2.48227705  *
    12       C          8.87367217  *   7.03346951  *  -3.40605832  *
    13       C          9.11205807  *   8.35611445  *  -3.01051888  *
    14       C          9.04749121  *   8.73457935  *  -1.67565855  *
    15       C          8.73808850  *   7.76275798  *  -0.73830831  *
    16       C          8.57893393  *   7.80690140  *   0.69310596  *
    17       C          8.25402797  *   6.48616444  *   1.11627619  *
    18       C          8.02247160  *   6.19201257  *   2.45929221  *
    19       C          8.11231513  *   7.23362406  *   3.36640766  *
    20       C          8.42684824  *   8.53682924  *   2.95384046  *
    21       C          8.67963504  *   8.83047003  *   1.61495726  *
    22       C          8.51505109  *   9.61044952  *   3.92876622  *
    23       C          7.58293651  *   9.81315518  *   4.87563431  *
    24       C          7.68338739  *  10.86842745  *   5.89426419  *
    25       O          7.10841729  *  10.91867872  *   6.96840472  *
    26       O          8.52221723  *  11.87175982  *   5.54855553  *
    27       C          6.40273154  *   9.02965187  *   4.96790529  *
    28       N          5.43685755  *   8.39968147  *   5.05251244  *
    29       C          9.43429586  *   9.35700443  *  -4.02909279  *
    30       C          8.40867178  *  10.04745955  *  -4.67337404  *
    31       C          6.99318184  *   9.76295258  *  -4.31964687  *
    32       C          8.71824141  *  10.99775499  *  -5.64100800  *
    33       C         10.04643196  *  11.25601556  *  -5.96457525  *
    34       C         11.06913165  *  10.56770472  *  -5.31885726  *
    35       C         10.76613307  *   9.61640621  *  -4.35067563  *
    36       C         11.85001514  *   8.87315384  *  -3.65608296  *
    37       C         10.37810610  *  12.28417147  *  -6.98653924  *
    38       H          9.39528447  *  10.26394079  *   3.84785212  *
    39       H         -0.41717050  *   0.50364839  *  -0.88395057  *
    40       H         -0.40912200  *  -1.02071686  *   0.00304128  *
    41       H         -0.41716358  *   0.50888565  *   0.88096055  *
    42       H          1.90213569  *  -0.56111270  *   0.87898677  *
    43       H          1.90228498  *  -0.56149671  *  -0.87866269  *
    44       H          1.67179327  *   1.98540763  *  -0.87808651  *
    45       H          1.67413731  *   1.98441754  *   0.87978109  *
    46       H          3.97454645  *   0.87038357  *   0.87657698  *
    47       H          3.97253857  *   0.87106862  *  -0.88164671  *
    48       H          3.73877994  *   3.41657858  *  -0.88004800  *
    49       H          3.74058912  *   3.41572019  *   0.87816355  *
    50       H          6.03943584  *   2.30230912  *   0.87684335  *
    51       H          6.03853002  *   2.30078888  *  -0.88252624  *
    52       H          5.80756118  *   4.84857530  *  -0.88573175  *
    53       H          5.80410721  *   4.85228877  *   0.87305009  *
    54       H          8.11517056  *   3.72867676  *   0.88899116  *
    55       H          8.12261467  *   3.72298786  *  -0.88124636  *
    56       H          8.38425804  *   5.01968145  *  -2.80394887  *
    57       H          8.93028401  *   6.77747847  *  -4.46916339  *
    58       H          9.23299923  *   9.76653078  *  -1.36751629  *
    59       H          7.77368991  *   5.18174681  *   2.79071863  *
    60       H          7.95351798  *   7.02387677  *   4.42997492  *
    61       H          8.93735600  *   9.84277585  *   1.29098274  *
    62       H          8.55913013  *  12.54791998  *   6.23996813  *
    63       H          6.73902963  *   8.70710167  *  -4.50234821  *
    64       H          6.80017553  *   9.95569362  *  -3.25270718  *
    65       H          6.26806745  *  10.36512032  *  -4.88582809  *
    66       H          7.91764419  *  11.54380834  *  -6.14860227  *
    67       H         12.11178461  *  10.77769402  *  -5.57484213  *
    68       H         11.74944202  *   7.78647702  *  -3.80361931  *
    69       H         12.85926628  *   9.14616953  *  -3.99639351  *
    70       H         11.82349613  *   9.04938000  *  -2.56933819  *
    71       H         11.28814624  *  12.04027166  *  -7.55481058  *
    72       H          9.57901932  *  12.42495862  *  -7.72941690  *
    73       H         10.54986413  *  13.26368700  *  -6.51404287  *
 


          CARTESIAN COORDINATES 

    NO.       ATOM           X           Y           Z

     1         C          0.0000      0.0000      0.0000
     2         C          1.5200      0.0000      0.0000
     3         C          2.0607      1.4277      0.0000
     4         C          3.5876      1.4290     -0.0019
     5         C          4.1259      2.8580     -0.0016
     6         C          5.6531      2.8592     -0.0031
     7         C          6.1867      4.2889     -0.0048
     8         C          7.7224      4.2755     -0.0003
     9         N          8.2747      5.6280      0.0046
    10         C          8.5057      6.4207     -1.1429
    11         C          8.5681      6.0463     -2.4823
    12         C          8.8737      7.0335     -3.4061
    13         C          9.1121      8.3561     -3.0105
    14         C          9.0475      8.7346     -1.6757
    15         C          8.7381      7.7628     -0.7383
    16         C          8.5789      7.8069      0.6931
    17         C          8.2540      6.4862      1.1163
    18         C          8.0225      6.1920      2.4593
    19         C          8.1123      7.2336      3.3664
    20         C          8.4268      8.5368      2.9538
    21         C          8.6796      8.8305      1.6150
    22         C          8.5151      9.6104      3.9288
    23         C          7.5829      9.8132      4.8756
    24         C          7.6834     10.8684      5.8943
    25         O          7.1084     10.9187      6.9684
    26         O          8.5222     11.8718      5.5486
    27         C          6.4027      9.0297      4.9679
    28         N          5.4369      8.3997      5.0525
    29         C          9.4343      9.3570     -4.0291
    30         C          8.4087     10.0475     -4.6734
    31         C          6.9932      9.7630     -4.3196
    32         C          8.7182     10.9978     -5.6410
    33         C         10.0464     11.2560     -5.9646
    34         C         11.0691     10.5677     -5.3189
    35         C         10.7661      9.6164     -4.3507
    36         C         11.8500      8.8732     -3.6561
    37         C         10.3781     12.2842     -6.9865
    38         H          9.3953     10.2639      3.8479
    39         H         -0.4172      0.5036     -0.8840
    40         H         -0.4091     -1.0207      0.0030
    41         H         -0.4172      0.5089      0.8810
    42         H          1.9021     -0.5611      0.8790
    43         H          1.9023     -0.5615     -0.8787
    44         H          1.6718      1.9854     -0.8781
    45         H          1.6741      1.9844      0.8798
    46         H          3.9745      0.8704      0.8766
    47         H          3.9725      0.8711     -0.8816
    48         H          3.7388      3.4166     -0.8800
    49         H          3.7406      3.4157      0.8782
    50         H          6.0394      2.3023      0.8768
    51         H          6.0385      2.3008     -0.8825
    52         H          5.8076      4.8486     -0.8857
    53         H          5.8041      4.8523      0.8731
    54         H          8.1152      3.7287      0.8890
    55         H          8.1226      3.7230     -0.8812
    56         H          8.3843      5.0197     -2.8039
    57         H          8.9303      6.7775     -4.4692
    58         H          9.2330      9.7665     -1.3675
    59         H          7.7737      5.1817      2.7907
    60         H          7.9535      7.0239      4.4300
    61         H          8.9374      9.8428      1.2910
    62         H          8.5591     12.5479      6.2400
    63         H          6.7390      8.7071     -4.5023
    64         H          6.8002      9.9557     -3.2527
    65         H          6.2681     10.3651     -4.8858
    66         H          7.9176     11.5438     -6.1486
    67         H         12.1118     10.7777     -5.5748
    68         H         11.7494      7.7865     -3.8036
    69         H         12.8593      9.1462     -3.9964
    70         H         11.8235      9.0494     -2.5693
    71         H         11.2881     12.0403     -7.5548
    72         H          9.5790     12.4250     -7.7294
    73         H         10.5499     13.2637     -6.5140

           Empirical Formula: C33 H36 N2 O2  =    73 atoms



      MOLECULAR POINT GROUP   :   C1  


      RHF CALCULATION, NO. OF DOUBLY OCCUPIED LEVELS = 95

 WARNING: INDO only performs single-point calculations

 Summary of symmetry occupancy in each shell:

 SHELL     
    1   95
    v   89
 TOTAL 184




    ROOT NO.    1           2           3           4           5           6

           -48.65154   -46.79905   -45.61634   -43.55559   -43.03817   -42.20837
  
  
  S  C   1   0.00118    -0.00021    -0.00182    -0.02989     0.11536     0.12765
 PX  C   1   0.00052    -0.00009    -0.00074    -0.01132     0.04269     0.04535
 PY  C   1   0.00018    -0.00003    -0.00024    -0.00326     0.01191     0.01195
 PZ  C   1   0.00000     0.00000    -0.00000     0.00000    -0.00000    -0.00000
  
  S  C   2   0.00278    -0.00046    -0.00367    -0.05294     0.19697     0.20469
 PX  C   2   0.00059    -0.00008    -0.00053    -0.00446     0.01305     0.00706
 PY  C   2   0.00092    -0.00014    -0.00108    -0.01376     0.04918     0.04736
 PZ  C   2   0.00000     0.00000    -0.00000     0.00001    -0.00001    -0.00001
  
  S  C   3   0.00594    -0.00087    -0.00637    -0.07565     0.26543     0.24803
 PX  C   3   0.00212    -0.00027    -0.00178    -0.01504     0.04557     0.02971
 PY  C   3   0.00042    -0.00003    -0.00004     0.00438    -0.02076    -0.02895
 PZ  C   3   0.00000     0.00000    -0.00000     0.00003    -0.00006    -0.00006
  
  S  C   4   0.01212    -0.00156    -0.01028    -0.09493     0.30514     0.23900
 PX  C   4   0.00216    -0.00020    -0.00090     0.00191    -0.01860    -0.03585
 PY  C   4   0.00375    -0.00043    -0.00260    -0.01732     0.04760     0.02320
 PZ  C   4   0.00001     0.00000    -0.00002     0.00004     0.00010     0.00003
  
  S  C   5   0.02503    -0.00277    -0.01633    -0.11044     0.31408     0.18178
 PX  C   5   0.00858    -0.00083    -0.00421    -0.01528     0.02622    -0.01356
 PY  C   5   0.00175    -0.00007     0.00010     0.01115    -0.04406    -0.04598
 PZ  C   5   0.00005     0.00001    -0.00008     0.00027     0.00012    -0.00015
  
  S  C   6   0.05006    -0.00488    -0.02536    -0.12177     0.29051     0.08744
 PX  C   6   0.00846    -0.00060    -0.00188     0.00778    -0.04258    -0.05017
 PY  C   6   0.01607    -0.00138    -0.00641    -0.01842     0.02807    -0.01759
 PZ  C   6   0.00019     0.00004    -0.00034     0.00090     0.00069    -0.00051
  
  S  C   7   0.11442    -0.00949    -0.04271    -0.13142     0.23631    -0.03351
 PX  C   7   0.04362    -0.00328    -0.01237    -0.01752    -0.00360    -0.05403
 PY  C   7   0.01535    -0.00078    -0.00175     0.01450    -0.05070    -0.03279
 PZ  C   7   0.00126     0.00018    -0.00170     0.00404     0.00310    -0.00251
  
  S  C   8   0.20668    -0.01600    -0.06323    -0.14276     0.16523    -0.14525
 PX  C   8   0.01413    -0.00082    -0.00046     0.01134    -0.04496    -0.01882
 PY  C   8   0.09428    -0.00673    -0.02405    -0.03367     0.00530    -0.07000
 PZ  C   8   0.00080     0.00057    -0.00403     0.01106     0.00765    -0.00642
  
  S  N   9   0.47049    -0.03220    -0.10963    -0.16086     0.06356    -0.25557
 PX  N   9  -0.01091     0.00106     0.00820     0.01657    -0.03128     0.02320
 PY  N   9   0.09881    -0.00502    -0.01128     0.01445    -0.05346    -0.00151
 PZ  N   9  -0.00068     0.00218    -0.01291     0.03708     0.02399    -0.01863
  
  S  C  10   0.36256    -0.02812     0.01792    -0.16082    -0.13493     0.03938
 PX  C  10  -0.01126     0.00055     0.01610     0.00356    -0.02503     0.03647
 PY  C  10   0.01157    -0.00067     0.03848     0.01200    -0.07391     0.09722
 PZ  C  10   0.12444    -0.00607    -0.07014     0.00442     0.05162    -0.14247
  
  S  C  11   0.15043    -0.01524     0.08564    -0.12671    -0.14375     0.16570
 PX  C  11   0.00082    -0.00035     0.01229    -0.00257    -0.01618     0.02286
 PY  C  11   0.03751    -0.00432     0.05149    -0.03140    -0.07473     0.09739
 PZ  C  11   0.06111    -0.00475    -0.01177    -0.03133    -0.00877    -0.01855
  
  S  C  12   0.10306    -0.01289     0.17389    -0.09424    -0.16416     0.23787
 PX  C  12  -0.00250     0.00010     0.00928     0.00437     0.00299    -0.00073
 PY  C  12   0.01190    -0.00205     0.06054    -0.00142    -0.01927     0.03863
 PZ  C  12   0.04613    -0.00483     0.03005    -0.04312    -0.06880     0.08361
  
  S  C  13   0.11348    -0.01525     0.28571    -0.07362    -0.16268     0.26023
 PX  C  13  -0.00783     0.00061     0.00844     0.01085     0.01736    -0.01919
 PY  C  13  -0.02289     0.00192     0.02576     0.03559     0.05354    -0.05952
 PZ  C  13   0.02772    -0.00193    -0.02766    -0.03016    -0.05615     0.06029
  
  S  C  14   0.13371    -0.01306     0.16434    -0.06512    -0.17146     0.23380
 PX  C  14  -0.01315     0.00092     0.00216     0.00644     0.01307    -0.01180
 PY  C  14  -0.05788     0.00539    -0.02691     0.03941     0.07071    -0.07838
 PZ  C  14   0.00825     0.00187    -0.06865     0.01757     0.01642    -0.04416
  
  S  C  15   0.30083    -0.01985     0.05013    -0.06248    -0.17558     0.13947
 PX  C  15  -0.02590     0.00128     0.01286     0.00081    -0.00529     0.02085
 PY  C  15  -0.10159     0.00751     0.02276     0.03846     0.01256     0.04233
 PZ  C  15   0.04150     0.00232    -0.07113     0.06438     0.06270    -0.10808
  
  S  C  16   0.30163     0.00012    -0.06055     0.19043    -0.03391     0.03344
 PX  C  16  -0.01722    -0.00022     0.00793    -0.01241    -0.00724     0.00882
 PY  C  16  -0.10504     0.00792     0.02578     0.02474     0.00007     0.05746
 PZ  C  16  -0.03980     0.01404    -0.02044     0.14130     0.05206     0.02167
  
  S  C  17   0.36894    -0.00731    -0.10307     0.13589     0.04247    -0.09809
 PX  C  17   0.01558    -0.00050    -0.00094     0.00772    -0.01380     0.00473
 PY  C  17   0.00121     0.00758     0.00189     0.10707    -0.02864     0.07086
 PZ  C  17  -0.12505     0.01633     0.01403     0.13270     0.02698     0.08274
  
  S  C  18   0.15391     0.01289    -0.06403     0.23392     0.06644     0.00965
 PX  C  18   0.01364     0.00107    -0.00514     0.02475     0.00059     0.00351
 PY  C  18   0.03296     0.00960    -0.01605     0.12320     0.00727     0.04027
 PZ  C  18  -0.06348     0.00508     0.01860     0.00469    -0.01178     0.03734
  
  S  C  19   0.10216     0.03919    -0.05190     0.33622     0.05730     0.09858
 PX  C  19   0.00695     0.00123    -0.00323     0.02172     0.00181     0.00651
 PY  C  19   0.00699     0.01554    -0.00433     0.06470     0.00444     0.03491
 PZ  C  19  -0.04677    -0.00111     0.02064    -0.09730    -0.01567    -0.01452
  
  S  C  20   0.10604     0.06363    -0.05274     0.40207     0.05538     0.14551
 PX  C  20  -0.00239    -0.00447     0.00167    -0.01280    -0.00325    -0.00470
 PY  C  20  -0.02807     0.00839     0.01316    -0.05435    -0.00938    -0.00238
 PZ  C  20  -0.02939     0.01439     0.01042    -0.03684     0.00026     0.00093
  
  S  C  21   0.13135     0.02789    -0.04493     0.30470     0.01852     0.10609
 PX  C  21  -0.01183    -0.00301     0.00582    -0.03188    -0.00511    -0.00769
 PY  C  21  -0.05962    -0.00205     0.02122    -0.09282    -0.00727    -0.01538
 PZ  C  21  -0.01036     0.01436    -0.00858     0.07663     0.02428     0.02467
  
  S  C  22   0.03955     0.13343    -0.01960     0.22879     0.03465     0.11066
 PX  C  22  -0.00466    -0.02924     0.00223    -0.03374    -0.00600    -0.01860
 PY  C  22  -0.01232     0.01933     0.00891    -0.07080    -0.01058    -0.02744
 PZ  C  22  -0.00860     0.04103     0.00656    -0.04063    -0.00438    -0.01185
  
  S  C  23   0.02497     0.23112    -0.00589     0.13484     0.02304     0.07781
 PX  C  23   0.00278     0.01901    -0.00080     0.01213     0.00155     0.00528
 PY  C  23  -0.00353     0.06456     0.00671    -0.05192    -0.00820    -0.02317
 PZ  C  23  -0.00536     0.04649     0.00682    -0.05805    -0.00866    -0.02620
  
  S  C  24   0.01798     0.50967     0.01790    -0.05536    -0.00666    -0.01428
 PX  C  24   0.00139     0.04216     0.00165    -0.00742    -0.00133    -0.00364
 PY  C  24   0.00112     0.11868     0.00721    -0.05283    -0.00847    -0.02698
 PZ  C  24  -0.00084     0.06099     0.00503    -0.04430    -0.00689    -0.02308
  
  S  O  25   0.01130     0.40632     0.01717    -0.08165    -0.01124    -0.03229
 PX  O  25   0.00250     0.09314     0.00405    -0.02038    -0.00292    -0.00857
 PY  O  25   0.00011     0.01651     0.00110    -0.00920    -0.00155    -0.00513
 PZ  O  25  -0.00427    -0.14664    -0.00596     0.02578     0.00343     0.00933
  
  S  O  26   0.01693     0.57139     0.02336    -0.10630    -0.01550    -0.04342
 PX  O  26  -0.00315    -0.10821    -0.00442     0.01952     0.00276     0.00754
 PY  O  26  -0.00294    -0.07429    -0.00224     0.00236     0.00007    -0.00146
 PZ  O  26   0.00248     0.10831     0.00515    -0.02992    -0.00450    -0.01393
  
  S  C  27   0.01626     0.10191    -0.00735     0.11641     0.02067     0.06704
 PX  C  27   0.00591     0.03562    -0.00216     0.02910     0.00449     0.01335
 PY  C  27   0.00012     0.03224     0.00174    -0.00734    -0.00132    -0.00216
 PZ  C  27  -0.00324     0.00758     0.00270    -0.02337    -0.00359    -0.00995
  
  S  N  28   0.00687     0.03412    -0.00417     0.06398     0.01193     0.03908
 PX  N  28   0.00386     0.01710    -0.00229     0.03222     0.00585     0.01857
 PY  N  28   0.00131     0.01235    -0.00057     0.01312     0.00248     0.00890
 PZ  N  28  -0.00108     0.00026     0.00083    -0.00814    -0.00136    -0.00385
  
  S  C  29   0.05490    -0.01117     0.39473     0.03779     0.03726     0.00804
 PX  C  29  -0.00251     0.00014     0.01080     0.00953     0.01790    -0.02534
 PY  C  29  -0.00777     0.00044     0.03329     0.02965     0.05562    -0.07857
 PZ  C  29   0.00811    -0.00040    -0.03416    -0.02903    -0.05664     0.07994
  
  S  C  30   0.03403    -0.00813     0.33676     0.05939     0.08769    -0.07837
 PX  C  30   0.00634    -0.00183     0.08789     0.02229     0.03716    -0.04411
 PY  C  30  -0.00594     0.00082    -0.00996     0.01135     0.02465    -0.04144
 PZ  C  30   0.00568    -0.00072     0.00567    -0.01204    -0.02635     0.04342
  
  S  C  31   0.02100    -0.00438     0.15792     0.01555     0.01540     0.00502
 PX  C  31   0.00859    -0.00183     0.06701     0.00737     0.00823    -0.00103
 PY  C  31  -0.00245     0.00026     0.00082     0.00539     0.01042    -0.01551
 PZ  C  31   0.00210    -0.00015    -0.00440    -0.00535    -0.01069     0.01525
  
  S  C  32   0.01822    -0.00543     0.26887     0.07374     0.12674    -0.15765
 PX  C  32   0.00377    -0.00130     0.07108     0.02328     0.04185    -0.05651
 PY  C  32  -0.00523     0.00136    -0.05916    -0.01112    -0.01641     0.01398
 PZ  C  32   0.00508    -0.00130     0.05602     0.01016     0.01456    -0.01148
  
  S  C  33   0.01571    -0.00508     0.26769     0.08355     0.14908    -0.19875
 PX  C  33  -0.00146     0.00042    -0.01989    -0.00462    -0.00741     0.00781
 PY  C  33  -0.00455     0.00131    -0.06176    -0.01440    -0.02304     0.02435
 PZ  C  33   0.00469    -0.00135     0.06388     0.01505     0.02414    -0.02577
  
  S  C  34   0.01825    -0.00543     0.26914     0.07393     0.12686    -0.15790
 PX  C  34  -0.00654     0.00198    -0.09917    -0.02746    -0.04720     0.05874
 PY  C  34  -0.00335     0.00076    -0.02800    -0.00188    -0.00010    -0.00711
 PZ  C  34   0.00369    -0.00085     0.03270     0.00323     0.00230     0.00439
  
  S  C  35   0.03410    -0.00814     0.33696     0.05972     0.08768    -0.07852
 PX  C  35  -0.00924     0.00212    -0.08404    -0.01295    -0.01805     0.01402
 PY  C  35  -0.00306     0.00009     0.02162     0.01771     0.03470    -0.05194
 PZ  C  35   0.00361    -0.00018    -0.01779    -0.01685    -0.03405     0.05157
  
  S  C  36   0.02112    -0.00438     0.15815     0.01594     0.01531     0.00495
 PX  C  36  -0.00916     0.00177    -0.05896    -0.00348    -0.00098    -0.00841
 PY  C  36   0.00089    -0.00041     0.02418     0.00730     0.01198    -0.01390
 PZ  C  36  -0.00022     0.00033    -0.02138    -0.00687    -0.01215     0.01456
  
  S  C  37   0.00475    -0.00175     0.10132     0.03819     0.07188    -0.10494
 PX  C  37  -0.00051     0.00018    -0.01002    -0.00346    -0.00634     0.00883
 PY  C  37  -0.00160     0.00056    -0.03126    -0.01080    -0.01980     0.02757
 PZ  C  37   0.00162    -0.00057     0.03160     0.01092     0.02001    -0.02787
  
  S  H  38   0.01364     0.06116    -0.00560     0.07284     0.01051     0.03619
  
  S  H  39   0.00052    -0.00009    -0.00079    -0.01283     0.04944     0.05459
  
  S  H  40   0.00036    -0.00007    -0.00060    -0.01023     0.04000     0.04520
  
  S  H  41   0.00052    -0.00009    -0.00079    -0.01284     0.04948     0.05462
  
  S  H  42   0.00122    -0.00020    -0.00157    -0.02225     0.08242     0.08503
  
  S  H  43   0.00122    -0.00020    -0.00157    -0.02226     0.08244     0.08505
  
  S  H  44   0.00262    -0.00038    -0.00273    -0.03197     0.11167     0.10369
  
  S  H  45   0.00262    -0.00038    -0.00274    -0.03195     0.11167     0.10366
  
  S  H  46   0.00532    -0.00067    -0.00442    -0.04006     0.12834     0.09980
  
  S  H  47   0.00530    -0.00068    -0.00440    -0.04013     0.12829     0.09985
  
  S  H  48   0.01116    -0.00122    -0.00699    -0.04681     0.13197     0.07597
  
  S  H  49   0.01124    -0.00120    -0.00712    -0.04645     0.13217     0.07576
  
  S  H  50   0.02165    -0.00206    -0.01098    -0.05085     0.12256     0.03638
  
  S  H  51   0.02145    -0.00212    -0.01055    -0.05199     0.12173     0.03707
  
  S  H  52   0.05210    -0.00436    -0.01732    -0.05794     0.09608    -0.01226
  
  S  H  53   0.05417    -0.00397    -0.02027    -0.05040     0.10092    -0.01597
  
  S  H  54   0.07503    -0.00545    -0.02540    -0.04859     0.07212    -0.05434
  
  S  H  55   0.07490    -0.00622    -0.02056    -0.06197     0.06311    -0.04703
  
  S  H  56   0.04848    -0.00482     0.01722    -0.04390    -0.02878     0.03307
  
  S  H  57   0.02613    -0.00369     0.06544    -0.02345    -0.04220     0.06822
  
  S  H  58   0.03817    -0.00331     0.05957    -0.00739    -0.04498     0.06842
  
  S  H  59   0.05063     0.00225    -0.02110     0.05136     0.03061    -0.01070
  
  S  H  60   0.02570     0.01957    -0.01446     0.10955     0.01988     0.03840
  
  S  H  61   0.03658     0.01068    -0.00883     0.08863     0.00037     0.04113
  
  S  H  62   0.00667     0.24056     0.01032    -0.05162    -0.00765    -0.02243
  
  S  H  63   0.01158    -0.00217     0.06901     0.00248    -0.00115     0.01361
  
  S  H  64   0.01183    -0.00214     0.06850     0.00320    -0.00099     0.01313
  
  S  H  65   0.00599    -0.00137     0.05434     0.00793     0.01054    -0.00614
  
  S  H  66   0.00501    -0.00153     0.07704     0.02217     0.03875    -0.04967
  
  S  H  67   0.00502    -0.00153     0.07716     0.02226     0.03882    -0.04982
  
  S  H  68   0.01160    -0.00216     0.06898     0.00273    -0.00114     0.01342
  
  S  H  69   0.00603    -0.00137     0.05444     0.00807     0.01052    -0.00618
  
  S  H  70   0.01199    -0.00215     0.06872     0.00341    -0.00117     0.01329
  
  S  H  71   0.00180    -0.00067     0.03896     0.01492     0.02821    -0.04151
  
  S  H  72   0.00179    -0.00067     0.03889     0.01489     0.02816    -0.04145
  
  S  H  73   0.00179    -0.00067     0.03882     0.01488     0.02814    -0.04142




    ROOT NO.    7           8           9          10          11          12

           -40.25025   -39.55649   -38.94753   -38.11317   -37.77881   -37.01846
  
  
  S  C   1   0.22781    -0.07685    -0.10908    -0.14531    -0.00175    -0.20135
 PX  C   1   0.07166    -0.02290    -0.03078    -0.03761    -0.00044    -0.04520
 PY  C   1   0.01567    -0.00455    -0.00549    -0.00547    -0.00006    -0.00401
 PZ  C   1  -0.00000     0.00000     0.00000    -0.00000     0.00000    -0.00000
  
  S  C   2   0.30745    -0.09657    -0.12806    -0.15384    -0.00177    -0.18208
 PX  C   2  -0.01812     0.00970     0.01815     0.03199     0.00042     0.05790
 PY  C   2   0.05425    -0.01465    -0.01623    -0.01332    -0.00012    -0.00354
 PZ  C   2  -0.00000     0.00000     0.00000    -0.00001     0.00000    -0.00001
  
  S  C   3   0.26435    -0.06965    -0.07576    -0.06138    -0.00056    -0.01989
 PX  C   3  -0.02077     0.01415     0.02786     0.04897     0.00064     0.08346
 PY  C   3  -0.06852     0.02415     0.03495     0.04650     0.00056     0.06126
 PZ  C   3  -0.00002     0.00001     0.00001    -0.00005     0.00000    -0.00005
  
  S  C   4   0.09787    -0.00353     0.02589     0.07950     0.00113     0.16542
 PX  C   4  -0.09074     0.02993     0.03960     0.04390     0.00048     0.03753
 PY  C   4  -0.04224     0.01988     0.03275     0.04717     0.00057     0.06163
 PZ  C   4   0.00009     0.00000     0.00005    -0.00012     0.00000     0.00002
  
  S  C   5  -0.11148     0.06420     0.11128     0.16213     0.00194     0.20610
 PX  C   5  -0.09065     0.02868     0.03413     0.02738     0.00023    -0.00297
 PY  C   5  -0.03926     0.00632     0.00011    -0.01576    -0.00027    -0.04625
 PZ  C   5   0.00013     0.00008     0.00028    -0.00044     0.00001     0.00004
  
  S  C   6  -0.27160     0.09734     0.12742     0.12653     0.00128     0.06520
 PX  C   6  -0.01633    -0.00663    -0.02344    -0.05082    -0.00067    -0.08920
 PY  C   6  -0.06668     0.01564     0.01083    -0.00812    -0.00020    -0.04594
 PZ  C   6   0.00019     0.00040     0.00115    -0.00134     0.00003     0.00036
  
  S  C   7  -0.30297     0.07432     0.05954    -0.00599    -0.00035    -0.12679
 PX  C   7  -0.01491    -0.01283    -0.03618    -0.06405    -0.00067    -0.08185
 PY  C   7   0.05796    -0.02566    -0.03777    -0.04310    -0.00045    -0.02251
 PZ  C   7   0.00058     0.00167     0.00465    -0.00557     0.00011     0.00088
  
  S  C   8  -0.22037     0.01376    -0.04985    -0.14028    -0.00133    -0.23055
 PX  C   8   0.06929    -0.02660    -0.03480    -0.02269     0.00002     0.01431
 PY  C   8   0.01415    -0.02490    -0.04923    -0.06129    -0.00027    -0.02949
 PZ  C   8   0.00294     0.00434     0.01256    -0.01420     0.00022     0.00572
  
  S  N   9   0.01923    -0.07219    -0.14294    -0.15478     0.00066    -0.02754
 PX  N   9   0.04429    -0.00540     0.00476     0.03486     0.00086     0.05352
 PY  N   9   0.11947    -0.02116     0.00399     0.06302     0.00152     0.16443
 PZ  N   9   0.00956     0.01371     0.03817    -0.03908     0.00039     0.01652
  
  S  C  10   0.04096    -0.05496    -0.10742     0.11845    -0.00153    -0.01536
 PX  C  10   0.00507     0.00342     0.00876     0.02791     0.00239     0.00428
 PY  C  10   0.03760     0.00999     0.03782     0.09215     0.00058     0.07045
 PZ  C  10   0.08761    -0.02776    -0.01903    -0.06151     0.00379     0.15231
  
  S  C  11  -0.07463    -0.01090    -0.06376     0.12403    -0.00756    -0.21087
 PX  C  11  -0.00210     0.00205     0.00333     0.01058     0.00505    -0.00656
 PY  C  11  -0.01475     0.00433     0.00208     0.05611    -0.00300    -0.03447
 PZ  C  11   0.01044    -0.01537    -0.03021     0.01747     0.00201     0.00690
  
  S  C  12  -0.10084     0.02007     0.00024     0.03651    -0.01038    -0.17102
 PX  C  12  -0.00112     0.00257     0.00649    -0.02000     0.02535     0.01276
 PY  C  12  -0.01717     0.01209     0.02412    -0.05994    -0.00529     0.03257
 PZ  C  12  -0.01870    -0.00152    -0.01423     0.07621     0.00294    -0.05893
  
  S  C  13  -0.11310     0.04114     0.05206    -0.10381     0.00040    -0.04841
 PX  C  13   0.00167     0.00158     0.00575    -0.03279     0.07831     0.01874
 PY  C  13   0.00934     0.00552     0.02121    -0.10041    -0.00915     0.08095
 PZ  C  13   0.00582    -0.00423    -0.01051     0.11148     0.01259    -0.02657
  
  S  C  14  -0.03621     0.02478     0.04160     0.07077     0.00752     0.01593
 PX  C  14  -0.00496     0.00174     0.00261    -0.02561     0.02636     0.00006
 PY  C  14   0.00196     0.00293     0.00917    -0.08003    -0.00298     0.02392
 PZ  C  14   0.05152    -0.01071    -0.00588     0.07637     0.00184     0.04576
  
  S  C  15   0.10157    -0.01372     0.00978     0.19563     0.00379     0.14842
 PX  C  15  -0.01517     0.00569     0.00589     0.00154     0.00605    -0.01713
 PY  C  15  -0.03792     0.02740     0.04360    -0.01063     0.00028    -0.02531
 PZ  C  15   0.07973    -0.00404     0.02480    -0.03065     0.00170     0.12016
  
  S  C  16   0.16175     0.04162     0.14548     0.09237     0.00211     0.18749
 PX  C  16  -0.00387    -0.00146    -0.00589     0.01080     0.00120     0.00221
 PY  C  16  -0.04776     0.02111     0.01707     0.02312    -0.00029    -0.05111
 PZ  C  16  -0.03095     0.04680     0.07987    -0.04784    -0.00223    -0.09045
  
  S  C  17   0.11368     0.02137     0.09875    -0.07310    -0.00012     0.06809
 PX  C  17   0.02696    -0.00290     0.00311     0.01885     0.00067     0.03649
 PY  C  17   0.05605     0.02780     0.07736     0.07525     0.00010     0.07059
 PZ  C  17  -0.05502     0.05793     0.10193    -0.01429    -0.00236    -0.11684
  
  S  C  18   0.00157     0.06649     0.15472    -0.08640    -0.00303    -0.11020
 PX  C  18   0.01050     0.00679     0.01664    -0.00068    -0.00013     0.00096
 PY  C  18   0.01445     0.02736     0.06260     0.00797    -0.00096    -0.01346
 PZ  C  18  -0.02368    -0.00425    -0.01730     0.02328    -0.00021    -0.01917
  
  S  C  19  -0.06027     0.04225     0.06957    -0.03619    -0.00293    -0.12992
 PX  C  19   0.00389     0.01133     0.01363     0.00210    -0.00022    -0.01152
 PY  C  19  -0.03430    -0.01411    -0.05698     0.01683     0.00029    -0.00731
 PZ  C  19  -0.02729    -0.04598    -0.09934     0.01075     0.00126     0.02872
  
  S  C  20  -0.09794     0.03874    -0.02429     0.00791    -0.00188    -0.12935
 PX  C  20   0.01298     0.01268     0.01761     0.00434     0.00001    -0.00114
 PY  C  20  -0.02885    -0.02461    -0.09837     0.01483     0.00117     0.01364
 PZ  C  20  -0.06000    -0.04861    -0.12993    -0.00984     0.00068    -0.01301
  
  S  C  21   0.02571     0.07628     0.12378     0.05477    -0.00041    -0.00553
 PX  C  21   0.00121    -0.00491    -0.00991     0.00161     0.00045     0.00653
 PY  C  21  -0.03617    -0.02728    -0.07998    -0.00582     0.00050    -0.01599
 PZ  C  21  -0.05089     0.00668    -0.02943    -0.02359    -0.00137    -0.08111
  
  S  C  22  -0.16315    -0.02467    -0.28837     0.01090     0.00097    -0.07451
 PX  C  22   0.04240     0.03737     0.07664     0.00028    -0.00056    -0.00614
 PY  C  22   0.02763     0.02489    -0.00411     0.00042     0.00048     0.03080
 PZ  C  22  -0.01197    -0.01681    -0.06597    -0.00353     0.00082     0.02950
  
  S  C  23  -0.17461    -0.17221    -0.30000     0.00540     0.00236     0.01978
 PX  C  23   0.00769     0.09216    -0.03478     0.00121    -0.00032    -0.04333
 PY  C  23   0.04038     0.05193     0.04055     0.00049    -0.00026    -0.00656
 PZ  C  23   0.02965    -0.05236     0.08860    -0.00124    -0.00020     0.01746
  
  S  C  24  -0.00992    -0.13056     0.06132     0.00188    -0.00013    -0.01635
 PX  C  24   0.03196     0.24774    -0.13490    -0.00279     0.00060     0.02904
 PY  C  24   0.07186     0.18961     0.02269    -0.00349    -0.00048     0.00835
 PZ  C  24   0.02570    -0.20983     0.26005     0.00107    -0.00169    -0.05205
  
  S  O  25   0.00084    -0.47521     0.41457     0.00470    -0.00241    -0.09677
 PX  O  25   0.01002    -0.03826     0.05856     0.00016    -0.00039    -0.01277
 PY  O  25   0.01692     0.05608    -0.00228    -0.00090    -0.00010     0.00149
 PZ  O  25   0.00246     0.13592    -0.10591    -0.00129     0.00054     0.02098
  
  S  O  26   0.11345     0.48485    -0.15578    -0.00739     0.00059     0.06232
 PX  O  26  -0.01424    -0.04104     0.00452     0.00064     0.00000    -0.00310
 PY  O  26   0.00592    -0.01665     0.03600    -0.00060    -0.00025     0.00013
 PZ  O  26   0.03027     0.05561     0.02815    -0.00163    -0.00028     0.00327
  
  S  C  27  -0.18405    -0.29946    -0.29006    -0.00173     0.00415     0.23344
 PX  C  27  -0.01002     0.02053     0.00867     0.00280    -0.00112    -0.12495
 PY  C  27   0.00533    -0.00182     0.03070     0.00307    -0.00068    -0.07192
 PZ  C  27   0.00906    -0.02682     0.02874     0.00011     0.00006     0.01574
  
  S  N  28  -0.12905    -0.23451    -0.23410    -0.00467     0.00425     0.30362
 PX  N  28  -0.05493    -0.09372    -0.09336    -0.00173     0.00154     0.10294
 PY  N  28  -0.03215    -0.06478    -0.05444    -0.00051     0.00103     0.07053
 PZ  N  28   0.00699     0.00229     0.01523     0.00036    -0.00014    -0.00744
  
  S  C  29  -0.04995     0.02716     0.05122    -0.24204     0.00280     0.08551
 PX  C  29   0.01105    -0.00396    -0.00470     0.01283     0.22016     0.00133
 PY  C  29   0.03357    -0.01218    -0.01543     0.03584    -0.03969     0.02034
 PZ  C  29  -0.03184     0.01275     0.01774    -0.03474     0.03133    -0.01025
  
  S  C  30  -0.00278     0.00673     0.01948    -0.14578    -0.36658     0.08870
 PX  C  30   0.01498    -0.00573    -0.00806     0.02749     0.11084    -0.00602
 PY  C  30   0.02514    -0.01124    -0.01835     0.07357    -0.00587    -0.01538
 PZ  C  30  -0.02513     0.01161     0.01934    -0.07443     0.00108     0.01880
  
  S  C  31  -0.02713     0.01522     0.02986    -0.16435    -0.38808     0.07888
 PX  C  31  -0.00844     0.00477     0.00930    -0.04923    -0.09191     0.02167
 PY  C  31   0.00723    -0.00263    -0.00336     0.00838    -0.02026     0.00489
 PZ  C  31  -0.00597     0.00244     0.00341    -0.00542     0.02520    -0.00301
  
  S  C  32   0.06030    -0.02512    -0.03910     0.13858    -0.22717    -0.02771
 PX  C  32   0.02773    -0.01279    -0.02213     0.10131     0.06866    -0.04079
 PY  C  32   0.00342    -0.00334    -0.00870     0.06164     0.05256    -0.03810
 PZ  C  32  -0.00453     0.00394     0.00983    -0.06620    -0.05583     0.04063
  
  S  C  33   0.09521    -0.04400    -0.07650     0.34752    -0.00488    -0.13841
 PX  C  33  -0.00062    -0.00030    -0.00150     0.01655     0.08837    -0.01418
 PY  C  33  -0.00237    -0.00087    -0.00502     0.04885    -0.01679    -0.03733
 PZ  C  33   0.00305     0.00061     0.00460    -0.04688     0.01272     0.03698
  
  S  C  34   0.06110    -0.02516    -0.03839     0.14207     0.22338    -0.03711
 PX  C  34  -0.02252     0.00934     0.01446    -0.05223     0.03068     0.01171
 PY  C  34   0.01240    -0.00741    -0.01570     0.08917    -0.07297    -0.04542
 PZ  C  34  -0.01123     0.00701     0.01517    -0.08668     0.07179     0.04551
  
  S  C  35  -0.00132     0.00676     0.02103    -0.14102     0.37069     0.07532
 PX  C  35   0.00209    -0.00175    -0.00376     0.02141     0.10215    -0.00884
 PY  C  35   0.02724    -0.01195    -0.01927     0.07454    -0.03472    -0.01506
 PZ  C  35  -0.02679     0.01220     0.02015    -0.07519     0.03054     0.01848
  
  S  C  36  -0.02547     0.01529     0.03165    -0.15960     0.39348     0.06546
 PX  C  36   0.01127    -0.00586    -0.01079     0.04773    -0.07035    -0.01497
 PY  C  36   0.00350    -0.00062     0.00049    -0.00907     0.05062     0.00971
 PZ  C  36  -0.00342     0.00104     0.00067     0.00728    -0.04702    -0.00625
  
  S  C  37   0.06439    -0.03295    -0.06311     0.33197    -0.00443    -0.16564
 PX  C  37  -0.00469     0.00226     0.00411    -0.01929     0.01983     0.00779
 PY  C  37  -0.01471     0.00707     0.01273    -0.06071    -0.00282     0.02583
 PZ  C  37   0.01490    -0.00716    -0.01290     0.06164     0.00191    -0.02625
  
  S  H  38  -0.04865     0.01915    -0.10479     0.00579     0.00036    -0.02829
  
  S  H  39   0.09712    -0.03275    -0.04650    -0.06201    -0.00075    -0.08619
  
  S  H  40   0.08520    -0.02935    -0.04248    -0.05819    -0.00071    -0.08385
  
  S  H  41   0.09716    -0.03276    -0.04651    -0.06203    -0.00075    -0.08619
  
  S  H  42   0.12552    -0.03918    -0.05166    -0.06157    -0.00071    -0.07204
  
  S  H  43   0.12553    -0.03918    -0.05167    -0.06156    -0.00071    -0.07203
  
  S  H  44   0.10898    -0.02860    -0.03103    -0.02508    -0.00023    -0.00841
  
  S  H  45   0.10895    -0.02858    -0.03098    -0.02510    -0.00023    -0.00838
  
  S  H  46   0.04014    -0.00139     0.01064     0.03220     0.00046     0.06655
  
  S  H  47   0.04014    -0.00143     0.01054     0.03233     0.00046     0.06652
  
  S  H  48  -0.04571     0.02615     0.04508     0.06584     0.00077     0.08293
  
  S  H  49  -0.04562     0.02628     0.04550     0.06529     0.00079     0.08299
  
  S  H  50  -0.11195     0.04014     0.05256     0.05033     0.00053     0.02561
  
  S  H  51  -0.11215     0.03965     0.05116     0.05204     0.00050     0.02524
  
  S  H  52  -0.12313     0.02896     0.02129     0.00170    -0.00032    -0.05004
  
  S  H  53  -0.12187     0.03159     0.02861    -0.00645    -0.00014    -0.04898
  
  S  H  54  -0.09280     0.01127    -0.00820    -0.05948    -0.00047    -0.09461
  
  S  H  55  -0.09641     0.00637    -0.02246    -0.04392    -0.00073    -0.10213
  
  S  H  56  -0.03457    -0.00480    -0.02822     0.02747    -0.00297    -0.08989
  
  S  H  57  -0.03734     0.00917     0.00484    -0.01589    -0.00572    -0.05510
  
  S  H  58  -0.00944     0.01268     0.02509     0.00323     0.00528     0.02725
  
  S  H  59  -0.01601     0.01852     0.04047    -0.04399    -0.00104    -0.05410
  
  S  H  60  -0.04473    -0.00956    -0.02080    -0.01371    -0.00067    -0.04043
  
  S  H  61   0.00249     0.02288     0.02417     0.02802     0.00042     0.00315
  
  S  H  62   0.05518     0.18380    -0.02560    -0.00340    -0.00003     0.02170
  
  S  H  63  -0.01699     0.00825     0.01468    -0.07555    -0.16217     0.02932
  
  S  H  64  -0.01554     0.00832     0.01554    -0.07470    -0.16156     0.03391
  
  S  H  65  -0.00591     0.00394     0.00861    -0.05461    -0.16608     0.03103
  
  S  H  66   0.02102    -0.00927    -0.01540     0.06170    -0.11180    -0.01815
  
  S  H  67   0.02143    -0.00931    -0.01509     0.06355     0.11009    -0.02290
  
  S  H  68  -0.01609     0.00826     0.01548    -0.07363     0.16401     0.02431
  
  S  H  69  -0.00529     0.00397     0.00932    -0.05262     0.16809     0.02496
  
  S  H  70  -0.01473     0.00839     0.01641    -0.07256     0.16460     0.02872
  
  S  H  71   0.02605    -0.01344    -0.02594     0.13832     0.00906    -0.07049
  
  S  H  72   0.02598    -0.01342    -0.02594     0.13797    -0.01343    -0.06989
  
  S  H  73   0.02601    -0.01343    -0.02595     0.13834    -0.00117    -0.07033




    ROOT NO.   13          14          15          16          17          18

           -36.32955   -34.88131   -33.64371   -32.91323   -32.39252   -31.50757
  
  
  S  C   1   0.08118     0.27937    -0.03926    -0.15340     0.14492     0.16040
 PX  C   1   0.01627     0.03988    -0.00331    -0.00689     0.00209    -0.00689
 PY  C   1   0.00066    -0.00504     0.00165     0.00859    -0.00962    -0.01343
 PZ  C   1   0.00000     0.00000     0.00001    -0.00001    -0.00001    -0.00001
  
  S  C   2   0.06536     0.16538    -0.01589    -0.04452     0.03017     0.01046
 PX  C   2  -0.02661    -0.11319     0.01812     0.07522    -0.07358    -0.08530
 PY  C   2  -0.00228    -0.03370     0.00761     0.03563    -0.03738    -0.04742
 PZ  C   2   0.00002     0.00003     0.00004    -0.00006    -0.00001    -0.00001
  
  S  C   3  -0.00680    -0.11492     0.02466     0.11089    -0.11285    -0.13546
 PX  C   3  -0.03616    -0.12969     0.01689     0.05968    -0.05074    -0.04283
 PY  C   3  -0.02315    -0.06249     0.00591     0.01461    -0.00792     0.00345
 PZ  C   3   0.00006     0.00008     0.00015    -0.00019    -0.00005    -0.00003
  
  S  C   4  -0.07495    -0.27221     0.03398     0.11599    -0.09468    -0.07242
 PX  C   4  -0.00804     0.02917    -0.01103    -0.05636     0.06183     0.08104
 PY  C   4  -0.02180    -0.03926    -0.00008    -0.01485     0.02332     0.04261
 PZ  C   4   0.00012    -0.00013     0.00053    -0.00039    -0.00035    -0.00026
  
  S  C   5  -0.07043    -0.11177    -0.00185    -0.04854     0.06894     0.11296
 PX  C   5   0.01189     0.10626    -0.01940    -0.07716     0.07060     0.06560
 PY  C   5   0.02356     0.09794    -0.01257    -0.04487     0.03526     0.02334
 PZ  C   5   0.00047    -0.00029     0.00174    -0.00143    -0.00095    -0.00061
  
  S  C   6   0.00207     0.17931    -0.03628    -0.13781     0.12498     0.10908
 PX  C   6   0.03526     0.07954    -0.00243     0.02183    -0.03620    -0.06857
 PY  C   6   0.02452     0.09333    -0.00839    -0.02007     0.00566    -0.01851
 PZ  C   6   0.00149    -0.00070     0.00550    -0.00454    -0.00268    -0.00150
  
  S  C   7   0.06741     0.25464    -0.01670    -0.03257    -0.00331    -0.05878
 PX  C   7   0.02153    -0.01191     0.01469     0.08082    -0.07919    -0.08197
 PY  C   7  -0.00154    -0.06953     0.01788     0.05098    -0.04642    -0.03227
 PZ  C   7   0.00591    -0.00246     0.01867    -0.01513    -0.00860    -0.00450
  
  S  C   8   0.06742     0.05677     0.02099     0.16894    -0.15809    -0.16010
 PX  C   8  -0.02110    -0.11090     0.00835     0.04505    -0.01711     0.01816
 PY  C   8  -0.01085    -0.08971     0.02438     0.06107    -0.03790     0.00924
 PZ  C   8   0.01309    -0.00218     0.05004    -0.03593    -0.02263    -0.00768
  
  S  N   9  -0.06429    -0.15287     0.05694     0.11909    -0.04436     0.07774
 PX  N   9  -0.02215    -0.00513    -0.01847    -0.03287     0.04547     0.03972
 PY  N   9  -0.06763     0.01506    -0.00094    -0.12087     0.11858     0.13012
 PZ  N   9   0.03421    -0.00321     0.11876    -0.07680    -0.04739     0.00542
  
  S  C  10  -0.05534    -0.08203    -0.19649    -0.00731     0.11568    -0.01662
 PX  C  10   0.00543     0.00871    -0.00497    -0.02460     0.00245    -0.01849
 PY  C  10  -0.00202     0.09855     0.04034    -0.10861    -0.01596    -0.07542
 PZ  C  10  -0.08601     0.05490     0.11264     0.00223    -0.01103     0.08550
  
  S  C  11   0.06922    -0.19548    -0.30785     0.01729     0.16126     0.03369
 PX  C  11   0.00732    -0.00651     0.00035    -0.01135     0.00324     0.00804
 PY  C  11   0.02531    -0.01767    -0.01400    -0.04485     0.00817    -0.00730
 PZ  C  11  -0.02625     0.00657    -0.03405     0.01393    -0.00712    -0.07526
  
  S  C  12   0.09386    -0.16180    -0.07491    -0.00223     0.08841     0.22184
 PX  C  12  -0.00331     0.00938     0.03819     0.00437    -0.01675     0.02059
 PY  C  12  -0.00310     0.03646     0.15089     0.00827    -0.07409     0.05295
 PZ  C  12   0.02528    -0.02190    -0.06457    -0.02889     0.00309    -0.08255
  
  S  C  13   0.05359    -0.01129     0.24850     0.02506    -0.13961     0.17404
 PX  C  13  -0.00925     0.00620     0.02198     0.01078    -0.00790     0.02351
 PY  C  13  -0.03736     0.06196     0.10669     0.03233    -0.07341     0.00101
 PZ  C  13   0.01425     0.05697     0.00143    -0.03748    -0.06968    -0.21848
  
  S  C  14   0.01820     0.18067     0.20613    -0.01400    -0.24703    -0.25109
 PX  C  14   0.00016    -0.01045     0.01717     0.01086    -0.00040     0.02729
 PY  C  14  -0.01244    -0.00693     0.03873     0.04517    -0.00247     0.06682
 PZ  C  14  -0.02734     0.07542    -0.08105    -0.01115     0.01152    -0.12135
  
  S  C  15  -0.06208     0.22153     0.00697    -0.07914    -0.06189    -0.21407
 PX  C  15   0.01122     0.00936     0.01561     0.00566    -0.03004    -0.03615
 PY  C  15   0.03276     0.08575     0.07531     0.04622    -0.12157    -0.11863
 PZ  C  15  -0.04846     0.05968     0.00084     0.02789     0.05629     0.11892
  
  S  C  16  -0.01724     0.22067    -0.01734     0.04346     0.01535     0.03681
 PX  C  16  -0.00972     0.02377    -0.00559     0.02071    -0.01399    -0.02086
 PY  C  16   0.00426     0.08703    -0.04645     0.14320    -0.07046    -0.07688
 PZ  C  16   0.07999    -0.06223    -0.03166     0.06896     0.00660     0.06368
  
  S  C  17   0.07615    -0.09420     0.12862    -0.16920     0.02600     0.08381
 PX  C  17  -0.02043     0.02075    -0.01318     0.00739     0.01955     0.02793
 PY  C  17   0.00038     0.09514    -0.06864     0.00553     0.05965     0.03371
 PZ  C  17   0.13603    -0.06324     0.00423    -0.07631    -0.02653    -0.10348
  
  S  C  18   0.22401    -0.21268     0.11690    -0.29636    -0.01022    -0.13183
 PX  C  18   0.00711    -0.00663    -0.00069    -0.00291     0.00543     0.01052
 PY  C  18   0.04553    -0.02287    -0.02694    -0.02362     0.02947     0.00442
 PZ  C  18  -0.00231    -0.00646    -0.03888    -0.01095     0.01226    -0.05453
  
  S  C  19   0.12252    -0.17123    -0.00002    -0.15772     0.02296    -0.11275
 PX  C  19  -0.01338     0.00458    -0.01219     0.02667     0.00124     0.01383
 PY  C  19  -0.08892     0.04609    -0.05296     0.13493     0.00242     0.06288
 PZ  C  19  -0.07113     0.02679     0.00090     0.02480    -0.00604    -0.00108
  
  S  C  20  -0.10570     0.00142    -0.11076     0.22428    -0.00643     0.05932
 PX  C  20  -0.01059     0.02205    -0.01547     0.05272    -0.00705     0.01900
 PY  C  20  -0.12931     0.06873    -0.01262     0.11883    -0.02310     0.05084
 PZ  C  20  -0.07828    -0.05634     0.04380    -0.10282     0.00897    -0.03623
  
  S  C  21  -0.03390     0.19282    -0.12496     0.33819    -0.04891     0.06417
 PX  C  21  -0.00742     0.00674     0.00535    -0.00009    -0.00587    -0.00726
 PY  C  21  -0.05578    -0.00687     0.00511     0.03249    -0.02076    -0.00865
 PZ  C  21  -0.02557    -0.07164    -0.03863     0.06331     0.01387     0.05123
  
  S  C  22  -0.32503     0.01679     0.01906     0.03687    -0.00794     0.03594
 PX  C  22   0.04919     0.00872    -0.03412     0.07430    -0.00698     0.01799
 PY  C  22   0.00686     0.01314     0.03672    -0.06468     0.00023    -0.01028
 PZ  C  22  -0.02633    -0.01733     0.07308    -0.16575     0.01322    -0.04171
  
  S  C  23  -0.24316     0.00275     0.12482    -0.22411     0.01338    -0.03738
 PX  C  23  -0.09520    -0.00299     0.00632     0.00232    -0.00141     0.00640
 PY  C  23  -0.00961     0.00724     0.01428    -0.02494    -0.00034    -0.00237
 PZ  C  23   0.05984     0.00110     0.01009    -0.03653     0.00282    -0.01365
  
  S  C  24  -0.06740     0.00135     0.04059    -0.08031     0.00450    -0.01590
 PX  C  24   0.03517    -0.00087     0.00159    -0.00535     0.00050    -0.00136
 PY  C  24   0.10642    -0.00306    -0.05200     0.09515    -0.00516     0.01678
 PZ  C  24   0.03807    -0.00407    -0.06022     0.11631    -0.00676     0.02182
  
  S  O  25  -0.04805    -0.00306    -0.03927     0.08102    -0.00549     0.01703
 PX  O  25   0.00436    -0.00120    -0.01009     0.01894    -0.00108     0.00335
 PY  O  25   0.02441    -0.00113    -0.01443     0.02763    -0.00153     0.00536
 PZ  O  25   0.01467     0.00019     0.00144    -0.00151     0.00010     0.00041
  
  S  O  26   0.15696    -0.00350    -0.02939     0.04168    -0.00096     0.00333
 PX  O  26  -0.00928     0.00040    -0.00174     0.00592    -0.00047     0.00186
 PY  O  26   0.04019    -0.00200    -0.02645     0.04920    -0.00223     0.00824
 PZ  O  26   0.05316    -0.00281    -0.02532     0.04409    -0.00186     0.00657
  
  S  C  27   0.26019     0.02555     0.00922    -0.02274     0.00162    -0.00448
 PX  C  27  -0.27604    -0.02408     0.06469    -0.12759     0.00999    -0.02982
 PY  C  27  -0.17167    -0.00519     0.04674    -0.08566     0.00542    -0.01505
 PZ  C  27   0.03351     0.00594    -0.00074     0.00112    -0.00081     0.00081
  
  S  N  28   0.48719     0.04176    -0.06698     0.12844    -0.00984     0.02977
 PX  N  28   0.15572     0.01117    -0.01669     0.02878    -0.00190     0.00497
 PY  N  28   0.10268     0.01191    -0.00977     0.02021    -0.00178     0.00631
 PZ  N  28  -0.01168     0.00071     0.00275    -0.00449     0.00007    -0.00034
  
  S  C  29  -0.03384    -0.00114     0.05818    -0.00626    -0.17334     0.26057
 PX  C  29  -0.00524     0.00056    -0.04734    -0.01683    -0.00991    -0.02103
 PY  C  29  -0.02065     0.01631    -0.13471    -0.05159    -0.04407    -0.08633
 PZ  C  29   0.01638     0.00956     0.16162     0.05269     0.00910     0.03081
  
  S  C  30  -0.04890     0.00586    -0.09737    -0.01664     0.02740    -0.03967
 PX  C  30  -0.00028    -0.00028    -0.08627    -0.07735    -0.21983     0.13150
 PY  C  30   0.00185     0.00582    -0.07637    -0.02989    -0.00059    -0.09751
 PZ  C  30  -0.00327     0.00213     0.08800     0.03374    -0.00004     0.07299
  
  S  C  31  -0.03724     0.00405     0.06806     0.10624     0.33763    -0.19636
 PX  C  31  -0.00972     0.00081     0.00273     0.00175    -0.00819     0.02356
 PY  C  31  -0.00471     0.00467    -0.02535    -0.00534     0.01464    -0.04652
 PZ  C  31   0.00383     0.00209     0.03121     0.00518    -0.02326     0.03066
  
  S  C  32   0.00515     0.00425    -0.11005    -0.04742    -0.02164    -0.10183
 PX  C  32   0.01896    -0.00144    -0.01423    -0.03268    -0.10896     0.06586
 PY  C  32   0.02324    -0.00140     0.09217     0.03448     0.03130     0.01493
 PZ  C  32  -0.02441     0.00318    -0.08980    -0.03287    -0.02864    -0.02230
  
  S  C  33   0.06733    -0.00307     0.07702     0.00374    -0.04100     0.02163
 PX  C  33   0.00901    -0.00228     0.05123     0.02408     0.03238     0.01485
 PY  C  33   0.02598    -0.00188     0.16216     0.07416     0.09310     0.02860
 PZ  C  33  -0.02581     0.00267    -0.16135    -0.07436    -0.09503    -0.03026
  
  S  C  34   0.00771    -0.00198    -0.11424    -0.04713    -0.01471    -0.08587
 PX  C  34  -0.00233    -0.00088     0.06748     0.04995     0.11740    -0.04639
 PY  C  34   0.02665    -0.00026     0.07855     0.01960    -0.01057     0.03489
 PZ  C  34  -0.02683     0.00202    -0.07985    -0.02178     0.00269    -0.03698
  
  S  C  35  -0.04578    -0.00072    -0.10209    -0.01699     0.03083    -0.03284
 PX  C  35   0.00277    -0.00088     0.02621     0.05047     0.20010    -0.16736
 PY  C  35   0.00157     0.00480    -0.09777    -0.05308    -0.07513    -0.03676
 PZ  C  35  -0.00301     0.00322     0.10469     0.05114     0.05469     0.02647
  
  S  C  36  -0.03432    -0.00162     0.06425     0.10587     0.33912    -0.19683
 PX  C  36   0.00575     0.00063    -0.01941    -0.00463     0.01952    -0.04394
 PY  C  36  -0.00692     0.00314    -0.02236    -0.00404     0.01122    -0.03028
 PZ  C  36   0.00549     0.00374     0.02997     0.00445    -0.02147     0.01794
  
  S  C  37   0.09536    -0.00700     0.38215     0.15681     0.16335     0.09955
 PX  C  37  -0.00403    -0.00018    -0.00561    -0.00033     0.00264     0.00174
 PY  C  37  -0.01303     0.00078    -0.01664    -0.00125     0.00583     0.00015
 PZ  C  37   0.01330    -0.00064     0.01811     0.00166    -0.00627     0.00055
  
  S  H  38  -0.12865     0.01810     0.00250     0.03813    -0.00791     0.02380
  
  S  H  39   0.03485     0.12112    -0.01725    -0.06807     0.06488     0.07312
  
  S  H  40   0.03470     0.12658    -0.01878    -0.07587     0.07348     0.08494
  
  S  H  41   0.03485     0.12108    -0.01722    -0.06804     0.06482     0.07305
  
  S  H  42   0.02565     0.06341    -0.00585    -0.01567     0.00983     0.00127
  
  S  H  43   0.02564     0.06339    -0.00591    -0.01559     0.00985     0.00128
  
  S  H  44  -0.00255    -0.04470     0.00949     0.04287    -0.04340    -0.05183
  
  S  H  45  -0.00251    -0.04476     0.00970     0.04270    -0.04353    -0.05192
  
  S  H  46  -0.02996    -0.10836     0.01374     0.04602    -0.03801    -0.02953
  
  S  H  47  -0.03012    -0.10829     0.01308     0.04660    -0.03766    -0.02931
  
  S  H  48  -0.02850    -0.04436    -0.00166    -0.01900     0.02830     0.04577
  
  S  H  49  -0.02786    -0.04467     0.00057    -0.02093     0.02715     0.04503
  
  S  H  50   0.00200     0.07124    -0.01144    -0.05540     0.04628     0.03983
  
  S  H  51   0.00014     0.07188    -0.01828    -0.04982     0.04968     0.04180
  
  S  H  52   0.02334     0.10014    -0.01790    -0.00863     0.00738    -0.01699
  
  S  H  53   0.03235     0.09563     0.00719    -0.02987    -0.00368    -0.02327
  
  S  H  54   0.03946     0.02613     0.02994     0.04693    -0.07654    -0.07931
  
  S  H  55   0.02552     0.02709    -0.02592     0.08707    -0.05105    -0.06909
  
  S  H  56   0.02564    -0.08476    -0.13803     0.03380     0.07285     0.02786
  
  S  H  57   0.03213    -0.07125    -0.02143     0.01309     0.05174     0.14689
  
  S  H  58  -0.00242     0.09745     0.10710     0.01995    -0.12037    -0.10514
  
  S  H  59   0.08721    -0.08932     0.06496    -0.13155    -0.02184    -0.08062
  
  S  H  60   0.03728    -0.07309     0.00785    -0.08187     0.00795    -0.06365
  
  S  H  61  -0.04179     0.10477    -0.04850     0.17042    -0.04068     0.01351
  
  S  H  62   0.08996    -0.00304    -0.03111     0.05278    -0.00211     0.00752
  
  S  H  63  -0.01242    -0.00381     0.04337     0.05272     0.15535    -0.06554
  
  S  H  64  -0.01447     0.00604     0.05181     0.05258     0.14329    -0.08466
  
  S  H  65  -0.01615     0.00242     0.01529     0.04687     0.17566    -0.12751
  
  S  H  66   0.00760     0.00147     0.00303     0.01021     0.05514    -0.06915
  
  S  H  67   0.00893    -0.00175     0.00091     0.01039     0.05887    -0.06036
  
  S  H  68  -0.01151    -0.00536     0.04262     0.05244     0.15468    -0.06803
  
  S  H  69  -0.01474    -0.00074     0.01295     0.04677     0.17756    -0.12558
  
  S  H  70  -0.01340     0.00468     0.05111     0.05254     0.14274    -0.08766
  
  S  H  71   0.04103    -0.00335     0.17475     0.07389     0.08087     0.04669
  
  S  H  72   0.04082    -0.00291     0.17493     0.07384     0.08031     0.04471
  
  S  H  73   0.04103    -0.00305     0.17534     0.07366     0.07875     0.04741




    ROOT NO.   19          20          21          22          23          24

           -30.94997   -29.47255   -29.17801   -28.48860   -26.68074   -26.14459
  
  
  S  C   1   0.11972     0.01740     0.29032    -0.05262     0.12777     0.08122
 PX  C   1  -0.00995    -0.00362    -0.06871     0.01619    -0.07051    -0.05478
 PY  C   1  -0.01129    -0.00208    -0.03563     0.00718    -0.01549     0.00272
 PZ  C   1  -0.00001    -0.00000     0.00001     0.00017    -0.00002     0.00018
  
  S  C   2  -0.00324    -0.00489    -0.09726     0.02354    -0.10556    -0.09468
 PX  C   2  -0.06498    -0.00961    -0.16016     0.02809    -0.05994    -0.04388
 PY  C   2  -0.03771    -0.00599    -0.09979     0.01834    -0.02969     0.00653
 PZ  C   2  -0.00001    -0.00000     0.00008     0.00045    -0.00004     0.00046
  
  S  C   3  -0.10385    -0.01491    -0.24354     0.04301    -0.06548     0.00585
 PX  C   3  -0.02446    -0.00007     0.01157    -0.00834     0.05636     0.02480
 PY  C   3   0.00870     0.00371     0.07099    -0.01491     0.05828     0.06393
 PZ  C   3  -0.00004    -0.00000     0.00022     0.00120    -0.00008     0.00103
  
  S  C   4  -0.03699     0.00182     0.05345    -0.02260     0.10940     0.03845
 PX  C   4   0.06464     0.00988     0.16141    -0.02966     0.04033    -0.01006
 PY  C   4   0.03883     0.00749     0.12884    -0.02184     0.03734     0.04095
 PZ  C   4  -0.00022    -0.00002     0.00053     0.00311    -0.00004     0.00238
  
  S  C   5   0.09668     0.01548     0.25550    -0.03704     0.02438     0.02657
 PX  C   5   0.03949     0.00061    -0.01112     0.00879    -0.07101    -0.06769
 PY  C   5   0.00852    -0.00285    -0.05900     0.02143    -0.07751    -0.01579
 PZ  C   5  -0.00054    -0.00002     0.00178     0.00805     0.00001     0.00532
  
  S  C   6   0.06139    -0.00027    -0.04144     0.01173    -0.08712    -0.08640
 PX  C   6  -0.06135    -0.00986    -0.16271     0.01831     0.01160     0.00460
 PY  C   6  -0.02531    -0.00730    -0.12524     0.03053    -0.04702     0.01417
 PZ  C   6  -0.00138    -0.00006     0.00489     0.02073     0.00013     0.01141
  
  S  C   7  -0.06733    -0.01593    -0.25917     0.06046    -0.04455     0.02099
 PX  C   7  -0.05213    -0.00103     0.00916    -0.02030     0.10895     0.03530
 PY  C   7  -0.01369     0.00150     0.04691     0.00313     0.02286     0.03380
 PZ  C   7  -0.00505    -0.00011     0.01341     0.05575    -0.00041     0.02587
  
  S  C   8  -0.09492     0.00064     0.05594    -0.06158     0.19289     0.04699
 PX  C   8   0.03396     0.01061     0.17331    -0.05228     0.02657    -0.02137
 PY  C   8   0.02955     0.00700     0.13166    -0.00299    -0.02125    -0.03386
 PZ  C   8  -0.01414    -0.00071     0.03009     0.13695     0.00778     0.04678
  
  S  N   9   0.10335     0.00908     0.15806     0.00199     0.00010    -0.12013
 PX  N   9   0.03072     0.00059    -0.02917    -0.02477    -0.03089    -0.02046
 PY  N   9   0.07197    -0.00882    -0.17277     0.08101    -0.09154    -0.03677
 PZ  N   9  -0.06685    -0.00055     0.06857     0.31498     0.03306     0.07760
  
  S  C  10   0.12943    -0.00006    -0.07307    -0.22732    -0.19398    -0.03556
 PX  C  10   0.00085     0.00305    -0.00188     0.02531    -0.00422     0.01565
 PY  C  10   0.01878    -0.01129    -0.07486     0.16595     0.05151     0.07180
 PZ  C  10   0.09244    -0.00648    -0.07348     0.03391     0.10137    -0.06686
  
  S  C  11  -0.14264     0.01116     0.02166    -0.11627    -0.09207     0.13756
 PX  C  11  -0.01206     0.00711    -0.00030     0.04538     0.02290    -0.00138
 PY  C  11  -0.01017    -0.00473    -0.00870     0.12969     0.01870    -0.03500
 PZ  C  11   0.11101     0.00224     0.00680    -0.18471    -0.18622    -0.07251
  
  S  C  12  -0.21023    -0.00167    -0.03946     0.23790     0.25283     0.02037
 PX  C  12   0.01156     0.02642    -0.00909     0.00724     0.01592    -0.02965
 PY  C  12   0.06026    -0.01115    -0.01797     0.03509     0.01775    -0.15391
 PZ  C  12   0.01796     0.00647     0.03898     0.00247    -0.11649    -0.03182
  
  S  C  13   0.02661     0.00037     0.00162     0.05681     0.01332    -0.21321
 PX  C  13   0.00930     0.06867    -0.01527    -0.04033    -0.01436     0.01461
 PY  C  13   0.08359    -0.00942     0.00546    -0.17917    -0.12679     0.02127
 PZ  C  13   0.08684     0.01205     0.11411     0.03151    -0.11759    -0.09572
  
  S  C  14   0.14177     0.00380     0.16487    -0.01434    -0.05890    -0.06141
 PX  C  14   0.00028     0.02990    -0.00001    -0.01344    -0.01383    -0.02260
 PY  C  14  -0.01721    -0.00080     0.00968    -0.07226    -0.00731     0.00180
 PZ  C  14  -0.02669    -0.00122     0.00502    -0.01437     0.10531     0.20463
  
  S  C  15   0.07950    -0.01183    -0.05627    -0.00769     0.10850     0.18147
 PX  C  15   0.00405     0.00953     0.03956     0.00312    -0.00331     0.00112
 PY  C  15  -0.04969     0.00306     0.13445     0.00083     0.08354     0.07016
 PZ  C  15  -0.10286    -0.00184    -0.09423    -0.03017     0.16336     0.10227
  
  S  C  16  -0.24674     0.00034    -0.04793    -0.05905     0.16832     0.07359
 PX  C  16   0.00188     0.00175     0.01449    -0.01548     0.02372     0.03634
 PY  C  16  -0.07143     0.00606     0.11283    -0.10432     0.05572     0.07024
 PZ  C  16  -0.12119     0.01152     0.09136    -0.03677    -0.12887    -0.18105
  
  S  C  17  -0.11928     0.00380     0.04696     0.24257    -0.11576    -0.00957
 PX  C  17  -0.00242    -0.00008    -0.02653    -0.02006     0.02329    -0.02371
 PY  C  17  -0.08457    -0.00303    -0.12503    -0.14862     0.05700    -0.06718
 PZ  C  17  -0.08137     0.00623     0.08278    -0.05200    -0.11788     0.04581
  
  S  C  18  -0.00831     0.00233     0.06988     0.03153    -0.14422     0.18750
 PX  C  18  -0.01245     0.00113     0.00503    -0.00163    -0.01178    -0.03196
 PY  C  18   0.00925    -0.00094    -0.05551    -0.11474     0.02944    -0.12506
 PZ  C  18   0.12289    -0.00643    -0.08682    -0.16985     0.11485     0.04365
  
  S  C  19   0.27112    -0.01225    -0.14370    -0.18608     0.19372    -0.00879
 PX  C  19   0.00580     0.00041     0.00098     0.00604    -0.01324    -0.03379
 PY  C  19   0.07891    -0.00304    -0.04139     0.03837     0.07900    -0.14477
 PZ  C  19   0.08996    -0.00571    -0.04629     0.02384     0.12501     0.07028
  
  S  C  20   0.23006    -0.00507    -0.03595     0.06531    -0.00438    -0.10678
 PX  C  20  -0.01864     0.00230     0.03311     0.03761    -0.07522     0.02612
 PY  C  20  -0.00971     0.00219     0.06674     0.17556    -0.12561     0.13344
 PZ  C  20   0.18683    -0.01147    -0.10567     0.06100     0.13786     0.11122
  
  S  C  21  -0.19670     0.01315     0.15350    -0.04305    -0.06288    -0.02656
 PX  C  21   0.00194     0.00034     0.00864     0.00960    -0.00110     0.04069
 PY  C  21   0.08771    -0.00153     0.02917     0.08451    -0.05006     0.10227
 PZ  C  21   0.14624    -0.00145    -0.00870     0.08749    -0.14298    -0.11332
  
  S  C  22   0.09425    -0.00400    -0.00086     0.21017    -0.12383     0.21514
 PX  C  22   0.03906     0.00042     0.02019     0.05429    -0.10758     0.06235
 PY  C  22  -0.16150     0.00668     0.06139    -0.02837    -0.12338     0.04936
 PZ  C  22  -0.13952     0.00258    -0.00213    -0.09715     0.04203    -0.00370
  
  S  C  23  -0.25090     0.00671     0.03525    -0.11043     0.03791    -0.07876
 PX  C  23   0.03338    -0.00142    -0.00013     0.07643    -0.10245     0.14415
 PY  C  23  -0.11106     0.00582     0.05404    -0.03398    -0.14200     0.00556
 PZ  C  23  -0.10738     0.00509     0.03345    -0.10140    -0.02337    -0.10200
  
  S  C  24  -0.14503     0.00602     0.04443    -0.08110    -0.08441    -0.04596
 PX  C  24  -0.00487     0.00022     0.00260     0.00241    -0.03402     0.02841
 PY  C  24   0.13839    -0.00477    -0.03183     0.06783     0.01271     0.05352
 PZ  C  24   0.18132    -0.00666    -0.04554     0.09496     0.05222     0.06243
  
  S  O  25   0.12027    -0.00419    -0.02401     0.08197    -0.00550     0.08200
 PX  O  25   0.02877    -0.00098    -0.00631     0.01489    -0.00175     0.01518
 PY  O  25   0.04730    -0.00184    -0.01258     0.02832     0.00740     0.02759
 PZ  O  25   0.00888    -0.00065    -0.00487     0.01372     0.00348     0.02385
  
  S  O  26   0.05805    -0.00213    -0.02036     0.00116     0.06113    -0.02812
 PX  O  26   0.01815    -0.00103    -0.00842     0.01403     0.03632     0.00053
 PY  O  26   0.09454    -0.00426    -0.03650     0.03541     0.12606    -0.02405
 PZ  O  26   0.07601    -0.00308    -0.02550     0.02583     0.06181    -0.00251
  
  S  C  27  -0.07581     0.00208     0.00678    -0.05412     0.08479    -0.09418
 PX  C  27  -0.05939    -0.00017    -0.02210    -0.07994     0.14203    -0.09405
 PY  C  27  -0.10602     0.00340     0.01829    -0.06559     0.03708    -0.08878
 PZ  C  27  -0.04021     0.00225     0.02040    -0.01667    -0.03853    -0.01501
  
  S  N  28   0.04022     0.00028     0.01859     0.06740    -0.10106     0.07362
 PX  N  28   0.01290    -0.00036    -0.00211     0.00599     0.00950     0.00023
 PY  N  28  -0.01649     0.00113     0.01188     0.00244    -0.01885    -0.01095
 PZ  N  28  -0.01617     0.00082     0.00707    -0.00692    -0.01203    -0.00816
  
  S  C  29   0.01876    -0.00032    -0.10301    -0.18882    -0.06386     0.15130
 PX  C  29   0.00055     0.05520     0.00073    -0.00339    -0.01221     0.02998
 PY  C  29   0.01660    -0.00928     0.02592    -0.03014    -0.06341     0.08664
 PZ  C  29   0.02790     0.00916     0.01107    -0.01884    -0.02359    -0.11409
  
  S  C  30   0.00253     0.07421    -0.01694    -0.03829    -0.03050     0.10210
 PX  C  30   0.00652     0.07560    -0.03496    -0.05453    -0.02000     0.07090
 PY  C  30   0.00393     0.15074     0.03895     0.06895     0.00668    -0.06181
 PZ  C  30   0.01030    -0.15405    -0.02482    -0.08400    -0.03828     0.04934
  
  S  C  31  -0.00908    -0.24088     0.03826     0.02513    -0.00036    -0.01992
 PX  C  31   0.00299     0.02652    -0.01626    -0.02801    -0.01232     0.03649
 PY  C  31   0.00527     0.05872     0.01352     0.01249    -0.01084    -0.00733
 PZ  C  31   0.00628    -0.05954    -0.00322    -0.02479    -0.01385    -0.00159
  
  S  C  32   0.00079     0.43484     0.02879     0.11241     0.04444    -0.12365
 PX  C  32   0.00161    -0.02290    -0.00473    -0.00459     0.00746    -0.02696
 PY  C  32   0.00286     0.03224    -0.00137     0.00514     0.00983    -0.05676
 PZ  C  32   0.00051    -0.03152     0.00471    -0.00956    -0.01921     0.05574
  
  S  C  33  -0.00007     0.00133     0.02151     0.05654     0.04155    -0.14701
 PX  C  33  -0.00386    -0.33275     0.01115    -0.02194    -0.00911     0.01375
 PY  C  33   0.00479     0.06097    -0.02886    -0.04926    -0.01853     0.04570
 PZ  C  33  -0.00301    -0.04561     0.02930     0.04716     0.01411    -0.04619
  
  S  C  34  -0.01408    -0.43412     0.07827     0.09870     0.03800    -0.12586
 PX  C  34  -0.00242    -0.04028     0.00676     0.00784     0.00262    -0.00981
 PY  C  34   0.00393    -0.01953     0.00045     0.00091     0.00934    -0.06007
 PZ  C  34  -0.00041     0.02210     0.00232    -0.00583    -0.01829     0.05825
  
  S  C  35  -0.00278    -0.07571    -0.00953    -0.03951    -0.03284     0.10070
 PX  C  35  -0.01056    -0.02443     0.05226     0.09694     0.03536    -0.09658
 PY  C  35   0.00119    -0.15927     0.04134     0.03709    -0.00316    -0.03136
 PZ  C  35   0.01364     0.16183    -0.03115    -0.05877    -0.03013     0.02649
  
  S  C  36  -0.00699     0.24012     0.00684     0.03760     0.01154    -0.01590
 PX  C  36  -0.00409    -0.01179     0.02017     0.03777     0.01639    -0.03299
 PY  C  36   0.00295    -0.06110     0.01331     0.00011    -0.01407     0.00571
 PZ  C  36   0.00847     0.06256    -0.00436    -0.01480    -0.01022    -0.01119
  
  S  C  37   0.00823     0.00049    -0.06748    -0.13367    -0.05877     0.18786
 PX  C  37  -0.00145    -0.11732     0.00342    -0.01152    -0.00871     0.02664
 PY  C  37   0.00091     0.02170    -0.01232    -0.02899    -0.02325     0.08448
 PZ  C  37  -0.00037    -0.01627     0.01165     0.02687     0.02105    -0.08192
  
  S  H  38   0.01226     0.00060     0.03226     0.12131    -0.16096     0.15532
  
  S  H  39   0.05534     0.00844     0.14258    -0.02665     0.07320     0.05341
  
  S  H  40   0.06521     0.01023     0.17340    -0.03276     0.08625     0.04985
  
  S  H  41   0.05528     0.00843     0.14245    -0.02641     0.07310     0.05364
  
  S  H  42  -0.00375    -0.00247    -0.04855     0.01151    -0.05312    -0.05716
  
  S  H  43  -0.00373    -0.00247    -0.04866     0.01094    -0.05309    -0.05775
  
  S  H  44  -0.03958    -0.00564    -0.09156     0.01612    -0.02359     0.01922
  
  S  H  45  -0.03966    -0.00564    -0.09129     0.01762    -0.02363     0.02050
  
  S  H  46  -0.01548     0.00061     0.01917    -0.00822     0.04773     0.00187
  
  S  H  47  -0.01528     0.00062     0.01835    -0.01208     0.04776    -0.00106
  
  S  H  48   0.03916     0.00611     0.10037    -0.01679     0.00101     0.02056
  
  S  H  49   0.03850     0.00608     0.10262    -0.00666     0.00094     0.02717
  
  S  H  50   0.02172    -0.00000    -0.01197     0.01175    -0.02055    -0.03695
  
  S  H  51   0.02342     0.00010    -0.01770    -0.01400    -0.02084    -0.05101
  
  S  H  52  -0.02154    -0.00671    -0.11584     0.00012    -0.04057    -0.00011
  
  S  H  53  -0.02796    -0.00674    -0.09838     0.06921    -0.04273     0.03325
  
  S  H  54  -0.05349     0.00020     0.04075     0.03273     0.10235     0.05996
  
  S  H  55  -0.04195     0.00126     0.00976    -0.11519     0.09426     0.00883
  
  S  H  56  -0.08322     0.00702     0.01505    -0.10616    -0.02194     0.10199
  
  S  H  57  -0.12069    -0.00262    -0.04068     0.11129     0.19363     0.05427
  
  S  H  58   0.05308     0.00472     0.09042    -0.05328    -0.01952     0.00788
  
  S  H  59   0.01027     0.00033     0.04888     0.04978    -0.06206     0.17945
  
  S  H  60   0.16989    -0.00893    -0.09332    -0.08468     0.16689     0.05663
  
  S  H  61  -0.07398     0.00610     0.09769     0.01152    -0.03874     0.07638
  
  S  H  62   0.09064    -0.00380    -0.03251     0.02873     0.09836    -0.01653
  
  S  H  63  -0.01258    -0.14809     0.01089     0.01601     0.01710    -0.01031
  
  S  H  64   0.00244    -0.14752     0.02236    -0.00024    -0.01156    -0.01840
  
  S  H  65  -0.00560    -0.07961     0.03062     0.03760     0.00690    -0.03105
  
  S  H  66   0.00034     0.24204     0.01433     0.06076     0.02628    -0.07954
  
  S  H  67  -0.00786    -0.24155     0.04184     0.05326     0.02342    -0.08060
  
  S  H  68  -0.00896     0.14784    -0.00745     0.02125     0.02049    -0.00885
  
  S  H  69  -0.00674     0.07926     0.01867     0.04396     0.01573    -0.02804
  
  S  H  70   0.00527     0.14762     0.00486     0.00631    -0.00579    -0.01649
  
  S  H  71   0.00298    -0.06287    -0.03135    -0.07271    -0.03548     0.11643
  
  S  H  72   0.00475     0.06713    -0.03901    -0.07017    -0.03398     0.11684
  
  S  H  73   0.00418    -0.00374    -0.03535    -0.07366    -0.03654     0.11842




    ROOT NO.   25          26          27          28          29          30

           -26.06939   -25.27628   -25.13986   -24.39666   -24.23583   -23.93228
  
  
  S  C   1  -0.09693    -0.15253    -0.13456     0.00685     0.06259    -0.05746
 PX  C   1   0.07992     0.12472     0.11233    -0.02835    -0.06234     0.06804
 PY  C   1  -0.06102     0.00483     0.01127     0.12144    -0.02239    -0.01710
 PZ  C   1   0.00002     0.00027    -0.00019     0.00001    -0.00095    -0.00013
  
  S  C   2   0.20458     0.18094     0.15277    -0.14878    -0.06002     0.09765
 PX  C   2   0.09630     0.05519     0.04107    -0.06446     0.00089     0.01263
 PY  C   2  -0.11097    -0.00540     0.00574     0.20813    -0.02561    -0.04208
 PZ  C   2   0.00004     0.00061    -0.00047     0.00000    -0.00205    -0.00029
  
  S  C   3  -0.19804     0.01396     0.03031     0.27772    -0.04659    -0.03754
 PX  C   3   0.05838    -0.08966    -0.09407    -0.18169     0.08359    -0.02381
 PY  C   3  -0.19882    -0.08120    -0.05802     0.13023     0.00072    -0.02895
 PZ  C   3   0.00020     0.00127    -0.00102    -0.00010    -0.00391    -0.00057
  
  S  C   4   0.15532    -0.16633    -0.17195    -0.21252     0.12795    -0.06376
 PX  C   4   0.15290    -0.00646    -0.01467    -0.08086     0.00857     0.01016
 PY  C   4  -0.17532     0.00683     0.02547     0.09493    -0.05507     0.04000
 PZ  C   4   0.00042     0.00236    -0.00233    -0.00048    -0.00709    -0.00110
  
  S  C   5  -0.18389     0.09069     0.10041    -0.03170    -0.07814     0.10073
 PX  C   5   0.17242     0.08312     0.06572     0.05173    -0.02540    -0.01140
 PY  C   5  -0.16574     0.11312     0.11304     0.01914    -0.05387     0.05140
 PZ  C   5   0.00127     0.00475    -0.00486    -0.00125    -0.01289    -0.00201
  
  S  C   6   0.24476     0.06375     0.05376     0.24448    -0.05260    -0.04057
 PX  C   6   0.08033    -0.10166    -0.09495     0.09523     0.03952    -0.06257
 PY  C   6  -0.19867     0.02069     0.02000    -0.11158     0.03201     0.00965
 PZ  C   6   0.00304     0.00976    -0.00981    -0.00249    -0.02377    -0.00325
  
  S  C   7  -0.21569    -0.04226    -0.05194    -0.25536     0.11075    -0.03400
 PX  C   7   0.08325    -0.11720    -0.09891     0.04957    -0.00267     0.00297
 PY  C   7  -0.14757     0.00639    -0.00334    -0.22780     0.04499     0.01766
 PZ  C   7   0.00671     0.02125    -0.02063    -0.00455    -0.04182    -0.00556
  
  S  C   8   0.07911    -0.12894    -0.07857     0.10001    -0.07027     0.06946
 PX  C   8   0.08527     0.06616     0.08171     0.13809    -0.09150     0.04962
 PY  C   8  -0.08690     0.10904     0.09691    -0.14143    -0.01627     0.02324
 PZ  C   8   0.01296     0.04180    -0.04662    -0.00640    -0.07297     0.00530
  
  S  N   9  -0.00040     0.09258     0.14191    -0.00498    -0.06997     0.02329
 PX  N   9   0.04563    -0.00927     0.01667     0.08797    -0.00788    -0.02046
 PY  N   9  -0.02278    -0.02604    -0.02431    -0.01819     0.07389    -0.06949
 PZ  N   9   0.02360     0.11044    -0.11304     0.01557    -0.03565     0.07523
  
  S  C  10  -0.01667    -0.07732    -0.04866    -0.02679    -0.05963    -0.11507
 PX  C  10   0.01986    -0.00808    -0.03290     0.02671    -0.04052     0.00534
 PY  C  10   0.00777    -0.08009    -0.13396    -0.03082    -0.15633     0.02141
 PZ  C  10  -0.00271    -0.05972     0.12573    -0.00888    -0.02836    -0.00586
  
  S  C  11   0.01690     0.15559    -0.02421     0.04892     0.22295     0.01867
 PX  C  11   0.00662    -0.00541    -0.00492     0.00402    -0.03673     0.01509
 PY  C  11  -0.01010    -0.06481    -0.07451    -0.04616    -0.18745     0.00448
 PZ  C  11  -0.01970    -0.07115    -0.08153    -0.01864    -0.06573    -0.09421
  
  S  C  12   0.01123    -0.00744     0.12968    -0.01842    -0.06654     0.04337
 PX  C  12  -0.00203    -0.03088     0.01656    -0.00405    -0.03099     0.00129
 PY  C  12  -0.02322    -0.14740     0.01034    -0.03989    -0.16859    -0.07323
 PZ  C  12  -0.00985     0.00030    -0.13244    -0.00374    -0.04178     0.00973
  
  S  C  13  -0.02889    -0.09954     0.04405     0.00044    -0.00057    -0.04395
 PX  C  13   0.00266     0.01088     0.00750     0.01163     0.04687     0.05639
 PY  C  13   0.00062     0.07091    -0.00780     0.04750     0.21617    -0.02708
 PZ  C  13  -0.01497     0.04403    -0.08796     0.02118     0.05051     0.07350
  
  S  C  14  -0.00471     0.11320     0.03648     0.04410     0.16934     0.07957
 PX  C  14  -0.00145     0.00939     0.01280     0.01466     0.05131     0.01495
 PY  C  14   0.00205     0.08071     0.09023     0.04218     0.21239    -0.00084
 PZ  C  14   0.03262     0.07113     0.06197    -0.01489    -0.04794     0.02533
  
  S  C  15   0.02831    -0.03058     0.00317    -0.02352    -0.10801     0.00784
 PX  C  15   0.00700     0.02694     0.01080     0.01343     0.00355     0.01883
 PY  C  15   0.01504     0.13350     0.10445     0.01920     0.09307     0.06224
 PZ  C  15   0.02030     0.01002     0.12447     0.02179     0.11193    -0.01345
  
  S  C  16   0.01294    -0.00169     0.03038     0.03150     0.10625     0.03528
 PX  C  16   0.01212     0.01484     0.04673     0.00128    -0.02584    -0.01679
 PY  C  16   0.00491     0.08029     0.14210    -0.04755    -0.09204    -0.07282
 PZ  C  16  -0.03132     0.00018    -0.10203     0.01495     0.02581     0.03062
  
  S  C  17   0.00880     0.07519    -0.17306     0.05929     0.13027     0.05547
 PX  C  17   0.01788    -0.02229     0.00427     0.04268     0.00680     0.01947
 PY  C  17  -0.01607    -0.12848    -0.05056     0.03249     0.10782     0.05699
 PZ  C  17   0.01014     0.00474    -0.06943     0.02190     0.02966    -0.03167
  
  S  C  18   0.03853     0.02524     0.07367    -0.00934    -0.02040    -0.16868
 PX  C  18   0.00487    -0.00971    -0.02891     0.02566     0.01538     0.03460
 PY  C  18  -0.02414    -0.08080    -0.02997     0.01470     0.04664     0.10893
 PZ  C  18   0.00607    -0.08190     0.21585    -0.04537    -0.09163    -0.07231
  
  S  C  19  -0.00467    -0.06780     0.17446    -0.03188    -0.05379     0.05438
 PX  C  19  -0.00312    -0.01948    -0.02716     0.00930     0.00258     0.04132
 PY  C  19  -0.02954     0.03537    -0.15011     0.02139     0.03524     0.16187
 PZ  C  19   0.01139     0.04929     0.08864    -0.01476    -0.01765    -0.02187
  
  S  C  20  -0.02143    -0.00994    -0.08586    -0.01161    -0.06118     0.07394
 PX  C  20   0.00771    -0.03910     0.02454    -0.00573    -0.02523    -0.02411
 PY  C  20   0.02733     0.04929    -0.00555    -0.00181    -0.00828    -0.14342
 PZ  C  20   0.02257     0.03613     0.02123     0.03421     0.10793     0.05159
  
  S  C  21  -0.01087     0.06083     0.07784    -0.06133    -0.15306    -0.13718
 PX  C  21   0.00967     0.00461     0.04153    -0.00292    -0.01123    -0.02597
 PY  C  21   0.01832     0.04340     0.08024    -0.03608    -0.08590    -0.12605
 PZ  C  21  -0.01874    -0.06434    -0.11955    -0.00879    -0.07127     0.02514
  
  S  C  22   0.04941    -0.08863     0.04041     0.05160     0.15151    -0.00201
 PX  C  22   0.01609    -0.12112     0.07818    -0.00593    -0.01548     0.01187
 PY  C  22   0.01308    -0.12071     0.08615    -0.00004     0.01268    -0.00888
 PZ  C  22  -0.00028    -0.03026     0.03483     0.01707     0.06422     0.04703
  
  S  C  23  -0.01805     0.07832    -0.05531    -0.00459    -0.01807    -0.03817
 PX  C  23   0.03487    -0.19046     0.12675     0.03034     0.10799     0.09243
[...]
 
          WALL-CLOCK TIME         =  8 MINUTES AND 19.633 SECONDS
          COMPUTATION TIME        =  9 MINUTES AND  0.753 SECONDS




   ATOM   CHEMICAL          X               Y               Z
  NUMBER   SYMBOL      (ANGSTROMS)     (ANGSTROMS)     (ANGSTROMS)
 
     1       C          0.00000000  *   0.00000000  *   0.00000000  *
     2       C          1.51999322  *   0.00000000  *   0.00000000  *
     3       C          2.06073049  *   1.42770361  *   0.00000000  *
     4       C          3.58762312  *   1.42898056  *  -0.00187944  *
     5       C          4.12593044  *   2.85803833  *  -0.00164473  *
     6       C          5.65310924  *   2.85924077  *  -0.00314177  *
     7       C          6.18674657  *   4.28887153  *  -0.00477629  *
     8       C          7.72239355  *   4.27548611  *  -0.00027876  *
     9       N          8.27470775  *   5.62797280  *   0.00457517  *
    10       C          8.50565985  *   6.42074302  *  -1.14288222  *
    11       C          8.56805495  *   6.04629976  *  -2.48227705  *
    12       C          8.87367217  *   7.03346951  *  -3.40605832  *
    13       C          9.11205807  *   8.35611445  *  -3.01051888  *
    14       C          9.04749121  *   8.73457935  *  -1.67565855  *
    15       C          8.73808850  *   7.76275798  *  -0.73830831  *
    16       C          8.57893393  *   7.80690140  *   0.69310596  *
    17       C          8.25402797  *   6.48616444  *   1.11627619  *
    18       C          8.02247160  *   6.19201257  *   2.45929221  *
    19       C          8.11231513  *   7.23362406  *   3.36640766  *
    20       C          8.42684824  *   8.53682924  *   2.95384046  *
    21       C          8.67963504  *   8.83047003  *   1.61495726  *
    22       C          8.51505109  *   9.61044952  *   3.92876622  *
    23       C          7.58293651  *   9.81315518  *   4.87563431  *
    24       C          7.68338739  *  10.86842745  *   5.89426419  *
    25       O          7.10841729  *  10.91867872  *   6.96840472  *
    26       O          8.52221723  *  11.87175982  *   5.54855553  *
    27       C          6.40273154  *   9.02965187  *   4.96790529  *
    28       N          5.43685755  *   8.39968147  *   5.05251244  *
    29       C          9.43429586  *   9.35700443  *  -4.02909279  *
    30       C          8.40867178  *  10.04745955  *  -4.67337404  *
    31       C          6.99318184  *   9.76295258  *  -4.31964687  *
    32       C          8.71824141  *  10.99775499  *  -5.64100800  *
    33       C         10.04643196  *  11.25601556  *  -5.96457525  *
    34       C         11.06913165  *  10.56770472  *  -5.31885726  *
    35       C         10.76613307  *   9.61640621  *  -4.35067563  *
    36       C         11.85001514  *   8.87315384  *  -3.65608296  *
    37       C         10.37810610  *  12.28417147  *  -6.98653924  *
    38       H          9.39528447  *  10.26394079  *   3.84785212  *
    39       H         -0.41717050  *   0.50364839  *  -0.88395057  *
    40       H         -0.40912200  *  -1.02071686  *   0.00304128  *
    41       H         -0.41716358  *   0.50888565  *   0.88096055  *
    42       H          1.90213569  *  -0.56111270  *   0.87898677  *
    43       H          1.90228498  *  -0.56149671  *  -0.87866269  *
    44       H          1.67179327  *   1.98540763  *  -0.87808651  *
    45       H          1.67413731  *   1.98441754  *   0.87978109  *
    46       H          3.97454645  *   0.87038357  *   0.87657698  *
    47       H          3.97253857  *   0.87106862  *  -0.88164671  *
    48       H          3.73877994  *   3.41657858  *  -0.88004800  *
    49       H          3.74058912  *   3.41572019  *   0.87816355  *
    50       H          6.03943584  *   2.30230912  *   0.87684335  *
    51       H          6.03853002  *   2.30078888  *  -0.88252624  *
    52       H          5.80756118  *   4.84857530  *  -0.88573175  *
    53       H          5.80410721  *   4.85228877  *   0.87305009  *
    54       H          8.11517056  *   3.72867676  *   0.88899116  *
    55       H          8.12261467  *   3.72298786  *  -0.88124636  *
    56       H          8.38425804  *   5.01968145  *  -2.80394887  *
    57       H          8.93028401  *   6.77747847  *  -4.46916339  *
    58       H          9.23299923  *   9.76653078  *  -1.36751629  *
    59       H          7.77368991  *   5.18174681  *   2.79071863  *
    60       H          7.95351798  *   7.02387677  *   4.42997492  *
    61       H          8.93735600  *   9.84277585  *   1.29098274  *
    62       H          8.55913013  *  12.54791998  *   6.23996813  *
    63       H          6.73902963  *   8.70710167  *  -4.50234821  *
    64       H          6.80017553  *   9.95569362  *  -3.25270718  *
    65       H          6.26806745  *  10.36512032  *  -4.88582809  *
    66       H          7.91764419  *  11.54380834  *  -6.14860227  *
    67       H         12.11178461  *  10.77769402  *  -5.57484213  *
    68       H         11.74944202  *   7.78647702  *  -3.80361931  *
    69       H         12.85926628  *   9.14616953  *  -3.99639351  *
    70       H         11.82349613  *   9.04938000  *  -2.56933819  *
    71       H         11.28814624  *  12.04027166  *  -7.55481058  *
    72       H          9.57901932  *  12.42495862  *  -7.72941690  *
    73       H         10.54986413  *  13.26368700  *  -6.51404287  *

                             CARTESIAN COORDINATES

   1    C        0.000000000     0.000000000     0.000000000
   2    C        1.519993224     0.000000000     0.000000000
   3    C        2.060730489     1.427703609     0.000000000
   4    C        3.587623121     1.428980558    -0.001879443
   5    C        4.125930438     2.858038328    -0.001644734
   6    C        5.653109239     2.859240773    -0.003141768
   7    C        6.186746571     4.288871533    -0.004776295
   8    C        7.722393552     4.275486106    -0.000278757
   9    N        8.274707746     5.627972800     0.004575170
  10    C        8.505659848     6.420743017    -1.142882223
  11    C        8.568054950     6.046299756    -2.482277050
  12    C        8.873672170     7.033469511    -3.406058318
  13    C        9.112058074     8.356114448    -3.010518883
  14    C        9.047491205     8.734579353    -1.675658546
  15    C        8.738088501     7.762757976    -0.738308306
  16    C        8.578933927     7.806901404     0.693105959
  17    C        8.254027970     6.486164435     1.116276190
  18    C        8.022471603     6.192012570     2.459292206
  19    C        8.112315133     7.233624058     3.366407662
  20    C        8.426848240     8.536829240     2.953840462
  21    C        8.679635039     8.830470030     1.614957260
  22    C        8.515051094     9.610449519     3.928766215
  23    C        7.582936507     9.813155178     4.875634312
  24    C        7.683387394    10.868427450     5.894264188
  25    O        7.108417288    10.918678720     6.968404718
  26    O        8.522217227    11.871759820     5.548555526
  27    C        6.402731542     9.029651868     4.967905295
  28    N        5.436857548     8.399681469     5.052512444
  29    C        9.434295865     9.357004427    -4.029092788
  30    C        8.408671782    10.047459550    -4.673374043
  31    C        6.993181842     9.762952582    -4.319646865
  32    C        8.718241413    10.997754990    -5.641008002
  33    C       10.046431960    11.256015560    -5.964575248
  34    C       11.069131650    10.567704720    -5.318857264
  35    C       10.766133070     9.616406207    -4.350675629
  36    C       11.850015140     8.873153840    -3.656082958
  37    C       10.378106100    12.284171470    -6.986539238
  38    H        9.395284472    10.263940790     3.847852122
  39    H       -0.417170502     0.503648394    -0.883950569
  40    H       -0.409121995    -1.020716864     0.003041280
  41    H       -0.417163577     0.508885646     0.880960553
  42    H        1.902135687    -0.561112705     0.878986774
  43    H        1.902284983    -0.561496713    -0.878662691
  44    H        1.671793268     1.985407631    -0.878086508
  45    H        1.674137310     1.984417544     0.879781086
  46    H        3.974546450     0.870383573     0.876576985
  47    H        3.972538575     0.871068620    -0.881646712
  48    H        3.738779936     3.416578578    -0.880048003
  49    H        3.740589121     3.415720187     0.878163552
  50    H        6.039435838     2.302309119     0.876843352
  51    H        6.038530019     2.300788877    -0.882526244
  52    H        5.807561182     4.848575300    -0.885731749
  53    H        5.804107208     4.852288767     0.873050086
  54    H        8.115170561     3.728676758     0.888991162
  55    H        8.122614670     3.722987859    -0.881246361
  56    H        8.384258039     5.019681452    -2.803948869
  57    H        8.930284006     6.777478467    -4.469163390
  58    H        9.232999228     9.766530780    -1.367516293
  59    H        7.773689911     5.181746813     2.790718627
  60    H        7.953517984     7.023876774     4.429974919
  61    H        8.937356001     9.842775855     1.290982740
  62    H        8.559130132    12.547919980     6.239968131
  63    H        6.739029626     8.707101667    -4.502348210
  64    H        6.800175529     9.955693622    -3.252707182
  65    H        6.268067447    10.365120320    -4.885828095
  66    H        7.917644189    11.543808340    -6.148602269
  67    H       12.111784610    10.777694020    -5.574842134
  68    H       11.749442020     7.786477022    -3.803619309
  69    H       12.859266280     9.146169530    -3.996393512
  70    H       11.823496130     9.049380001    -2.569338195
  71    H       11.288146240    12.040271660    -7.554810580
  72    H        9.579019316    12.424958620    -7.729416897
  73    H       10.549864130    13.263687000    -6.514042874


           Empirical Formula: C33 H36 N2 O2  =    73 atoms



      MOLECULAR POINT GROUP   :   C1  


                  EIGENVALUES  
 -48.65154 -46.79905 -45.61634 -43.55559 -43.03817 -42.20837 -40.25025 -39.55649
 -38.94753 -38.11317 -37.77881 -37.01846 -36.32955 -34.88131 -33.64371 -32.91323
 -32.39252 -31.50757 -30.94997 -29.47255 -29.17801 -28.48860 -26.68074 -26.14459
 -26.06939 -25.27628 -25.13986 -24.39666 -24.23583 -23.93228 -23.91661 -23.37885
 -22.83344 -21.56630 -21.40224 -20.97720 -20.60650 -20.41199 -20.03719 -19.45972
 -18.97427 -18.73736 -18.30171 -17.71827 -17.48290 -17.29377 -17.13486 -16.92982
 -16.65054 -16.58430 -16.55721 -16.54185 -16.11740 -15.94902 -15.78634 -15.64167
 -15.50005 -15.45773 -15.31446 -15.15318 -14.94021 -14.80204 -14.69639 -14.63245
 -14.38063 -14.15273 -13.76276 -13.66659 -13.49397 -13.43955 -13.33155 -13.23437
 -13.18244 -12.98335 -12.75524 -12.71381 -12.49209 -12.42884 -12.33468 -12.11653
 -12.10376 -12.02477 -11.87268 -11.74719 -11.64268 -11.22491 -10.91754 -10.79387
 -10.10675  -9.75820  -8.85067  -8.58942  -8.15630  -7.76816  -7.51091  -0.80757
   0.07936   0.63839   0.86436   0.93048   0.97155   1.11152   1.40891   1.78828
   2.15018   2.49358   2.72535   2.77378   2.91694   2.99994   3.18054   3.21307
   3.33340   3.38404   3.54712   3.63629   3.79766   3.82087   3.86007   4.03701
   4.04133   4.20389   4.31543   4.45854   4.52254   4.71945   4.74491   4.78673
   4.85762   5.10060   5.32361   5.51369   5.79285   6.06354   6.19406   6.27338
   6.42848   6.44090   6.48969   6.55621   6.69395   6.75238   6.76807   6.77409
   6.79310   6.87689   6.93795   6.96009   6.98252   6.98790   6.98824   6.99447
   7.01042   7.02381   7.09551   7.99137   7.99700   8.17421   8.42730   8.49914
   8.62588   8.65946   8.87733   9.02466   9.46768   9.73234   9.86243   9.99482
  10.14159  10.71438  10.95090  11.34607  11.49858  11.76825  11.90212  12.57828
  12.66492  12.82017  12.88472  13.00887  13.31988  13.98296  14.18114  15.13627


              NET ATOMIC CHARGES AND DIPOLE CONTRIBUTIONS

  ATOM NO.   TYPE          CHARGE      No. of ELECS.   s-Pop       p-Pop       
    1          C          -0.027919        4.0279     1.05492     2.97300
    2          C          -0.007016        4.0070     1.04479     2.96222
    3          C          -0.008621        4.0086     1.05053     2.95809
    4          C          -0.011408        4.0114     1.05212     2.95929
    5          C          -0.011296        4.0113     1.05199     2.95930
    6          C          -0.011610        4.0116     1.05112     2.96049
    7          C          -0.004401        4.0044     1.05259     2.95181
    8          C           0.073606        3.9264     1.04941     2.87699
    9          N          -0.155961        5.1560     1.25525     3.90071
   10          C           0.063591        3.9364     1.04930     2.88711
   11          C          -0.038437        4.0384     1.07883     2.95961
   12          C          -0.037400        4.0374     1.07838     2.95902
   13          C           0.025546        3.9745     1.04998     2.92448
   14          C          -0.037070        4.0371     1.07643     2.96064
   15          C          -0.014201        4.0142     1.05092     2.96328
   16          C          -0.013498        4.0135     1.04920     2.96430
   17          C           0.089764        3.9102     1.05220     2.85803
   18          C          -0.040972        4.0410     1.07718     2.96379
   19          C          -0.009501        4.0095     1.08304     2.92646
   20          C          -0.005336        4.0053     1.03593     2.96941
   21          C          -0.009059        4.0091     1.08035     2.92871
   22          C           0.121630        3.8784     1.10410     2.77427
   23          C           0.019402        3.9806     1.00330     2.97730
   24          C           0.502971        3.4970     1.04604     2.45099
   25          O          -0.589926        6.5899     1.81518     4.77474
   26          O          -0.311802        6.3118     1.68865     4.62316
   27          C           0.214040        3.7860     1.15011     2.63585
   28          N          -0.389263        5.3893     1.75352     3.63574
   29          C          -0.003154        4.0032     1.04572     2.95744
   30          C           0.009554        3.9904     1.05055     2.93989
   31          C          -0.017075        4.0171     1.05079     2.96629
   32          C          -0.058639        4.0586     1.08009     2.97855
   33          C           0.011527        3.9885     1.05146     2.93701
   34          C          -0.058943        4.0589     1.07999     2.97895
   35          C           0.008937        3.9911     1.05047     2.94059
   36          C          -0.017064        4.0171     1.05083     2.96624
   37          C          -0.018000        4.0180     1.04961     2.96839
   38          H           0.064578        0.9354     0.93542
   39          H           0.007746        0.9923     0.99225
   40          H           0.000456        0.9995     0.99954
   41          H           0.008040        0.9920     0.99196
   42          H           0.006303        0.9937     0.99370
   43          H           0.006012        0.9940     0.99399
   44          H           0.006814        0.9932     0.99319
   45          H           0.007237        0.9928     0.99276
   46          H           0.006811        0.9932     0.99319
   47          H           0.006443        0.9936     0.99356
   48          H           0.006642        0.9934     0.99336
   49          H           0.007211        0.9928     0.99279
   50          H           0.008448        0.9916     0.99155
   51          H           0.007943        0.9921     0.99206
   52          H           0.011297        0.9887     0.98870
   53          H           0.012217        0.9878     0.98778
   54          H           0.019641        0.9804     0.98036
   55          H           0.020401        0.9796     0.97960
   56          H           0.026411        0.9736     0.97359
   57          H           0.020328        0.9797     0.97967
   58          H           0.024879        0.9751     0.97512
   59          H           0.029951        0.9700     0.97005
   60          H           0.030517        0.9695     0.96948
   61          H           0.031906        0.9681     0.96809
   62          H           0.246504        0.7535     0.75350
   63          H           0.016554        0.9834     0.98345
   64          H           0.016478        0.9835     0.98352
   65          H           0.003563        0.9964     0.99644
   66          H           0.017049        0.9830     0.98295
   67          H           0.016923        0.9831     0.98308
   68          H           0.015997        0.9840     0.98400
   69          H           0.003464        0.9965     0.99654
   70          H           0.016275        0.9837     0.98372
   71          H           0.009120        0.9909     0.99088
   72          H           0.008031        0.9920     0.99197
   73          H           0.018810        0.9812     0.98119
 DIPOLE           X         Y         Z       TOTAL
 POINT-CHG.     5.108    -1.468    -5.920     7.956
 HYBRID         0.507     1.006     0.463     1.219
 SUM            5.615    -0.461    -5.457     7.844


          ATOMIC ORBITAL ELECTRON POPULATIONS

     Atom    s        px        py        pz   
    1  C   1.05492   0.99071   0.98901   0.99328
    2  C   1.04479   0.99106   0.98545   0.98572
    3  C   1.05053   0.99073   0.98021   0.98715
    4  C   1.05212   0.99067   0.98217   0.98644
    5  C   1.05199   0.98913   0.98338   0.98680
    6  C   1.05112   0.99286   0.97988   0.98775
    7  C   1.05259   0.97189   0.98871   0.99121
    8  C   1.04941   0.99288   0.88651   0.99760
    9  N   1.25525   1.66715   1.12246   1.11110
   10  C   1.04930   1.01424   0.96279   0.91009
   11  C   1.07883   1.03210   0.95323   0.97429
   12  C   1.07838   1.03320   0.97858   0.94725
   13  C   1.04998   0.95998   0.98048   0.98402
   14  C   1.07643   1.03956   0.94840   0.97268
   15  C   1.05092   1.02091   0.98150   0.96087
   16  C   1.04920   1.02549   0.97374   0.96507
   17  C   1.05220   0.97544   0.96128   0.92131
   18  C   1.07718   1.04047   0.95415   0.96917
   19  C   1.08304   0.98854   0.98222   0.95569
   20  C   1.03593   1.03935   0.96383   0.96622
   21  C   1.08035   0.99393   0.95443   0.98034
   22  C   1.10410   0.93817   0.93022   0.90588
   23  C   1.00330   0.97537   1.00090   1.00103
   24  C   1.04604   0.73725   0.83927   0.87446
   25  O   1.81518   1.55932   1.86822   1.34721
   26  O   1.68865   1.67011   1.35791   1.59514
   27  C   1.15011   0.92103   0.86825   0.84658
   28  N   1.75352   1.22675   1.21969   1.18930
   29  C   1.04572   0.97196   0.99351   0.99196
   30  C   1.05055   0.97253   0.98478   0.98258
   31  C   1.05079   0.98268   0.99164   0.99197
   32  C   1.08009   0.95412   1.01188   1.01255
   33  C   1.05146   0.99965   0.96646   0.97090
   34  C   1.07999   0.93986   1.02095   1.01815
   35  C   1.05047   0.97603   0.98244   0.98212
   36  C   1.05083   0.98112   0.99250   0.99262
   37  C   1.04961   0.99032   0.99298   0.98510
   38  H   0.93542
   39  H   0.99225
   40  H   0.99954
   41  H   0.99196
   42  H   0.99370
   43  H   0.99399
   44  H   0.99319
   45  H   0.99276
   46  H   0.99319
   47  H   0.99356
   48  H   0.99336
   49  H   0.99279
   50  H   0.99155
   51  H   0.99206
   52  H   0.98870
   53  H   0.98778
   54  H   0.98036
   55  H   0.97960
   56  H   0.97359
   57  H   0.97967
   58  H   0.97512
   59  H   0.97005
   60  H   0.96948
   61  H   0.96809
   62  H   0.75350
   63  H   0.98345
   64  H   0.98352
   65  H   0.99644
   66  H   0.98295
   67  H   0.98308
   68  H   0.98400
   69  H   0.99654
   70  H   0.98372
   71  H   0.99088
   72  H   0.99197
   73  H   0.98119

 **********************
 *                    *
 * JOB ENDED NORMALLY *
 *                    *
 **********************



 TOTAL JOB TIME:           499.97 SECONDS

 == MOPAC DONE ==
