 *******************************************************************************
 ** Site#: 4824         For non-commercial use only    Version 21.013L 64BITS **
 *******************************************************************************
 ** Cite this program as: MOPAC2016, Version: 21.013L, James J. P. Stewart,   **
 ** Stewart Computational Chemistry, web: HTTP://OpenMOPAC.net. Days left:  84**
 *******************************************************************************
 **                                                                           **
 **                                MOPAC2016                                  **
 **                                                                           **
 *******************************************************************************

                              INDO CALCULATION RESULTS

 *******************************************************************************
 *  CALCULATION DONE:                                Thu Oct 21 11:51:14 2021  *
 *  INDO       - The INDO Hamiltonian to be used
 *  CIS        - C.I. USES 1 ELECTRON EXCITATIONS ONLY
 *  EPS=  4.81 - USE ANDREAS KLAMT'S COSMO IMPLICIT SOLVATION MODEL
 *  n**2 =  1.400 for COSMO-CI
 *  T=         - A TIME OF 172800.0 SECONDS REQUESTED
 *  DUMP=N     - RESTART FILE WRITTEN EVERY 7200.0 SECONDS REQUESTED
 *******************************************************************************
INDO CIS EPS=4.81 N**2=1.4
 Dye24
 Calculo de Estados Excitados
   ATOM   CHEMICAL          X               Y               Z
  NUMBER   SYMBOL      (ANGSTROMS)     (ANGSTROMS)     (ANGSTROMS)
 
     1       C          0.00000000  *   0.00000000  *   0.00000000  *
     2       C          1.51998707  *   0.00000000  *   0.00000000  *
     3       C          2.06092324  *   1.42764618  *   0.00000000  *
     4       C          3.58781091  *   1.42879922  *  -0.00148243  *
     5       C          4.12649525  *   2.85773503  *  -0.00099150  *
     6       C          5.65367399  *   2.85873364  *  -0.00127748  *
     7       C          6.18770912  *   4.28831144  *  -0.00257837  *
     8       C          7.72358228  *   4.27448413  *  -0.00503289  *
     9       N          8.27946196  *   5.62586684  *  -0.02762367  *
    10       C          8.19389251  *   6.47068032  *  -1.15553803  *
    11       C          7.89584885  *   6.13967919  *  -2.47605285  *
    12       C          7.91569770  *   7.16545909  *  -3.40555865  *
    13       C          8.21436539  *   8.48160679  *  -3.03589367  *
    14       C          8.50974138  *   8.80982124  *  -1.72263716  *
    15       C          8.50965945  *   7.80054973  *  -0.76937012  *
    16       C          8.74942948  *   7.78111398  *   0.65108890  *
    17       C          8.54278380  *   6.44107654  *   1.08926622  *
    18       C          8.66781052  *   6.12204246  *   2.43665357  *
    19       S          8.48558228  *   4.61900284  *   3.24796483  *
    20       C          8.82836599  *   5.35097275  *   4.78265731  *
    21       C          9.07642459  *   6.68041759  *   4.69160404  *
    22       C          8.99239015  *   7.15539451  *   3.33032469  *
    23       C          9.20820741  *   8.46951714  *   2.90638324  *
    24       C          9.10350941  *   8.77734321  *   1.56031856  *
    25       C          9.38678507  *  10.14228864  *   1.12357541  *
    26       C          8.59021643  *  11.18985938  *   1.57603536  *
    27       C          8.87974688  *  12.49152360  *   1.18543483  *
    28       C          9.96521743  *  12.74555556  *   0.35567682  *
    29       C         10.76341845  *  11.69710084  *  -0.08743492  *
    30       C         10.47696045  *  10.39254868  *   0.29430457  *
    31       C          8.82787604  *   4.55414827  *   5.96929359  *
    32       C          7.80686945  *   3.76514225  *   6.42073652  *
    33       C          8.14244110  *   3.10141246  *   7.64279376  *
    34       C          9.40781030  *   3.41962340  *   8.06144053  *
    35       S         10.19545287  *   4.50586494  *   6.99806261  *
    36       C         10.04990091  *   2.93330394  *   9.23732232  *
    37       C         11.30040125  *   3.15187291  *   9.78933949  *
    38       C         11.34860138  *   2.37322169  *  10.98141331  *
    39       C         10.12669824  *   1.73154453  *  11.07860152  *
    40       O          9.32438142  *   2.06998061  *  10.01308558  *
    41       C          9.62838448  *   0.83002178  *  12.07114623  *
    42       C          8.41330716  *   0.24938485  *  12.05617825  *
    43       C          7.96310352  *  -0.68230227  *  13.10119372  *
    44       O          7.05101658  *  -1.48842873  *  13.03061078  *
    45       O          8.67303482  *  -0.59066897  *  14.24928189  *
    46       C          7.45968838  *   0.46834475  *  11.02929853  *
    47       N          6.68331476  *   0.64767117  *  10.19167823  *
    48       H         10.34130471  *   0.63030005  *  12.88545558  *
    49       H         -0.41724364  *   0.50568749  *  -0.88274051  *
    50       H         -0.40915554  *  -1.02070619  *   0.00081499  *
    51       H         -0.41707003  *   0.50678837  *   0.88221641  *
    52       H          1.90226760  *  -0.56117350  *   0.87889590  *
    53       H          1.90229685  *  -0.56139649  *  -0.87872674  *
    54       H          1.67229105  *   1.98528855  *  -0.87826350  *
    55       H          1.67411541  *   1.98438136  *   0.87965220  *
    56       H          3.97456603  *   0.86993179  *   0.87687422  *
    57       H          3.97289181  *   0.87110459  *  -0.88131388  *
    58       H          3.73997605  *   3.41639318  *  -0.87959594  *
    59       H          3.74074958  *   3.41536891  *   0.87861813  *
    60       H          6.03949044  *   2.30177014  *   0.87886838  *
    61       H          6.03930624  *   2.30005768  *  -0.88045464  *
    62       H          5.80586231  *   4.84932827  *  -0.88222317  *
    63       H          5.80666322  *   4.85041111  *   0.87594263  *
    64       H          8.12361011  *   3.72318384  *   0.87645857  *
    65       H          8.11695208  *   3.72002820  *  -0.88973832  *
    66       H          7.65393565  *   5.11762865  *  -2.77277581  *
    67       H          7.68809717  *   6.94460001  *  -4.45318131  *
    68       H          8.21087325  *   9.26350557  *  -3.80052304  *
    69       H          8.72843627  *   9.84330106  *  -1.44114730  *
    70       H          9.30674192  *   7.34266876  *   5.52316120  *
    71       H          9.46830347  *   9.23908606  *   3.63757252  *
    72       H          7.73839093  *  10.98647163  *   2.23165253  *
    73       H          8.25261191  *  13.31721087  *   1.53384598  *
    74       H         10.19272212  *  13.77140264  *   0.05196170  *
    75       H         11.62017487  *  11.89891409  *  -0.73687021  *
    76       H         11.10208884  *   9.56368266  *  -0.05178127  *
    77       H          6.84279640  *   3.64638664  *   5.93103948  *
    78       H          7.45734589  *   2.42946094  *   8.16075499  *
    79       H         12.08994204  *   3.78247749  *   9.40420465  *
    80       H         12.18160784  *   2.30375504  *  11.66954324  *
    81       H          8.34330156  *  -1.21363831  *  14.91252809  *
 


          CARTESIAN COORDINATES 

    NO.       ATOM           X           Y           Z

     1         C          0.0000      0.0000      0.0000
     2         C          1.5200      0.0000      0.0000
     3         C          2.0609      1.4276      0.0000
     4         C          3.5878      1.4288     -0.0015
     5         C          4.1265      2.8577     -0.0010
     6         C          5.6537      2.8587     -0.0013
     7         C          6.1877      4.2883     -0.0026
     8         C          7.7236      4.2745     -0.0050
     9         N          8.2795      5.6259     -0.0276
    10         C          8.1939      6.4707     -1.1555
    11         C          7.8958      6.1397     -2.4761
    12         C          7.9157      7.1655     -3.4056
    13         C          8.2144      8.4816     -3.0359
    14         C          8.5097      8.8098     -1.7226
    15         C          8.5097      7.8005     -0.7694
    16         C          8.7494      7.7811      0.6511
    17         C          8.5428      6.4411      1.0893
    18         C          8.6678      6.1220      2.4367
    19         S          8.4856      4.6190      3.2480
    20         C          8.8284      5.3510      4.7827
    21         C          9.0764      6.6804      4.6916
    22         C          8.9924      7.1554      3.3303
    23         C          9.2082      8.4695      2.9064
    24         C          9.1035      8.7773      1.5603
    25         C          9.3868     10.1423      1.1236
    26         C          8.5902     11.1899      1.5760
    27         C          8.8797     12.4915      1.1854
    28         C          9.9652     12.7456      0.3557
    29         C         10.7634     11.6971     -0.0874
    30         C         10.4770     10.3925      0.2943
    31         C          8.8279      4.5541      5.9693
    32         C          7.8069      3.7651      6.4207
    33         C          8.1424      3.1014      7.6428
    34         C          9.4078      3.4196      8.0614
    35         S         10.1955      4.5059      6.9981
    36         C         10.0499      2.9333      9.2373
    37         C         11.3004      3.1519      9.7893
    38         C         11.3486      2.3732     10.9814
    39         C         10.1267      1.7315     11.0786
    40         O          9.3244      2.0700     10.0131
    41         C          9.6284      0.8300     12.0711
    42         C          8.4133      0.2494     12.0562
    43         C          7.9631     -0.6823     13.1012
    44         O          7.0510     -1.4884     13.0306
    45         O          8.6730     -0.5907     14.2493
    46         C          7.4597      0.4683     11.0293
    47         N          6.6833      0.6477     10.1917
    48         H         10.3413      0.6303     12.8855
    49         H         -0.4172      0.5057     -0.8827
    50         H         -0.4092     -1.0207      0.0008
    51         H         -0.4171      0.5068      0.8822
    52         H          1.9023     -0.5612      0.8789
    53         H          1.9023     -0.5614     -0.8787
    54         H          1.6723      1.9853     -0.8783
    55         H          1.6741      1.9844      0.8797
    56         H          3.9746      0.8699      0.8769
    57         H          3.9729      0.8711     -0.8813
    58         H          3.7400      3.4164     -0.8796
    59         H          3.7407      3.4154      0.8786
    60         H          6.0395      2.3018      0.8789
    61         H          6.0393      2.3001     -0.8805
    62         H          5.8059      4.8493     -0.8822
    63         H          5.8067      4.8504      0.8759
    64         H          8.1236      3.7232      0.8765
    65         H          8.1170      3.7200     -0.8897
    66         H          7.6539      5.1176     -2.7728
    67         H          7.6881      6.9446     -4.4532
    68         H          8.2109      9.2635     -3.8005
    69         H          8.7284      9.8433     -1.4411
    70         H          9.3067      7.3427      5.5232
    71         H          9.4683      9.2391      3.6376
    72         H          7.7384     10.9865      2.2317
    73         H          8.2526     13.3172      1.5338
    74         H         10.1927     13.7714      0.0520
    75         H         11.6202     11.8989     -0.7369
    76         H         11.1021      9.5637     -0.0518
    77         H          6.8428      3.6464      5.9310
    78         H          7.4573      2.4295      8.1608
    79         H         12.0899      3.7825      9.4042
    80         H         12.1816      2.3038     11.6695
    81         H          8.3433     -1.2136     14.9125

           Empirical Formula: C40 H34 N2 O3 S2  =    81 atoms



      MOLECULAR POINT GROUP   :   C1  


      RHF CALCULATION, NO. OF DOUBLY OCCUPIED LEVELS = 117

 WARNING: INDO only performs single-point calculations

 Summary of symmetry occupancy in each shell:

 SHELL     
    1  117
    v  105
 TOTAL 222




    ROOT NO.    1           2           3           4           5           6

           -50.09293   -48.60265   -46.69512   -44.80226   -43.79122   -42.99867
  
  
  S  C   1   0.00000     0.00121     0.00000    -0.00680    -0.00208     0.13088
 PX  C   1   0.00000     0.00054     0.00000    -0.00271    -0.00079     0.04837
 PY  C   1   0.00000     0.00019     0.00000    -0.00083    -0.00023     0.01347
 PZ  C   1   0.00000    -0.00000    -0.00000     0.00000     0.00000    -0.00000
  
  S  C   2   0.00000     0.00284     0.00000    -0.01307    -0.00374     0.22305
 PX  C   2   0.00000     0.00060     0.00000    -0.00161    -0.00035     0.01459
 PY  C   2   0.00000     0.00094     0.00000    -0.00369    -0.00099     0.05558
 PZ  C   2   0.00000    -0.00000    -0.00000     0.00000     0.00000    -0.00001
  
  S  C   3   0.00000     0.00605     0.00001    -0.02117    -0.00549     0.29972
 PX  C   3   0.00000     0.00215     0.00000    -0.00535    -0.00116     0.05102
 PY  C   3   0.00000     0.00042     0.00000     0.00034     0.00026    -0.02376
 PZ  C   3   0.00000    -0.00001    -0.00000     0.00001     0.00001    -0.00005
  
  S  C   4   0.00001     0.01233     0.00001    -0.03141    -0.00714     0.34289
 PX  C   4   0.00000     0.00219     0.00000    -0.00167     0.00004    -0.02168
 PY  C   4   0.00000     0.00381     0.00000    -0.00723    -0.00139     0.05296
 PZ  C   4   0.00000    -0.00002    -0.00000     0.00003     0.00005     0.00009
  
  S  C   5   0.00002     0.02542     0.00002    -0.04519    -0.00880     0.35032
 PX  C   5   0.00001     0.00869     0.00001    -0.01005    -0.00139     0.02798
 PY  C   5   0.00000     0.00177     0.00000     0.00158     0.00068    -0.05011
 PZ  C   5   0.00000    -0.00010    -0.00000     0.00017     0.00024     0.00007
  
  S  C   6   0.00004     0.05061     0.00004    -0.06331    -0.01000     0.32046
 PX  C   6   0.00001     0.00846     0.00000    -0.00216     0.00063    -0.04859
 PY  C   6   0.00001     0.01623     0.00001    -0.01418    -0.00183     0.02957
 PZ  C   6   0.00000    -0.00038    -0.00000     0.00064     0.00091     0.00023
  
  S  C   7   0.00009     0.11531     0.00008    -0.09378    -0.01269     0.25495
 PX  C   7   0.00003     0.04361     0.00003    -0.02293    -0.00175    -0.00610
 PY  C   7   0.00001     0.01547     0.00001     0.00003    -0.00005    -0.05744
 PZ  C   7   0.00000    -0.00224    -0.00000     0.00312     0.00418     0.00115
  
  S  C   8   0.00017     0.20631     0.00012    -0.12600    -0.01098     0.17609
 PX  C   8   0.00001     0.01336     0.00000     0.00292     0.00293    -0.04761
 PY  C   8   0.00007     0.09382     0.00005    -0.04263    -0.00454     0.00340
 PZ  C   8   0.00000    -0.00319    -0.00001     0.00735     0.01102     0.00268
  
  S  N   9   0.00038     0.46728     0.00026    -0.18999    -0.02167     0.06565
 PX  N   9  -0.00001    -0.01433    -0.00001     0.01962     0.00605    -0.02842
 PY  N   9   0.00008     0.09855     0.00005    -0.00849    -0.00621    -0.05743
 PZ  N   9   0.00002    -0.00133    -0.00002     0.01862     0.03172     0.01082
  
  S  C  10   0.00027     0.36413     0.00023    -0.14152    -0.11809    -0.09570
 PX  C  10   0.00002     0.01969     0.00001     0.00182     0.00029    -0.01225
 PY  C  10   0.00000     0.00230    -0.00000     0.02396    -0.02947    -0.07219
 PZ  C  10   0.00011     0.12413     0.00006    -0.02967     0.03222     0.03760
  
  S  C  11   0.00010     0.15016     0.00011    -0.08209    -0.11619    -0.09863
 PX  C  11   0.00001     0.01534     0.00001    -0.00597    -0.01074    -0.01427
 PY  C  11   0.00002     0.03169     0.00003    -0.01137    -0.04558    -0.06286
 PZ  C  11   0.00005     0.06258     0.00004    -0.02939    -0.01469     0.00053
  
  S  C  12   0.00006     0.09215     0.00008    -0.04874    -0.11724    -0.12883
 PX  C  12   0.00001     0.00853     0.00001    -0.00325    -0.01034    -0.01244
 PY  C  12   0.00000     0.00364     0.00000     0.00194    -0.01079    -0.01672
 PZ  C  12   0.00003     0.04578     0.00004    -0.02184    -0.04752    -0.05062
  
  S  C  13   0.00005     0.08944     0.00007    -0.03194    -0.12216    -0.13606
 PX  C  13   0.00000     0.00090     0.00000     0.00250    -0.00118    -0.00024
 PY  C  13  -0.00002    -0.02974    -0.00003     0.01883     0.03307     0.03966
 PZ  C  13   0.00002     0.03427     0.00003    -0.00670    -0.03787    -0.03992
  
  S  C  14   0.00009     0.12687     0.00008     0.00115    -0.13491    -0.13704
 PX  C  14  -0.00000    -0.00678    -0.00001     0.01128     0.00685     0.01247
 PY  C  14  -0.00004    -0.05720    -0.00004     0.02880     0.04041     0.05679
 PZ  C  14   0.00002     0.01789     0.00000     0.02242     0.00614     0.01289
  
  S  C  15   0.00024     0.30074     0.00016    -0.02937    -0.11588    -0.14668
 PX  C  15  -0.00001    -0.01222    -0.00001     0.01818     0.00920     0.00886
 PY  C  15  -0.00008    -0.10181    -0.00006     0.05927     0.00062     0.00989
 PZ  C  15   0.00006     0.04609    -0.00000     0.02945     0.05493     0.04082
  
  S  C  16   0.00036     0.30736     0.00004     0.12235     0.06122    -0.06537
 PX  C  16  -0.00001    -0.02561    -0.00002     0.02947     0.00689     0.00497
 PY  C  16  -0.00009    -0.09581    -0.00005     0.06692    -0.02839     0.00692
 PZ  C  16   0.00004    -0.03721    -0.00009     0.08854     0.09030     0.02446
  
  S  C  17   0.00047     0.36351     0.00004     0.02305     0.13367    -0.00699
 PX  C  17   0.00001    -0.01595    -0.00003     0.03048     0.01935    -0.01063
 PY  C  17   0.00004     0.01050    -0.00003     0.06802     0.02910    -0.03946
 PZ  C  17   0.00002    -0.12322    -0.00016     0.10501     0.09204     0.00796
  
  S  C  18   0.00074     0.15965    -0.00030     0.15629     0.28813     0.00873
 PX  C  18   0.00004    -0.00091    -0.00003     0.01936     0.02141    -0.00463
 PY  C  18   0.00006     0.03583    -0.00003     0.06419     0.06456    -0.01422
 PZ  C  18   0.00023    -0.05280    -0.00016     0.04331     0.06386    -0.00285
  
  S  S  19   0.00122     0.04943    -0.00043     0.07175     0.17333     0.01727
 PX  S  19   0.00011     0.00269    -0.00005     0.01276     0.02419    -0.00171
 PY  S  19   0.00029     0.02616    -0.00014     0.04942     0.10335     0.00356
 PZ  S  19   0.00071    -0.01367    -0.00024     0.02195     0.03657    -0.00816
  
  S  C  20   0.00398     0.03287    -0.00121     0.11030     0.25338     0.00884
 PX  C  20  -0.00011     0.00044     0.00002     0.00207     0.00312    -0.00025
 PY  C  20  -0.00098     0.01042     0.00020     0.02918     0.04996    -0.00007
 PZ  C  20   0.00160    -0.01154    -0.00037    -0.02497    -0.03835     0.00007
  
  S  C  21   0.00165     0.04481    -0.00063     0.13481     0.26140     0.00430
 PX  C  21  -0.00014    -0.00340     0.00005    -0.00967    -0.02109    -0.00062
 PY  C  21  -0.00072    -0.00334     0.00024    -0.01559    -0.05151    -0.00303
 PZ  C  21   0.00015    -0.02089     0.00001    -0.05088    -0.08355     0.00041
  
  S  C  22   0.00085     0.11377    -0.00040     0.22588     0.33372    -0.00559
 PX  C  22  -0.00004    -0.00574     0.00002    -0.00505    -0.01407    -0.00045
 PY  C  22  -0.00025    -0.00201     0.00012    -0.00367    -0.05911    -0.00485
 PZ  C  22   0.00010    -0.04058    -0.00005    -0.03642    -0.02009     0.00598
  
  S  C  23   0.00035     0.10422    -0.00017     0.22891     0.16882    -0.00683
 PX  C  23  -0.00003    -0.01063     0.00001    -0.01396    -0.01989     0.00181
 PY  C  23  -0.00015    -0.02890     0.00007    -0.02754    -0.09312     0.00741
 PZ  C  23  -0.00002    -0.03607    -0.00000    -0.06264    -0.00782     0.00373
  
  S  C  24   0.00027     0.15074    -0.00009     0.28844     0.06017    -0.01314
 PX  C  24  -0.00002    -0.01172     0.00000     0.00705    -0.01596     0.00561
 PY  C  24  -0.00010    -0.04691     0.00002     0.01463    -0.09711     0.02121
 PZ  C  24   0.00003    -0.01527    -0.00004     0.01225     0.05254     0.00776
  
  S  C  25   0.00010     0.07822    -0.00003     0.36093    -0.19070     0.05166
 PX  C  25  -0.00001    -0.00240     0.00000     0.01133    -0.02034     0.00628
 PY  C  25  -0.00003    -0.01724     0.00001     0.04476    -0.08633     0.03322
 PZ  C  25   0.00001    -0.00238    -0.00001    -0.00958     0.03389    -0.00270
  
  S  C  26   0.00005     0.04010    -0.00002     0.28544    -0.19225     0.06378
 PX  C  26   0.00001     0.01076    -0.00001     0.08909    -0.06687     0.02167
 PY  C  26  -0.00002    -0.01086     0.00001    -0.01592    -0.01749     0.00830
 PZ  C  26  -0.00001    -0.00742     0.00000    -0.06176     0.05407    -0.01573
  
  S  C  27   0.00002     0.02310    -0.00001     0.23885    -0.19796     0.06854
 PX  C  27   0.00000     0.00508    -0.00000     0.05685    -0.04967     0.01681
 PY  C  27  -0.00001    -0.01018     0.00001    -0.08530     0.06409    -0.02080
 PZ  C  27  -0.00000    -0.00264     0.00000    -0.02991     0.02830    -0.00911
  
  S  C  28   0.00002     0.02094    -0.00001     0.23057    -0.20004     0.06863
 PX  C  28  -0.00000    -0.00208     0.00000    -0.02156     0.01748    -0.00617
 PY  C  28  -0.00001    -0.01026     0.00000    -0.09769     0.08105    -0.02624
 PZ  C  28   0.00000     0.00259    -0.00000     0.02882    -0.02321     0.00842
  
  S  C  29   0.00003     0.02572    -0.00001     0.23937    -0.20255     0.06500
 PX  C  29  -0.00001    -0.00899     0.00000    -0.08195     0.06807    -0.02174
 PY  C  29  -0.00001    -0.00625     0.00000    -0.02730     0.01743    -0.00234
 PZ  C  29   0.00001     0.00632    -0.00000     0.06284    -0.05051     0.01732
  
  S  C  30   0.00005     0.04909    -0.00002     0.28494    -0.20361     0.05462
 PX  C  30  -0.00002    -0.01631     0.00000    -0.08045     0.05171    -0.01216
 PY  C  30  -0.00001    -0.00450    -0.00000     0.05592    -0.06377     0.02630
 PZ  C  30   0.00001     0.00772    -0.00001     0.04948    -0.02397     0.00970
  
  S  C  31   0.01431     0.00964    -0.00329     0.05562     0.17885     0.01148
 PX  C  31  -0.00077    -0.00023     0.00018    -0.00239    -0.00984    -0.00085
 PY  C  31  -0.00386     0.00253     0.00079     0.00573     0.00120    -0.00143
 PZ  C  31   0.00521    -0.00325    -0.00106    -0.00804    -0.00378     0.00174
  
  S  C  32   0.01844     0.00421    -0.00372     0.03491     0.13409     0.01062
 PX  C  32   0.00668     0.00128    -0.00142     0.01196     0.04711     0.00375
 PY  C  32  -0.00120     0.00113     0.00002     0.00596     0.01674     0.00081
 PZ  C  32   0.00651    -0.00068    -0.00103    -0.00023     0.00879     0.00145
  
  S  C  33   0.05569     0.00197    -0.00742     0.02464     0.10856     0.00970
 PX  C  33   0.02350     0.00041    -0.00307     0.00603     0.02715     0.00245
 PY  C  33  -0.00190     0.00066    -0.00048     0.00721     0.03032     0.00259
 PZ  C  33   0.01942    -0.00067    -0.00147    -0.00639    -0.02571    -0.00211
  
  S  C  34   0.10968     0.00158    -0.01323     0.02184     0.09794     0.00886
 PX  C  34   0.00580    -0.00046    -0.00040    -0.00567    -0.02496    -0.00222
 PY  C  34  -0.03374     0.00035     0.00304     0.00282     0.01077     0.00083
 PZ  C  34   0.05428    -0.00081    -0.00480    -0.00809    -0.03339    -0.00279
  
  S  S  35   0.02325     0.00316    -0.00406     0.02560     0.09675     0.00749
 PX  S  35  -0.00721    -0.00164     0.00159    -0.01442    -0.05597    -0.00443
 PY  S  35  -0.00867     0.00015     0.00146    -0.00264    -0.01664    -0.00182
 PZ  S  35   0.00785    -0.00118    -0.00105    -0.00536    -0.01259    -0.00033
  
  S  C  36   0.36968    -0.00034    -0.03436     0.00295     0.01684     0.00178
 PX  C  36  -0.02927    -0.00010     0.00203    -0.00213    -0.01032    -0.00099
 PY  C  36  -0.12459     0.00034     0.00966     0.00242     0.01047     0.00093
 PZ  C  36   0.16477    -0.00057    -0.01294    -0.00509    -0.02281    -0.00208
  
  S  C  37   0.24864    -0.00043    -0.02348    -0.00119    -0.00381    -0.00025
 PX  C  37  -0.12322     0.00021     0.01132     0.00048     0.00123     0.00005
 PY  C  37  -0.08852     0.00020     0.00756     0.00119     0.00515     0.00046
 PZ  C  37   0.04525    -0.00015    -0.00329    -0.00144    -0.00680    -0.00065
  
  S  C  38   0.25130    -0.00054    -0.01601    -0.00297    -0.01284    -0.00116
 PX  C  38  -0.13000     0.00028     0.00812     0.00148     0.00626     0.00056
 PY  C  38   0.00041     0.00001    -0.00362     0.00014     0.00077     0.00009
 PZ  C  38  -0.09176     0.00019     0.01112     0.00084     0.00324     0.00026
  
  S  C  39   0.36921    -0.00079     0.00066    -0.00435    -0.01899    -0.00175
 PX  C  39  -0.04229     0.00008    -0.00874     0.00035     0.00148     0.00014
 PY  C  39   0.09754    -0.00020    -0.02138    -0.00087    -0.00326    -0.00025
 PZ  C  39  -0.17475     0.00035     0.02586     0.00154     0.00590     0.00047
  
  S  O  40   0.60687    -0.00114    -0.03997    -0.00409    -0.01503    -0.00118
 PX  O  40   0.18925    -0.00040    -0.01658    -0.00203    -0.00834    -0.00072
 PY  O  40   0.06575    -0.00009    -0.01108     0.00029     0.00224     0.00027
 PZ  O  40   0.03472    -0.00015     0.00486    -0.00186    -0.00917    -0.00091
  
  S  C  41   0.11465    -0.00028     0.10634    -0.00171    -0.00865    -0.00089
 PX  C  41  -0.00338     0.00001    -0.04357    -0.00002     0.00011     0.00003
 PY  C  41   0.03473    -0.00007    -0.03525    -0.00052    -0.00222    -0.00020
 PZ  C  41  -0.05435     0.00012     0.02400     0.00077     0.00342     0.00032
  
  S  C  42   0.06824    -0.00018     0.21489    -0.00077    -0.00458    -0.00052
 PX  C  42   0.01686    -0.00004    -0.01475    -0.00035    -0.00169    -0.00017
 PY  C  42   0.01977    -0.00004    -0.05242    -0.00043    -0.00191    -0.00019
 PZ  C  42  -0.01718     0.00003     0.07234     0.00039     0.00165     0.00016
  
  S  C  43   0.02850    -0.00011     0.51254     0.00071     0.00207     0.00015
 PX  C  43   0.00316    -0.00001    -0.00540    -0.00012    -0.00065    -0.00007
 PY  C  43   0.00334    -0.00000    -0.06821    -0.00029    -0.00139    -0.00015
 PZ  C  43  -0.00132    -0.00001     0.12831     0.00039     0.00171     0.00017
  
  S  O  44   0.01509    -0.00007     0.41175     0.00080     0.00294     0.00027
 PX  O  44   0.00492    -0.00002     0.13552     0.00026     0.00093     0.00008
 PY  O  44   0.00432    -0.00002     0.10749     0.00019     0.00066     0.00006
 PZ  O  44   0.00046    -0.00000     0.03632     0.00010     0.00042     0.00004
  
  S  O  45   0.02281    -0.00010     0.57971     0.00103     0.00362     0.00032
 PX  O  45  -0.00408     0.00002    -0.12581    -0.00025    -0.00095    -0.00009
 PY  O  45  -0.00146     0.00001    -0.07001    -0.00017    -0.00072    -0.00007
 PZ  O  45  -0.00508     0.00002    -0.09499    -0.00011    -0.00025    -0.00001
  
  S  C  46   0.05086    -0.00011     0.08850    -0.00048    -0.00266    -0.00030
 PX  C  46   0.02396    -0.00006     0.01831    -0.00036    -0.00180    -0.00018
 PY  C  46   0.01047    -0.00002    -0.01792    -0.00009    -0.00035    -0.00003
 PZ  C  46   0.00183    -0.00002     0.03945    -0.00013    -0.00079    -0.00009
  
  S  N  47   0.02119    -0.00003     0.02749     0.00002    -0.00003    -0.00002
 PX  N  47   0.01188    -0.00002     0.00951    -0.00007    -0.00036    -0.00004
 PY  N  47   0.00160     0.00000    -0.00478     0.00005     0.00027     0.00003
 PZ  N  47   0.00632    -0.00002     0.01398    -0.00012    -0.00066    -0.00007
  
  S  H  48   0.03014    -0.00008     0.05430    -0.00047    -0.00253    -0.00027
  
  S  H  49   0.00000     0.00053     0.00000    -0.00293    -0.00089     0.05611
  
  S  H  50   0.00000     0.00037     0.00000    -0.00226    -0.00071     0.04540
  
  S  H  51   0.00000     0.00053     0.00000    -0.00293    -0.00089     0.05611
  
  S  H  52   0.00000     0.00124     0.00000    -0.00555    -0.00157     0.09330
  
  S  H  53   0.00000     0.00124     0.00000    -0.00556    -0.00158     0.09333
  
  S  H  54   0.00000     0.00267     0.00000    -0.00904    -0.00234     0.12608
  
  S  H  55   0.00000     0.00267     0.00000    -0.00903    -0.00232     0.12609
  
  S  H  56   0.00000     0.00539     0.00001    -0.01337    -0.00297     0.14416
  
  S  H  57   0.00000     0.00541     0.00001    -0.01341    -0.00305     0.14413
  
  S  H  58   0.00001     0.01145     0.00001    -0.01948    -0.00393     0.14718
  
  S  H  59   0.00001     0.01131     0.00001    -0.01925    -0.00359     0.14733
  
  S  H  60   0.00002     0.02157     0.00002    -0.02641    -0.00351     0.13498
  
  S  H  61   0.00002     0.02196     0.00002    -0.02718    -0.00468     0.13464
  
  S  H  62   0.00004     0.05551     0.00004    -0.04332    -0.00961     0.10412
  
  S  H  63   0.00005     0.05195     0.00003    -0.03812    -0.00227     0.10661
  
  S  H  64   0.00007     0.07402     0.00004    -0.04225     0.00490     0.07488
  
  S  H  65   0.00006     0.07535     0.00005    -0.05046    -0.00924     0.07113
  
  S  H  66   0.00003     0.05055     0.00004    -0.03201    -0.03200    -0.01219
  
  S  H  67   0.00001     0.02127     0.00002    -0.01287    -0.03140    -0.03462
  
  S  H  68   0.00001     0.02059     0.00002    -0.00623    -0.03383    -0.03724
  
  S  H  69   0.00003     0.03868     0.00002     0.03455    -0.05548    -0.03317
  
  S  H  70   0.00068     0.01231    -0.00023     0.04075     0.07714     0.00128
  
  S  H  71   0.00011     0.02722    -0.00006     0.08116     0.04201     0.00153
  
  S  H  72   0.00002     0.01502    -0.00001     0.08788    -0.04723     0.01661
  
  S  H  73   0.00001     0.00546    -0.00000     0.06182    -0.05238     0.01880
  
  S  H  74   0.00000     0.00477    -0.00000     0.05913    -0.05330     0.01887
  
  S  H  75   0.00001     0.00649    -0.00000     0.06205    -0.05426     0.01734
  
  S  H  76   0.00003     0.02261    -0.00000     0.08661    -0.05532     0.00984
  
  S  H  77   0.00447     0.00172    -0.00093     0.01164     0.04187     0.00320
  
  S  H  78   0.02835     0.00044    -0.00274     0.00621     0.02828     0.00260
  
  S  H  79   0.04821    -0.00006    -0.00502     0.00019     0.00129     0.00015
  
  S  H  80   0.04885    -0.00011    -0.00125    -0.00068    -0.00307    -0.00029
  
  S  H  81   0.00869    -0.00004     0.24468     0.00047     0.00175     0.00016




    ROOT NO.    7           8           9          10          11          12

           -42.59356   -41.96457   -40.40218   -39.59967   -39.37692   -39.05538
  
  
  S  C   1   0.01429     0.11978     0.18346    -0.02991    -0.20515     0.02881
 PX  C   1   0.00518     0.04203     0.05841    -0.00895    -0.06026     0.00822
 PY  C   1   0.00141     0.01089     0.01304    -0.00179    -0.01166     0.00150
 PZ  C   1  -0.00000    -0.00000     0.00000    -0.00000    -0.00000     0.00000
  
  S  C   2   0.02363     0.18857     0.25163    -0.03782    -0.25322     0.03430
 PX  C   2   0.00119     0.00472    -0.01251     0.00366     0.02814    -0.00456
 PY  C   2   0.00568     0.04260     0.04579    -0.00582    -0.03678     0.00453
 PZ  C   2  -0.00000    -0.00001    -0.00000     0.00000     0.00000    -0.00000
  
  S  C   3   0.03020     0.22122     0.22443    -0.02773    -0.17397     0.02121
 PX  C   3   0.00442     0.02279    -0.01234     0.00529     0.04196    -0.00697
 PY  C   3  -0.00293    -0.02852    -0.05441     0.00937     0.06492    -0.00921
 PZ  C   3  -0.00001    -0.00004    -0.00001     0.00000    -0.00000     0.00000
  
  S  C   4   0.03188     0.20063     0.09744    -0.00224     0.00740    -0.00532
 PX  C   4  -0.00328    -0.03673    -0.07281     0.01170     0.07880    -0.01065
 PY  C   4   0.00411     0.01508    -0.03004     0.00759     0.05580    -0.00845
 PZ  C   4  -0.00003     0.00002     0.00009    -0.00001    -0.00002     0.00000
  
  S  C   5   0.02875     0.13408    -0.07048     0.02431     0.18379    -0.02855
 PX  C   5   0.00052    -0.02091    -0.07263     0.01128     0.07379    -0.00942
 PY  C   5  -0.00532    -0.04142    -0.03548     0.00268     0.01221    -0.00047
 PZ  C   5  -0.00018    -0.00013     0.00021    -0.00001    -0.00000    -0.00001
  
  S  C   6   0.02074     0.03559    -0.20841     0.03797     0.25732    -0.03457
 PX  C   6  -0.00595    -0.04551    -0.01968    -0.00218    -0.02494     0.00543
 PY  C   6   0.00020    -0.02428    -0.05621     0.00634     0.03618    -0.00348
 PZ  C   6  -0.00067    -0.00045     0.00071    -0.00002     0.00001    -0.00002
  
  S  C   7   0.00838    -0.07956    -0.25097     0.03014     0.17823    -0.01880
 PX  C   7  -0.00566    -0.05565    -0.01947    -0.00426    -0.04164     0.00806
 PY  C   7  -0.00503    -0.02273     0.04206    -0.00985    -0.06969     0.00987
 PZ  C   7  -0.00309    -0.00194     0.00297    -0.00001     0.00049    -0.00015
  
  S  C   8  -0.00963    -0.18414    -0.19698     0.00824     0.01160     0.00693
 PX  C   8  -0.00617    -0.01229     0.05514    -0.00997    -0.06655     0.00862
 PY  C   8  -0.00874    -0.07271     0.00646    -0.00852    -0.06675     0.01042
 PZ  C   8  -0.00777    -0.00430     0.00567    -0.00003     0.00032    -0.00003
  
  S  N   9  -0.03649    -0.27936     0.01493    -0.02270    -0.17124     0.02510
 PX  N   9  -0.00342     0.02555     0.04433    -0.00171    -0.00102    -0.00189
 PY  N   9  -0.00681     0.00931     0.11452    -0.00803    -0.02647    -0.00236
 PZ  N   9  -0.02554    -0.02099     0.02080     0.00024     0.00514    -0.00099
  
  S  C  10   0.08698     0.06266    -0.01603    -0.01044    -0.08303     0.01234
 PX  C  10  -0.00443    -0.00212     0.03182    -0.00198    -0.00513    -0.00106
 PY  C  10   0.03621     0.12630     0.02761     0.00360     0.03783    -0.00771
 PZ  C  10  -0.06262    -0.16188     0.10958    -0.01125    -0.05059     0.00115
  
  S  C  11   0.12593     0.20005    -0.14267     0.00430    -0.01335     0.01009
 PX  C  11   0.01072     0.01907    -0.00269    -0.00041    -0.00413     0.00076
 PY  C  11   0.05422     0.11938    -0.03413     0.00276     0.00978     0.00048
 PZ  C  11   0.00529    -0.02284     0.00037    -0.00315    -0.02273     0.00295
  
  S  C  12   0.14045     0.27830    -0.14591     0.00908     0.02102     0.00550
 PX  C  12   0.01169     0.02399    -0.00818     0.00058     0.00190     0.00013
 PY  C  12   0.01298     0.03396    -0.00477     0.00127     0.00862    -0.00116
 PZ  C  12   0.05310     0.10025    -0.04538     0.00238     0.00405     0.00178
  
  S  C  13   0.14046     0.28994    -0.12495     0.00996     0.03710     0.00117
 PX  C  13  -0.00034    -0.00048     0.00354    -0.00001     0.00153    -0.00056
 PY  C  13  -0.04084    -0.08055     0.03946    -0.00206    -0.00240    -0.00203
 PZ  C  13   0.03805     0.07645    -0.02017     0.00206     0.01114    -0.00110
  
  S  C  14   0.12747     0.26747    -0.06033     0.00930     0.05914    -0.00748
 PX  C  14  -0.01231    -0.02515     0.01373    -0.00051     0.00101    -0.00104
 PY  C  14  -0.04742    -0.09749     0.02265    -0.00163    -0.00603    -0.00005
 PZ  C  14  -0.02332    -0.04357     0.05227    -0.00123     0.01050    -0.00534
  
  S  C  15   0.08155     0.17370     0.07944     0.00002     0.03421    -0.01211
 PX  C  15  -0.01270    -0.01443     0.01657     0.00080     0.01212    -0.00286
 PY  C  15   0.00449     0.04461    -0.02860     0.00842     0.05835    -0.00769
 PZ  C  15  -0.07541    -0.12504     0.11505    -0.00351     0.01068    -0.00808
  
  S  C  16  -0.08317     0.03620     0.23203     0.01069     0.15574    -0.03553
 PX  C  16  -0.00563     0.01197    -0.00249     0.00380     0.02877    -0.00413
 PY  C  16   0.01640     0.05188    -0.02585     0.01033     0.07893    -0.01213
 PZ  C  16  -0.05752     0.01332     0.00572     0.01162     0.08234    -0.00982
  
  S  C  17  -0.11024    -0.09170     0.13472    -0.00502    -0.01376    -0.00057
 PX  C  17  -0.00872     0.02859     0.01368     0.00292     0.02473    -0.00385
 PY  C  17  -0.02234     0.07065     0.08281     0.00827     0.08951    -0.01762
 PZ  C  17  -0.02478     0.09261    -0.06594     0.01261     0.06462    -0.00292
  
  S  C  18  -0.09694     0.06018    -0.09878    -0.00064    -0.07040     0.02388
 PX  C  18  -0.00587     0.01719    -0.00467     0.00083     0.00236     0.00050
 PY  C  18  -0.04347     0.03876     0.04451     0.00804     0.06695    -0.00979
 PZ  C  18   0.02232     0.06372    -0.11370    -0.00476    -0.07654     0.01773
  
  S  S  19   0.01705     0.03182    -0.15865    -0.01292    -0.14626     0.02829
 PX  S  19   0.00095     0.01001    -0.02016    -0.00188    -0.02199     0.00444
 PY  S  19  -0.01146     0.03248    -0.08872    -0.00560    -0.08185     0.01900
 PZ  S  19   0.03693     0.02139    -0.03203    -0.00615    -0.04104     0.00317
  
  S  C  20   0.12837     0.05037    -0.21362    -0.02720    -0.22099     0.02823
 PX  C  20  -0.00394     0.00338    -0.00569     0.00001    -0.00494     0.00177
 PY  C  20  -0.04315     0.03662    -0.06632    -0.00059    -0.05295     0.01778
 PZ  C  20   0.06825    -0.03794     0.05914    -0.00202     0.04254    -0.01899
  
  S  C  21   0.02220     0.09395    -0.22567    -0.01623    -0.19648     0.03954
 PX  C  21  -0.00264    -0.00674     0.01984     0.00170     0.01909    -0.00366
 PY  C  21  -0.03461    -0.00751     0.06168     0.00889     0.07417    -0.01017
 PZ  C  21   0.03485    -0.04160     0.05935    -0.00054     0.03526    -0.01338
  
  S  C  22  -0.09748     0.13803    -0.13187     0.00530    -0.03813     0.02145
 PX  C  22   0.00268    -0.00258     0.00850     0.00077     0.01009    -0.00227
 PY  C  22  -0.01561    -0.01240     0.09666     0.01064     0.11723    -0.02304
 PZ  C  22   0.04634    -0.00404    -0.08384    -0.01046    -0.10160     0.01758
  
  S  C  23  -0.10540     0.09396     0.05708     0.02388     0.18569    -0.02602
 PX  C  23   0.01040    -0.00787    -0.00492    -0.00146    -0.01045     0.00119
 PY  C  23   0.03194    -0.03328     0.01943    -0.00113     0.01085    -0.00598
 PZ  C  23   0.02973    -0.01025    -0.06927    -0.00945    -0.09758     0.01862
  
  S  C  24  -0.09592     0.07415     0.16845     0.03000     0.28821    -0.05220
 PX  C  24   0.00705    -0.00446    -0.01059    -0.00023    -0.00349     0.00067
 PY  C  24   0.04364    -0.02745    -0.03903    -0.00320    -0.02604     0.00307
 PZ  C  24  -0.02184     0.01080    -0.02100     0.00360     0.01328     0.00135
  
  S  C  25   0.01322    -0.03237     0.03637     0.00908     0.09753    -0.02030
 PX  C  25   0.00835    -0.01053    -0.01321    -0.00251    -0.02370     0.00424
 PY  C  25   0.03550    -0.05493    -0.06912    -0.01166    -0.11462     0.02138
 PZ  C  25  -0.01628     0.00869     0.01446     0.00395     0.03443    -0.00562
  
  S  C  26   0.03279    -0.06840    -0.03105    -0.00303    -0.02647     0.00405
 PX  C  26   0.01401    -0.02534    -0.01575    -0.00227    -0.02071     0.00350
 PY  C  26   0.01382    -0.02153    -0.03484    -0.00719    -0.07125     0.01363
 PZ  C  26  -0.01399     0.02043     0.01605     0.00292     0.02669    -0.00459
  
  S  C  27   0.04838    -0.09063    -0.07605    -0.01298    -0.12585     0.02330
 PX  C  27   0.01305    -0.02290    -0.02071    -0.00373    -0.03606     0.00667
 PY  C  27  -0.01337     0.02407     0.01457     0.00190     0.01705    -0.00278
 PZ  C  27  -0.00820     0.01299     0.01315     0.00251     0.02426    -0.00451
  
  S  C  28   0.05226    -0.09380    -0.08567    -0.01537    -0.14961     0.02791
 PX  C  28  -0.00405     0.00804     0.00626     0.00100     0.00966    -0.00178
 PY  C  28  -0.01992     0.03344     0.02703     0.00448     0.04242    -0.00758
 PZ  C  28   0.00529    -0.01107    -0.00825    -0.00136    -0.01303     0.00238
  
  S  C  29   0.05173    -0.08474    -0.07392    -0.01294    -0.12377     0.02253
 PX  C  29  -0.01684     0.02771     0.02291     0.00384     0.03650    -0.00658
 PY  C  29  -0.00277    -0.00074    -0.00524    -0.00132    -0.01474     0.00324
 PZ  C  29   0.01162    -0.02228    -0.01622    -0.00272    -0.02566     0.00458
  
  S  C  30   0.04043    -0.05601    -0.02354    -0.00322    -0.02326     0.00244
 PX  C  30  -0.00806     0.00926    -0.00283    -0.00096    -0.01214     0.00291
 PY  C  30   0.02096    -0.04014    -0.04452    -0.00767    -0.07637     0.01453
 PZ  C  30  -0.00041    -0.00867     0.00605     0.00147     0.01572    -0.00325
  
  S  C  31   0.36515    -0.07323    -0.00387    -0.02629    -0.04154    -0.03289
 PX  C  31  -0.02913     0.00788    -0.00561     0.00273    -0.00268     0.00573
 PY  C  31  -0.07623     0.03302    -0.05488    -0.00047    -0.05087     0.01648
 PZ  C  31   0.09383    -0.04171     0.07129     0.00206     0.06738    -0.01927
  
  S  C  32   0.37595    -0.09888     0.07136    -0.02019     0.03964    -0.04811
 PX  C  32   0.13671    -0.03661     0.02819    -0.00537     0.01672    -0.01535
 PY  C  32   0.02014    -0.00044    -0.01306    -0.00307    -0.01749    -0.00046
 PZ  C  32   0.06654    -0.02501     0.03873     0.00073     0.03720    -0.01002
  
  S  C  33   0.36759    -0.10839     0.11289    -0.00503     0.09121    -0.03329
 PX  C  33   0.09431    -0.02817     0.03073     0.00592     0.02566     0.00114
 PY  C  33   0.09573    -0.02698     0.02407    -0.00300     0.01630    -0.01271
 PZ  C  33  -0.07562     0.02025    -0.01428     0.00860    -0.00633     0.01974
  
  S  C  34   0.33982    -0.10170     0.11210     0.02369     0.09506     0.01039
 PX  C  34  -0.08399     0.02459    -0.02443     0.01143    -0.01881     0.02271
 PY  C  34   0.02908    -0.00725     0.00315    -0.00810    -0.00078    -0.01522
 PZ  C  34  -0.10239     0.02819    -0.02219     0.02009    -0.01239     0.03869
  
  S  S  35   0.26788    -0.06997     0.05136    -0.00296     0.03023    -0.01676
 PX  S  35  -0.15956     0.04230    -0.03168     0.00677    -0.01847     0.01815
 PY  S  35  -0.07400     0.02436    -0.03103    -0.00319    -0.02737     0.00394
 PZ  S  35  -0.00106    -0.00597     0.02170     0.00925     0.02543     0.00724
  
  S  C  36   0.07325    -0.02451     0.03771     0.07949     0.03888     0.11192
 PX  C  36  -0.03932     0.01238    -0.01539     0.00970    -0.01531     0.01159
 PY  C  36   0.03550    -0.01053     0.01097    -0.00794     0.00868    -0.01641
 PZ  C  36  -0.08048     0.02439    -0.02720     0.01878    -0.02376     0.03251
  
  S  C  37  -0.00785     0.00146     0.00325     0.07316     0.00390     0.09881
 PX  C  37   0.00089     0.00031    -0.00293    -0.02422    -0.00402    -0.03528
 PY  C  37   0.01775    -0.00534     0.00561    -0.01487     0.00524    -0.02013
 PZ  C  37  -0.02578     0.00816    -0.01042     0.00520    -0.01063     0.00517
  
  S  C  38  -0.04493     0.01375    -0.01604     0.03768    -0.01882     0.02956
 PX  C  38   0.02128    -0.00641     0.00737    -0.00525     0.00765    -0.00129
 PY  C  38   0.00372    -0.00136     0.00315     0.01797     0.00454     0.03353
 PZ  C  38   0.00939    -0.00246     0.00049    -0.03017    -0.00143    -0.05080
  
  S  C  39  -0.06826     0.02144    -0.03096    -0.06630    -0.03606    -0.13149
 PX  C  39   0.00542    -0.00182     0.00457     0.05813     0.00380     0.07534
 PY  C  39  -0.00869     0.00205     0.00171     0.05829     0.00459     0.09527
 PZ  C  39   0.01676    -0.00434     0.00070    -0.04427    -0.00443    -0.08927
  
  S  O  40  -0.04188     0.01111    -0.00802     0.00240    -0.00240     0.01926
 PX  O  40  -0.02690     0.00777    -0.00676     0.03429    -0.00579     0.04545
 PY  O  40   0.01208    -0.00447     0.00937     0.04570     0.01050     0.06397
 PZ  O  40  -0.03682     0.01210    -0.01866    -0.04323    -0.01975    -0.06306
  
  S  C  41  -0.03736     0.01318    -0.02949    -0.17177    -0.04680    -0.36245
 PX  C  41   0.00149    -0.00076     0.00403     0.06133     0.00474     0.08904
 PY  C  41  -0.00770     0.00234    -0.00250     0.00099     0.00028     0.02535
 PZ  C  41   0.01270    -0.00409     0.00679     0.05142     0.00107     0.02026
  
  S  C  42  -0.02262     0.00857    -0.02491    -0.29805    -0.01661    -0.32247
 PX  C  42  -0.00702     0.00240    -0.00412     0.06236    -0.02628    -0.09921
 PY  C  42  -0.00757     0.00257    -0.00520    -0.00701    -0.01421    -0.08470
 PZ  C  42   0.00631    -0.00214     0.00505     0.08747    -0.00577     0.02741
  
  S  C  43   0.00534    -0.00142     0.00038    -0.11303     0.02801     0.08572
 PX  C  43  -0.00324     0.00123    -0.00214     0.20656    -0.06679    -0.27133
 PY  C  43  -0.00634     0.00237    -0.00618     0.06109    -0.04315    -0.23111
 PZ  C  43   0.00730    -0.00270     0.00879     0.25091    -0.03402    -0.02902
  
  S  O  44   0.01076    -0.00364     0.00597    -0.35846     0.12267     0.51210
 PX  O  44   0.00334    -0.00112     0.00200    -0.06552     0.02552     0.11215
 PY  O  44   0.00220    -0.00070     0.00072    -0.08910     0.02662     0.10067
 PZ  O  44   0.00181    -0.00068     0.00223     0.05333    -0.00540     0.00641
  
  S  O  45   0.01248    -0.00417     0.01188     0.47031    -0.08754    -0.21555
 PX  O  45  -0.00354     0.00122    -0.00324    -0.06401     0.00559    -0.01026
 PY  O  45  -0.00298     0.00109    -0.00317    -0.05193     0.00177    -0.02671
 PZ  O  45  -0.00020    -0.00006     0.00076    -0.01407     0.00817     0.04268
  
  S  C  46  -0.01340     0.00532    -0.02012    -0.40471     0.01332    -0.27277
 PX  C  46  -0.00740     0.00251    -0.00418     0.01254    -0.00990    -0.02321
 PY  C  46  -0.00114     0.00036    -0.00076     0.00815    -0.00595    -0.03493
 PZ  C  46  -0.00370     0.00129    -0.00188     0.00477    -0.00037     0.02800
  
  S  N  47  -0.00176     0.00119    -0.01064    -0.30555     0.01525    -0.21105
 PX  N  47  -0.00194     0.00084    -0.00422    -0.09868     0.00337    -0.07359
 PY  N  47   0.00119    -0.00041     0.00111     0.02524    -0.00221     0.00722
 PZ  N  47  -0.00316     0.00122    -0.00474    -0.10847     0.00535    -0.06636
  
  S  H  48  -0.01155     0.00417    -0.00962    -0.03371    -0.02148    -0.13872
  
  S  H  49   0.00612     0.05121     0.07824    -0.01275    -0.08746     0.01228
  
  S  H  50   0.00501     0.04266     0.06827    -0.01140    -0.07876     0.01118
  
  S  H  51   0.00612     0.05122     0.07825    -0.01275    -0.08746     0.01228
  
  S  H  52   0.00985     0.07817     0.10287    -0.01535    -0.10256     0.01385
  
  S  H  53   0.00985     0.07819     0.10289    -0.01535    -0.10257     0.01385
  
  S  H  54   0.01267     0.09233     0.09262    -0.01139    -0.07137     0.00869
  
  S  H  55   0.01266     0.09232     0.09262    -0.01139    -0.07135     0.00869
  
  S  H  56   0.01333     0.08359     0.04006    -0.00090     0.00314    -0.00219
  
  S  H  57   0.01338     0.08363     0.04001    -0.00090     0.00313    -0.00218
  
  S  H  58   0.01220     0.05599    -0.02907     0.00993     0.07493    -0.01161
  
  S  H  59   0.01195     0.05582    -0.02879     0.00992     0.07495    -0.01162
  
  S  H  60   0.00826     0.01459    -0.08570     0.01556     0.10531    -0.01411
  
  S  H  61   0.00906     0.01519    -0.08642     0.01558     0.10531    -0.01409
  
  S  H  62   0.00699    -0.02954    -0.10531     0.01218     0.07113    -0.00734
  
  S  H  63   0.00157    -0.03389    -0.10045     0.01212     0.07173    -0.00758
  
  S  H  64  -0.00741    -0.06961    -0.08347     0.00428     0.01004     0.00239
  
  S  H  65   0.00151    -0.06359    -0.08773     0.00452     0.01204     0.00195
  
  S  H  66   0.03355     0.03859    -0.05759     0.00165    -0.00564     0.00407
  
  S  H  67   0.03943     0.07952    -0.04674     0.00302     0.00711     0.00187
  
  S  H  68   0.03961     0.08361    -0.03874     0.00330     0.01293     0.00023
  
  S  H  69   0.03661     0.07142    -0.01074     0.00343     0.02699    -0.00453
  
  S  H  70   0.01415     0.02649    -0.06501    -0.00511    -0.05585     0.01023
  
  S  H  71  -0.02778     0.02839     0.00959     0.00764     0.05822    -0.00809
  
  S  H  72   0.00378    -0.01391     0.00038     0.00128     0.01267    -0.00250
  
  S  H  73   0.01319    -0.02574    -0.02292    -0.00403    -0.03959     0.00747
  
  S  H  74   0.01464    -0.02695    -0.02657    -0.00496    -0.04888     0.00928
  
  S  H  75   0.01460    -0.02322    -0.02213    -0.00400    -0.03868     0.00714
  
  S  H  76   0.00913    -0.00546     0.00599     0.00110     0.01457    -0.00355
  
  S  H  77   0.10531    -0.02573     0.01312    -0.00749     0.00352    -0.01405
  
  S  H  78   0.09996    -0.03023     0.03378    -0.00560     0.02954    -0.01110
  
  S  H  79   0.00625    -0.00219     0.00406     0.02196     0.00394     0.02914
  
  S  H  80  -0.01152     0.00369    -0.00508     0.00651    -0.00699    -0.00332
  
  S  H  81   0.00645    -0.00223     0.00642     0.19072    -0.02865    -0.04357




    ROOT NO.   13          14          15          16          17          18

           -36.86451   -36.41138   -35.43520   -34.84852   -34.34654   -33.45017
  
  
  S  C   1   0.26494    -0.03972     0.06429    -0.01956     0.26367    -0.08004
 PX  C   1   0.05821    -0.00810     0.01071    -0.00278     0.03144    -0.00599
 PY  C   1   0.00466    -0.00039    -0.00048     0.00036    -0.00735     0.00361
 PZ  C   1   0.00000    -0.00000     0.00000    -0.00000     0.00002     0.00000
  
  S  C   2   0.23426    -0.03253     0.04348    -0.01152     0.13542    -0.03011
 PX  C   2  -0.07837     0.01280    -0.02418     0.00794    -0.11342     0.03756
 PY  C   2   0.00220     0.00086    -0.00547     0.00238    -0.04009     0.01626
 PZ  C   2   0.00000    -0.00000     0.00000    -0.00000     0.00006     0.00000
  
  S  C   3   0.01603     0.00236    -0.01879     0.00812    -0.13433     0.05217
 PX  C   3  -0.11179     0.01755    -0.02985     0.00907    -0.12009     0.03374
 PY  C   3  -0.07971     0.01145    -0.01615     0.00436    -0.05132     0.01087
 PZ  C   3   0.00002    -0.00000     0.00000    -0.00001     0.00018     0.00002
  
  S  C   4  -0.22425     0.03622    -0.06292     0.01904    -0.24902     0.06765
 PX  C   4  -0.04491     0.00444     0.00147    -0.00210     0.04720    -0.02397
 PY  C   4  -0.07945     0.01092    -0.01270     0.00271    -0.02174    -0.00219
 PZ  C   4  -0.00014     0.00003    -0.00006     0.00000     0.00031     0.00014
  
  S  C   5  -0.26408     0.03550    -0.03858     0.00770    -0.05494    -0.01008
 PX  C   5   0.01112    -0.00509     0.01919    -0.00748     0.11598    -0.03980
 PY  C   5   0.06448    -0.01118     0.02164    -0.00684     0.09217    -0.02612
 PZ  C   5  -0.00043     0.00009    -0.00018    -0.00001     0.00125     0.00041
  
  S  C   6  -0.06637     0.00066     0.02805    -0.01276     0.20742    -0.07185
 PX  C   6   0.11791    -0.01753     0.02355    -0.00556     0.05057     0.00117
 PY  C   6   0.06535    -0.01170     0.02209    -0.00653     0.07965    -0.01689
 PZ  C   6  -0.00143     0.00031    -0.00069    -0.00001     0.00396     0.00127
  
  S  C   7   0.18476    -0.03407     0.06469    -0.01852     0.20500    -0.03685
 PX  C   7   0.10418    -0.01317     0.00882     0.00023    -0.04915     0.03411
 PY  C   7   0.02469    -0.00062    -0.00924     0.00463    -0.08402     0.02710
 PZ  C   7  -0.00536     0.00116    -0.00251    -0.00002     0.01454     0.00413
  
  S  C   8   0.30048    -0.04160     0.04112    -0.00567    -0.03835     0.06567
 PX  C   8  -0.02844     0.00809    -0.02335     0.00776    -0.10210     0.02989
 PY  C   8   0.03477    -0.00173    -0.00767     0.00447    -0.10750     0.03410
 PZ  C   8  -0.01041     0.00328    -0.01100     0.00171     0.03329     0.00933
  
  S  N   9   0.04612    -0.00334     0.00638     0.00015    -0.18844     0.06347
 PX  N   9  -0.07185     0.01026    -0.01246     0.00184     0.02815    -0.01496
 PY  N   9  -0.19555     0.02316     0.00050    -0.00613     0.06571    -0.05235
 PZ  N   9  -0.01581     0.00725    -0.03903     0.01102     0.07068     0.01001
  
  S  C  10  -0.04566     0.00685     0.00939    -0.00324    -0.12343    -0.03373
 PX  C  10  -0.05016     0.00450     0.01225    -0.00697     0.03186     0.00337
 PY  C  10  -0.09937     0.01015     0.01604    -0.01308     0.13967    -0.00789
 PZ  C  10  -0.12125     0.00657     0.05814    -0.02589     0.05478     0.02659
  
  S  C  11   0.14357    -0.00307    -0.10174     0.04866    -0.22291    -0.08920
 PX  C  11  -0.00554     0.00128    -0.00150    -0.00005    -0.00419    -0.00010
 PY  C  11   0.00237     0.00496    -0.03322     0.01120     0.00727    -0.01814
 PZ  C  11  -0.01061    -0.00150     0.02983    -0.01247    -0.01899     0.01573
  
  S  C  12   0.13170     0.00258    -0.13697     0.05860    -0.11857    -0.07800
 PX  C  12   0.00110     0.00057    -0.00268     0.00025     0.00760     0.00341
 PY  C  12  -0.01130     0.00143     0.00504    -0.00554     0.06366     0.02903
 PZ  C  12   0.02294     0.00107    -0.02052     0.00741    -0.01989    -0.01181
  
  S  C  13   0.07677     0.00180    -0.06548     0.02102     0.05364     0.02626
 PX  C  13  -0.00789    -0.00047     0.01288    -0.00614     0.01861     0.01389
 PY  C  13  -0.03110    -0.00222     0.04472    -0.01942     0.04873     0.03980
 PZ  C  13  -0.01177    -0.00036     0.02520    -0.01395     0.05481     0.03347
  
  S  C  14  -0.02082    -0.00590     0.08544    -0.04334     0.18932     0.11935
 PX  C  14  -0.00781    -0.00172     0.01745    -0.00641     0.00418     0.01040
 PY  C  14   0.01337    -0.00347     0.00719    -0.00091    -0.01619     0.01559
 PZ  C  14  -0.05412    -0.00486     0.07694    -0.02933     0.03451     0.02088
  
  S  C  15  -0.18737     0.00362     0.14128    -0.06253     0.19283     0.04379
 PX  C  15  -0.00494    -0.00289     0.01955    -0.00676     0.01488     0.01209
 PY  C  15   0.05869    -0.01443     0.04905    -0.01824     0.05844     0.06403
 PZ  C  15  -0.07978    -0.00095     0.04729    -0.01421     0.03023    -0.01911
  
  S  C  16  -0.13094    -0.00533     0.06637    -0.01690     0.16672    -0.05505
 PX  C  16   0.03593    -0.00729     0.01071    -0.00080    -0.01628     0.00928
 PY  C  16   0.09195    -0.03046     0.11644    -0.03451    -0.04178     0.05605
 PZ  C  16   0.12245    -0.00493    -0.11021     0.05093    -0.05428    -0.06181
  
  S  C  17  -0.08472     0.03190    -0.16558     0.05489     0.09486    -0.05504
 PX  C  17  -0.00485     0.00236    -0.01948     0.00737     0.01886    -0.01581
 PY  C  17  -0.05871     0.00223    -0.00749     0.00702     0.08168    -0.07501
 PZ  C  17   0.10661     0.00460    -0.11445     0.03953     0.03026    -0.01155
  
  S  C  18   0.01689     0.04282    -0.19941     0.04507     0.07984     0.05041
 PX  C  18  -0.00084     0.00254    -0.00958     0.00185     0.00051    -0.00119
 PY  C  18   0.02015     0.00764    -0.09385     0.03637     0.02109    -0.05995
 PZ  C  18  -0.02041     0.00470     0.07073    -0.04015    -0.02020     0.07298
  
  S  S  19  -0.03843     0.00569     0.06197    -0.03281     0.02102     0.06396
 PX  S  19  -0.01126     0.00225     0.00974    -0.00603     0.00016     0.01166
 PY  S  19  -0.02155     0.01486    -0.00237    -0.01524     0.01438     0.06557
 PZ  S  19  -0.04767    -0.01171     0.08989    -0.02262    -0.01126    -0.03510
  
  S  C  20  -0.12472    -0.03359     0.27068    -0.07046    -0.02325    -0.05155
 PX  C  20  -0.00172     0.00193     0.00340    -0.00312    -0.00265     0.01299
 PY  C  20  -0.00941     0.02144    -0.00720    -0.02305    -0.00222     0.09478
 PZ  C  20  -0.00345    -0.03167     0.05687     0.01489    -0.01802    -0.11904
  
  S  C  21  -0.06947     0.00794     0.12794    -0.06214    -0.03768     0.08126
 PX  C  21   0.00879    -0.00091    -0.01125     0.00565    -0.00286    -0.00681
 PY  C  21   0.05115     0.00836    -0.09609     0.02934    -0.00947    -0.00005
 PZ  C  21  -0.00914    -0.02103     0.05902    -0.00013    -0.00751    -0.06558
  
  S  C  22   0.05344     0.03510    -0.15873     0.03102    -0.00974     0.03873
 PX  C  22   0.00672    -0.00331     0.00848    -0.00075    -0.01434    -0.00499
 PY  C  22   0.06594    -0.01596    -0.03461     0.03107    -0.04998    -0.08367
 PZ  C  22  -0.04753    -0.00175     0.11758    -0.05220    -0.03485     0.07715
  
  S  C  23   0.17510    -0.01838    -0.07744     0.04433    -0.14094    -0.07903
 PX  C  23  -0.00500    -0.00231     0.02290    -0.00838    -0.00665     0.01423
 PY  C  23   0.00747    -0.02252     0.12057    -0.03396    -0.06062     0.01849
 PZ  C  23  -0.04460     0.01750    -0.02199    -0.00565     0.01613     0.03677
  
  S  C  24   0.14887    -0.05882     0.15480    -0.02512    -0.10752    -0.02048
 PX  C  24   0.01414    -0.00491     0.02631    -0.00933    -0.02341     0.03057
 PY  C  24   0.03165    -0.02348     0.15250    -0.05287    -0.11176     0.08433
 PZ  C  24   0.07285     0.00456    -0.10323     0.04240    -0.08150    -0.06565
  
  S  C  25   0.09241    -0.05362     0.25989    -0.07981    -0.16297     0.11806
 PX  C  25  -0.01842     0.00569    -0.00769    -0.00311     0.05228     0.06572
 PY  C  25  -0.04315     0.02648    -0.10340     0.02750     0.01022    -0.03817
 PZ  C  25   0.04386    -0.00886     0.00111     0.00815    -0.08352    -0.06044
  
  S  C  26   0.03944    -0.01109     0.03969    -0.00590    -0.17028    -0.10227
 PX  C  26  -0.00104     0.00070     0.00368    -0.00262    -0.00731     0.01619
 PY  C  26  -0.04896     0.02703    -0.12559     0.03879     0.06016    -0.08304
 PZ  C  26   0.01451    -0.00477     0.01020    -0.00087    -0.01569    -0.00591
  
  S  C  27  -0.04548     0.03413    -0.17723     0.06135    -0.00950    -0.20995
 PX  C  27  -0.02039     0.01126    -0.05086     0.01477     0.04203    -0.00524
 PY  C  27  -0.00647     0.00266    -0.02041     0.00733     0.04377    -0.00195
 PZ  C  27   0.01729    -0.00868     0.03874    -0.01110    -0.04006     0.00233
  
  S  C  28  -0.07955     0.04850    -0.23680     0.07492     0.12805    -0.12466
 PX  C  28  -0.00041    -0.00182     0.01412    -0.00685     0.03034     0.05822
 PY  C  28   0.01682    -0.00817     0.02551    -0.00460    -0.02245    -0.02256
 PZ  C  28  -0.00132     0.00249    -0.01505     0.00625    -0.02135    -0.04117
  
  S  C  29  -0.06994     0.03402    -0.13185     0.03161     0.16239     0.07617
 PX  C  29   0.01504    -0.00821     0.03362    -0.00962    -0.01224     0.01842
 PY  C  29  -0.01047     0.01094    -0.07326     0.02793     0.01204    -0.08768
 PZ  C  29  -0.00784     0.00476    -0.01850     0.00502     0.00146    -0.00589
  
  S  C  30  -0.00891    -0.01073     0.10853    -0.04767     0.05570     0.21343
 PX  C  30  -0.01268     0.01027    -0.05731     0.01839     0.03610    -0.01322
 PY  C  30  -0.03378     0.02292    -0.10580     0.03102     0.04842    -0.02161
 PZ  C  30   0.02195    -0.00994     0.04265    -0.01148    -0.05389    -0.00002
  
  S  C  31  -0.06406    -0.08697     0.19269     0.02075    -0.02473    -0.23654
 PX  C  31   0.00242     0.01053    -0.00976    -0.00095     0.00110     0.05404
 PY  C  31  -0.02703     0.00609     0.06472    -0.02800    -0.00808     0.01406
 PZ  C  31   0.03865    -0.00199    -0.09334     0.03720     0.00870     0.02007
  
  S  C  32  -0.00563    -0.06542     0.03482     0.03607    -0.00670    -0.19873
 PX  C  32  -0.00005    -0.02036     0.00633     0.01703    -0.00135    -0.03387
 PY  C  32  -0.01770    -0.01654     0.05371     0.00449    -0.00645    -0.04997
 PZ  C  32   0.02606     0.01025    -0.07445     0.00485     0.00777     0.05109
  
  S  C  33   0.05008     0.02225    -0.13895    -0.03152     0.01298     0.06967
 PX  C  33   0.01598     0.01595    -0.04758    -0.01390     0.00551     0.08201
 PY  C  33   0.00231    -0.02258    -0.00209     0.02805     0.00031    -0.03253
 PZ  C  33   0.00775     0.04478    -0.03013    -0.05173     0.00322     0.10627
  
  S  C  34   0.06151     0.07593    -0.16756    -0.00494     0.02369     0.30200
 PX  C  34  -0.00876     0.00929     0.03258     0.05301     0.00202     0.05829
 PY  C  34  -0.00741    -0.03318     0.02655     0.05767    -0.00105    -0.04545
 PZ  C  34   0.00468     0.05586    -0.01606    -0.04879     0.00279     0.10860
  
  S  S  35   0.00233    -0.02136     0.00893     0.06829     0.00155     0.03840
 PX  S  35   0.00015     0.02292    -0.00717    -0.01739     0.00220     0.03787
 PY  S  35  -0.01641    -0.00668     0.04291    -0.02643    -0.00774    -0.05887
 PZ  S  35   0.02314     0.02570    -0.06491     0.02583     0.01179     0.11439
  
  S  C  36   0.03473     0.12857    -0.06275     0.02841     0.01685     0.28150
 PX  C  36  -0.01821    -0.04446     0.08586     0.25431     0.00742    -0.00018
 PY  C  36   0.00427    -0.01498    -0.00551     0.11548     0.01019     0.09388
 PZ  C  36  -0.01919    -0.00899     0.06858     0.00646    -0.01001    -0.14000
  
  S  C  37  -0.00454     0.01982     0.09600     0.42959     0.02299     0.17113
 PX  C  37  -0.00410    -0.02877     0.00224     0.00336    -0.00125    -0.03519
 PY  C  37   0.00640     0.00682    -0.03073    -0.05429     0.00053     0.03622
 PZ  C  37  -0.01241    -0.03033     0.04732     0.08304    -0.00169    -0.07864
  
  S  C  38  -0.02914    -0.10055     0.13368     0.46540     0.01538    -0.02034
 PX  C  38   0.00809     0.02745    -0.01833    -0.01742     0.00226     0.04963
 PY  C  38   0.00412     0.03759     0.01166     0.03783     0.00269     0.03944
 PZ  C  38  -0.00045    -0.03658    -0.03015    -0.06845    -0.00242    -0.02395
  
  S  C  39  -0.03594    -0.20466     0.03834     0.11221    -0.00243    -0.14703
 PX  C  39  -0.00405     0.00959     0.06274     0.24140     0.01066     0.04177
 PY  C  39   0.00189     0.06665     0.04157     0.04770    -0.00092    -0.02134
 PZ  C  39  -0.00561    -0.09193    -0.01766     0.09835     0.00883     0.06077
  
  S  O  40   0.01028     0.07774    -0.07100    -0.44567    -0.02450    -0.13878
 PX  O  40  -0.00692    -0.00108     0.02579     0.00678    -0.00327    -0.04487
 PY  O  40   0.00990     0.05616    -0.01185    -0.01648     0.00249     0.06389
 PZ  O  40  -0.01962    -0.08452     0.03574     0.02932    -0.00601    -0.12652
  
  S  C  41  -0.03325    -0.33894    -0.07428     0.04555     0.00834     0.05234
 PX  C  41  -0.00232     0.02604     0.04081     0.07235    -0.00069    -0.06330
 PY  C  41  -0.00450    -0.00522     0.02136     0.01936    -0.00272    -0.06905
 PZ  C  41   0.00549     0.02984    -0.00219     0.02241     0.00352     0.05773
  
  S  C  42  -0.01238    -0.21140    -0.09278    -0.02154     0.01007     0.17140
 PX  C  42  -0.01181    -0.11287    -0.02742    -0.01085     0.00097     0.00018
 PY  C  42  -0.00223    -0.02519    -0.00661    -0.01396    -0.00110    -0.02190
 PZ  C  42  -0.00388    -0.03467    -0.00875     0.01284     0.00232     0.03365
  
  S  C  43  -0.00606    -0.06579    -0.02476    -0.00345     0.00323     0.06071
 PX  C  43   0.00635     0.01718    -0.01118     0.00060     0.00240     0.04589
 PY  C  43   0.00272    -0.02344    -0.02514     0.00088     0.00422     0.07695
 PZ  C  43   0.00910     0.10599     0.03665    -0.00030    -0.00458    -0.07439
  
  S  O  44  -0.01624    -0.07998     0.00382    -0.00488    -0.00262    -0.05427
 PX  O  44  -0.00291    -0.01186     0.00171    -0.00134    -0.00058    -0.01002
 PY  O  44  -0.00302    -0.01828    -0.00212    -0.00015     0.00013     0.00262
 PZ  O  44   0.00146     0.02188     0.00919    -0.00148    -0.00142    -0.02428
  
  S  O  45   0.01904     0.16858     0.03962    -0.00203    -0.00378    -0.04776
 PX  O  45  -0.00286    -0.03348    -0.01048     0.00295     0.00141     0.01948
 PY  O  45  -0.00311    -0.04181    -0.01579     0.00223     0.00224     0.03596
 PZ  O  45   0.00199     0.03331     0.01538    -0.00108    -0.00234    -0.04100
  
  S  C  46   0.04334     0.31828     0.05978     0.05936     0.00101     0.01723
 PX  C  46  -0.02516    -0.23950    -0.07392    -0.07038     0.00186     0.05012
 PY  C  46   0.00527     0.04618     0.01111    -0.00519    -0.00170    -0.02592
 PZ  C  46  -0.02592    -0.24186    -0.07045    -0.04388     0.00390     0.07566
  
  S  N  47   0.06530     0.54638     0.13718     0.11907    -0.00290    -0.07045
 PX  N  47   0.01748     0.14120     0.03213     0.02231    -0.00096    -0.01713
 PY  N  47  -0.00367    -0.03378    -0.01063    -0.01379    -0.00011     0.00081
 PZ  N  47   0.01841     0.15473     0.03950     0.03693    -0.00054    -0.01370
  
  S  H  48  -0.01390    -0.13816    -0.02278     0.05739     0.00551     0.03253
  
  S  H  49   0.11348    -0.01705     0.02775    -0.00848     0.11486    -0.03524
  
  S  H  50   0.11088    -0.01691     0.02845    -0.00887     0.12214    -0.03859
  
  S  H  51   0.11347    -0.01704     0.02775    -0.00848     0.11485    -0.03523
  
  S  H  52   0.09251    -0.01278     0.01684    -0.00442     0.05129    -0.01100
  
  S  H  53   0.09252    -0.01278     0.01684    -0.00441     0.05124    -0.01101
  
  S  H  54   0.00702     0.00085    -0.00729     0.00316    -0.05231     0.02016
  
  S  H  55   0.00695     0.00086    -0.00731     0.00316    -0.05220     0.02022
  
  S  H  56  -0.09020     0.01453    -0.02512     0.00757    -0.09865     0.02701
  
  S  H  57  -0.09005     0.01450    -0.02506     0.00757    -0.09913     0.02686
  
  S  H  58  -0.10588     0.01418    -0.01530     0.00309    -0.02272    -0.00455
  
  S  H  59  -0.10649     0.01430    -0.01552     0.00307    -0.02108    -0.00402
  
  S  H  60  -0.02663     0.00033     0.01085    -0.00510     0.08495    -0.02693
  
  S  H  61  -0.02499    -0.00004     0.01166    -0.00508     0.08001    -0.02847
  
  S  H  62   0.07639    -0.01397     0.02564    -0.00664     0.06817    -0.01987
  
  S  H  63   0.06847    -0.01243     0.02305    -0.00699     0.08875    -0.01392
  
  S  H  64   0.11995    -0.01515     0.00895    -0.00109     0.00954     0.03285
  
  S  H  65   0.13038    -0.01875     0.02037    -0.00251    -0.02542     0.02051
  
  S  H  66   0.07703    -0.00486    -0.03565     0.01959    -0.10814    -0.03591
  
  S  H  67   0.05299     0.00052    -0.05608     0.02514    -0.05463    -0.03542
  
  S  H  68   0.02972     0.00020    -0.02420     0.00801     0.02419     0.01556
  
  S  H  69  -0.01120    -0.00636     0.06435    -0.02892     0.08981     0.07910
  
  S  H  70  -0.01956    -0.00225     0.05445    -0.02013    -0.02602     0.01198
  
  S  H  71   0.07182    -0.01161     0.00375     0.00541    -0.08948    -0.01726
  
  S  H  72   0.03067    -0.01007     0.03268    -0.00539    -0.09228    -0.05144
  
  S  H  73  -0.01560     0.01272    -0.07190     0.02623    -0.00653    -0.10053
  
  S  H  74  -0.03005     0.01886    -0.09810     0.03228     0.05737    -0.05922
  
  S  H  75  -0.02626     0.01266    -0.05121     0.01244     0.07432     0.03797
  
  S  H  76   0.00026    -0.00974     0.07221    -0.02871     0.03092     0.10894
  
  S  H  77  -0.00801    -0.02394     0.02891     0.00800    -0.00402    -0.09056
  
  S  H  78   0.02138     0.03232    -0.05783    -0.03602     0.00491     0.04169
  
  S  H  79   0.00047     0.00711     0.02994     0.17923     0.01121     0.09621
  
  S  H  80  -0.01138    -0.05136     0.04766     0.19499     0.00741    -0.00019
  
  S  H  81   0.00881     0.09110     0.02714    -0.00230    -0.00328    -0.04935




    ROOT NO.   19          20          21          22          23          24

           -33.16406   -32.63049   -31.53998   -31.23793   -30.42117   -29.73365
  
  
  S  C   1   0.12509     0.09818    -0.10634    -0.10231     0.22167     0.02386
 PX  C   1   0.00745     0.00288     0.00423     0.00624    -0.02735    -0.00436
 PY  C   1  -0.00635    -0.00600     0.00881     0.00907    -0.02298    -0.00273
 PZ  C   1  -0.00000    -0.00002    -0.00001    -0.00001     0.00003    -0.00001
  
  S  C   2   0.04149     0.02427    -0.00776    -0.00236    -0.02522    -0.00559
 PX  C   2  -0.06011    -0.04910     0.05642     0.05496    -0.12180    -0.01322
 PY  C   2  -0.02733    -0.02408     0.03126     0.03120    -0.07298    -0.00812
 PZ  C   2  -0.00001    -0.00008    -0.00004    -0.00001     0.00008    -0.00002
  
  S  C   3  -0.08636    -0.07377     0.08959     0.08766    -0.19419    -0.02059
 PX  C   3  -0.05075    -0.03634     0.02888     0.02445    -0.03090    -0.00108
 PY  C   3  -0.01440    -0.00713    -0.00180    -0.00458     0.02682     0.00455
 PZ  C   3  -0.00004    -0.00027    -0.00013    -0.00004     0.00023    -0.00007
  
  S  C   4  -0.10021    -0.06957     0.04903     0.03957    -0.03732     0.00044
 PX  C   4   0.04197     0.03878    -0.05351    -0.05349     0.12442     0.01345
 PY  C   4   0.00793     0.01303    -0.02762    -0.03002     0.08210     0.01008
 PZ  C   4  -0.00026    -0.00093    -0.00030    -0.00004     0.00053    -0.00019
  
  S  C   5   0.02834     0.04049    -0.07360    -0.07740     0.19251     0.02177
 PX  C   5   0.06292     0.04856    -0.04419    -0.03840     0.05295     0.00216
 PY  C   5   0.03874     0.02751    -0.01585    -0.01154    -0.00160    -0.00239
 PZ  C   5  -0.00075    -0.00293    -0.00096    -0.00017     0.00170    -0.00053
  
  S  C   6   0.11355     0.08395    -0.07353    -0.06179     0.07531     0.00115
 PX  C   6  -0.00995    -0.02206     0.04427     0.04810    -0.12397    -0.01439
 PY  C   6   0.02157     0.00978     0.01235     0.01661    -0.06541    -0.00886
 PZ  C   6  -0.00236    -0.00888    -0.00307    -0.00061     0.00471    -0.00142
  
  S  C   7   0.04542     0.01350     0.04732     0.05156    -0.15698    -0.02085
 PX  C   7  -0.05737    -0.05669     0.06088     0.05270    -0.06972    -0.00522
 PY  C   7  -0.04105    -0.02537     0.02688     0.01808    -0.00795     0.00259
 PZ  C   7  -0.00783    -0.02918    -0.00938    -0.00143     0.01413    -0.00470
  
  S  C   8  -0.11376    -0.13023     0.12318     0.10654    -0.11040    -0.01180
 PX  C   8  -0.04210    -0.03356    -0.01350    -0.01778     0.09474     0.01003
 PY  C   8  -0.04392    -0.02868     0.01733    -0.00244     0.08570     0.00654
 PZ  C   8  -0.02264    -0.07191    -0.03320    -0.00607     0.02920    -0.01125
  
  S  N   9  -0.05668    -0.05551     0.04506    -0.01069     0.22838    -0.00545
 PX  N   9   0.01919     0.00553    -0.04312    -0.02397     0.03591    -0.00566
 PY  N   9   0.10849     0.10023    -0.05420    -0.06022     0.06462    -0.00822
 PZ  N   9  -0.06705    -0.16576    -0.09476     0.00249     0.07702    -0.04328
  
  S  C  10   0.12192     0.24935     0.04701    -0.07034    -0.08603     0.08782
 PX  C  10   0.01551    -0.01263     0.01099    -0.00634     0.02441    -0.00159
 PY  C  10   0.04402    -0.04737     0.01716    -0.00759    -0.04958     0.01011
 PZ  C  10   0.03201    -0.05174     0.06805     0.00290     0.13855    -0.02839
  
  S  C  11   0.02139     0.28581    -0.18808    -0.05238    -0.18772     0.01651
 PX  C  11   0.00712     0.00759     0.00991    -0.00567    -0.00073     0.01183
 PY  C  11   0.00133    -0.01093    -0.03719    -0.00664     0.01782    -0.00967
 PZ  C  11   0.03856     0.04980     0.10237    -0.01399    -0.04400     0.07208
  
  S  C  12  -0.06125     0.03848    -0.24619     0.00708     0.08561    -0.12549
 PX  C  12  -0.00343    -0.01929     0.01286     0.00330     0.01675     0.00278
 PY  C  12  -0.03143    -0.14641     0.06867     0.03534     0.14854    -0.02598
 PZ  C  12   0.01289     0.03718     0.00366    -0.01393    -0.05924     0.03942
  
  S  C  13  -0.10762    -0.26271     0.02517     0.07133     0.28389    -0.08241
 PX  C  13  -0.00185    -0.02119     0.03503     0.00248    -0.00191     0.01614
 PY  C  13  -0.00748    -0.06406     0.09332     0.01406     0.02567     0.02505
 PZ  C  13   0.00278    -0.05863     0.10435     0.00279    -0.03763     0.06372
  
  S  C  14  -0.06289    -0.28257     0.23543     0.05059     0.04643     0.05921
 PX  C  14  -0.00403     0.01292    -0.00050    -0.00510    -0.01954     0.00301
 PY  C  14  -0.03582    -0.01591    -0.01691     0.00720     0.05021    -0.02275
 PZ  C  14   0.04146     0.06814     0.02270    -0.02436    -0.16105     0.03572
  
  S  C  15   0.10409    -0.01042     0.15633    -0.01040    -0.16968     0.06176
 PX  C  15  -0.01392    -0.01148    -0.00543     0.00600    -0.00944    -0.01107
 PY  C  15  -0.07557    -0.14075     0.05468     0.04088    -0.03719     0.00079
 PZ  C  15   0.02653     0.05244    -0.06710     0.01016    -0.03212    -0.06502
  
  S  C  16   0.01513     0.01919    -0.06702     0.08857    -0.18156    -0.08430
 PX  C  16  -0.02876     0.00477    -0.00837     0.01187    -0.01248    -0.00566
 PY  C  16  -0.02303    -0.00582     0.04733     0.02741    -0.09324     0.00038
 PZ  C  16  -0.08243    -0.01261    -0.08057     0.06382     0.01729    -0.03199
  
  S  C  17  -0.09204    -0.15349    -0.22384    -0.01220     0.07263    -0.04623
 PX  C  17  -0.00445     0.01240    -0.01627     0.00699    -0.02860    -0.00085
 PY  C  17   0.05082     0.10787     0.01345     0.05863    -0.11416    -0.02621
 PZ  C  17  -0.08852    -0.07624    -0.08451    -0.00399    -0.11832     0.03758
  
  S  C  18  -0.10442    -0.18646    -0.21598    -0.14801    -0.10264     0.07724
 PX  C  18   0.00953     0.02352     0.02303    -0.00292    -0.00234     0.00559
 PY  C  18  -0.00398     0.06126     0.05724     0.04280     0.01174     0.00237
 PZ  C  18   0.08054     0.07462     0.09613    -0.07708    -0.05599     0.04796
  
  S  S  19  -0.03683    -0.13331    -0.19748    -0.07472    -0.12565     0.04653
 PX  S  19   0.00590    -0.00184    -0.01288    -0.01015    -0.01073    -0.00394
 PY  S  19   0.00179    -0.05259    -0.06775    -0.09169    -0.05865     0.02978
 PZ  S  19   0.02879     0.05452    -0.00207     0.06525    -0.00724    -0.01767
  
  S  C  20   0.02074     0.01873    -0.10849     0.17792    -0.00934    -0.11990
 PX  C  20   0.01480     0.01388     0.01989     0.00835     0.01577    -0.04489
 PY  C  20   0.06676     0.03743     0.08845    -0.08314     0.01414    -0.02671
 PZ  C  20  -0.03514     0.03019     0.00631     0.17324     0.08014    -0.07683
  
  S  C  21   0.12083     0.11872     0.18614    -0.00178     0.09683    -0.07279
 PX  C  21  -0.00147     0.00703     0.01763     0.00877     0.01749    -0.00753
 PY  C  21   0.00532     0.03455     0.12450    -0.04248     0.06530     0.05950
 PZ  C  21  -0.02545    -0.00559    -0.05382     0.12034     0.02734    -0.08361
  
  S  C  22   0.04477     0.09357     0.21971    -0.08656     0.06724     0.09179
 PX  C  22   0.00965     0.02669     0.04614     0.01701     0.03498    -0.00613
 PY  C  22   0.00165     0.08408     0.14944     0.11466     0.12835    -0.01256
 PZ  C  22   0.08545     0.05765     0.11982    -0.04625     0.06099    -0.01302
  
  S  C  23   0.03467     0.13893     0.25926     0.10013     0.19351     0.02618
 PX  C  23  -0.00086     0.00488     0.00212    -0.00728     0.01146    -0.00127
 PY  C  23   0.02507    -0.03109    -0.05758    -0.00081     0.01202    -0.02828
 PZ  C  23   0.03800     0.02731     0.10759    -0.05661     0.06685     0.04015
  
  S  C  24  -0.01804     0.03517    -0.02430     0.10284    -0.05366    -0.06662
 PX  C  24  -0.02364     0.02148     0.00186    -0.01983     0.03236     0.00795
 PY  C  24   0.04686    -0.03212    -0.02143    -0.09757     0.06419     0.02346
 PZ  C  24   0.02376     0.03759     0.08679     0.03489     0.13695     0.02490
  
  S  C  25   0.01902    -0.03960    -0.12793    -0.13905     0.03597     0.01747
 PX  C  25  -0.13365     0.09079    -0.01016    -0.01372     0.01723     0.00661
 PY  C  25   0.05879    -0.04226    -0.01343    -0.05670     0.04769     0.03888
 PZ  C  25   0.09841    -0.03643     0.01103     0.01777     0.03313    -0.00850
  
  S  C  26   0.31457    -0.22768    -0.06697    -0.10311     0.02118     0.03572
 PX  C  26  -0.01573     0.01237    -0.01856    -0.02368     0.01653     0.00711
 PY  C  26   0.06147    -0.04051     0.04049     0.04787    -0.04641    -0.00370
 PZ  C  26   0.00625     0.00517     0.01095     0.01222     0.01023    -0.00464
  
  S  C  27   0.28484    -0.18406     0.05572     0.07273    -0.08862    -0.01620
 PX  C  27  -0.04998     0.04870     0.02557     0.04062    -0.00792    -0.01455
 PY  C  27  -0.05582     0.04888     0.04451     0.07039    -0.03269    -0.02921
 PZ  C  27   0.04543    -0.03972    -0.02493    -0.03916     0.01381     0.01445
  
  S  C  28  -0.01421     0.06042     0.12422     0.18497    -0.07479    -0.06151
 PX  C  28  -0.12124     0.09294     0.00072     0.00440     0.03102    -0.00266
 PY  C  28   0.05102    -0.03686     0.01422     0.02392    -0.02766    -0.01470
 PZ  C  28   0.08292    -0.06069    -0.00381    -0.00660    -0.01772     0.00353
  
  S  C  29  -0.30019     0.24187     0.04748     0.06939     0.04189    -0.01385
 PX  C  29  -0.01687     0.01254    -0.00547    -0.00570     0.00939     0.00012
 PY  C  29   0.07458    -0.02674     0.05894     0.09031    -0.04438    -0.03519
 PZ  C  29   0.00472     0.00085    -0.00836    -0.00871     0.00230     0.00354
  
  S  C  30  -0.29745     0.17560    -0.08302    -0.10682     0.06115     0.03315
 PX  C  30  -0.04637     0.05235     0.02902     0.03821     0.01153    -0.00685
 PY  C  30  -0.04719     0.05512     0.02122     0.02059     0.03294     0.00525
 PZ  C  30   0.04590    -0.02689    -0.03633    -0.03314     0.00367     0.00168
  
  S  C  31  -0.09790     0.00149    -0.07727     0.24238     0.05744    -0.05255
 PX  C  31   0.03603     0.01411     0.00516     0.02061     0.01321    -0.14203
 PY  C  31   0.03032     0.02066    -0.02626     0.09136     0.01769    -0.10926
 PZ  C  31  -0.00897    -0.00603     0.06788    -0.10952     0.00497     0.03805
  
  S  C  32  -0.12383    -0.03280     0.02258    -0.05556    -0.00512     0.30478
 PX  C  32  -0.01867    -0.00173     0.00054     0.01968     0.01235    -0.04469
 PY  C  32  -0.01620     0.00358    -0.03462     0.09790     0.02109    -0.05061
 PZ  C  32   0.01315    -0.00315     0.05889    -0.12988    -0.01667     0.03856
  
  S  C  33   0.00965    -0.01506     0.08529    -0.24191    -0.05402     0.15103
 PX  C  33   0.04494     0.00897    -0.00281     0.00332    -0.00119    -0.13113
 PY  C  33  -0.02266    -0.00528     0.01307    -0.01401     0.00623     0.02222
 PZ  C  33   0.06588     0.01498    -0.01974     0.02358    -0.00867    -0.12662
  
  S  C  34   0.15711     0.02368    -0.00237    -0.04539    -0.02784    -0.23505
 PX  C  34   0.04304     0.01397    -0.05163     0.12186     0.02016    -0.10696
 PY  C  34  -0.02635    -0.00321     0.00746     0.01097     0.01447    -0.01808
 PZ  C  34   0.06987     0.01522    -0.04636     0.07010    -0.00628    -0.04945
  
  S  S  35   0.03144     0.01880    -0.01665     0.10696     0.04187    -0.25425
 PX  S  35   0.01972    -0.00051    -0.00930    -0.01563    -0.01660     0.04338
 PY  S  35  -0.02413     0.00117    -0.00427     0.03082     0.01006     0.03506
 PZ  S  35   0.05259     0.00193     0.00588    -0.05227    -0.02052    -0.02915
  
  S  C  36   0.16551     0.03345    -0.09049     0.15736     0.00548    -0.08216
 PX  C  36  -0.00381    -0.00079    -0.01390     0.04531     0.01614     0.06697
 PY  C  36   0.04867     0.00771    -0.00845     0.00469    -0.00523    -0.08317
 PZ  C  36  -0.07511    -0.01191     0.00303     0.02500     0.01936     0.17061
  
  S  C  37   0.09166     0.01657    -0.06468     0.13172     0.02004     0.11048
 PX  C  37  -0.02310    -0.00587     0.02232    -0.04806    -0.00694     0.00458
 PY  C  37   0.02229     0.00480    -0.00926     0.01405    -0.00135    -0.05252
 PZ  C  37  -0.04936    -0.01121     0.02953    -0.05455    -0.00276     0.08125
  
  S  C  38  -0.03085    -0.01313     0.05295    -0.12303    -0.02062     0.03253
 PX  C  38   0.02994     0.00626    -0.02035     0.03849     0.00374     0.02254
[...]
    33       C          8.14244110  *   3.10141246  *   7.64279376  *
    34       C          9.40781030  *   3.41962340  *   8.06144053  *
    35       S         10.19545287  *   4.50586494  *   6.99806261  *
    36       C         10.04990091  *   2.93330394  *   9.23732232  *
    37       C         11.30040125  *   3.15187291  *   9.78933949  *
    38       C         11.34860138  *   2.37322169  *  10.98141331  *
    39       C         10.12669824  *   1.73154453  *  11.07860152  *
    40       O          9.32438142  *   2.06998061  *  10.01308558  *
    41       C          9.62838448  *   0.83002178  *  12.07114623  *
    42       C          8.41330716  *   0.24938485  *  12.05617825  *
    43       C          7.96310352  *  -0.68230227  *  13.10119372  *
    44       O          7.05101658  *  -1.48842873  *  13.03061078  *
    45       O          8.67303482  *  -0.59066897  *  14.24928189  *
    46       C          7.45968838  *   0.46834475  *  11.02929853  *
    47       N          6.68331476  *   0.64767117  *  10.19167823  *
    48       H         10.34130471  *   0.63030005  *  12.88545558  *
    49       H         -0.41724364  *   0.50568749  *  -0.88274051  *
    50       H         -0.40915554  *  -1.02070619  *   0.00081499  *
    51       H         -0.41707003  *   0.50678837  *   0.88221641  *
    52       H          1.90226760  *  -0.56117350  *   0.87889590  *
    53       H          1.90229685  *  -0.56139649  *  -0.87872674  *
    54       H          1.67229105  *   1.98528855  *  -0.87826350  *
    55       H          1.67411541  *   1.98438136  *   0.87965220  *
    56       H          3.97456603  *   0.86993179  *   0.87687422  *
    57       H          3.97289181  *   0.87110459  *  -0.88131388  *
    58       H          3.73997605  *   3.41639318  *  -0.87959594  *
    59       H          3.74074958  *   3.41536891  *   0.87861813  *
    60       H          6.03949044  *   2.30177014  *   0.87886838  *
    61       H          6.03930624  *   2.30005768  *  -0.88045464  *
    62       H          5.80586231  *   4.84932827  *  -0.88222317  *
    63       H          5.80666322  *   4.85041111  *   0.87594263  *
    64       H          8.12361011  *   3.72318384  *   0.87645857  *
    65       H          8.11695208  *   3.72002820  *  -0.88973832  *
    66       H          7.65393565  *   5.11762865  *  -2.77277581  *
    67       H          7.68809717  *   6.94460001  *  -4.45318131  *
    68       H          8.21087325  *   9.26350557  *  -3.80052304  *
    69       H          8.72843627  *   9.84330106  *  -1.44114730  *
    70       H          9.30674192  *   7.34266876  *   5.52316120  *
    71       H          9.46830347  *   9.23908606  *   3.63757252  *
    72       H          7.73839093  *  10.98647163  *   2.23165253  *
    73       H          8.25261191  *  13.31721087  *   1.53384598  *
    74       H         10.19272212  *  13.77140264  *   0.05196170  *
    75       H         11.62017487  *  11.89891409  *  -0.73687021  *
    76       H         11.10208884  *   9.56368266  *  -0.05178127  *
    77       H          6.84279640  *   3.64638664  *   5.93103948  *
    78       H          7.45734589  *   2.42946094  *   8.16075499  *
    79       H         12.08994204  *   3.78247749  *   9.40420465  *
    80       H         12.18160784  *   2.30375504  *  11.66954324  *
    81       H          8.34330156  *  -1.21363831  *  14.91252809  *

                             CARTESIAN COORDINATES

   1    C        0.000000000     0.000000000     0.000000000
   2    C        1.519987075     0.000000000     0.000000000
   3    C        2.060923235     1.427646182     0.000000000
   4    C        3.587810908     1.428799221    -0.001482430
   5    C        4.126495248     2.857735028    -0.000991500
   6    C        5.653673990     2.858733635    -0.001277478
   7    C        6.187709121     4.288311438    -0.002578374
   8    C        7.723582279     4.274484128    -0.005032887
   9    N        8.279461963     5.625866844    -0.027623671
  10    C        8.193892510     6.470680319    -1.155538033
  11    C        7.895848851     6.139679186    -2.476052847
  12    C        7.915697703     7.165459086    -3.405558654
  13    C        8.214365387     8.481606792    -3.035893673
  14    C        8.509741376     8.809821243    -1.722637161
  15    C        8.509659447     7.800549729    -0.769370124
  16    C        8.749429481     7.781113983     0.651088900
  17    C        8.542783798     6.441076538     1.089266217
  18    C        8.667810522     6.122042458     2.436653567
  19    S        8.485582281     4.619002838     3.247964832
  20    C        8.828365991     5.350972749     4.782657314
  21    C        9.076424591     6.680417590     4.691604037
  22    C        8.992390150     7.155394511     3.330324686
  23    C        9.208207412     8.469517144     2.906383237
  24    C        9.103509412     8.777343207     1.560318557
  25    C        9.386785074    10.142288640     1.123575408
  26    C        8.590216426    11.189859380     1.576035356
  27    C        8.879746882    12.491523600     1.185434831
  28    C        9.965217428    12.745555560     0.355676823
  29    C       10.763418450    11.697100840    -0.087434923
  30    C       10.476960450    10.392548680     0.294304572
  31    C        8.827876041     4.554148265     5.969293594
  32    C        7.806869452     3.765142252     6.420736525
  33    C        8.142441101     3.101412455     7.642793760
  34    C        9.407810302     3.419623401     8.061440535
  35    S       10.195452870     4.505864945     6.998062611
  36    C       10.049900910     2.933303940     9.237322315
  37    C       11.300401250     3.151872908     9.789339492
  38    C       11.348601380     2.373221691    10.981413310
  39    C       10.126698240     1.731544532    11.078601520
  40    O        9.324381420     2.069980612    10.013085580
  41    C        9.628384483     0.830021775    12.071146230
  42    C        8.413307157     0.249384848    12.056178250
  43    C        7.963103516    -0.682302272    13.101193720
  44    O        7.051016579    -1.488428732    13.030610780
  45    O        8.673034818    -0.590668969    14.249281890
  46    C        7.459688379     0.468344752    11.029298530
  47    N        6.683314764     0.647671173    10.191678230
  48    H       10.341304710     0.630300054    12.885455580
  49    H       -0.417243643     0.505687492    -0.882740507
  50    H       -0.409155541    -1.020706189     0.000814989
  51    H       -0.417070033     0.506788370     0.882216411
  52    H        1.902267601    -0.561173504     0.878895903
  53    H        1.902296849    -0.561396491    -0.878726742
  54    H        1.672291054     1.985288554    -0.878263496
  55    H        1.674115414     1.984381359     0.879652203
  56    H        3.974566027     0.869931790     0.876874221
  57    H        3.972891809     0.871104588    -0.881313882
  58    H        3.739976053     3.416393175    -0.879595938
  59    H        3.740749581     3.415368907     0.878618129
  60    H        6.039490442     2.301770144     0.878868383
  61    H        6.039306236     2.300057681    -0.880454637
  62    H        5.805862315     4.849328269    -0.882223173
  63    H        5.806663224     4.850411106     0.875942626
  64    H        8.123610110     3.723183841     0.876458569
  65    H        8.116952080     3.720028201    -0.889738323
  66    H        7.653935654     5.117628653    -2.772775807
  67    H        7.688097169     6.944600011    -4.453181306
  68    H        8.210873246     9.263505572    -3.800523036
  69    H        8.728436267     9.843301064    -1.441147305
  70    H        9.306741917     7.342668759     5.523161200
  71    H        9.468303467     9.239086061     3.637572522
  72    H        7.738390930    10.986471630     2.231652527
  73    H        8.252611909    13.317210870     1.533845980
  74    H       10.192722120    13.771402640     0.051961698
  75    H       11.620174870    11.898914090    -0.736870209
  76    H       11.102088840     9.563682665    -0.051781274
  77    H        6.842796396     3.646386638     5.931039484
  78    H        7.457345888     2.429460942     8.160754992
  79    H       12.089942040     3.782477490     9.404204647
  80    H       12.181607840     2.303755044    11.669543240
  81    H        8.343301556    -1.213638306    14.912528090


           Empirical Formula: C40 H34 N2 O3 S2  =    81 atoms



      MOLECULAR POINT GROUP   :   C1  


                  EIGENVALUES  
 -50.09293 -48.60265 -46.69512 -44.80226 -43.79122 -42.99867 -42.59356 -41.96457
 -40.40218 -39.59967 -39.37692 -39.05538 -36.86451 -36.41138 -35.43520 -34.84852
 -34.34654 -33.45017 -33.16406 -32.63049 -31.53998 -31.23793 -30.42117 -29.73365
 -28.95406 -28.57625 -27.57219 -27.10079 -26.47004 -26.20988 -26.00644 -25.55741
 -25.40567 -24.95668 -24.63186 -24.36342 -24.18911 -23.73656 -23.27190 -22.66531
 -22.04864 -21.76452 -21.46458 -21.21495 -20.59418 -20.55974 -20.04877 -19.59777
 -19.48469 -19.19321 -19.04608 -18.73615 -18.37642 -17.93056 -17.80095 -17.56246
 -17.26248 -16.97838 -16.73476 -16.66319 -16.51179 -16.42382 -16.33856 -16.13464
 -15.84754 -15.67262 -15.59990 -15.37044 -15.20478 -15.11139 -15.01831 -14.87367
 -14.81246 -14.66048 -14.49681 -14.24925 -14.04172 -13.97603 -13.76177 -13.72285
 -13.67907 -13.57573 -13.48169 -13.43329 -13.24476 -13.21430 -13.17840 -13.11450
 -13.03005 -12.86815 -12.81882 -12.66803 -12.54798 -12.51443 -12.42033 -12.35835
 -12.28988 -12.03043 -11.95519 -11.72172 -11.62783 -11.47490 -11.23267 -11.05705
 -10.98154 -10.81080 -10.50364 -10.12062  -9.97491  -9.30296  -9.03390  -8.96189
  -8.69700  -8.42611  -7.58975  -7.45156  -6.97831  -1.34326  -0.34470   0.09212
   0.56877   0.75178   0.79277   0.90810   0.98704   1.22862   1.39310   1.76427
   1.82449   2.02536   2.16663   2.19353   2.37339   2.39453   2.49848   2.74002
   2.85794   2.99476   3.07241   3.09394   3.15786   3.23092   3.44124   3.45969
   3.54515   3.62261   3.77256   3.81208   3.87180   3.98509   4.08435   4.11125
   4.15307   4.27884   4.33693   4.50664   4.54575   4.75093   4.88809   4.93962
   5.12591   5.29752   5.33927   5.41202   5.52913   5.58686   5.81680   5.85651
   5.98110   6.22077   6.30732   6.33826   6.47179   6.58096   6.70272   6.75623
   6.76218   6.78593   6.80682   6.88853   7.00466   7.03791   7.10820   7.52303
   7.96689   8.39906   8.40746   8.50290   8.56283   8.63343   8.66302   8.70387
   8.80424   8.92919   9.00206   9.11257   9.13157   9.30745   9.70985   9.92207
  10.08790  10.12990  10.25642  10.46654  10.66438  10.96413  11.24591  11.36885
  11.49393  11.66090  11.72835  12.07957  12.54117  12.64701  12.74081  12.97169
  13.16786  13.70808  13.95541  14.26016  14.32297  15.12427


              NET ATOMIC CHARGES AND DIPOLE CONTRIBUTIONS

  ATOM NO.   TYPE          CHARGE      No. of ELECS.   s-Pop       p-Pop       
    1          C          -0.027986        4.0280     1.05492     2.97306
    2          C          -0.007057        4.0071     1.04479     2.96227
    3          C          -0.008678        4.0087     1.05055     2.95813
    4          C          -0.011498        4.0115     1.05212     2.95938
    5          C          -0.011465        4.0115     1.05204     2.95942
    6          C          -0.011914        4.0119     1.05118     2.96074
    7          C          -0.005098        4.0051     1.05290     2.95220
    8          C           0.071979        3.9280     1.05050     2.87752
    9          N          -0.157261        5.1573     1.25826     3.89900
   10          C           0.073321        3.9267     1.05171     2.87496
   11          C          -0.042743        4.0427     1.07591     2.96683
   12          C          -0.025691        4.0257     1.08042     2.94527
   13          C          -0.045397        4.0454     1.07834     2.96706
   14          C          -0.027045        4.0270     1.08408     2.94297
   15          C          -0.014464        4.0145     1.04803     2.96643
   16          C          -0.033210        4.0332     1.04750     2.98571
   17          C           0.083923        3.9161     1.05348     2.86260
   18          C          -0.004473        4.0045     1.06791     2.93656
   19          S          -0.070029        6.0700     1.77707     4.29296
   20          C           0.051313        3.9487     1.07695     2.87173
   21          C          -0.049168        4.0492     1.08672     2.96244
   22          C           0.009936        3.9901     1.05186     2.93821
   23          C          -0.064108        4.0641     1.07842     2.98569
   24          C           0.032912        3.9671     1.05017     2.91692
   25          C           0.035260        3.9647     1.04785     2.91689
   26          C          -0.035083        4.0351     1.07787     2.95722
   27          C          -0.019494        4.0195     1.08185     2.93764
   28          C          -0.032708        4.0327     1.07698     2.95572
   29          C          -0.020734        4.0207     1.08138     2.93935
   30          C          -0.029752        4.0298     1.07830     2.95145
   31          C           0.063194        3.9368     1.07382     2.86298
   32          C          -0.046312        4.0463     1.08265     2.96367
   33          C          -0.005193        4.0052     1.09269     2.91250
   34          C           0.020573        3.9794     1.06129     2.91814
   35          S          -0.043798        6.0438     1.77213     4.27167
   36          C           0.162045        3.8380     1.05846     2.77950
   37          C          -0.053065        4.0531     1.08315     2.96991
   38          C           0.020764        3.9792     1.09601     2.88322
   39          C           0.081090        3.9189     1.04179     2.87712
   40          O          -0.226710        6.2267     1.70339     4.52332
   41          C           0.110591        3.8894     1.08678     2.80263
   42          C           0.016177        3.9838     1.00050     2.98332
   43          C           0.497623        3.5024     1.04522     2.45716
   44          O          -0.595320        6.5953     1.81519     4.78013
   45          O          -0.313959        6.3140     1.68877     4.62519
   46          C           0.211748        3.7883     1.14894     2.63931
   47          N          -0.386426        5.3864     1.75305     3.63338
   48          H           0.057995        0.9420     0.94200
   49          H           0.007680        0.9923     0.99232
   50          H           0.000626        0.9994     0.99937
   51          H           0.007935        0.9921     0.99206
   52          H           0.006539        0.9935     0.99346
   53          H           0.006185        0.9938     0.99382
   54          H           0.006779        0.9932     0.99322
   55          H           0.006960        0.9930     0.99304
   56          H           0.006996        0.9930     0.99300
   57          H           0.006793        0.9932     0.99321
   58          H           0.006808        0.9932     0.99319
   59          H           0.006525        0.9935     0.99347
   60          H           0.008258        0.9917     0.99174
   61          H           0.008682        0.9913     0.99132
   62          H           0.012609        0.9874     0.98739
   63          H           0.010295        0.9897     0.98970
   64          H           0.022698        0.9773     0.97730
   65          H           0.019783        0.9802     0.98022
   66          H           0.026629        0.9734     0.97337
   67          H           0.019007        0.9810     0.98099
   68          H           0.016073        0.9839     0.98393
   69          H           0.028498        0.9715     0.97150
   70          H           0.033815        0.9662     0.96618
   71          H           0.021163        0.9788     0.97884
   72          H           0.022519        0.9775     0.97748
   73          H           0.020753        0.9792     0.97925
   74          H           0.019988        0.9800     0.98001
   75          H           0.020656        0.9793     0.97934
   76          H           0.022903        0.9771     0.97710
   77          H           0.034656        0.9653     0.96534
   78          H           0.042045        0.9580     0.95795
   79          H           0.045619        0.9544     0.95438
   80          H           0.053399        0.9466     0.94660
   81          H           0.245517        0.7545     0.75448
 DIPOLE           X         Y         Z       TOTAL
 POINT-CHG.     7.178     3.752     0.113     8.100
 HYBRID        -0.709     0.201     1.966     2.100
 SUM            6.468     3.954     2.079     7.860


          ATOMIC ORBITAL ELECTRON POPULATIONS

     Atom    s        px        py        pz   
    1  C   1.05492   0.99077   0.98911   0.99318
    2  C   1.04479   0.99098   0.98533   0.98597
    3  C   1.05055   0.99079   0.98037   0.98697
    4  C   1.05212   0.99060   0.98202   0.98675
    5  C   1.05204   0.98936   0.98355   0.98651
    6  C   1.05118   0.99267   0.97997   0.98809
    7  C   1.05290   0.97258   0.98861   0.99101
    8  C   1.05050   0.99186   0.88646   0.99920
    9  N   1.25826   1.66101   1.12081   1.11718
   10  C   1.05171   0.99578   0.96174   0.91745
   11  C   1.07591   1.04279   0.95170   0.97234
   12  C   1.08042   0.99973   0.99563   0.94991
   13  C   1.07834   1.03040   0.96593   0.97073
   14  C   1.08408   1.00200   0.94996   0.99101
   15  C   1.04803   1.02845   0.97797   0.96001
   16  C   1.04750   1.06606   0.96077   0.95889
   17  C   1.05348   0.99681   0.96214   0.90364
   18  C   1.06791   1.08371   0.91212   0.94073
   19  S   1.77707   1.88712   1.26054   1.14531
   20  C   1.07695   0.99516   0.97942   0.89715
   21  C   1.08672   1.04016   0.96518   0.95710
   22  C   1.05186   0.98038   0.97446   0.98337
   23  C   1.07842   1.07091   0.95912   0.95566
   24  C   1.05017   0.95604   0.96942   0.99146
   25  C   1.04785   0.97997   0.97392   0.96301
   26  C   1.07787   0.97852   0.98218   0.99651
   27  C   1.08185   0.97870   0.96985   0.98909
   28  C   1.07698   1.00112   0.94824   1.00637
   29  C   1.08138   0.96419   0.99881   0.97635
   30  C   1.07830   0.98557   0.96371   1.00218
   31  C   1.07382   0.94311   0.98297   0.93690
   32  C   1.08265   0.95056   1.01246   1.00064
   33  C   1.09269   0.97015   0.95881   0.98354
   34  C   1.06129   0.98054   0.99519   0.94241
   35  S   1.77213   1.31846   1.61210   1.34112
   36  C   1.05846   0.95273   0.91403   0.91275
   37  C   1.08315   0.95408   1.01172   1.00412
   38  C   1.09601   0.94908   0.96723   0.96692
   39  C   1.04179   0.94646   1.02647   0.90419
   40  O   1.70339   1.52217   1.60825   1.39290
   41  C   1.08678   0.96638   0.89176   0.94449
   42  C   1.00050   0.96463   1.05290   0.96579
   43  C   1.04522   0.79103   0.80936   0.85676
   44  O   1.81519   1.39754   1.46205   1.92055
   45  O   1.68877   1.66829   1.68344   1.27346
   46  C   1.14894   0.88476   0.85657   0.89799
   47  N   1.75305   1.22660   1.19268   1.21409
   48  H   0.94200
   49  H   0.99232
   50  H   0.99937
   51  H   0.99206
   52  H   0.99346
   53  H   0.99382
   54  H   0.99322
   55  H   0.99304
   56  H   0.99300
   57  H   0.99321
   58  H   0.99319
   59  H   0.99347
   60  H   0.99174
   61  H   0.99132
   62  H   0.98739
   63  H   0.98970
   64  H   0.97730
   65  H   0.98022
   66  H   0.97337
   67  H   0.98099
   68  H   0.98393
   69  H   0.97150
   70  H   0.96618
   71  H   0.97884
   72  H   0.97748
   73  H   0.97925
   74  H   0.98001
   75  H   0.97934
   76  H   0.97710
   77  H   0.96534
   78  H   0.95795
   79  H   0.95438
   80  H   0.94660
   81  H   0.75448

 **********************
 *                    *
 * JOB ENDED NORMALLY *
 *                    *
 **********************



 TOTAL JOB TIME:           469.56 SECONDS

 == MOPAC DONE ==
