 *******************************************************************************
 ** Site#: 4824         For non-commercial use only    Version 21.013L 64BITS **
 *******************************************************************************
 ** Cite this program as: MOPAC2016, Version: 21.013L, James J. P. Stewart,   **
 ** Stewart Computational Chemistry, web: HTTP://OpenMOPAC.net. Days left:  84**
 *******************************************************************************
 **                                                                           **
 **                                MOPAC2016                                  **
 **                                                                           **
 *******************************************************************************

                              INDO CALCULATION RESULTS

 *******************************************************************************
 *  CALCULATION DONE:                                Thu Oct 21 11:43:59 2021  *
 *  INDO       - The INDO Hamiltonian to be used
 *  CIS        - C.I. USES 1 ELECTRON EXCITATIONS ONLY
 *  EPS=  4.81 - USE ANDREAS KLAMT'S COSMO IMPLICIT SOLVATION MODEL
 *  n**2 =  1.400 for COSMO-CI
 *  T=         - A TIME OF 172800.0 SECONDS REQUESTED
 *  DUMP=N     - RESTART FILE WRITTEN EVERY 7200.0 SECONDS REQUESTED
 *******************************************************************************
INDO CIS EPS=4.81 N**2=1.4
 Dye20
 Calculo de Estados Excitados
   ATOM   CHEMICAL          X               Y               Z
  NUMBER   SYMBOL      (ANGSTROMS)     (ANGSTROMS)     (ANGSTROMS)
 
     1       C          0.11977750  *  -0.06436878  *  -0.44063804  *
     2       C          1.62672806  *   0.00368382  *  -0.62749957  *
     3       C          2.15722924  *   1.38458938  *  -0.25014610  *
     4       C          3.67067306  *   1.45446774  *  -0.43999320  *
     5       C          4.19963352  *   2.83571534  *  -0.06013851  *
     6       C          5.71303875  *   2.90576640  *  -0.25406464  *
     7       C          6.23944790  *   4.28283419  *   0.13480162  *
     8       C          7.76133232  *   4.38039798  *  -0.04837038  *
     9       N          8.15140655  *   4.40161157  *  -1.45366677  *
    10       C          7.98138573  *   5.49932722  *  -2.31503083  *
    11       C          7.49514528  *   6.77700670  *  -2.03218896  *
    12       C          7.34806766  *   7.64560520  *  -3.09633087  *
    13       C          7.64778944  *   7.25191963  *  -4.40850866  *
    14       C          8.14928839  *   5.99316911  *  -4.68435824  *
    15       C          8.37406141  *   5.11549439  *  -3.62763498  *
    16       C          8.83105134  *   3.75454769  *  -3.54805224  *
    17       C          8.58014312  *   3.31646585  *  -2.22920284  *
    18       C          8.69685465  *   1.95997671  *  -1.85434239  *
    19       C          8.99628172  *   1.06103648  *  -2.83744491  *
    20       C          9.29754027  *   1.47311213  *  -4.16633614  *
    21       C          9.36462396  *   2.84645407  *  -4.48389776  *
    22       C          9.96553739  *   3.19239753  *  -5.71170801  *
    23       C         10.56951366  *   4.39464365  *  -6.22191310  *
    24       C         10.91036964  *   5.60844585  *  -5.63884340  *
    25       C         11.54561869  *   6.56114448  *  -6.42430051  *
    26       C         11.85657865  *   6.31392071  *  -7.77368773  *
    27       C         11.60553531  *   5.08629687  *  -8.35071268  *
    28       C         10.98465488  *   4.11844940  *  -7.55690383  *
    29       N         10.65974463  *   2.78836202  *  -7.86539774  *
    30       C         10.15112905  *   2.19818387  *  -6.69305221  *
    31       C          9.90231315  *   0.83351495  *  -6.44015449  *
    32       C          9.53525638  *   0.49227848  *  -5.16848372  *
    33       C         11.15162969  *   2.05295875  *  -9.02797628  *
    34       C         12.57155703  *   1.51590481  *  -8.79586149  *
    35       C         13.05172873  *   0.75761655  * -10.02978940  *
    36       C         14.46526008  *   0.22211324  *  -9.81178715  *
    37       C         14.95095903  *  -0.53735617  * -11.04435524  *
    38       C         16.36563158  *  -1.06945422  * -10.82755441  *
    39       C         16.85338462  *  -1.82941072  * -12.05853088  *
    40       C         18.26212753  *  -2.35757893  * -11.84221483  *
    41       C         11.88865505  *   7.85903212  *  -5.86733961  *
    42       C         12.53033256  *   8.00123281  *  -4.69513161  *
    43       C         12.83984338  *   9.30710650  *  -4.09600180  *
    44       O         13.13012200  *   9.54183333  *  -2.93491879  *
    45       O         12.78429219  *  10.33248456  *  -4.97756162  *
    46       C         12.98629263  *   6.89261273  *  -3.93429370  *
    47       N         13.38336967  *   6.00057650  *  -3.31517428  *
    48       H         11.59272456  *   8.73185621  *  -6.46616566  *
    49       H         -0.28174924  *  -1.05217929  *  -0.70945225  *
    50       H         -0.18043026  *   0.12475680  *   0.60010618  *
    51       H         -0.41124885  *   0.67098245  *  -1.06221488  *
    52       H          2.12295708  *  -0.78326732  *  -0.02089210  *
    53       H          1.89327526  *  -0.24219805  *  -1.67725674  *
    54       H          1.65460343  *   2.16750041  *  -0.85658241  *
    55       H          1.88670442  *   1.62581098  *   0.79958757  *
    56       H          4.17172110  *   0.66923495  *   0.16478184  *
    57       H          3.93908313  *   1.21435108  *  -1.49058692  *
    58       H          3.69705952  *   3.62035837  *  -0.66443401  *
    59       H          3.93249724  *   3.07546096  *   0.99087204  *
    60       H          6.21505425  *   2.11719761  *   0.34645435  *
    61       H          5.97869454  *   2.67149261  *  -1.30692003  *
    62       H          5.72784294  *   5.07732944  *  -0.44917401  *
    63       H          5.99154461  *   4.50739410  *   1.19445111  *
    64       H          8.14923190  *   5.30842639  *   0.43660397  *
    65       H          8.28349393  *   3.54563040  *   0.47310399  *
    66       H          7.23459791  *   7.07769256  *  -1.01585204  *
    67       H          6.97325907  *   8.65807052  *  -2.91740451  *
    68       H          7.47122872  *   7.95571540  *  -5.22657672  *
    69       H          8.33685052  *   5.67613606  *  -5.71414913  *
    70       H          8.51808992  *   1.64086227  *  -0.82579146  *
    71       H          9.02375832  *  -0.00806728  *  -2.60079462  *
    72       H         10.68745603  *   5.79317969  *  -4.58245291  *
    73       H         12.33303257  *   7.10139937  *  -8.36684033  *
    74       H         11.89147215  *   4.88267135  *  -9.38421929  *
    75       H         10.03561467  *   0.08032975  *  -7.21847077  *
    76       H          9.40604917  *  -0.56443203  *  -4.91045790  *
    77       H         10.44062035  *   1.22527574  *  -9.25705430  *
    78       H         11.11482959  *   2.72023064  *  -9.92016289  *
    79       H         13.26377356  *   2.34973973  *  -8.55235627  *
    80       H         12.59271827  *   0.86139517  *  -7.89843051  *
    81       H         12.35623164  *  -0.07495859  * -10.26813767  *
    82       H         13.02232628  *   1.41496951  * -10.92465270  *
    83       H         15.16040129  *   1.05457745  *  -9.57242674  *
    84       H         14.49518275  *  -0.43473257  *  -8.91672374  *
    85       H         14.25743403  *  -1.37151712  * -11.28219603  *
    86       H         14.91900862  *   0.11875536  * -11.93984432  *
    87       H         17.06065831  *  -0.23631843  * -10.59048068  *
    88       H         16.39947645  *  -1.72622462  *  -9.93265583  *
    89       H         16.16383118  *  -2.66647736  * -12.29796836  *
    90       H         16.82368529  *  -1.17642723  * -12.95642532  *
    91       H         18.63158588  *  -2.90875817  * -12.71910822  *
    92       H         18.98482795  *  -1.55153289  * -11.64969288  *
    93       H         18.32232440  *  -3.04768439  * -10.98829129  *
    94       H         12.99439782  *  11.17273508  *  -4.54624126  *
 


          CARTESIAN COORDINATES 

    NO.       ATOM           X           Y           Z

     1         C          0.1198     -0.0644     -0.4406
     2         C          1.6267      0.0037     -0.6275
     3         C          2.1572      1.3846     -0.2501
     4         C          3.6707      1.4545     -0.4400
     5         C          4.1996      2.8357     -0.0601
     6         C          5.7130      2.9058     -0.2541
     7         C          6.2394      4.2828      0.1348
     8         C          7.7613      4.3804     -0.0484
     9         N          8.1514      4.4016     -1.4537
    10         C          7.9814      5.4993     -2.3150
    11         C          7.4951      6.7770     -2.0322
    12         C          7.3481      7.6456     -3.0963
    13         C          7.6478      7.2519     -4.4085
    14         C          8.1493      5.9932     -4.6844
    15         C          8.3741      5.1155     -3.6276
    16         C          8.8311      3.7545     -3.5481
    17         C          8.5801      3.3165     -2.2292
    18         C          8.6969      1.9600     -1.8543
    19         C          8.9963      1.0610     -2.8374
    20         C          9.2975      1.4731     -4.1663
    21         C          9.3646      2.8465     -4.4839
    22         C          9.9655      3.1924     -5.7117
    23         C         10.5695      4.3946     -6.2219
    24         C         10.9104      5.6084     -5.6388
    25         C         11.5456      6.5611     -6.4243
    26         C         11.8566      6.3139     -7.7737
    27         C         11.6055      5.0863     -8.3507
    28         C         10.9847      4.1184     -7.5569
    29         N         10.6597      2.7884     -7.8654
    30         C         10.1511      2.1982     -6.6931
    31         C          9.9023      0.8335     -6.4402
    32         C          9.5353      0.4923     -5.1685
    33         C         11.1516      2.0530     -9.0280
    34         C         12.5716      1.5159     -8.7959
    35         C         13.0517      0.7576    -10.0298
    36         C         14.4653      0.2221     -9.8118
    37         C         14.9510     -0.5374    -11.0444
    38         C         16.3656     -1.0695    -10.8276
    39         C         16.8534     -1.8294    -12.0585
    40         C         18.2621     -2.3576    -11.8422
    41         C         11.8887      7.8590     -5.8673
    42         C         12.5303      8.0012     -4.6951
    43         C         12.8398      9.3071     -4.0960
    44         O         13.1301      9.5418     -2.9349
    45         O         12.7843     10.3325     -4.9776
    46         C         12.9863      6.8926     -3.9343
    47         N         13.3834      6.0006     -3.3152
    48         H         11.5927      8.7319     -6.4662
    49         H         -0.2817     -1.0522     -0.7095
    50         H         -0.1804      0.1248      0.6001
    51         H         -0.4112      0.6710     -1.0622
    52         H          2.1230     -0.7833     -0.0209
    53         H          1.8933     -0.2422     -1.6773
    54         H          1.6546      2.1675     -0.8566
    55         H          1.8867      1.6258      0.7996
    56         H          4.1717      0.6692      0.1648
    57         H          3.9391      1.2144     -1.4906
    58         H          3.6971      3.6204     -0.6644
    59         H          3.9325      3.0755      0.9909
    60         H          6.2151      2.1172      0.3465
    61         H          5.9787      2.6715     -1.3069
    62         H          5.7278      5.0773     -0.4492
    63         H          5.9915      4.5074      1.1945
    64         H          8.1492      5.3084      0.4366
    65         H          8.2835      3.5456      0.4731
    66         H          7.2346      7.0777     -1.0159
    67         H          6.9733      8.6581     -2.9174
    68         H          7.4712      7.9557     -5.2266
    69         H          8.3369      5.6761     -5.7141
    70         H          8.5181      1.6409     -0.8258
    71         H          9.0238     -0.0081     -2.6008
    72         H         10.6875      5.7932     -4.5825
    73         H         12.3330      7.1014     -8.3668
    74         H         11.8915      4.8827     -9.3842
    75         H         10.0356      0.0803     -7.2185
    76         H          9.4060     -0.5644     -4.9105
    77         H         10.4406      1.2253     -9.2571
    78         H         11.1148      2.7202     -9.9202
    79         H         13.2638      2.3497     -8.5524
    80         H         12.5927      0.8614     -7.8984
    81         H         12.3562     -0.0750    -10.2681
    82         H         13.0223      1.4150    -10.9247
    83         H         15.1604      1.0546     -9.5724
    84         H         14.4952     -0.4347     -8.9167
    85         H         14.2574     -1.3715    -11.2822
    86         H         14.9190      0.1188    -11.9398
    87         H         17.0607     -0.2363    -10.5905
    88         H         16.3995     -1.7262     -9.9327
    89         H         16.1638     -2.6665    -12.2980
    90         H         16.8237     -1.1764    -12.9564
    91         H         18.6316     -2.9088    -12.7191
    92         H         18.9848     -1.5515    -11.6497
    93         H         18.3223     -3.0477    -10.9883
    94         H         12.9944     11.1727     -4.5462

           Empirical Formula: C42 H47 N3 O2  =    94 atoms



      MOLECULAR POINT GROUP   :   C1  


      RHF CALCULATION, NO. OF DOUBLY OCCUPIED LEVELS = 121

 WARNING: INDO only performs single-point calculations

 Summary of symmetry occupancy in each shell:

 SHELL     
    1  121
    v  114
 TOTAL 235




    ROOT NO.    1           2           3           4           5           6

           -49.03730   -48.41567   -46.80932   -44.13198   -43.57184   -43.04700
  
  
  S  C   1   0.00102     0.00163    -0.00001    -0.00814    -0.02931     0.10985
 PX  C   1   0.00045     0.00071    -0.00001    -0.00312    -0.01099     0.04026
 PY  C   1   0.00017     0.00027    -0.00000    -0.00103    -0.00353     0.01259
 PZ  C   1  -0.00001    -0.00001     0.00000     0.00010     0.00038    -0.00148
  
  S  C   2   0.00246     0.00382    -0.00003    -0.01497    -0.05197     0.18766
 PX  C   2   0.00054     0.00079    -0.00001    -0.00150    -0.00432     0.01219
 PY  C   2   0.00080     0.00121    -0.00001    -0.00392    -0.01304     0.04509
 PZ  C   2   0.00017     0.00027    -0.00000    -0.00107    -0.00365     0.01300
  
  S  C   3   0.00526     0.00791    -0.00006    -0.02275    -0.07433     0.25296
 PX  C   3   0.00191     0.00277    -0.00002    -0.00506    -0.01470     0.04321
 PY  C   3   0.00041     0.00055    -0.00000     0.00055     0.00340    -0.01683
 PZ  C   3  -0.00018    -0.00027     0.00000     0.00090     0.00320    -0.01161
  
  S  C   4   0.01146     0.01646    -0.00011    -0.03088    -0.09358     0.29140
 PX  C   4   0.00240     0.00315    -0.00002    -0.00035     0.00175    -0.01735
 PY  C   4   0.00339     0.00477    -0.00003    -0.00618    -0.01619     0.04240
 PZ  C   4   0.00052     0.00081    -0.00000    -0.00195    -0.00547     0.01630
  
  S  C   5   0.02242     0.03135    -0.00017    -0.04111    -0.10916     0.29975
 PX  C   5   0.00820     0.01101    -0.00005    -0.00769    -0.01536     0.02529
 PY  C   5   0.00124     0.00155     0.00001     0.00148     0.00961    -0.03918
 PZ  C   5  -0.00171    -0.00223     0.00001     0.00186     0.00572    -0.01666
  
  S  C   6   0.05100     0.06809    -0.00032    -0.05292    -0.12307     0.28063
 PX  C   6   0.01229     0.01526    -0.00006    -0.00038     0.00557    -0.03769
 PY  C   6   0.01327     0.01779    -0.00002    -0.01280    -0.01812     0.02286
 PZ  C   6  -0.00295    -0.00309     0.00003    -0.00305    -0.00502     0.01241
  
  S  C   7   0.07414     0.09856    -0.00024    -0.06960    -0.12275     0.22009
 PX  C   7   0.02331     0.03001    -0.00005    -0.01235    -0.01193    -0.00466
 PY  C   7  -0.00462    -0.00628     0.00009     0.00430     0.01944    -0.05175
 PZ  C   7  -0.01848    -0.02365     0.00004     0.01108     0.01501    -0.01815
  
  S  C   8   0.13094     0.16912    -0.00034    -0.08445    -0.12327     0.15421
 PX  C   8   0.00328     0.00286    -0.00001     0.00818     0.01675    -0.04011
 PY  C   8  -0.00180    -0.00186     0.00015    -0.00590     0.00540    -0.02135
 PZ  C   8  -0.06127    -0.07722     0.00011     0.02810     0.03150    -0.01712
  
  S  N   9   0.30474     0.37536    -0.00045    -0.11446    -0.12454     0.06481
 PX  N   9   0.00190    -0.00052    -0.00005     0.01523     0.01714    -0.02347
 PY  N   9  -0.00214    -0.00044     0.00050    -0.02631     0.00028    -0.02732
 PZ  N   9  -0.06315    -0.07050    -0.00007    -0.00317    -0.02473     0.06408
  
  S  C  10   0.23589     0.28058     0.00202    -0.13508    -0.01442    -0.13658
 PX  C  10   0.02231     0.02409     0.00007     0.00484     0.00300    -0.00346
 PY  C  10  -0.08098    -0.09733     0.00092    -0.00628     0.03351    -0.04808
 PZ  C  10  -0.00258     0.00646    -0.00106     0.00093    -0.05036     0.08236
  
  S  C  11   0.09466     0.11423     0.00214    -0.10914     0.01428    -0.14181
 PX  C  11   0.01477     0.01735     0.00031    -0.01143     0.00216    -0.01632
 PY  C  11  -0.03879    -0.04774    -0.00020     0.02335     0.01198     0.00596
 PZ  C  11  -0.01971    -0.02076    -0.00108     0.03045    -0.02710     0.07723
  
  S  C  12   0.05921     0.06768     0.00258    -0.09270     0.04445    -0.16957
 PX  C  12   0.00996     0.01079     0.00056    -0.01330     0.00790    -0.02477
 PY  C  12  -0.02859    -0.03260    -0.00100     0.03725    -0.01648     0.06476
 PZ  C  12  -0.00201    -0.00047    -0.00044     0.00412    -0.01016     0.01672
  
  S  C  13   0.06133     0.06175     0.00374    -0.09040     0.06338    -0.17534
 PX  C  13   0.00653     0.00412     0.00090    -0.00672     0.00878    -0.01051
 PY  C  13  -0.02284    -0.02137    -0.00109     0.02472    -0.02037     0.04758
 PZ  C  13   0.01905     0.02428     0.00044    -0.02816     0.01038    -0.05415
  
  S  C  14   0.09624     0.07762     0.00520    -0.08488     0.09252    -0.17514
 PX  C  14   0.00361    -0.00657     0.00124     0.00595     0.00946     0.01673
 PY  C  14  -0.01440    -0.00624     0.00048    -0.01739    -0.00366    -0.01828
 PZ  C  14   0.03578     0.04614     0.00057    -0.03228     0.01420    -0.07135
  
  S  C  15   0.20906     0.21142     0.00312    -0.06910     0.07411    -0.18005
 PX  C  15  -0.00359    -0.01350     0.00022     0.02304     0.00615     0.02594
 PY  C  15  -0.03337    -0.03079     0.00201    -0.05576     0.01022    -0.05560
 PZ  C  15   0.06154     0.08826    -0.00073    -0.02355    -0.02969    -0.01040
  
  S  C  16   0.22880     0.19267    -0.00307     0.14930     0.09492    -0.04789
 PX  C  16  -0.02156    -0.04080    -0.00051     0.03310     0.01554     0.01444
 PY  C  16   0.01504     0.03852     0.00307    -0.11715    -0.02492    -0.04565
 PZ  C  16   0.05097     0.08810     0.00031    -0.02582    -0.02943    -0.00120
  
  S  C  17   0.24918     0.26815    -0.00304     0.09993     0.00775     0.02810
 PX  C  17  -0.01962    -0.03130    -0.00038     0.03729     0.02534    -0.00911
 PY  C  17   0.07546     0.10221     0.00134    -0.09600    -0.04044    -0.02822
 PZ  C  17  -0.01458     0.00309     0.00091    -0.07085    -0.05432     0.03694
  
  S  C  18   0.10949     0.09974    -0.00358     0.16897     0.04058     0.05726
 PX  C  18  -0.00187    -0.00676    -0.00032     0.02111     0.01273    -0.00666
 PY  C  18   0.03987     0.04667    -0.00027    -0.00076    -0.00967     0.01025
 PZ  C  18  -0.02974    -0.01658     0.00168    -0.08941    -0.03860     0.00060
  
  S  C  19   0.08597     0.04631    -0.00529     0.24428     0.08162     0.03821
 PX  C  19   0.00003    -0.00476    -0.00031     0.00860     0.00363    -0.00205
 PY  C  19   0.03657     0.02674    -0.00158     0.07758     0.02769     0.01159
 PZ  C  19  -0.01412     0.00505     0.00165    -0.05605    -0.02033     0.00097
  
  S  C  20   0.13553     0.00669    -0.01151     0.37516     0.11948     0.03532
 PX  C  20   0.00243    -0.01272    -0.00085     0.00474    -0.00169    -0.00046
 PY  C  20   0.03371     0.01077    -0.00165     0.05540     0.02596     0.00172
 PZ  C  20  -0.00945     0.03667     0.00276    -0.01800     0.00498     0.00308
  
  S  C  21   0.18217     0.00851    -0.01130     0.33135     0.13884     0.01240
 PX  C  21   0.00162    -0.02961    -0.00118    -0.00260    -0.00310     0.00460
 PY  C  21  -0.00331     0.01580     0.00345    -0.09122    -0.00574    -0.01952
 PZ  C  21  -0.00205     0.06361     0.00272     0.01596     0.01251    -0.00208
  
  S  C  22   0.24564    -0.17221    -0.01865     0.16150     0.06923     0.01865
 PX  C  22   0.02719    -0.04175    -0.00171    -0.04520    -0.01388     0.00506
 PY  C  22  -0.01137     0.00626     0.00566    -0.10177     0.01822    -0.00243
 PZ  C  22  -0.05949     0.08986     0.00650     0.06856     0.05097    -0.00443
  
  S  C  23   0.23159    -0.19733     0.00138    -0.10873     0.16622     0.05137
 PX  C  23   0.00128    -0.00976     0.00505    -0.04479     0.03281     0.01613
 PY  C  23  -0.06125     0.06043     0.01674    -0.06731     0.09301     0.01564
 PZ  C  23  -0.04610     0.06172     0.00330     0.05100     0.00850    -0.01504
  
  S  C  24   0.11213    -0.07752     0.03684    -0.16359     0.26721     0.05840
 PX  C  24  -0.00319    -0.00684     0.00916    -0.02560     0.02795     0.01827
 PY  C  24  -0.02795     0.02206     0.01409    -0.01452     0.01483     0.00371
 PZ  C  24  -0.03106     0.03822    -0.00470     0.06322    -0.07340    -0.03212
  
  S  C  25   0.08123    -0.06905     0.06371    -0.20618     0.30670     0.08813
 PX  C  25  -0.00896     0.00558     0.00529     0.00856    -0.01171    -0.00023
 PY  C  25  -0.02811     0.02519     0.01108     0.03900    -0.04561    -0.01425
 PZ  C  25  -0.00602     0.01046     0.01220     0.01342    -0.00433    -0.00807
  
  S  C  26   0.07189    -0.06892     0.03017    -0.17457     0.22761     0.07508
 PX  C  26  -0.01469     0.01370    -0.00243     0.02791    -0.03504    -0.01119
 PY  C  26  -0.02561     0.02552     0.00201     0.04020    -0.03777    -0.01441
 PZ  C  26   0.01859    -0.01614     0.01280    -0.04674     0.07274     0.02137
  
  S  C  27   0.10687    -0.10803     0.01005    -0.16114     0.13815     0.05385
 PX  C  27  -0.02085     0.02084     0.00067     0.01660    -0.00740    -0.00448
 PY  C  27  -0.02549     0.02769     0.00750    -0.00959     0.05792     0.01480
 PZ  C  27   0.03951    -0.03793     0.00603    -0.06250     0.07712     0.02710
  
  S  C  28   0.26205    -0.26127    -0.00918    -0.16121     0.04617     0.04165
 PX  C  28  -0.03451     0.03257     0.00538    -0.01452     0.02458     0.00389
 PY  C  28  -0.07399     0.07834     0.01776    -0.04457     0.14507     0.03365
 PZ  C  28   0.04174    -0.03449     0.00065    -0.00812     0.05162     0.01746
  
  S  N  29   0.33297    -0.34299    -0.03536    -0.07000    -0.22937    -0.03418
 PX  N  29   0.00593    -0.00881    -0.00059    -0.01888    -0.02288    -0.00869
 PY  N  29   0.02714    -0.02669     0.00001    -0.02841     0.03441     0.01717
 PZ  N  29   0.06797    -0.06368    -0.00582     0.01269     0.01395     0.01552
  
  S  C  30   0.27068    -0.24328    -0.02888     0.13562    -0.07331     0.00132
 PX  C  30   0.03075    -0.03863    -0.00310    -0.04198    -0.03684    -0.00618
 PY  C  30   0.07944    -0.08063    -0.00601    -0.05041    -0.01369     0.00510
 PZ  C  30  -0.02272     0.04433     0.00327     0.09861     0.08341     0.01788
  
  S  C  31   0.11663    -0.08775    -0.01453     0.19187    -0.00889     0.00428
 PX  C  31   0.00684    -0.01053    -0.00085    -0.01768    -0.01632    -0.00418
 PY  C  31   0.05279    -0.04392    -0.00605     0.04866    -0.00940     0.00115
 PZ  C  31   0.00900     0.00616    -0.00088     0.07981     0.04006     0.01158
  
  S  C  32   0.08928    -0.03718    -0.01045     0.25662     0.05627     0.02066
 PX  C  32   0.00424    -0.00667    -0.00068     0.00182    -0.00414    -0.00093
 PY  C  32   0.04062    -0.01737    -0.00444     0.09942     0.02424     0.00789
 PZ  C  32  -0.00456     0.01563     0.00120     0.01122     0.01598     0.00438
  
  S  C  33   0.14237    -0.15344    -0.01786    -0.05058    -0.21540    -0.07215
 PX  C  33  -0.00870     0.00817     0.00083    -0.00578    -0.01840    -0.01629
 PY  C  33   0.02979    -0.03156    -0.00275    -0.01493    -0.00800     0.00653
 PZ  C  33   0.05920    -0.06205    -0.00696    -0.01015    -0.04992    -0.00649
  
  S  C  34   0.07783    -0.08597    -0.01083    -0.03967    -0.20517    -0.10041
 PX  C  34  -0.02791     0.02982     0.00347     0.00594     0.02495    -0.00053
 PY  C  34   0.01488    -0.01582    -0.00144    -0.00585     0.00130     0.00949
 PZ  C  34   0.00603    -0.00550    -0.00040     0.00461     0.02324     0.01925
  
  S  C  35   0.03306    -0.03833    -0.00559    -0.03077    -0.18993    -0.12310
 PX  C  35  -0.00531     0.00567     0.00062    -0.00065    -0.01157    -0.01671
 PY  C  35   0.00634    -0.00706    -0.00083    -0.00305    -0.00693     0.00166
 PZ  C  35   0.00911    -0.01023    -0.00138    -0.00503    -0.02849    -0.01352
  
  S  C  36   0.01617    -0.01947    -0.00319    -0.02450    -0.17240    -0.13304
 PX  C  36  -0.00523     0.00607     0.00088     0.00405     0.02235     0.01042
 PY  C  36   0.00248    -0.00281    -0.00036    -0.00111    -0.00146     0.00359
 PZ  C  36   0.00035    -0.00022     0.00005     0.00226     0.01917     0.01871
  
  S  C  37   0.00763    -0.00959    -0.00179    -0.01894    -0.14790    -0.12933
 PX  C  37  -0.00129     0.00150     0.00021     0.00023    -0.00297    -0.00751
 PY  C  37   0.00146    -0.00175    -0.00028    -0.00172    -0.00981    -0.00533
 PZ  C  37   0.00200    -0.00245    -0.00042    -0.00351    -0.02519    -0.01959
  
  S  C  38   0.00365    -0.00477    -0.00100    -0.01391    -0.11779    -0.11255
 PX  C  38  -0.00123     0.00155     0.00029     0.00290     0.02178     0.01797
 PY  C  38   0.00058    -0.00071    -0.00012    -0.00089    -0.00545    -0.00320
 PZ  C  38   0.00007    -0.00005     0.00001     0.00094     0.00957     0.01084
  
  S  C  39   0.00167    -0.00227    -0.00053    -0.00918    -0.08239    -0.08356
 PX  C  39  -0.00033     0.00043     0.00008     0.00085     0.00625     0.00493
 PY  C  39   0.00035    -0.00046    -0.00010    -0.00132    -0.01101    -0.01028
 PZ  C  39   0.00046    -0.00061    -0.00014    -0.00214    -0.01863    -0.01831
  
  S  C  40   0.00070    -0.00098    -0.00024    -0.00499    -0.04650    -0.04894
 PX  C  40  -0.00029     0.00040     0.00010     0.00179     0.01627     0.01674
 PY  C  40   0.00015    -0.00021    -0.00005    -0.00090    -0.00815    -0.00832
 PZ  C  40   0.00006    -0.00008    -0.00002    -0.00025    -0.00213    -0.00205
  
  S  C  41   0.03162    -0.02477     0.13389    -0.10674     0.17928     0.04959
 PX  C  41  -0.00169     0.00070     0.02490     0.00449    -0.00484    -0.00016
 PY  C  41  -0.01265     0.00961     0.01951     0.04394    -0.06861    -0.01815
 PZ  C  41  -0.00074     0.00204     0.04368     0.00518    -0.00169    -0.00224
  
  S  C  42   0.02082    -0.01565     0.23113    -0.05664     0.10675     0.02916
 PX  C  42  -0.00296     0.00158     0.01191     0.01303    -0.02149    -0.00494
 PY  C  42  -0.00402     0.00196     0.07893     0.02873    -0.04744    -0.01141
 PZ  C  42  -0.00395     0.00316     0.01728     0.02122    -0.03423    -0.00958
  
  S  C  43   0.01330    -0.01221     0.50951     0.03361    -0.04378    -0.00908
 PX  C  43  -0.00040     0.00010     0.02055     0.00696    -0.01183    -0.00302
 PY  C  43   0.00028    -0.00110     0.13859     0.03000    -0.05053    -0.01272
 PZ  C  43  -0.00125     0.00096     0.00814     0.01067    -0.01844    -0.00535
  
  S  O  44   0.00808    -0.00788     0.40649     0.04354    -0.06477    -0.01570
 PX  O  44  -0.00084     0.00079    -0.03852    -0.00361     0.00517     0.00124
 PY  O  44  -0.00051     0.00036    -0.00690     0.00208    -0.00440    -0.00117
 PZ  O  44  -0.00340     0.00333    -0.17016    -0.01772     0.02622     0.00625
  
  S  O  45   0.01193    -0.01179     0.57129     0.05610    -0.08410    -0.01912
 PX  O  45   0.00028    -0.00034     0.02544     0.00423    -0.00685    -0.00171
 PY  O  45  -0.00200     0.00181    -0.06190    -0.00036    -0.00153    -0.00092
 PZ  O  45   0.00288    -0.00293     0.15653     0.01794    -0.02752    -0.00654
  
  S  C  46   0.01490    -0.00986     0.10174    -0.04828     0.09203     0.02338
 PX  C  46  -0.00392     0.00206    -0.01065     0.01009    -0.01740    -0.00371
 PY  C  46   0.00046    -0.00108     0.04473     0.00122    -0.00181     0.00042
 PZ  C  46  -0.00449     0.00339    -0.01601     0.01477    -0.02455    -0.00663
  
  S  N  47   0.00680    -0.00404     0.03399    -0.02531     0.05035     0.01237
 PX  N  47  -0.00228     0.00112    -0.00648     0.00676    -0.01300    -0.00286
 PY  N  47   0.00210    -0.00141     0.01752    -0.00836     0.01682     0.00433
 PZ  N  47  -0.00274     0.00173    -0.00973     0.00977    -0.01848    -0.00458
  
  S  H  48   0.01035    -0.00852     0.06136    -0.03401     0.05683     0.01636
  
  S  H  49   0.00031     0.00051    -0.00000    -0.00275    -0.01003     0.03809
  
  S  H  50   0.00045     0.00071    -0.00001    -0.00350    -0.01258     0.04708
  
  S  H  51   0.00045     0.00071    -0.00001    -0.00351    -0.01259     0.04712
  
  S  H  52   0.00108     0.00167    -0.00001    -0.00632    -0.02184     0.07852
  
  S  H  53   0.00110     0.00169    -0.00001    -0.00632    -0.02186     0.07857
  
  S  H  54   0.00232     0.00348    -0.00002    -0.00968    -0.03142     0.10644
  
  S  H  55   0.00227     0.00341    -0.00002    -0.00967    -0.03138     0.10639
  
  S  H  56   0.00507     0.00723    -0.00005    -0.01299    -0.03951     0.12262
  
  S  H  57   0.00545     0.00768    -0.00005    -0.01298    -0.03962     0.12275
  
  S  H  58   0.00998     0.01390    -0.00007    -0.01784    -0.04619     0.12584
  
  S  H  59   0.00894     0.01261    -0.00006    -0.01743    -0.04577     0.12572
  
  S  H  60   0.02185     0.02894    -0.00016    -0.02051    -0.05147     0.11917
  
  S  H  61   0.03238     0.04123    -0.00025    -0.02013    -0.05346     0.12042
  
  S  H  62   0.03530     0.04658    -0.00005    -0.03349    -0.05205     0.08841
  
  S  H  63   0.02249     0.03042    -0.00008    -0.02520    -0.04670     0.08979
  
  S  H  64   0.04670     0.06069    -0.00005    -0.03464    -0.04412     0.04936
  
  S  H  65   0.04841     0.06211    -0.00023    -0.02608    -0.04763     0.06844
  
  S  H  66   0.03135     0.03936     0.00048    -0.03567    -0.00667    -0.02636
  
  S  H  67   0.01349     0.01569     0.00067    -0.02474     0.01159    -0.04585
  
  S  H  68   0.01472     0.01346     0.00134    -0.02473     0.01965    -0.04782
  
  S  H  69   0.03925     0.01084     0.00279    -0.02570     0.04812    -0.04457
  
  S  H  70   0.03532     0.03687    -0.00089     0.03621    -0.00142     0.03270
  
  S  H  71   0.02215     0.00974    -0.00162     0.07423     0.02364     0.01285
  
  S  H  72   0.04442    -0.01053     0.01848    -0.04921     0.09851     0.00421
  
  S  H  73   0.01727    -0.01673     0.01210    -0.05087     0.06878     0.02273
  
  S  H  74   0.03435    -0.03603     0.00118    -0.04611     0.02030     0.00976
  
  S  H  75   0.03738    -0.03230    -0.00496     0.04561    -0.02066    -0.00448
  
  S  H  76   0.02273    -0.00727    -0.00271     0.07717     0.01767     0.00686
  
  S  H  77   0.05158    -0.05531    -0.00685    -0.01258    -0.08583    -0.03035
  
  S  H  78   0.05133    -0.05586    -0.00613    -0.02563    -0.08013    -0.02834
  
  S  H  79   0.03621    -0.03975    -0.00459    -0.02045    -0.08418    -0.04101
  
  S  H  80   0.03677    -0.03977    -0.00508    -0.01258    -0.08757    -0.04213
  
  S  H  81   0.01426    -0.01646    -0.00242    -0.01244    -0.08031    -0.05185
  
  S  H  82   0.01422    -0.01649    -0.00236    -0.01362    -0.07984    -0.05170
  
  S  H  83   0.00727    -0.00869    -0.00139    -0.01058    -0.07279    -0.05593
  
  S  H  84   0.00728    -0.00869    -0.00141    -0.01022    -0.07290    -0.05594
  
  S  H  85   0.00335    -0.00419    -0.00077    -0.00800    -0.06246    -0.05438
  
  S  H  86   0.00335    -0.00420    -0.00077    -0.00807    -0.06246    -0.05440
  
  S  H  87   0.00162    -0.00210    -0.00043    -0.00591    -0.04977    -0.04736
  
  S  H  88   0.00162    -0.00210    -0.00043    -0.00589    -0.04976    -0.04735
  
  S  H  89   0.00074    -0.00099    -0.00023    -0.00387    -0.03463    -0.03496
  
  S  H  90   0.00074    -0.00099    -0.00023    -0.00388    -0.03464    -0.03497
  
  S  H  91   0.00021    -0.00030    -0.00008    -0.00169    -0.01592    -0.01697
  
  S  H  92   0.00031    -0.00043    -0.00011    -0.00215    -0.01997    -0.02098
  
  S  H  93   0.00031    -0.00043    -0.00011    -0.00215    -0.01997    -0.02098
  
  S  H  94   0.00466    -0.00468     0.24065     0.02660    -0.04088    -0.00962




    ROOT NO.    7           8           9          10          11          12

           -42.67145   -42.12200   -40.46375   -40.10920   -39.59047   -39.10416
  
  
  S  C   1   0.02040     0.14180     0.12052    -0.17844    -0.06155    -0.10362
 PX  C   1   0.00735     0.04963     0.03811    -0.05499    -0.01820    -0.02937
 PY  C   1   0.00225     0.01472     0.00992    -0.01381    -0.00431    -0.00650
 PZ  C   1  -0.00029    -0.00209    -0.00206     0.00313     0.00112     0.00196
  
  S  C   2   0.03391     0.22573     0.16601    -0.23739    -0.07759    -0.12378
 PX  C   2   0.00174     0.00666    -0.00790     0.01595     0.00763     0.01614
 PY  C   2   0.00787     0.04949     0.02855    -0.03797    -0.01092    -0.01496
 PZ  C   2   0.00232     0.01522     0.01040    -0.01459    -0.00462    -0.00711
  
  S  C   3   0.04363     0.27026     0.14935    -0.19733    -0.05643    -0.07737
 PX  C   3   0.00651     0.03050    -0.00710     0.01951     0.01093     0.02437
 PY  C   3  -0.00365    -0.02966    -0.03419     0.05249     0.01884     0.03250
 PZ  C   3  -0.00211    -0.01397    -0.01023     0.01450     0.00466     0.00726
  
  S  C   4   0.04683     0.25406     0.06757    -0.06166    -0.00379     0.01780
 PX  C   4  -0.00432    -0.04140    -0.04697     0.07007     0.02375     0.03814
 PY  C   4   0.00563     0.01980    -0.02024     0.03761     0.01601     0.03031
 PZ  C   4   0.00245     0.01256    -0.00009     0.00261     0.00197     0.00468
  
  S  C   5   0.04230     0.18651    -0.04362     0.10320     0.05049     0.10096
 PX  C   5   0.00109    -0.01863    -0.04724     0.07011     0.02271     0.03353
 PY  C   5  -0.00781    -0.04733    -0.02572     0.03000     0.00597     0.00293
 PZ  C   5  -0.00266    -0.01217    -0.00180     0.00026    -0.00102    -0.00329
  
  S  C   6   0.03235     0.07101    -0.13607     0.21784     0.07675     0.12201
 PX  C   6  -0.00763    -0.06001    -0.01395     0.00533    -0.00557    -0.01998
 PY  C   6  -0.00170    -0.02214    -0.03962     0.04918     0.01093     0.00785
 PZ  C   6   0.00071     0.00616    -0.01160     0.01761     0.00562     0.00784
  
  S  C   7   0.01144    -0.02518    -0.17847     0.24069     0.06399     0.07046
 PX  C   7  -0.00627    -0.04730    -0.01865     0.00705    -0.00758    -0.02639
 PY  C   7  -0.00875    -0.01253     0.02147    -0.03902    -0.01626    -0.02970
 PZ  C   7   0.00103     0.01280     0.01457    -0.01405    -0.00111     0.00308
  
  S  C   8  -0.00580    -0.13368    -0.15363     0.15856     0.01808    -0.02356
 PX  C   8  -0.00307    -0.01508     0.03759    -0.05909    -0.01936    -0.02708
 PY  C   8  -0.00791     0.00724     0.00190    -0.00906    -0.00664    -0.01576
 PZ  C   8   0.00704     0.06044     0.01548     0.00723     0.01469     0.03713
  
  S  N   9  -0.02587    -0.23719    -0.04472    -0.04584    -0.05671    -0.13074
 PX  N   9   0.00409    -0.00148     0.03617    -0.04519    -0.00869    -0.00185
 PY  N   9  -0.01999     0.03213    -0.01829     0.01230    -0.00541    -0.02304
 PZ  N   9   0.00591    -0.00047    -0.07654     0.10906     0.02752     0.02159
  
  S  C  10  -0.08406     0.08653    -0.01249    -0.01218    -0.02384    -0.06209
 PX  C  10   0.00534    -0.02742     0.02314    -0.04138    -0.01271    -0.01302
 PY  C  10  -0.02120     0.15040    -0.03461     0.09686     0.03875     0.05540
 PZ  C  10   0.01566    -0.11651    -0.03562     0.01474    -0.01049    -0.03658
  
  S  C  11  -0.08564     0.21423    -0.05631     0.10966     0.02742     0.01470
 PX  C  11  -0.00805     0.01440    -0.00003    -0.00081    -0.00174    -0.00455
 PY  C  11   0.01048     0.01146     0.00794     0.00492     0.00879     0.02177
 PZ  C  11   0.03134    -0.11666     0.00046    -0.02851    -0.01443    -0.02387
  
  S  C  12  -0.08423     0.27896    -0.04032     0.12029     0.04402     0.05535
 PX  C  12  -0.01106     0.03761    -0.00299     0.01174     0.00432     0.00575
 PY  C  12   0.03177    -0.09883     0.01196    -0.03486    -0.01199    -0.01393
 PZ  C  12   0.00416    -0.02802    -0.00330    -0.00397    -0.00440    -0.01044
  
  S  C  13  -0.07679     0.28989    -0.02914     0.10643     0.04441     0.06485
 PX  C  13  -0.00198     0.01654     0.00031     0.00219     0.00101     0.00225
 PY  C  13   0.01858    -0.07208     0.00314    -0.01529    -0.00749    -0.01263
 PZ  C  13  -0.02791     0.08345    -0.00993     0.03239     0.01121     0.01338
  
  S  C  14  -0.06026     0.27343    -0.01088     0.05735     0.03234     0.05846
 PX  C  14   0.01428    -0.02530     0.00423    -0.01512    -0.00552    -0.00581
 PY  C  14  -0.01469     0.04233    -0.01327     0.03948     0.01150     0.01075
 PZ  C  14  -0.03294     0.09413     0.00081     0.01748     0.00615     0.00909
  
  S  C  15  -0.05429     0.17300     0.04946    -0.06312    -0.01000     0.00539
 PX  C  15   0.01986    -0.03862     0.00958    -0.02131    -0.00563    -0.00227
 PY  C  15  -0.03862     0.12482    -0.04210     0.08432     0.02284     0.01967
 PZ  C  15  -0.01338    -0.04977     0.01968    -0.04356    -0.02215    -0.03971
  
  S  C  16   0.05953    -0.01002     0.12865    -0.13798    -0.00343     0.05564
 PX  C  16   0.01345     0.01145    -0.01095     0.02134     0.00976     0.01545
 PY  C  16  -0.04991     0.01687    -0.02247    -0.02736    -0.02908    -0.05959
 PZ  C  16  -0.00181    -0.06708     0.04498    -0.05373    -0.01471    -0.01252
  
  S  C  17   0.06232    -0.15162     0.12489    -0.12584    -0.00616     0.04419
 PX  C  17   0.01336     0.02217     0.02046    -0.00312     0.00982     0.02690
 PY  C  17  -0.04296    -0.04594    -0.01988    -0.05690    -0.04850    -0.10170
 PZ  C  17  -0.02296    -0.04262    -0.06162     0.04369    -0.00803    -0.04048
  
  S  C  18   0.09108    -0.06981     0.11025    -0.01971     0.05168     0.14708
 PX  C  18   0.00710     0.00656     0.01287    -0.00399     0.00388     0.01092
 PY  C  18   0.00428    -0.03669     0.00900    -0.02244    -0.00742    -0.00779
 PZ  C  18  -0.03794    -0.00142    -0.05572     0.01696    -0.01912    -0.05563
  
  S  C  19   0.10462    -0.00680     0.10532     0.02250     0.06284     0.14402
 PX  C  19   0.00011     0.00651    -0.00563     0.00684    -0.00110    -0.00835
 PY  C  19   0.03650    -0.01281     0.04790    -0.01585     0.01854     0.05655
 PZ  C  19  -0.01249    -0.01988     0.00676    -0.02321    -0.00218     0.01396
  
  S  C  20   0.10761     0.06226     0.01823     0.10297     0.04215     0.03213
 PX  C  20  -0.00754     0.01090    -0.02521     0.01632    -0.00716    -0.02841
 PY  C  20   0.01881     0.00224     0.01835    -0.02290     0.00474     0.02680
 PZ  C  20   0.02445    -0.03750     0.08204    -0.05414     0.02486     0.09851
  
  S  C  21   0.08623     0.07250     0.00137     0.02062     0.02034     0.03110
 PX  C  21  -0.01233     0.01132    -0.04039     0.01823    -0.00764    -0.02804
 PY  C  21  -0.01941    -0.01065     0.01334    -0.06254    -0.00923     0.01651
 PZ  C  21   0.03677    -0.03399     0.09625    -0.04229     0.02205     0.07669
  
  S  C  22  -0.03243     0.07054    -0.16000    -0.01518    -0.02886    -0.04991
 PX  C  22  -0.02150    -0.01545    -0.01703    -0.02711    -0.00506     0.00765
 PY  C  22   0.00249    -0.02250     0.02238    -0.06516     0.01367     0.06632
 PZ  C  22   0.05987     0.02312     0.04286     0.03977     0.02064     0.01281
  
  S  C  23   0.02632    -0.00430    -0.10662    -0.10245     0.03365     0.09599
 PX  C  23   0.02758    -0.02012     0.01413    -0.00171     0.01834     0.02587
 PY  C  23   0.08406    -0.01084     0.05301     0.02695     0.04135     0.04416
 PZ  C  23   0.01435     0.02984     0.00804     0.03310    -0.01391    -0.03387
  
  S  C  24   0.14311    -0.00419    -0.00123     0.01253     0.02570     0.02832
 PX  C  24   0.02890    -0.01986     0.01545     0.02109    -0.00752    -0.02245
 PY  C  24   0.02804    -0.00546     0.03682     0.05358    -0.02346    -0.06470
 PZ  C  24  -0.04343     0.02543     0.00572     0.01978    -0.04353    -0.05433
  
  S  C  25   0.20294    -0.04280     0.05404     0.08153     0.02512    -0.05647
 PX  C  25  -0.00086    -0.00351     0.00914     0.01664    -0.01534    -0.03434
 PY  C  25  -0.01728     0.00829     0.01798     0.04441    -0.04306    -0.10272
 PZ  C  25  -0.00144     0.01296     0.00816     0.03655    -0.05402    -0.08050
  
  S  C  26   0.15067    -0.05248     0.03580     0.00613     0.09480     0.08730
 PX  C  26  -0.01955     0.00696     0.00069     0.00777    -0.01688    -0.02530
 PY  C  26  -0.01940     0.01372     0.00258     0.02884    -0.03591    -0.07377
 PZ  C  26   0.04609    -0.00920     0.00679     0.01691     0.00473    -0.01588
  
  S  C  27   0.08847    -0.05821     0.03649    -0.04507     0.10203     0.15714
 PX  C  27   0.00126     0.00558     0.00388     0.01338    -0.00522    -0.01590
 PY  C  27   0.03783     0.00144    -0.00719     0.01180     0.01666     0.00488
 PZ  C  27   0.03945    -0.01744    -0.00786    -0.02054     0.03282     0.04997
  
  S  C  28  -0.02096    -0.06027    -0.02787    -0.11447     0.04560     0.12776
 PX  C  28   0.03642    -0.00649     0.03390     0.01944     0.02291     0.02161
 PY  C  28   0.10470    -0.00352     0.00570     0.01282     0.06226     0.06938
 PZ  C  28   0.00002     0.00826    -0.06642    -0.03048    -0.00426     0.00275
  
  S  N  29  -0.16425    -0.05206     0.05444    -0.05035    -0.05454    -0.02994
 PX  N  29   0.00774    -0.01044     0.04830     0.01096     0.01067     0.01684
 PY  N  29  -0.00932    -0.00914    -0.04634    -0.05709     0.00788     0.04286
 PZ  N  29  -0.04152     0.00827    -0.09788    -0.04596    -0.02384    -0.01981
  
  S  C  30  -0.10044     0.04266    -0.12412     0.03983    -0.06427    -0.13867
 PX  C  30  -0.02423    -0.01858     0.01947    -0.02554    -0.00534     0.01332
 PY  C  30  -0.04698    -0.01766    -0.03805    -0.08530    -0.01111     0.03954
 PZ  C  30   0.04364     0.04315    -0.06718     0.04246     0.00932    -0.02549
  
  S  C  31  -0.00901     0.06673    -0.08089     0.14447    -0.03058    -0.15919
 PX  C  31  -0.00829    -0.00674     0.01063    -0.00775    -0.00283     0.00243
 PY  C  31  -0.01669     0.01572    -0.03140     0.01808    -0.01470    -0.03765
 PZ  C  31   0.02006     0.02874    -0.04195     0.04160     0.00299    -0.02869
  
  S  C  32   0.04163     0.07729    -0.07254     0.15496     0.00042    -0.10603
 PX  C  32  -0.00485     0.00375    -0.00983     0.00757    -0.00490    -0.01642
 PY  C  32   0.01315     0.02934    -0.03144     0.04381    -0.00192    -0.03292
 PZ  C  32   0.01780    -0.00774     0.02785    -0.01688     0.01615     0.04978
  
  S  C  33  -0.00616    -0.03461     0.23622     0.09909     0.01192    -0.00576
 PX  C  33   0.03990     0.00109     0.05360     0.03525     0.01992     0.01474
 PY  C  33  -0.03223    -0.01106    -0.01197    -0.03014    -0.00823     0.00711
 PZ  C  33  -0.04152    -0.01108     0.01334    -0.00718    -0.01663    -0.01618
  
  S  C  34   0.11932    -0.01153     0.27825     0.16204     0.05480     0.02092
 PX  C  34   0.03761     0.01002    -0.02510    -0.00265     0.00909     0.01037
 PY  C  34  -0.03495    -0.00808    -0.00559    -0.01702    -0.00848    -0.00162
 PZ  C  34  -0.04482    -0.00308    -0.04389    -0.03131    -0.01704    -0.01163
  
  S  C  35   0.23538     0.01381     0.22365     0.15735     0.07116     0.03816
 PX  C  35   0.05454     0.00942    -0.02077    -0.00426     0.00450     0.00591
 PY  C  35  -0.01794    -0.00578     0.03322     0.01508     0.00360     0.00100
 PZ  C  35   0.01370    -0.00243     0.05296     0.03223     0.01103     0.00378
  
  S  C  36   0.30920     0.03460     0.07145     0.07422     0.04633     0.03102
 PX  C  36  -0.00835     0.00325    -0.07226    -0.04702    -0.01934    -0.00944
 PY  C  36  -0.01916    -0.00516     0.04329     0.02546     0.00941     0.00428
 PZ  C  36  -0.05241    -0.00813     0.02469     0.01081     0.00129    -0.00114
  
  S  C  37   0.33714     0.04787    -0.11019    -0.04351    -0.00320     0.00551
 PX  C  37   0.03070     0.00728    -0.07272    -0.04706    -0.02011    -0.01071
 PY  C  37   0.00653    -0.00105     0.04014     0.02820     0.01342     0.00786
 PZ  C  37   0.04550     0.00499     0.01766     0.01668     0.01004     0.00672
  
  S  C  38   0.31569     0.05093    -0.24610    -0.14135    -0.05125    -0.02345
 PX  C  38  -0.04400    -0.00538    -0.01087    -0.01302    -0.00925    -0.00688
 PY  C  38   0.00448    -0.00049     0.02785     0.02062     0.01059     0.00668
 PZ  C  38  -0.03416    -0.00650     0.05215     0.03368     0.01467     0.00813
  
  S  C  39   0.24542     0.04261    -0.27392    -0.17032    -0.07061    -0.03763
 PX  C  39  -0.01132    -0.00111    -0.01262    -0.01095    -0.00658    -0.00463
 PY  C  39   0.02823     0.00436    -0.01554    -0.00769    -0.00188    -0.00028
 PZ  C  39   0.05248     0.00875    -0.04779    -0.02836    -0.01086    -0.00529
  
  S  C  40   0.14780     0.02678    -0.19901    -0.12812    -0.05605    -0.03152
 PX  C  40  -0.04965    -0.00875     0.05874     0.03685     0.01548     0.00834
 PY  C  40   0.02453     0.00428    -0.02778    -0.01727    -0.00715    -0.00379
 PZ  C  40   0.00574     0.00092    -0.00399    -0.00216    -0.00067    -0.00023
  
  S  C  41   0.13695    -0.02054     0.07205     0.14581    -0.05663    -0.26833
 PX  C  41  -0.00020    -0.00091     0.00527     0.01373    -0.01570    -0.03892
 PY  C  41  -0.04674     0.00716    -0.01619    -0.03038     0.03245     0.00574
 PZ  C  41   0.00200     0.00372     0.01000     0.03052    -0.04376    -0.07099
  
  S  C  42   0.09015    -0.01009     0.06681     0.15815    -0.20148    -0.24493
 PX  C  42  -0.01497     0.00112    -0.00556    -0.00819    -0.02975     0.03642
 PY  C  42  -0.03354     0.00299    -0.01784    -0.04178     0.06645     0.04069
 PZ  C  42  -0.02525     0.00440    -0.00941    -0.01031    -0.08642     0.09083
  
  S  C  43  -0.02187     0.00231     0.00024     0.01220    -0.12241     0.07299
 PX  C  43  -0.00911     0.00102    -0.00497    -0.00736    -0.04748     0.07095
 PY  C  43  -0.03856     0.00378    -0.02919    -0.07590     0.17813     0.03669
 PZ  C  43  -0.01503     0.00271    -0.00443     0.01151    -0.29960     0.28624
  
  S  O  44  -0.04230     0.00567    -0.01152     0.00706    -0.42959     0.42684
 PX  O  44   0.00319    -0.00046     0.00057    -0.00135     0.03331    -0.03011
 PY  O  44  -0.00417     0.00024    -0.00560    -0.01834     0.08185    -0.02921
 PZ  O  44   0.01690    -0.00210     0.00545     0.00325     0.10805    -0.11833
  
  S  O  45  -0.05457     0.00445    -0.03577    -0.10777     0.46674    -0.19678
 PX  O  45  -0.00505     0.00054    -0.00339    -0.00819     0.01405     0.00817
 PY  O  45  -0.00342     0.00065    -0.00464    -0.01017    -0.00449     0.03822
 PZ  O  45  -0.01865     0.00187    -0.01124    -0.02855     0.07044     0.00462
  
  S  C  46   0.07602    -0.00576     0.06343     0.16622    -0.32561    -0.20435
 PX  C  46  -0.01183     0.00047    -0.00384    -0.00574    -0.01240     0.00868
 PY  C  46   0.00035    -0.00112     0.00033    -0.00145    -0.00109     0.03025
 PZ  C  46  -0.01800     0.00266    -0.00655    -0.00914    -0.02741     0.02378
  
  S  N  47   0.04261    -0.00214     0.04196     0.11662    -0.25370    -0.15835
 PX  N  47  -0.01003     0.00021    -0.00786    -0.02098     0.04086     0.02850
 PY  N  47   0.01483    -0.00094     0.01543     0.04302    -0.09840    -0.05102
 PZ  N  47  -0.01488     0.00099    -0.01223    -0.03242     0.06167     0.04627
  
  S  H  48   0.04435    -0.00757     0.02338     0.04427     0.00811    -0.10117
  
  S  H  49   0.00714     0.05033     0.04480    -0.06703    -0.02349    -0.04016
  
  S  H  50   0.00873     0.06063     0.05139    -0.07606    -0.02623    -0.04417
  
  S  H  51   0.00874     0.06067     0.05141    -0.07610    -0.02624    -0.04419
  
  S  H  52   0.01415     0.09368     0.06791    -0.09679    -0.03148    -0.04999
  
  S  H  53   0.01416     0.09371     0.06794    -0.09683    -0.03149    -0.05001
  
  S  H  54   0.01829     0.11296     0.06164    -0.08128    -0.02319    -0.03174
  
  S  H  55   0.01828     0.11297     0.06160    -0.08120    -0.02316    -0.03168
  
  S  H  56   0.01971     0.10589     0.02789    -0.02530    -0.00148     0.00745
  
  S  H  57   0.01976     0.10559     0.02797    -0.02542    -0.00152     0.00740
  
  S  H  58   0.01747     0.07828    -0.01823     0.04249     0.02053     0.04071
  
  S  H  59   0.01760     0.07903    -0.01820     0.04282     0.02081     0.04135
  
  S  H  60   0.01480     0.02894    -0.05478     0.08943     0.03224     0.05217
  
  S  H  61   0.01566     0.02082    -0.05224     0.08530     0.03093     0.05047
  
  S  H  62   0.00181    -0.00530    -0.07574     0.10112     0.02593     0.02660
  
  S  H  63   0.00582    -0.00014    -0.07136     0.10033     0.02861     0.03479
  
  S  H  64  -0.00591    -0.04496    -0.06044     0.06158     0.00565    -0.01397
  
  S  H  65   0.00289    -0.05411    -0.05799     0.06532     0.01124     0.00126
  
  S  H  66  -0.02441     0.04697    -0.02949     0.04450     0.00856    -0.00061
  
  S  H  67  -0.02347     0.07937    -0.01350     0.03911     0.01440     0.01819
  
  S  H  68  -0.02013     0.08344    -0.00922     0.03387     0.01459     0.02163
  
  S  H  69  -0.00684     0.07952    -0.00632     0.00997     0.01202     0.02479
  
  S  H  70   0.02524    -0.03084     0.02015     0.00758     0.01792     0.04594
  
  S  H  71   0.03118     0.00128     0.02740     0.01698     0.02079     0.04204
  
  S  H  72   0.04768     0.02131     0.00689     0.02174    -0.01748    -0.02095
  
  S  H  73   0.04893    -0.01624     0.01665     0.01113     0.02750     0.01194
  
  S  H  74   0.02125    -0.01969     0.02725    -0.00916     0.03173     0.04952
  
  S  H  75  -0.00536     0.01561    -0.00682     0.05081    -0.01036    -0.05329
  
  S  H  76   0.01639     0.02173    -0.01523     0.05075     0.00372    -0.02703
  
  S  H  77   0.00214    -0.00989     0.09449     0.04940     0.00378    -0.01085
  
  S  H  78   0.00626    -0.01545     0.10063     0.03890     0.01157     0.00899
  
  S  H  79   0.05042    -0.00633     0.11414     0.06299     0.02423     0.01340
  
  S  H  80   0.04800    -0.00316     0.11081     0.06904     0.02012     0.00264
  
  S  H  81   0.09863     0.00605     0.09206     0.06533     0.02882     0.01460
  
  S  H  82   0.09905     0.00552     0.09270     0.06426     0.02960     0.01667
  
  S  H  83   0.12967     0.01436     0.02939     0.03024     0.01903     0.01292
  
  S  H  84   0.12946     0.01451     0.02922     0.03058     0.01879     0.01228
  
  S  H  85   0.14131     0.01999    -0.04534    -0.01779    -0.00131     0.00219
  
  S  H  86   0.14139     0.01996    -0.04527    -0.01784    -0.00125     0.00235
  
  S  H  87   0.13244     0.02127    -0.10158    -0.05822    -0.02103    -0.00959
  
  S  H  88   0.13240     0.02127    -0.10157    -0.05819    -0.02104    -0.00963
  
  S  H  89   0.10236     0.01769    -0.11205    -0.06945    -0.02866    -0.01521
  
  S  H  90   0.10238     0.01769    -0.11205    -0.06945    -0.02865    -0.01520
  
  S  H  91   0.05173     0.00951    -0.07399    -0.04814    -0.02140    -0.01222
  
  S  H  92   0.06330     0.01145    -0.08488    -0.05463    -0.02389    -0.01344
  
  S  H  93   0.06330     0.01145    -0.08487    -0.05463    -0.02389    -0.01344
  
  S  H  94  -0.02774     0.00256    -0.01856    -0.05189     0.18006    -0.04493




    ROOT NO.   13          14          15          16          17          18

           -38.58102   -37.70103   -36.94957   -36.28706   -35.46864   -34.08889
  
  
  S  C   1  -0.11059    -0.15006     0.20034    -0.05110     0.17401     0.22000
 PX  C   1  -0.02980    -0.03660     0.04406    -0.01006     0.02882     0.02314
 PY  C   1  -0.00606    -0.00607     0.00553    -0.00080     0.00012    -0.00585
 PZ  C   1   0.00216     0.00310    -0.00431     0.00113    -0.00395    -0.00509
  
  S  C   2  -0.12414    -0.15013     0.17908    -0.04081     0.11792     0.10348
 PX  C   2   0.02097     0.03664    -0.05794     0.01671    -0.06474    -0.09653
 PY  C   2  -0.01203    -0.00736    -0.00023     0.00229    -0.01682    -0.03951
 PZ  C   2  -0.00683    -0.00748     0.00797    -0.00158     0.00355     0.00059
  
  S  C   3  -0.06320    -0.04408     0.01556     0.00496    -0.05010    -0.12215
 PX  C   3   0.03211     0.05492    -0.08283     0.02257    -0.07987    -0.09741
 PY  C   3   0.03513     0.04763    -0.06146     0.01486    -0.04504    -0.04115
 PZ  C   3   0.00704     0.00795    -0.00854     0.00170    -0.00343     0.00040
  
  S  C   4   0.04296     0.10005    -0.16689     0.04725    -0.17090    -0.20353
 PX  C   4   0.03740     0.03853    -0.03463     0.00445     0.00307     0.04637
 PY  C   4   0.03460     0.04806    -0.05950     0.01323    -0.03250    -0.00783
 PZ  C   4   0.00618     0.01055    -0.01474     0.00370    -0.01065    -0.00839
  
  S  C   5   0.11795     0.16717    -0.20420     0.04460    -0.10318    -0.02015
 PX  C   5   0.02815     0.01711     0.00528    -0.00765     0.05086     0.10035
 PY  C   5  -0.00518    -0.02104     0.04402    -0.01387     0.05935     0.07887
 PZ  C   5  -0.00517    -0.00867     0.01351    -0.00359     0.01373     0.01401
  
  S  C   6   0.11304     0.09946    -0.05654    -0.00271     0.07167     0.17740
 PX  C   6  -0.03156    -0.06175     0.09085    -0.02294     0.05989     0.02196
 PY  C   6  -0.00474    -0.01912     0.04508    -0.01362     0.06279     0.06299
 PZ  C   6   0.00530     0.00558     0.00054    -0.00149     0.01749     0.02595
  
  S  C   7   0.02688    -0.02738     0.11841    -0.04034     0.19056     0.18668
 PX  C   7  -0.04099    -0.05927     0.07489    -0.01453     0.02624    -0.04599
 PY  C   7  -0.03193    -0.02951     0.01904     0.00114    -0.01686    -0.05550
 PZ  C   7   0.00770     0.00941    -0.00967     0.00087     0.00151     0.01116
  
  S  C   8  -0.08154    -0.13923     0.20889    -0.04577     0.12436    -0.04428
 PX  C   8  -0.01930    -0.00554    -0.01994     0.00976    -0.06068    -0.08211
 PY  C   8  -0.02088    -0.00917    -0.00405     0.00682    -0.01320    -0.02838
 PZ  C   8   0.04784     0.03647    -0.02041    -0.00329     0.03394     0.07846
  
  S  N   9  -0.16133    -0.07642     0.01646     0.01855    -0.07606    -0.14570
 PX  N   9   0.01206     0.02863    -0.04120     0.00745    -0.02516     0.00595
 PY  N   9  -0.03860    -0.01057    -0.01412     0.01509    -0.01051    -0.02092
 PZ  N   9  -0.00628    -0.08962     0.15066    -0.03710     0.07051    -0.06170
  
  S  C  10  -0.07151    -0.03396    -0.05604     0.03813    -0.10303    -0.05502
 PX  C  10  -0.00700     0.03980    -0.04908     0.00931     0.00331     0.03305
 PY  C  10   0.05280    -0.07308     0.10065    -0.02320    -0.00240    -0.05210
 PZ  C  10  -0.05708    -0.05958     0.05842    -0.00383    -0.02264    -0.10675
  
  S  C  11   0.00362    -0.14177     0.10654    -0.00287    -0.11051    -0.16421
 PX  C  11  -0.00495    -0.00146    -0.00667     0.00352    -0.00711    -0.00080
 PY  C  11   0.02904     0.00087     0.01679    -0.00966     0.00511    -0.00186
 PZ  C  11  -0.03169     0.02043    -0.01208     0.00214     0.02404    -0.00083
  
  S  C  12   0.06023    -0.12892     0.11810    -0.01857    -0.08644    -0.11415
 PX  C  12   0.00681    -0.00753     0.00545    -0.00112    -0.00270     0.00180
 PY  C  12  -0.01434     0.02957    -0.02037     0.00107     0.01894     0.01164
 PZ  C  12  -0.01433    -0.01041     0.00335     0.00463    -0.02303    -0.04132
  
  S  C  13   0.07144    -0.06842     0.08271    -0.02529     0.00736     0.00891
 PX  C  13   0.00231     0.01064    -0.00566    -0.00184     0.01890     0.01913
 PY  C  13  -0.01191    -0.01097     0.00549     0.00164    -0.02921    -0.04231
 PZ  C  13   0.01645    -0.03962     0.02729    -0.00093    -0.04066    -0.03589
  
  S  C  14   0.05347     0.05171     0.00077    -0.01863     0.13321     0.12987
 PX  C  14  -0.00994     0.03158    -0.01550    -0.00074     0.03158     0.00701
 PY  C  14   0.01686    -0.06322     0.04786    -0.00810    -0.04507    -0.04067
 PZ  C  14   0.01729    -0.00733    -0.01083     0.00466    -0.01540     0.02619
  
  S  C  15   0.01532     0.14743    -0.14970     0.02359     0.08921     0.18410
 PX  C  15  -0.00328     0.03567    -0.01275    -0.00274     0.03549     0.00886
 PY  C  15   0.01403    -0.07909     0.07061    -0.01052    -0.02585    -0.03817
 PZ  C  15  -0.02917    -0.01662    -0.05236     0.02605    -0.10296    -0.03092
  
  S  C  16   0.08883     0.18692    -0.11547    -0.00281     0.13211     0.15387
 PX  C  16   0.00640    -0.00175     0.03679    -0.01183     0.03664    -0.02456
 PY  C  16  -0.07353     0.05715    -0.09396     0.02788     0.00342     0.05493
 PZ  C  16   0.02113    -0.02765    -0.03186     0.01193    -0.11034    -0.00835
  
  S  C  17   0.10911     0.01653     0.00368    -0.02155    -0.06268    -0.01441
 PX  C  17   0.03637     0.00503     0.01200    -0.00769     0.01149     0.00647
 PY  C  17  -0.12887     0.06520    -0.13548     0.04775    -0.00975     0.03820
 PZ  C  17  -0.06204    -0.06701     0.05728    -0.00492    -0.03298    -0.08535
  
  S  C  18   0.22972    -0.10132     0.18472    -0.07206    -0.08383    -0.09803
 PX  C  18   0.01605    -0.00595     0.00780    -0.00199    -0.00509    -0.00454
 PY  C  18  -0.00419     0.01735    -0.01095    -0.00251     0.01089     0.00647
 PZ  C  18  -0.08368     0.01766    -0.03271     0.01321     0.01907     0.00323
  
  S  C  19   0.20425    -0.14767     0.16018    -0.03600    -0.11359    -0.08139
 PX  C  19  -0.01590    -0.00438    -0.00989     0.00807    -0.00048     0.00365
 PY  C  19   0.08546    -0.00901     0.04804    -0.02516     0.00165    -0.00981
 PZ  C  19   0.03387     0.02049     0.02865    -0.02605     0.00425    -0.02014
  
  S  C  20   0.00084    -0.13820     0.02633     0.03862    -0.05591    -0.01397
 PX  C  20  -0.04636     0.00117    -0.02192     0.01190     0.00416     0.00151
 PY  C  20   0.03343     0.06305     0.01236    -0.02626     0.08124     0.01059
 PZ  C  20   0.15975    -0.00713     0.08985    -0.04578    -0.01878    -0.02720
  
  S  C  21  -0.01836     0.10547    -0.00841    -0.00980     0.18671     0.03003
 PX  C  21  -0.05125     0.00766     0.00310     0.00181     0.00705    -0.03405
 PY  C  21   0.02404     0.11358    -0.01182    -0.02371     0.09399     0.02767
 PZ  C  21   0.13073    -0.02693     0.02117    -0.01075    -0.02425     0.04037
  
  S  C  22  -0.13069     0.21309     0.06159    -0.06167     0.14498    -0.11752
 PX  C  22   0.01337     0.01859     0.03924    -0.01829    -0.02922    -0.04420
 PY  C  22   0.05525     0.07626     0.05480    -0.02160     0.06200    -0.03748
 PZ  C  22  -0.02182    -0.01376    -0.05645     0.03974     0.09580     0.05240
  
  S  C  23  -0.08674     0.18554     0.12368    -0.00687     0.11975    -0.16829
 PX  C  23  -0.00977    -0.04584    -0.00529     0.03523    -0.03255     0.00144
 PY  C  23  -0.03166    -0.07423    -0.05431     0.07002     0.03100     0.03493
 PZ  C  23  -0.01390     0.04661    -0.02788    -0.02063     0.10449    -0.00530
  
  S  C  24  -0.06597     0.06526    -0.00128    -0.01118     0.15205    -0.08185
 PX  C  24   0.00557    -0.04004    -0.01364    -0.00354    -0.04001     0.00213
 PY  C  24   0.03617    -0.06180    -0.04760    -0.04872    -0.04456     0.04284
 PZ  C  24   0.04808     0.03938     0.00264    -0.03314     0.02496     0.01699
  
  S  C  25  -0.03290    -0.09437    -0.09650    -0.09126    -0.00689     0.00964
 PX  C  25   0.02126    -0.01427    -0.01036    -0.02488    -0.02977     0.01647
 PY  C  25   0.06419    -0.00121    -0.02619    -0.11561    -0.02544     0.02012
 PZ  C  25   0.05140     0.05464     0.01072    -0.08458     0.04729    -0.03909
  
  S  C  26  -0.09271    -0.16437    -0.08446     0.10432    -0.09358     0.10002
 PX  C  26   0.01906     0.01180     0.00088    -0.02283     0.00133     0.00171
 PY  C  26   0.03738     0.02835    -0.00987    -0.09396     0.01704    -0.01574
 PZ  C  26  -0.01085    -0.00881    -0.01666    -0.03854     0.01058    -0.02266
  
  S  C  27  -0.06098    -0.16076    -0.03720     0.19829    -0.10929     0.12650
 PX  C  27  -0.00259    -0.00207    -0.01203    -0.00734     0.00524     0.00491
 PY  C  27  -0.04712    -0.01720    -0.02117     0.01615    -0.00502     0.00485
 PZ  C  27  -0.03842    -0.02009     0.00639     0.04138    -0.01652    -0.00967
  
  S  C  28   0.02629    -0.01628     0.08217     0.06663    -0.09808     0.00758
 PX  C  28  -0.01788    -0.05955    -0.03945     0.05541    -0.00249     0.04059
 PY  C  28  -0.11181    -0.04566    -0.03157     0.10734     0.02185    -0.00169
 PZ  C  28  -0.04775     0.10159     0.06450    -0.04395     0.03572    -0.11517
  
  S  N  29   0.22144    -0.07897    -0.00924    -0.06387    -0.10360     0.13405
 PX  N  29   0.02667    -0.04131    -0.02602     0.02732     0.02015     0.02497
 PY  N  29   0.00127     0.05691     0.08080    -0.01046    -0.04049    -0.04329
 PZ  N  29  -0.02880     0.10138     0.08546    -0.06663    -0.05118    -0.08597
  
  S  C  30  -0.08030     0.01319    -0.03171    -0.04409    -0.06897     0.00573
 PX  C  30   0.05710     0.00322     0.01958    -0.02213    -0.01310     0.00130
 PY  C  30   0.06539     0.11923     0.11586    -0.07877     0.01087    -0.08375
 PZ  C  30  -0.13695     0.03385    -0.00899     0.03338     0.04285    -0.05532
  
  S  C  31  -0.19397    -0.13840    -0.16252     0.08707    -0.08973     0.08719
 PX  C  31   0.02052     0.00511     0.00234    -0.01046     0.00554     0.00153
 PY  C  31  -0.02933     0.00566    -0.01287    -0.01084    -0.00084     0.00087
 PZ  C  31  -0.08377    -0.02516    -0.02115     0.03543    -0.02017    -0.00810
  
  S  C  32  -0.18712    -0.17224    -0.10856     0.10931    -0.11567     0.03900
 PX  C  32  -0.02104    -0.00041    -0.01638     0.00550     0.00033     0.00723
 PY  C  32  -0.06012    -0.02142    -0.02282     0.01777    -0.00027    -0.00002
 PZ  C  32   0.06203    -0.00418     0.05535    -0.01716    -0.00333    -0.03206
  
  S  C  33   0.11768    -0.16815    -0.15513     0.06309     0.13054     0.07394
 PX  C  33  -0.03313     0.00801    -0.00972     0.02151     0.07103    -0.07510
 PY  C  33   0.05104    -0.02332     0.00662    -0.00345    -0.04986     0.06626
 PZ  C  33   0.06048    -0.04063    -0.02164    -0.01136    -0.03386     0.06617
  
  S  C  34  -0.04008    -0.04519    -0.09279     0.06360     0.21754    -0.14861
 PX  C  34  -0.05561     0.06401     0.05233    -0.01695    -0.02380    -0.05004
 PY  C  34   0.04512    -0.03908    -0.02155     0.00862    -0.00668     0.04784
 PZ  C  34   0.03707    -0.02327    -0.00684    -0.00649    -0.03788     0.05585
  
  S  C  35  -0.16004     0.10660     0.03967     0.00413     0.09769    -0.17806
 PX  C  35  -0.03957     0.05830     0.05730    -0.02992    -0.07634     0.02518
 PY  C  35   0.01401    -0.03033    -0.03409     0.02153     0.05985    -0.03319
 PZ  C  35  -0.01050    -0.00958    -0.02208     0.01616     0.05881    -0.05043
  
  S  C  36  -0.16500     0.17543     0.14071    -0.06475    -0.13622     0.02164
 PX  C  36   0.03700    -0.01679     0.00370    -0.01069    -0.06152     0.09050
 PY  C  36  -0.01077    -0.00381    -0.01446     0.01325     0.05380    -0.06373
 PZ  C  36   0.01247    -0.02569    -0.02995     0.01858     0.05995    -0.05319
  
  S  C  37  -0.05916     0.10638     0.11671    -0.07044    -0.22099     0.19521
 PX  C  37   0.04731    -0.03795    -0.02244     0.00628    -0.00503     0.04297
 PY  C  37  -0.03714     0.03502     0.02557    -0.01040    -0.01620    -0.01200
 PZ  C  37  -0.03667     0.04113     0.03512    -0.01744    -0.04176     0.01608
  
  S  C  38   0.08647    -0.04637    -0.01068    -0.00740    -0.06567     0.11845
 PX  C  38   0.04109    -0.05407    -0.05375     0.03123     0.09662    -0.08761
 PY  C  38  -0.03518     0.04055     0.03725    -0.02039    -0.05925     0.04808
 PZ  C  38  -0.03842     0.03752     0.03030    -0.01486    -0.03711     0.02090
  
  S  C  39   0.17068    -0.15852    -0.12457     0.06046     0.15300    -0.09983
 PX  C  39   0.02710    -0.03636    -0.03782     0.02323     0.07845    -0.08682
 PY  C  39  -0.00261     0.00961     0.01351    -0.00968    -0.03716     0.04704
 PZ  C  39   0.02125    -0.01470    -0.00737     0.00136    -0.00543     0.01942
  
  S  C  40   0.15212    -0.15862    -0.13954     0.07583     0.22584    -0.21220
 PX  C  40  -0.03827     0.03612     0.02865    -0.01394    -0.03495     0.02088
 PY  C  40   0.01710    -0.01553    -0.01179     0.00545     0.01243    -0.00497
 PZ  C  40   0.00033     0.00106     0.00203    -0.00164    -0.00689     0.00967
  
  S  C  41   0.11733    -0.03332    -0.09010    -0.30601    -0.03620     0.00119
 PX  C  41   0.02650     0.00952     0.00605    -0.02524    -0.01093    -0.00374
 PY  C  41   0.00707     0.01982     0.02383     0.01723    -0.00696    -0.00354
 PZ  C  41   0.05072     0.03186     0.01393    -0.05842     0.00397    -0.01969
  
  S  C  42   0.15366     0.02787    -0.01704    -0.23500    -0.03697    -0.02077
 PX  C  42  -0.00859     0.00732     0.02157     0.05927    -0.00313     0.00204
 PY  C  42  -0.02798    -0.01219    -0.01281    -0.02398    -0.00424    -0.00030
 PZ  C  42  -0.02539     0.01235     0.03236     0.09281     0.00467     0.00009
  
  S  C  43  -0.01782    -0.01143    -0.01770    -0.06702    -0.00866    -0.00573
 PX  C  43  -0.03099    -0.00991    -0.00365     0.02166     0.00426     0.00297
 PY  C  43  -0.04413    -0.00335     0.01321     0.11101     0.01919     0.00927
 PZ  C  43  -0.11306    -0.04817    -0.03897    -0.00924     0.01013     0.00593
  
  S  O  44  -0.16905    -0.07487    -0.06702    -0.05250     0.01044     0.00583
 PX  O  44   0.01135     0.00523     0.00523     0.00732    -0.00033     0.00005
 PY  O  44   0.00347     0.00417     0.00628     0.02632     0.00427     0.00194
 PZ  O  44   0.04726     0.01881     0.01517     0.00651    -0.00311    -0.00132
  
  S  O  45   0.04740     0.04497     0.05993     0.15344     0.01263     0.00364
 PX  O  45  -0.00584     0.00045     0.00348     0.01847     0.00266     0.00101
 PY  O  45  -0.02021    -0.00254     0.00570     0.04823     0.00845     0.00403
 PZ  O  45  -0.01070     0.00242     0.00803     0.03888     0.00594     0.00177
  
  S  C  46   0.17941     0.11800     0.16531     0.27955    -0.02205     0.00510
 PX  C  46   0.00625     0.01797     0.04419     0.12323    -0.00555     0.00895
 PY  C  46  -0.02830    -0.04775    -0.08998    -0.25127    -0.00738    -0.01461
 PZ  C  46   0.00486     0.03073     0.06777     0.19210    -0.00019     0.01236
  
  S  N  47   0.15648     0.13998     0.23117     0.51375    -0.01426     0.02365
 PX  N  47  -0.02522    -0.02164    -0.03147    -0.06574    -0.00071    -0.00185
 PY  N  47   0.05322     0.04461     0.07321     0.15514    -0.00740     0.00677
 PZ  N  47  -0.04036    -0.03219    -0.04946    -0.10300     0.00251    -0.00360
  
  S  H  48   0.04069    -0.01806    -0.03711    -0.11505    -0.02018     0.00622
  
  S  H  49  -0.04360    -0.06098     0.08366    -0.02188     0.07695     0.10314
  
  S  H  50  -0.04717    -0.06409     0.08578    -0.02194     0.07512     0.09616
  
  S  H  51  -0.04718    -0.06411     0.08579    -0.02194     0.07510     0.09611
  
  S  H  52  -0.04988    -0.05984     0.07081    -0.01602     0.04568     0.03882
  
  S  H  53  -0.04989    -0.05985     0.07081    -0.01601     0.04561     0.03870
  
  S  H  54  -0.02592    -0.01805     0.00661     0.00190    -0.01940    -0.04735
  
  S  H  55  -0.02586    -0.01796     0.00655     0.00190    -0.01928    -0.04712
  
  S  H  56   0.01776     0.04033    -0.06683     0.01878    -0.06830    -0.08111
  
  S  H  57   0.01775     0.04014    -0.06676     0.01880    -0.06891    -0.08198
  
  S  H  58   0.04717     0.06754    -0.08262     0.01821    -0.04107    -0.00769
  
  S  H  59   0.04790     0.06838    -0.08290     0.01806    -0.03948    -0.00498
  
  S  H  60   0.04968     0.03918    -0.01939    -0.00276     0.02818     0.06892
  
  S  H  61   0.04921     0.03545    -0.01727    -0.00294     0.02067     0.05925
  
  S  H  62   0.00732    -0.01397     0.04667    -0.01422     0.07145     0.06891
  
  S  H  63   0.01847    -0.00311     0.04212    -0.01622     0.08420     0.09272
  
  S  H  64  -0.03936    -0.06266     0.08773    -0.01708     0.04718    -0.03248
  
  S  H  65  -0.01742    -0.05394     0.09138    -0.02392     0.05537    -0.01033
  
  S  H  66  -0.00999    -0.06115     0.05348    -0.00322    -0.03648    -0.08006
  
  S  H  67   0.01989    -0.04745     0.04638    -0.00787    -0.03401    -0.05327
  
  S  H  68   0.02402    -0.02228     0.03153    -0.01138     0.00802     0.00240
  
  S  H  69   0.01005     0.04854    -0.00014    -0.01108     0.09121     0.05123
  
  S  H  70   0.07030    -0.04366     0.07789    -0.02901    -0.02864    -0.04479
  
  S  H  71   0.05823    -0.06551     0.05504    -0.00650    -0.05633    -0.03586
  
  S  H  72   0.00116     0.05994    -0.00267    -0.02125     0.09470    -0.01854
  
  S  H  73  -0.02286    -0.06342    -0.03984     0.01867    -0.04171     0.04907
  
  S  H  74  -0.00514    -0.06925    -0.02338     0.07467    -0.04025     0.06721
  
  S  H  75  -0.05027    -0.06232    -0.06964     0.03366    -0.03115     0.04562
  
  S  H  76  -0.05058    -0.07372    -0.03184     0.04110    -0.05716     0.01319
  
  S  H  77   0.03489    -0.06793    -0.07116     0.02569     0.05925     0.02634
  
  S  H  78   0.04362    -0.06979    -0.06036     0.03635     0.05653     0.02966
  
  S  H  79  -0.01506    -0.01853    -0.03370     0.02814     0.08296    -0.05811
  
  S  H  80  -0.02011    -0.01870    -0.04010     0.02361     0.08364    -0.05876
  
  S  H  81  -0.06547     0.04277     0.01486     0.00142     0.03973    -0.07025
  
  S  H  82  -0.06448     0.04269     0.01615     0.00252     0.03952    -0.06991
  
  S  H  83  -0.06682     0.07079     0.05678    -0.02577    -0.05449     0.00847
  
  S  H  84  -0.06714     0.07079     0.05635    -0.02610    -0.05442     0.00836
  
  S  H  85  -0.02413     0.04301     0.04689    -0.02826    -0.08814     0.07759
  
  S  H  86  -0.02408     0.04303     0.04700    -0.02817    -0.08813     0.07756
  
  S  H  87   0.03536    -0.01900    -0.00456    -0.00277    -0.02552     0.04600
  
  S  H  88   0.03533    -0.01899    -0.00458    -0.00280    -0.02554     0.04602
  
  S  H  89   0.06861    -0.06317    -0.04925     0.02370     0.05929    -0.03748
  
  S  H  90   0.06861    -0.06316    -0.04923     0.02371     0.05927    -0.03746
  
  S  H  91   0.05999    -0.06447    -0.05828     0.03248     0.09992    -0.09954
  
  S  H  92   0.06488    -0.06776    -0.05975     0.03257     0.09746    -0.09271
  
  S  H  93   0.06488    -0.06776    -0.05975     0.03256     0.09746    -0.09271
  
  S  H  94   0.00175     0.01424     0.02508     0.08730     0.01030     0.00388




    ROOT NO.   19          20          21          22          23          24

           -33.05271   -32.61763   -32.19768   -31.87593   -30.99703   -30.06299
  
  
  S  C   1  -0.05719    -0.21234    -0.11695    -0.01071     0.10837    -0.17791
 PX  C   1  -0.00293    -0.00585    -0.00022     0.00026    -0.00846     0.02720
 PY  C   1   0.00264     0.01232     0.00772     0.00061    -0.01031     0.02007
 PZ  C   1   0.00126     0.00482     0.00255     0.00016    -0.00221     0.00282
  
  S  C   2  -0.01731    -0.05175    -0.02027    -0.00073    -0.00131     0.03120
 PX  C   2   0.02777     0.10502     0.05962     0.00591    -0.05755     0.09681
 PY  C   2   0.01328     0.05480     0.03223     0.00280    -0.03544     0.06174
 PZ  C   2   0.00046     0.00328     0.00225     0.00008    -0.00365     0.00685
  
  S  C   3   0.03934     0.16124     0.09253     0.00743    -0.09601     0.15701
 PX  C   3   0.02266     0.07712     0.03867     0.00346    -0.02207     0.01540
 PY  C   3   0.00570     0.01855     0.00532    -0.00101     0.00427    -0.02473
 PZ  C   3  -0.00135    -0.00476    -0.00362    -0.00084     0.00426    -0.00982
  
  S  C   4   0.04701     0.14709     0.07277     0.00862    -0.03058     0.00852
 PX  C   4  -0.01740    -0.08580    -0.05029    -0.00221     0.06149    -0.10228
 PY  C   4  -0.00672    -0.03006    -0.02383    -0.00422     0.03326    -0.07069
 PZ  C   4   0.00008     0.00220    -0.00057    -0.00119     0.00154    -0.00758
  
  S  C   5  -0.02316    -0.08292    -0.06603    -0.01474     0.07652    -0.15407
 PX  C   5  -0.02766    -0.10426    -0.05389    -0.00353     0.03813    -0.03124
 PY  C   5  -0.02428    -0.05463    -0.03101    -0.00931     0.00088     0.01400
 PZ  C   5  -0.00427    -0.00352    -0.00193    -0.00260    -0.00693     0.01246
  
  S  C   6  -0.04025    -0.18974    -0.08741     0.00387     0.07304    -0.05377
 PX  C   6   0.02014     0.03894     0.04345     0.01758    -0.03808     0.08897
 PY  C   6  -0.02204    -0.00509    -0.00442    -0.01411    -0.03987     0.06401
 PZ  C   6  -0.01247    -0.00793    -0.00690    -0.00879    -0.01439     0.01912
  
  S  C   7  -0.06087    -0.00690    -0.00835    -0.03795    -0.11300     0.18020
 PX  C   7   0.02898     0.10572     0.06906     0.00925    -0.04811     0.04014
 PY  C   7  -0.00774     0.07448     0.01445    -0.02192    -0.04357     0.03077
 PZ  C   7  -0.00166    -0.00193     0.00165     0.00029    -0.01267     0.02926
  
  S  C   8   0.05002     0.21545     0.14500     0.01311    -0.10227     0.05556
 PX  C   8   0.04074     0.02118     0.02540     0.02735     0.05347    -0.09773
 PY  C   8  -0.04484     0.04098    -0.02896    -0.05476    -0.04485     0.00598
 PZ  C   8  -0.02920    -0.03452    -0.02437    -0.00851    -0.03906     0.11157
  
  S  N   9   0.07074     0.05184     0.07425     0.01179     0.05603    -0.22203
 PX  N   9   0.02185    -0.04255     0.00068     0.03305     0.04392    -0.01968
 PY  N   9  -0.10578     0.04601    -0.07579    -0.14119    -0.11184     0.02024
 PZ  N   9   0.04187     0.15985     0.08932     0.02830    -0.02979     0.00413
  
  S  C  10  -0.14242    -0.03805    -0.15400    -0.17342    -0.09307     0.05485
 PX  C  10   0.03005    -0.03285     0.02891     0.00188    -0.00571    -0.02129
 PY  C  10  -0.06361     0.05620    -0.07536    -0.00406     0.00868     0.10427
 PZ  C  10  -0.03667     0.08762    -0.03717    -0.01997     0.03368    -0.07995
  
  S  C  11  -0.23985     0.06547    -0.28733    -0.07735     0.06638     0.14104
 PX  C  11  -0.00170    -0.00542    -0.00026    -0.02357    -0.02615     0.00478
 PY  C  11   0.01017    -0.00066    -0.00319     0.08360     0.09520    -0.01808
 PZ  C  11   0.00215     0.03347     0.00789    -0.03832    -0.03360     0.00082
  
  S  C  12  -0.09875     0.01960    -0.12395     0.13421     0.20701    -0.05262
 PX  C  12   0.00795    -0.00488     0.00991    -0.00003    -0.00991    -0.00014
 PY  C  12   0.02405     0.00557     0.02583     0.02257     0.02573    -0.04544
 PZ  C  12  -0.10492     0.02207    -0.13777    -0.07105     0.00242     0.12146
  
  S  C  13   0.15772    -0.00775     0.20116     0.18108     0.07634    -0.22530
 PX  C  13   0.03645    -0.00030     0.03655    -0.01636    -0.03543     0.00616
 PY  C  13  -0.06235     0.00876    -0.07755     0.02892     0.08318    -0.02691
 PZ  C  13  -0.06773    -0.00721    -0.08008     0.01744     0.05160     0.03260
  
  S  C  14   0.24431     0.01111     0.29215     0.01999    -0.12951    -0.04999
 PX  C  14   0.00689     0.01752    -0.02044    -0.04131    -0.00785     0.03926
 PY  C  14   0.03429    -0.01459     0.03478     0.07561     0.05615    -0.11422
 PZ  C  14  -0.02361    -0.02968    -0.00757    -0.01200    -0.04060     0.05234
  
  S  C  15   0.03499    -0.05840     0.07628    -0.09377    -0.16781     0.13844
 PX  C  15   0.00022     0.02878    -0.00778     0.00039     0.02043     0.00727
 PY  C  15   0.06216    -0.01055     0.04846    -0.01457    -0.03489    -0.01896
 PZ  C  15  -0.09252    -0.08298    -0.12010    -0.03386     0.02403    -0.00374
  
  S  C  16  -0.11964     0.08285    -0.03927     0.05888    -0.00640     0.12560
 PX  C  16  -0.02686     0.07155    -0.00798     0.01316     0.01921    -0.01310
 PY  C  16   0.05812    -0.08487     0.03684    -0.08102    -0.05752     0.02304
 PZ  C  16   0.04591    -0.13913    -0.03183     0.02399     0.04514     0.00018
  
  S  C  17   0.09345    -0.08659     0.00096     0.19869     0.18262     0.02460
 PX  C  17  -0.02302     0.02191    -0.02007     0.00220    -0.00849     0.04082
 PY  C  17  -0.03756    -0.02947     0.00902    -0.06006    -0.02410    -0.11396
 PZ  C  17   0.11401    -0.01245     0.07699     0.04228     0.06646    -0.09465
  
  S  C  18   0.18775    -0.10513     0.00436     0.13319     0.11726     0.14764
 PX  C  18  -0.01032     0.00508    -0.00978    -0.02320    -0.02333     0.00609
 PY  C  18   0.00476     0.02205     0.01325     0.11692     0.09586    -0.01098
 PZ  C  18   0.02552     0.00214     0.03628     0.03219     0.03938    -0.02363
  
  S  C  19   0.09833    -0.11265    -0.00540    -0.19776    -0.14110    -0.00859
 PX  C  19  -0.01640     0.00744     0.00461    -0.03492    -0.02514    -0.03650
 PY  C  19  -0.01064     0.02588    -0.02725     0.08199     0.04223     0.05874
 PZ  C  19   0.06454    -0.02554    -0.01191     0.11895     0.08776     0.12767
  
  S  C  20  -0.07407     0.01831     0.03082    -0.21239    -0.14883    -0.20562
 PX  C  20  -0.00428     0.00341     0.00921     0.01016     0.01589    -0.01586
 PY  C  20  -0.11014     0.13595    -0.04113     0.16752     0.06482     0.03285
 PZ  C  20   0.02314    -0.01845    -0.03573    -0.04590    -0.05735     0.03855
  
  S  C  21  -0.23274     0.27060    -0.01639     0.09019     0.01202    -0.08057
 PX  C  21   0.00348    -0.00014     0.00499     0.00635     0.02472    -0.04055
 PY  C  21   0.00607     0.04599    -0.00779     0.03387     0.03380     0.09462
 PZ  C  21  -0.00557    -0.00032    -0.03167    -0.02900    -0.03256     0.06784
  
  S  C  22  -0.10414     0.07104    -0.00735     0.11229     0.04512    -0.09182
 PX  C  22   0.03646    -0.07013    -0.01276    -0.02991    -0.00023     0.00593
 PY  C  22   0.03798     0.00294     0.00130    -0.11379     0.01964     0.01463
 PZ  C  22  -0.06419     0.15853     0.01099    -0.01151     0.04898    -0.02429
  
  S  C  23   0.07551    -0.04434    -0.01790    -0.17608     0.15022     0.02104
 PX  C  23   0.01348    -0.02253    -0.01009    -0.03767     0.03352     0.02602
[...]
    74       H         11.89147215  *   4.88267135  *  -9.38421929  *
    75       H         10.03561467  *   0.08032975  *  -7.21847077  *
    76       H          9.40604917  *  -0.56443203  *  -4.91045790  *
    77       H         10.44062035  *   1.22527574  *  -9.25705430  *
    78       H         11.11482959  *   2.72023064  *  -9.92016289  *
    79       H         13.26377356  *   2.34973973  *  -8.55235627  *
    80       H         12.59271827  *   0.86139517  *  -7.89843051  *
    81       H         12.35623164  *  -0.07495859  * -10.26813767  *
    82       H         13.02232628  *   1.41496951  * -10.92465270  *
    83       H         15.16040129  *   1.05457745  *  -9.57242674  *
    84       H         14.49518275  *  -0.43473257  *  -8.91672374  *
    85       H         14.25743403  *  -1.37151712  * -11.28219603  *
    86       H         14.91900862  *   0.11875536  * -11.93984432  *
    87       H         17.06065831  *  -0.23631843  * -10.59048068  *
    88       H         16.39947645  *  -1.72622462  *  -9.93265583  *
    89       H         16.16383118  *  -2.66647736  * -12.29796836  *
    90       H         16.82368529  *  -1.17642723  * -12.95642532  *
    91       H         18.63158588  *  -2.90875817  * -12.71910822  *
    92       H         18.98482795  *  -1.55153289  * -11.64969288  *
    93       H         18.32232440  *  -3.04768439  * -10.98829129  *
    94       H         12.99439782  *  11.17273508  *  -4.54624126  *

                             CARTESIAN COORDINATES

   1    C        0.119777499    -0.064368782    -0.440638038
   2    C        1.626728061     0.003683820    -0.627499567
   3    C        2.157229238     1.384589380    -0.250146096
   4    C        3.670673056     1.454467742    -0.439993197
   5    C        4.199633519     2.835715341    -0.060138506
   6    C        5.713038748     2.905766399    -0.254064637
   7    C        6.239447901     4.282834191     0.134801620
   8    C        7.761332323     4.380397975    -0.048370384
   9    N        8.151406550     4.401611572    -1.453666772
  10    C        7.981385731     5.499327222    -2.315030832
  11    C        7.495145277     6.777006696    -2.032188958
  12    C        7.348067659     7.645605201    -3.096330865
  13    C        7.647789438     7.251919629    -4.408508660
  14    C        8.149288386     5.993169107    -4.684358238
  15    C        8.374061408     5.115494395    -3.627634980
  16    C        8.831051338     3.754547693    -3.548052240
  17    C        8.580143121     3.316465851    -2.229202835
  18    C        8.696854652     1.959976707    -1.854342386
  19    C        8.996281719     1.061036478    -2.837444913
  20    C        9.297540275     1.473112130    -4.166336136
  21    C        9.364623959     2.846454070    -4.483897759
  22    C        9.965537386     3.192397533    -5.711708008
  23    C       10.569513660     4.394643645    -6.221913103
  24    C       10.910369640     5.608445850    -5.638843399
  25    C       11.545618690     6.561144485    -6.424300507
  26    C       11.856578650     6.313920705    -7.773687726
  27    C       11.605535310     5.086296865    -8.350712677
  28    C       10.984654880     4.118449396    -7.556903835
  29    N       10.659744630     2.788362018    -7.865397740
  30    C       10.151129050     2.198183873    -6.693052213
  31    C        9.902313152     0.833514948    -6.440154490
  32    C        9.535256377     0.492278478    -5.168483723
  33    C       11.151629690     2.052958753    -9.027976280
  34    C       12.571557030     1.515904813    -8.795861491
  35    C       13.051728730     0.757616548   -10.029789400
  36    C       14.465260080     0.222113239    -9.811787150
  37    C       14.950959030    -0.537356174   -11.044355240
  38    C       16.365631580    -1.069454217   -10.827554410
  39    C       16.853384620    -1.829410722   -12.058530880
  40    C       18.262127530    -2.357578933   -11.842214830
  41    C       11.888655050     7.859032124    -5.867339611
  42    C       12.530332560     8.001232806    -4.695131610
  43    C       12.839843380     9.307106501    -4.096001800
  44    O       13.130122000     9.541833335    -2.934918787
  45    O       12.784292190    10.332484560    -4.977561624
  46    C       12.986292630     6.892612727    -3.934293698
  47    N       13.383369670     6.000576496    -3.315174283
  48    H       11.592724560     8.731856207    -6.466165659
  49    H       -0.281749238    -1.052179293    -0.709452254
  50    H       -0.180430264     0.124756796     0.600106184
  51    H       -0.411248849     0.670982445    -1.062214881
  52    H        2.122957081    -0.783267318    -0.020892099
  53    H        1.893275258    -0.242198053    -1.677256738
  54    H        1.654603432     2.167500412    -0.856582411
  55    H        1.886704420     1.625810983     0.799587568
  56    H        4.171721098     0.669234954     0.164781842
  57    H        3.939083132     1.214351078    -1.490586921
  58    H        3.697059515     3.620358368    -0.664434011
  59    H        3.932497243     3.075460956     0.990872036
  60    H        6.215054246     2.117197610     0.346454350
  61    H        5.978694538     2.671492605    -1.306920034
  62    H        5.727842945     5.077329442    -0.449174009
  63    H        5.991544610     4.507394103     1.194451110
  64    H        8.149231898     5.308426394     0.436603967
  65    H        8.283493934     3.545630400     0.473103993
  66    H        7.234597907     7.077692560    -1.015852036
  67    H        6.973259073     8.658070524    -2.917404515
  68    H        7.471228723     7.955715396    -5.226576719
  69    H        8.336850521     5.676136062    -5.714149132
  70    H        8.518089920     1.640862268    -0.825791457
  71    H        9.023758325    -0.008067276    -2.600794617
  72    H       10.687456030     5.793179685    -4.582452906
  73    H       12.333032570     7.101399370    -8.366840331
  74    H       11.891472150     4.882671352    -9.384219293
  75    H       10.035614670     0.080329754    -7.218470772
  76    H        9.406049169    -0.564432027    -4.910457904
  77    H       10.440620350     1.225275735    -9.257054300
  78    H       11.114829590     2.720230635    -9.920162888
  79    H       13.263773560     2.349739729    -8.552356266
  80    H       12.592718270     0.861395168    -7.898430510
  81    H       12.356231640    -0.074958592   -10.268137670
  82    H       13.022326280     1.414969513   -10.924652700
  83    H       15.160401290     1.054577453    -9.572426740
  84    H       14.495182750    -0.434732568    -8.916723738
  85    H       14.257434030    -1.371517123   -11.282196030
  86    H       14.919008620     0.118755362   -11.939844320
  87    H       17.060658310    -0.236318426   -10.590480680
  88    H       16.399476450    -1.726224625    -9.932655828
  89    H       16.163831180    -2.666477360   -12.297968360
  90    H       16.823685290    -1.176427230   -12.956425320
  91    H       18.631585880    -2.908758171   -12.719108220
  92    H       18.984827950    -1.551532886   -11.649692880
  93    H       18.322324400    -3.047684393   -10.988291290
  94    H       12.994397820    11.172735080    -4.546241260


           Empirical Formula: C42 H47 N3 O2  =    94 atoms



      MOLECULAR POINT GROUP   :   C1  


                  EIGENVALUES  
 -49.03730 -48.41567 -46.80932 -44.13198 -43.57184 -43.04700 -42.67145 -42.12200
 -40.46375 -40.10920 -39.59047 -39.10416 -38.58102 -37.70103 -36.94957 -36.28706
 -35.46864 -34.08889 -33.05271 -32.61763 -32.19768 -31.87593 -30.99703 -30.06299
 -29.62036 -29.08503 -27.73443 -27.35206 -27.10953 -26.12878 -26.08243 -25.91586
 -25.85280 -25.35901 -25.05565 -24.41436 -24.30468 -24.17061 -24.06890 -23.75085
 -23.20140 -22.37160 -21.75913 -21.49827 -21.22334 -21.16798 -20.83097 -20.06952
 -19.79423 -19.56501 -19.53828 -19.18928 -19.10979 -18.93801 -18.77648 -18.43769
 -18.24627 -17.99516 -17.47853 -17.40493 -17.27543 -17.08812 -16.74222 -16.68021
 -16.62471 -16.28189 -16.24137 -16.12177 -15.75658 -15.61946 -15.60542 -15.38065
 -15.28443 -15.15457 -15.04481 -14.85811 -14.78470 -14.59953 -14.48389 -14.40197
 -14.25962 -14.19227 -14.02352 -13.97541 -13.76907 -13.64954 -13.51843 -13.49685
 -13.47061 -13.45012 -13.29803 -13.25298 -13.18650 -13.00499 -12.89174 -12.75231
 -12.68208 -12.57923 -12.49488 -12.44627 -12.43858 -12.36886 -12.31366 -12.11118
 -12.08219 -11.86029 -11.69190 -11.62673 -11.39248 -11.29868 -11.03064 -10.84710
 -10.35062 -10.17537  -9.79986  -9.63531  -8.54444  -8.02509  -7.89259  -7.30347
  -6.99863  -0.81385  -0.31482   0.35378   0.69791   0.74230   0.90924   1.17343
   1.21740   1.72197   1.90440   2.12353   2.40136   2.46650   2.67323   2.79515
   2.89585   3.01400   3.15482   3.20689   3.24361   3.27514   3.39652   3.49833
   3.52763   3.66146   3.70642   3.81870   3.85709   3.90804   3.99564   4.04902
   4.11474   4.19009   4.22855   4.30288   4.34639   4.49895   4.63371   4.76650
   4.82419   4.87453   5.09279   5.13436   5.31326   5.32502   5.44931   5.53330
   5.64493   5.68456   6.02071   6.20528   6.27253   6.39256   6.45329   6.52871
   6.61495   6.68263   6.70395   6.73047   6.74341   6.75531   6.76357   6.77751
   6.78239   6.78879   6.82477   6.86702   6.88723   6.98505   6.99960   7.01198
   7.01648   7.08400   7.09062   7.47451   7.98096   8.17410   8.38331   8.44616
   8.48855   8.52543   8.61668   8.62985   8.64750   8.65281   8.74808   8.86148
   8.90968   8.99663   9.12460   9.38210   9.72388   9.97027  10.08258  10.28606
  10.52278  10.84372  10.97672  11.10119  11.49503  11.51867  11.68302  11.78652
  12.23844  12.39932  12.73941  12.89027  13.02566  13.09562  13.57728  14.06636
  14.27426  14.95389  15.38296


              NET ATOMIC CHARGES AND DIPOLE CONTRIBUTIONS

  ATOM NO.   TYPE          CHARGE      No. of ELECS.   s-Pop       p-Pop       
    1          C          -0.027908        4.0279     1.05492     2.97299
    2          C          -0.007015        4.0070     1.04479     2.96222
    3          C          -0.008549        4.0085     1.05051     2.95804
    4          C          -0.011568        4.0116     1.05211     2.95946
    5          C          -0.011890        4.0119     1.05224     2.95965
    6          C          -0.009524        4.0095     1.05147     2.95805
    7          C          -0.003729        4.0037     1.05190     2.95183
    8          C           0.076311        3.9237     1.04716     2.87653
    9          N          -0.140204        5.1402     1.23697     3.90324
   10          C           0.068640        3.9314     1.05017     2.88119
   11          C          -0.043718        4.0437     1.07554     2.96818
   12          C          -0.028249        4.0282     1.07991     2.94834
   13          C          -0.049134        4.0491     1.07718     2.97196
   14          C          -0.022427        4.0224     1.08405     2.93838
   15          C          -0.016753        4.0168     1.04939     2.96736
   16          C          -0.042095        4.0421     1.05042     2.99168
   17          C           0.076488        3.9235     1.05443     2.86909
   18          C          -0.045398        4.0454     1.07772     2.96768
   19          C          -0.024307        4.0243     1.08762     2.93668
   20          C          -0.014341        4.0143     1.04257     2.97177
   21          C           0.033592        3.9664     1.04366     2.92274
   22          C          -0.039513        4.0395     1.05036     2.98915
   23          C          -0.012114        4.0121     1.05164     2.96047
   24          C          -0.010134        4.0101     1.08725     2.92288
   25          C          -0.008830        4.0088     1.03622     2.97261
   26          C          -0.018053        4.0181     1.08013     2.93793
   27          C          -0.036917        4.0369     1.07661     2.96031
   28          C           0.080586        3.9194     1.05103     2.86838
   29          N          -0.142503        5.1425     1.25318     3.88932
   30          C           0.074564        3.9254     1.05527     2.87016
   31          C          -0.047361        4.0474     1.07686     2.97050
   32          C          -0.021678        4.0217     1.08811     2.93356
   33          C           0.073658        3.9263     1.04958     2.87677
   34          C          -0.004492        4.0045     1.05259     2.95190
   35          C          -0.011446        4.0114     1.05106     2.96039
   36          C          -0.011186        4.0112     1.05196     2.95922
   37          C          -0.011372        4.0114     1.05210     2.95927
   38          C          -0.008558        4.0086     1.05052     2.95804
   39          C          -0.006945        4.0069     1.04478     2.96217
   40          C          -0.027852        4.0279     1.05490     2.97296
   41          C           0.121641        3.8784     1.10547     2.77289
   42          C           0.014354        3.9856     1.00305     2.98260
   43          C           0.502040        3.4980     1.04613     2.45183
   44          O          -0.589636        6.5896     1.81530     4.77434
   45          O          -0.312580        6.3126     1.68863     4.62395
   46          C           0.210187        3.7898     1.15021     2.63960
   47          N          -0.385586        5.3856     1.75330     3.63229
   48          H           0.066835        0.9332     0.93317
   49          H           0.000466        0.9995     0.99953
   50          H           0.007870        0.9921     0.99213
   51          H           0.007742        0.9923     0.99226
   52          H           0.006301        0.9937     0.99370
   53          H           0.006079        0.9939     0.99392
   54          H           0.006785        0.9932     0.99321
   55          H           0.007053        0.9929     0.99295
   56          H           0.006845        0.9932     0.99315
   57          H           0.006381        0.9936     0.99362
   58          H           0.006474        0.9935     0.99353
   59          H           0.007182        0.9928     0.99282
   60          H           0.008598        0.9914     0.99140
   61          H           0.009654        0.9903     0.99035
   62          H           0.012266        0.9877     0.98773
   63          H           0.005672        0.9943     0.99433
   64          H           0.013969        0.9860     0.98603
   65          H           0.021301        0.9787     0.97870
   66          H           0.026163        0.9738     0.97384
   67          H           0.018155        0.9818     0.98184
   68          H           0.015018        0.9850     0.98498
   69          H           0.026537        0.9735     0.97346
   70          H           0.027144        0.9729     0.97286
   71          H           0.021509        0.9785     0.97849
   72          H           0.036658        0.9633     0.96334
   73          H           0.026815        0.9732     0.97318
   74          H           0.029669        0.9703     0.97033
   75          H           0.026578        0.9734     0.97342
   76          H           0.021948        0.9781     0.97805
   77          H           0.020414        0.9796     0.97959
   78          H           0.020429        0.9796     0.97957
   79          H           0.011842        0.9882     0.98816
   80          H           0.012728        0.9873     0.98727
   81          H           0.008045        0.9920     0.99196
   82          H           0.008040        0.9920     0.99196
   83          H           0.006847        0.9932     0.99315
   84          H           0.007137        0.9929     0.99286
   85          H           0.006515        0.9935     0.99348
   86          H           0.006532        0.9935     0.99347
   87          H           0.006944        0.9931     0.99306
   88          H           0.007088        0.9929     0.99291
   89          H           0.006055        0.9939     0.99395
   90          H           0.006121        0.9939     0.99388
   91          H           0.000445        0.9996     0.99956
   92          H           0.007854        0.9921     0.99215
   93          H           0.007905        0.9921     0.99209
   94          H           0.246894        0.7531     0.75311
 DIPOLE           X         Y         Z       TOTAL
 POINT-CHG.    -3.539    -1.868    -6.528     7.657
 HYBRID        -0.011     1.091    -0.081     1.094
 SUM           -3.549    -0.777    -6.609     7.542


          ATOMIC ORBITAL ELECTRON POPULATIONS

     Atom    s        px        py        pz   
    1  C   1.05492   0.99088   0.98910   0.99301
    2  C   1.04479   0.99072   0.98681   0.98470
    3  C   1.05051   0.99073   0.98160   0.98570
    4  C   1.05211   0.99036   0.98393   0.98517
    5  C   1.05224   0.98976   0.98436   0.98553
    6  C   1.05147   0.99182   0.97932   0.98691
    7  C   1.05190   0.97328   0.99172   0.98683
    8  C   1.04716   0.99806   0.99552   0.88295
    9  N   1.23697   1.65276   1.15240   1.09807
   10  C   1.05017   1.00101   0.91990   0.96028
   11  C   1.07554   1.03781   0.97947   0.95090
   12  C   1.07991   1.00034   0.95212   0.99587
   13  C   1.07718   1.02985   0.97981   0.96230
   14  C   1.08405   0.99594   0.99295   0.94949
   15  C   1.04939   1.02669   0.96539   0.97528
   16  C   1.05042   1.05683   0.96852   0.96633
   17  C   1.05443   0.98276   0.91441   0.97191
   18  C   1.07772   1.04501   0.96984   0.95283
   19  C   1.08762   0.99534   0.95062   0.99073
   20  C   1.04257   1.03673   0.97254   0.96250
   21  C   1.04366   0.97133   0.98186   0.96956
   22  C   1.05036   1.04561   0.98160   0.96194
   23  C   1.05164   1.01614   0.95704   0.98729
   24  C   1.08725   0.99517   0.97869   0.94903
   25  C   1.03622   1.02263   0.96346   0.98653
   26  C   1.08013   0.99946   0.97515   0.96331
   27  C   1.07661   1.02353   0.98792   0.94886
   28  C   1.05103   0.98092   0.89355   0.99391
   29  N   1.25318   1.58840   1.12387   1.17705
   30  C   1.05527   0.98316   0.96853   0.91848
   31  C   1.07686   1.04759   0.95028   0.97262
   32  C   1.08811   0.99057   0.95008   0.99291
   33  C   1.04958   0.99484   0.96997   0.91195
   34  C   1.05259   0.97403   0.99154   0.98634
   35  C   1.05106   0.99196   0.98978   0.97865
   36  C   1.05196   0.98851   0.98972   0.98099
   37  C   1.05210   0.98984   0.98929   0.98014
   38  C   1.05052   0.99003   0.98911   0.97890
   39  C   1.04478   0.99002   0.99028   0.98187
   40  C   1.05490   0.99111   0.99141   0.99044
   41  C   1.10547   0.83390   1.00612   0.93286
   42  C   1.00305   1.10598   0.89196   0.98466
   43  C   1.04613   0.68220   0.90391   0.86571
   44  O   1.81530   1.52391   1.94365   1.30677
   45  O   1.68863   1.86569   1.21924   1.53902
   46  C   1.15021   0.87254   0.89346   0.87360
   47  N   1.75330   1.19874   1.23240   1.20115
   48  H   0.93317
   49  H   0.99953
   50  H   0.99213
   51  H   0.99226
   52  H   0.99370
   53  H   0.99392
   54  H   0.99321
   55  H   0.99295
   56  H   0.99315
   57  H   0.99362
   58  H   0.99353
   59  H   0.99282
   60  H   0.99140
   61  H   0.99035
   62  H   0.98773
   63  H   0.99433
   64  H   0.98603
   65  H   0.97870
   66  H   0.97384
   67  H   0.98184
   68  H   0.98498
   69  H   0.97346
   70  H   0.97286
   71  H   0.97849
   72  H   0.96334
   73  H   0.97318
   74  H   0.97033
   75  H   0.97342
   76  H   0.97805
   77  H   0.97959
   78  H   0.97957
   79  H   0.98816
   80  H   0.98727
   81  H   0.99196
   82  H   0.99196
   83  H   0.99315
   84  H   0.99286
   85  H   0.99348
   86  H   0.99347
   87  H   0.99306
   88  H   0.99291
   89  H   0.99395
   90  H   0.99388
   91  H   0.99956
   92  H   0.99215
   93  H   0.99209
   94  H   0.75311

 **********************
 *                    *
 * JOB ENDED NORMALLY *
 *                    *
 **********************



 TOTAL JOB TIME:           893.32 SECONDS

 == MOPAC DONE ==
