 *******************************************************************************
 ** Site#: 4824         For non-commercial use only    Version 21.013L 64BITS **
 *******************************************************************************
 ** Cite this program as: MOPAC2016, Version: 21.013L, James J. P. Stewart,   **
 ** Stewart Computational Chemistry, web: HTTP://OpenMOPAC.net. Days left:  84**
 *******************************************************************************
 **                                                                           **
 **                                MOPAC2016                                  **
 **                                                                           **
 *******************************************************************************

                              INDO CALCULATION RESULTS

 *******************************************************************************
 *  CALCULATION DONE:                                Thu Oct 21 11:51:28 2021  *
 *  INDO       - The INDO Hamiltonian to be used
 *  CIS        - C.I. USES 1 ELECTRON EXCITATIONS ONLY
 *  EPS=  4.81 - USE ANDREAS KLAMT'S COSMO IMPLICIT SOLVATION MODEL
 *  n**2 =  1.400 for COSMO-CI
 *  T=         - A TIME OF 172800.0 SECONDS REQUESTED
 *  DUMP=N     - RESTART FILE WRITTEN EVERY 7200.0 SECONDS REQUESTED
 *******************************************************************************
INDO CIS EPS=4.81 N**2=1.4
 Dye30
 Calculo de Estados Excitados
   ATOM   CHEMICAL          X               Y               Z
  NUMBER   SYMBOL      (ANGSTROMS)     (ANGSTROMS)     (ANGSTROMS)
 
     1       C          0.00000000  *   0.00000000  *   0.00000000  *
     2       C          1.51997831  *   0.00000000  *   0.00000000  *
     3       C          2.06080397  *   1.42767083  *   0.00000000  *
     4       C          3.58768885  *   1.42880246  *   0.00128664  *
     5       C          4.12634266  *   2.85773186  *  -0.00082470  *
     6       C          5.65350313  *   2.85871736  *   0.00126360  *
     7       C          6.18778575  *   4.28809461  *  -0.00360368  *
     8       C          7.72379861  *   4.27395376  *  -0.00294532  *
     9       N          8.27343722  *   5.62606746  *  -0.01167112  *
    10       C          8.33760784  *   6.45931328  *  -1.13767708  *
    11       C          8.12127998  *   6.15535509  *  -2.48267360  *
    12       C          8.29753569  *   7.17356824  *  -3.40051033  *
    13       C          8.69420619  *   8.46217341  *  -3.00374701  *
    14       C          8.89697601  *   8.77221553  *  -1.66187519  *
    15       C          8.71181327  *   7.77041065  *  -0.72688946  *
    16       C          8.82324476  *   7.74546275  *   0.70911695  *
    17       C          8.51665483  *   6.42322741  *   1.12888331  *
    18       C          8.52153769  *   6.06945040  *   2.47538773  *
    19       C          8.84845077  *   7.05984156  *   3.38857414  *
    20       C          9.16193759  *   8.36132215  *   2.98270931  *
    21       C          9.15332946  *   8.71555328  *   1.64219450  *
    22       C          8.85679599  *   9.47714762  *  -4.02904461  *
    23       C          9.89954882  *  10.32517142  *  -4.06513148  *
    24       C         10.05750787  *  11.36332554  *  -5.09365308  *
    25       O         11.08167878  *  11.94262766  *  -5.41385492  *
    26       O          8.90136327  *  11.67626608  *  -5.72326190  *
    27       C         10.96951192  *  10.26654835  *  -3.13431208  *
    28       N         11.84830049  *  10.23051802  *  -2.38374217  *
    29       H          8.07297157  *   9.51277554  *  -4.79932306  *
    30       H         -0.41717422  *   0.50650552  *  -0.88231588  *
    31       H         -0.40912344  *  -1.02071985  *  -0.00031637  *
    32       H         -0.41717643  *   0.50594463  *   0.88263854  *
    33       H          1.90221829  *  -0.56126680  *   0.87884301  *
    34       H          1.90225159  *  -0.56133533  *  -0.87878421  *
    35       H          1.67373834  *   1.98462134  *  -0.87939038  *
    36       H          1.67239028  *   1.98515564  *   0.87846916  *
    37       H          3.97275614  *   0.87226647  *   0.88185920  *
    38       H          3.97441082  *   0.86879486  *  -0.87634968  *
    39       H          3.74124788  *   3.41418680  *  -0.88143768  *
    40       H          3.73914281  *   3.41766966  *   0.87668864  *
    41       H          6.03795269  *   2.30452674  *   0.88377365  *
    42       H          6.04060278  *   2.29711028  *  -0.87539817  *
    43       H          5.80863972  *   4.84677304  *  -0.88561749  *
    44       H          5.80629063  *   4.85301588  *   0.87305851  *
    45       H          8.11968663  *   3.72623193  *   0.88330332  *
    46       H          8.11895823  *   3.71997068  *  -0.88671577  *
    47       H          7.82156767  *   5.15571248  *  -2.80293555  *
    48       H          8.13335998  *   6.96753844  *  -4.46380747  *
    49       H          9.17076106  *   9.77959624  *  -1.33501677  *
    50       H          8.27998989  *   5.05865428  *   2.80807688  *
    51       H          8.86290322  *   6.81784966  *   4.45618053  *
    52       H          9.41910645  *   9.10918566  *   3.73817333  *
    53       H          9.40210456  *   9.72980960  *   1.31953485  *
    54       H          9.04334286  *  12.36422331  *  -6.38885113  *
 


          CARTESIAN COORDINATES 

    NO.       ATOM           X           Y           Z

     1         C          0.0000      0.0000      0.0000
     2         C          1.5200      0.0000      0.0000
     3         C          2.0608      1.4277      0.0000
     4         C          3.5877      1.4288      0.0013
     5         C          4.1263      2.8577     -0.0008
     6         C          5.6535      2.8587      0.0013
     7         C          6.1878      4.2881     -0.0036
     8         C          7.7238      4.2740     -0.0029
     9         N          8.2734      5.6261     -0.0117
    10         C          8.3376      6.4593     -1.1377
    11         C          8.1213      6.1554     -2.4827
    12         C          8.2975      7.1736     -3.4005
    13         C          8.6942      8.4622     -3.0037
    14         C          8.8970      8.7722     -1.6619
    15         C          8.7118      7.7704     -0.7269
    16         C          8.8232      7.7455      0.7091
    17         C          8.5167      6.4232      1.1289
    18         C          8.5215      6.0695      2.4754
    19         C          8.8485      7.0598      3.3886
    20         C          9.1619      8.3613      2.9827
    21         C          9.1533      8.7156      1.6422
    22         C          8.8568      9.4771     -4.0290
    23         C          9.8995     10.3252     -4.0651
    24         C         10.0575     11.3633     -5.0937
    25         O         11.0817     11.9426     -5.4139
    26         O          8.9014     11.6763     -5.7233
    27         C         10.9695     10.2665     -3.1343
    28         N         11.8483     10.2305     -2.3837
    29         H          8.0730      9.5128     -4.7993
    30         H         -0.4172      0.5065     -0.8823
    31         H         -0.4091     -1.0207     -0.0003
    32         H         -0.4172      0.5059      0.8826
    33         H          1.9022     -0.5613      0.8788
    34         H          1.9023     -0.5613     -0.8788
    35         H          1.6737      1.9846     -0.8794
    36         H          1.6724      1.9852      0.8785
    37         H          3.9728      0.8723      0.8819
    38         H          3.9744      0.8688     -0.8763
    39         H          3.7412      3.4142     -0.8814
    40         H          3.7391      3.4177      0.8767
    41         H          6.0380      2.3045      0.8838
    42         H          6.0406      2.2971     -0.8754
    43         H          5.8086      4.8468     -0.8856
    44         H          5.8063      4.8530      0.8731
    45         H          8.1197      3.7262      0.8833
    46         H          8.1190      3.7200     -0.8867
    47         H          7.8216      5.1557     -2.8029
    48         H          8.1334      6.9675     -4.4638
    49         H          9.1708      9.7796     -1.3350
    50         H          8.2800      5.0587      2.8081
    51         H          8.8629      6.8178      4.4562
    52         H          9.4191      9.1092      3.7382
    53         H          9.4021      9.7298      1.3195
    54         H          9.0433     12.3642     -6.3889

           Empirical Formula: C24 H26 N2 O2  =    54 atoms



      MOLECULAR POINT GROUP   :   C1  


      RHF CALCULATION, NO. OF DOUBLY OCCUPIED LEVELS = 72

 WARNING: INDO only performs single-point calculations

 Summary of symmetry occupancy in each shell:

 SHELL     
    1   72
    v   66
 TOTAL 138




    ROOT NO.    1           2           3           4           5           6

           -48.63431   -46.78685   -43.57626   -43.09999   -42.13799   -40.17545
  
  
  S  C   1   0.00121    -0.00025    -0.02732     0.11626     0.13491     0.23100
 PX  C   1   0.00053    -0.00011    -0.01034     0.04308     0.04766     0.07208
 PY  C   1   0.00019    -0.00003    -0.00297     0.01204     0.01247     0.01555
 PZ  C   1  -0.00000    -0.00000    -0.00000     0.00000     0.00000     0.00000
  
  S  C   2   0.00283    -0.00053    -0.04835     0.19890     0.21453     0.30838
 PX  C   2   0.00060    -0.00009    -0.00405     0.01338     0.00647    -0.02009
 PY  C   2   0.00093    -0.00017    -0.01255     0.04977     0.04911     0.05329
 PZ  C   2  -0.00000    -0.00000    -0.00001     0.00001     0.00001     0.00001
  
  S  C   3   0.00602    -0.00101    -0.06898     0.26890     0.25617     0.25861
 PX  C   3   0.00214    -0.00032    -0.01366     0.04656     0.02875    -0.02466
 PY  C   3   0.00041    -0.00003     0.00403    -0.02073    -0.03132    -0.07008
 PZ  C   3  -0.00000    -0.00000    -0.00002     0.00002     0.00004     0.00002
  
  S  C   4   0.01226    -0.00180    -0.08635     0.31059     0.24025     0.08418
 PX  C   4   0.00217    -0.00023     0.00182    -0.01821    -0.03953    -0.09209
 PY  C   4   0.00378    -0.00050    -0.01570     0.04891     0.02100    -0.04594
 PZ  C   4  -0.00001    -0.00000    -0.00003    -0.00015    -0.00003    -0.00005
  
  S  C   5   0.02519    -0.00320    -0.10017     0.32200     0.17286    -0.12813
 PX  C   5   0.00861    -0.00095    -0.01372     0.02794    -0.01872    -0.09186
 PY  C   5   0.00171    -0.00008     0.01020    -0.04439    -0.04778    -0.03657
 PZ  C   5  -0.00004    -0.00001    -0.00029    -0.00006     0.00026    -0.00016
  
  S  C   6   0.05032    -0.00560    -0.10997     0.30118     0.06785    -0.28195
 PX  C   6   0.00849    -0.00068     0.00723    -0.04241    -0.05215    -0.01091
 PY  C   6   0.01604    -0.00157    -0.01652     0.03023    -0.02282    -0.06509
 PZ  C   6  -0.00021    -0.00003    -0.00090    -0.00088     0.00070    -0.00027
  
  S  C   7   0.11418    -0.01079    -0.11795     0.25034    -0.06080    -0.29775
 PX  C   7   0.04359    -0.00368    -0.01525    -0.00071    -0.05902    -0.00684
 PY  C   7   0.01473    -0.00084     0.01327    -0.05149    -0.03035     0.06258
 PZ  C   7  -0.00097    -0.00014    -0.00446    -0.00287     0.00320    -0.00232
  
  S  C   8   0.20888    -0.01814    -0.12713     0.18280    -0.17642    -0.19699
 PX  C   8   0.01596    -0.00097     0.01032    -0.04565    -0.01634     0.07307
 PY  C   8   0.09493    -0.00756    -0.02954     0.01025    -0.07602     0.02447
 PZ  C   8  -0.00131    -0.00044    -0.01207    -0.00834     0.00878    -0.00629
  
  S  N   9   0.47862    -0.03626    -0.14151     0.08554    -0.28180     0.05366
 PX  N   9  -0.00073     0.00065     0.01348    -0.03353     0.02455     0.04375
 PY  N   9   0.09874    -0.00542     0.01381    -0.05511     0.00808     0.11398
 PZ  N   9  -0.00165    -0.00180    -0.04086    -0.02582     0.02560    -0.01972
  
  S  C  10   0.37429    -0.01080     0.15216     0.05281    -0.11410     0.13803
 PX  C  10   0.01177     0.00059     0.01611    -0.01463     0.01376     0.02220
 PY  C  10   0.00294     0.00764     0.10206    -0.03289     0.07779     0.04168
 PZ  C  10   0.12769    -0.01674    -0.13096    -0.02202    -0.08178     0.05485
  
  S  C  11   0.15548     0.00884     0.23950     0.06892    -0.00828     0.03030
 PX  C  11   0.01444     0.00182     0.03317     0.00117     0.00667     0.00922
 PY  C  11   0.03358     0.00792     0.12058     0.00568     0.03740     0.01715
 PZ  C  11   0.06420    -0.00458     0.00048     0.01504    -0.04035     0.02499
  
  S  C  12   0.10213     0.02886     0.32451     0.05228     0.07937    -0.02471
 PX  C  12   0.00679     0.00395     0.02789     0.00209     0.01095    -0.00729
 PY  C  12   0.00673     0.01156     0.05752     0.00177     0.03197    -0.03007
 PZ  C  12   0.04810     0.00340     0.10552     0.01690     0.01434     0.02115
  
  S  C  13   0.10761     0.06213     0.40544     0.04954     0.14207    -0.11041
 PX  C  13  -0.00371     0.00673    -0.00154    -0.00159     0.00659    -0.02096
 PY  C  13  -0.02647     0.01430    -0.04439    -0.00869     0.00767    -0.05282
 PZ  C  13   0.03155    -0.00751     0.05313     0.00251     0.00708     0.03743
  
  S  C  14   0.13457     0.03540     0.32527     0.01671     0.11915    -0.02154
 PX  C  14  -0.01447     0.00065    -0.02772    -0.00375    -0.00264    -0.01312
 PY  C  14  -0.05896     0.00132    -0.09021    -0.00717    -0.01055    -0.04533
 PZ  C  14   0.01015    -0.01741    -0.08265    -0.02431    -0.02457     0.05950
  
  S  C  15   0.30544     0.00005     0.19990    -0.03351     0.04312     0.14172
 PX  C  15  -0.02357     0.00155    -0.00648    -0.00647     0.01537    -0.01319
 PY  C  15  -0.10498     0.00979     0.02089    -0.00442     0.06246    -0.06206
 PZ  C  15   0.04077    -0.01463    -0.14825    -0.05335    -0.01398     0.02787
  
  S  C  16   0.29907    -0.01892    -0.08061    -0.18970     0.17792     0.05881
 PX  C  16  -0.02998     0.00214     0.00272    -0.00465     0.02133    -0.01699
 PY  C  16  -0.10322     0.00857     0.03511     0.00847     0.04370    -0.04217
 PZ  C  16  -0.04496    -0.00116    -0.08128    -0.07376     0.12248    -0.09321
  
  S  C  17   0.36381    -0.02897    -0.17418    -0.14083     0.06512     0.01543
 PX  C  17  -0.00782     0.00073     0.00006    -0.03005     0.04298     0.00193
 PY  C  17   0.00781     0.00034     0.00145    -0.08311     0.11579     0.01731
 PZ  C  17  -0.12946     0.00791    -0.01987    -0.06337     0.15861    -0.10966
  
  S  C  18   0.14622    -0.01403    -0.15178    -0.15996     0.19925    -0.11181
 PX  C  18   0.00368    -0.00041    -0.00861    -0.02265     0.03128    -0.00684
 PY  C  18   0.03332    -0.00322    -0.04351    -0.08339     0.11289    -0.03072
 PZ  C  18  -0.06285     0.00529     0.03106     0.00774     0.01637    -0.00783
  
  S  C  19   0.09043    -0.00931    -0.13088    -0.19094     0.27179    -0.12714
 PX  C  19  -0.00215     0.00022     0.00199    -0.00059     0.00173     0.00109
 PY  C  19   0.00479    -0.00042    -0.00776    -0.02268     0.03441    -0.00776
 PZ  C  19  -0.04565     0.00446     0.05385     0.07642    -0.10087     0.03854
  
  S  C  20   0.08719    -0.00853    -0.12028    -0.19744     0.28410    -0.11490
 PX  C  20  -0.00996     0.00099     0.01269     0.01876    -0.02545     0.01003
 PY  C  20  -0.02837     0.00295     0.03868     0.05498    -0.07476     0.03215
 PZ  C  20  -0.03301     0.00288     0.03269     0.05699    -0.07565     0.01904
  
  S  C  21   0.12153    -0.00919    -0.09898    -0.19752     0.26965    -0.06773
 PX  C  21  -0.01612     0.00129     0.01068     0.01831    -0.02147     0.00244
 PY  C  21  -0.05689     0.00504     0.04847     0.07647    -0.09348     0.02029
 PZ  C  21  -0.01481    -0.00047    -0.02748    -0.02255     0.04180    -0.04102
  
  S  C  22   0.04041     0.13315     0.22778     0.02853     0.11163    -0.17969
 PX  C  22   0.00215     0.03385     0.01788     0.00179     0.01491    -0.04155
 PY  C  22  -0.00922     0.04047    -0.04831    -0.00650    -0.01284    -0.00340
 PZ  C  22   0.01284    -0.01224     0.07138     0.00805     0.02977    -0.03380
  
  S  C  23   0.02614     0.23077     0.13119     0.01596     0.08151    -0.18768
 PX  C  23  -0.00382    -0.00800    -0.02451    -0.00324    -0.01034    -0.00074
 PY  C  23  -0.00509     0.05343    -0.05804    -0.00685    -0.02691     0.03741
 PZ  C  23   0.00320    -0.06190     0.04532     0.00464     0.02215    -0.03814
  
  S  C  24   0.01889     0.50976    -0.05596    -0.00537    -0.01418    -0.01072
 PX  C  24  -0.00195    -0.03614    -0.00293    -0.00072    -0.00110    -0.03403
 PY  C  24   0.00009     0.08940    -0.04843    -0.00568    -0.02628     0.05228
 PZ  C  24  -0.00069    -0.10183     0.04799     0.00543     0.02638    -0.06322
  
  S  O  25   0.01187     0.40646    -0.08242    -0.00911    -0.03287     0.00257
 PX  O  25  -0.00455    -0.15870     0.03303     0.00361     0.01377    -0.01287
 PY  O  25  -0.00225    -0.06751     0.00918     0.00096     0.00227     0.00971
 PZ  O  25   0.00111     0.02713    -0.00056    -0.00004     0.00144    -0.01401
  
  S  O  26   0.01778     0.57182    -0.10452    -0.01074    -0.04524     0.12070
 PX  O  26   0.00503     0.16758    -0.03181    -0.00332    -0.01341     0.02752
 PY  O  26  -0.00023     0.01890    -0.01463    -0.00178    -0.00851     0.02073
 PZ  O  26   0.00144     0.02422     0.00549     0.00078     0.00458    -0.01289
  
  S  C  27   0.01776     0.10149     0.11188     0.01189     0.07280    -0.19438
 PX  C  27  -0.00635    -0.02937    -0.03136    -0.00371    -0.01459     0.01181
 PY  C  27  -0.00274     0.01195    -0.01987    -0.00211    -0.00887     0.00884
 PZ  C  27  -0.00067    -0.03678     0.00216    -0.00067     0.00116    -0.00165
  
  S  N  28   0.00793     0.03395     0.06097     0.00581     0.04376    -0.13547
 PX  N  28  -0.00428    -0.01501    -0.02950    -0.00278    -0.01954     0.05284
 PY  N  28  -0.00069     0.00237    -0.00418    -0.00039    -0.00172     0.00018
 PZ  N  28  -0.00197    -0.01450    -0.01666    -0.00185    -0.01238     0.04166
  
  S  H  29   0.01371     0.06147     0.07348     0.00979     0.03566    -0.05560
  
  S  H  30   0.00053    -0.00011    -0.01173     0.04986     0.05770     0.09850
  
  S  H  31   0.00037    -0.00008    -0.00936     0.04028     0.04790     0.08667
  
  S  H  32   0.00053    -0.00011    -0.01173     0.04985     0.05770     0.09850
  
  S  H  33   0.00124    -0.00023    -0.02032     0.08325     0.08905     0.12578
  
  S  H  34   0.00124    -0.00023    -0.02032     0.08325     0.08904     0.12578
  
  S  H  35   0.00266    -0.00044    -0.02914     0.11319     0.10701     0.10654
  
  S  H  36   0.00265    -0.00044    -0.02915     0.11315     0.10701     0.10655
  
  S  H  37   0.00537    -0.00078    -0.03650     0.13061     0.10028     0.03443
  
  S  H  38   0.00538    -0.00078    -0.03643     0.13067     0.10024     0.03451
  
  S  H  39   0.01129    -0.00139    -0.04212     0.13559     0.07197    -0.05239
  
  S  H  40   0.01122    -0.00140    -0.04247     0.13531     0.07222    -0.05254
  
  S  H  41   0.02161    -0.00242    -0.04705     0.12621     0.02893    -0.11655
  
  S  H  42   0.02177    -0.00238    -0.04581     0.12710     0.02808    -0.11591
  
  S  H  43   0.05356    -0.00462    -0.04488     0.10681    -0.02777    -0.11865
  
  S  H  44   0.05189    -0.00490    -0.05263     0.10184    -0.02291    -0.12191
  
  S  H  45   0.07593    -0.00696    -0.05674     0.06943    -0.05810    -0.08969
  
  S  H  46   0.07625    -0.00632    -0.04192     0.07910    -0.06777    -0.08227
  
  S  H  47   0.05110     0.00083     0.05360     0.03236    -0.01876    -0.00304
  
  S  H  48   0.02477     0.01168     0.09747     0.01660     0.02763    -0.01959
  
  S  H  49   0.03840     0.01774     0.10154    -0.00032     0.05232    -0.03010
  
  S  H  50   0.04781    -0.00468    -0.04963    -0.03174     0.04047    -0.04406
  
  S  H  51   0.02078    -0.00226    -0.03568    -0.05184     0.07728    -0.04110
  
  S  H  52   0.01982    -0.00200    -0.03188    -0.05421     0.08167    -0.03626
  
  S  H  53   0.03328    -0.00159    -0.01776    -0.05413     0.07869    -0.01715
  
  S  H  54   0.00701     0.24082    -0.05090    -0.00541    -0.02337     0.05914




    ROOT NO.    7           8           9          10          11          12

           -39.55022   -38.91513   -37.31306   -36.29691   -34.89263   -32.89188
  
  
  S  C   1  -0.07735    -0.11848     0.23460     0.08607     0.28320     0.03591
 PX  C   1  -0.02296    -0.03322     0.05467     0.01704     0.04013     0.00150
 PY  C   1  -0.00453    -0.00585     0.00569     0.00060    -0.00522    -0.00207
 PZ  C   1  -0.00000    -0.00000    -0.00000    -0.00000    -0.00000     0.00003
  
  S  C   2  -0.09677    -0.13800     0.22082     0.06846     0.16664     0.01016
 PX  C   2   0.00997     0.02024    -0.06379    -0.02854    -0.11507    -0.01765
 PY  C   2  -0.01453    -0.01709     0.00823    -0.00280    -0.03455    -0.00847
 PZ  C   2  -0.00000    -0.00001    -0.00001    -0.00001    -0.00001     0.00009
  
  S  C   3  -0.06898    -0.07962     0.04037    -0.00867    -0.11779    -0.02631
 PX  C   3   0.01464     0.03113    -0.09367    -0.03854    -0.13140    -0.01381
 PY  C   3   0.02435     0.03800    -0.07261    -0.02435    -0.06298    -0.00338
 PZ  C   3  -0.00001    -0.00002    -0.00002    -0.00005    -0.00005     0.00029
  
  S  C   4  -0.00194     0.03149    -0.18050    -0.08006    -0.27567    -0.02651
 PX  C   4   0.03004     0.04257    -0.05091    -0.00775     0.03049     0.01368
 PY  C   4   0.02027     0.03596    -0.07396    -0.02273    -0.03908     0.00356
 PZ  C   4  -0.00002    -0.00008     0.00004    -0.00010     0.00010     0.00095
  
  S  C   5   0.06587     0.12256    -0.24973    -0.07317    -0.11084     0.01130
 PX  C   5   0.02864     0.03608    -0.00827     0.01367     0.10857     0.01821
 PY  C   5   0.00593    -0.00096     0.04781     0.02533     0.09936     0.00954
 PZ  C   5  -0.00006    -0.00023    -0.00021    -0.00051    -0.00000     0.00306
  
  S  C   6   0.09784     0.13636    -0.10800     0.00527     0.18370     0.03424
 PX  C   6  -0.00733    -0.02689     0.10118     0.03728     0.07944    -0.00382
 PY  C   6   0.01523     0.01028     0.04518     0.02645     0.09437     0.00344
 PZ  C   6  -0.00036    -0.00106    -0.00027    -0.00158     0.00004     0.00942
  
  S  C   7   0.07249     0.05844     0.12082     0.07402     0.25694     0.00432
 PX  C   7  -0.01407    -0.04119     0.10131     0.02297    -0.01438    -0.01613
 PY  C   7  -0.02622    -0.04130     0.03802    -0.00240    -0.07104    -0.01627
 PZ  C   7  -0.00110    -0.00384    -0.00115    -0.00581     0.00144     0.03110
  
  S  C   8   0.00938    -0.06190     0.27014     0.07336     0.05091    -0.02274
 PX  C   8  -0.02703    -0.03689    -0.00458    -0.02293    -0.11365    -0.00047
 PY  C   8  -0.02711    -0.05596     0.05228    -0.00987    -0.09284    -0.01422
 PZ  C   8  -0.00287    -0.01036    -0.00060    -0.01453     0.00001     0.08091
  
  S  N   9  -0.08219    -0.16628     0.08256    -0.05504    -0.16106    -0.01504
 PX  N   9  -0.00613     0.00586    -0.06857    -0.02496    -0.00520     0.02221
 PY  N   9  -0.02252     0.00388    -0.18110    -0.06466     0.01849     0.01611
 PZ  N   9  -0.00853    -0.03097     0.00164    -0.03889    -0.00255     0.18479
  
  S  C  10   0.01088     0.08593    -0.03924     0.07700    -0.07880    -0.20038
 PX  C  10  -0.00165     0.00739    -0.04386    -0.01367     0.02483     0.03446
 PY  C  10   0.02475     0.07646    -0.10070     0.00133     0.09946     0.10907
 PZ  C  10  -0.06540    -0.11710    -0.12232    -0.11996     0.05313     0.07200
  
  S  C  11   0.07998     0.17953     0.15510     0.19199    -0.19279    -0.28351
 PX  C  11   0.00691     0.01837    -0.00002     0.01000    -0.00664     0.00397
 PY  C  11   0.03279     0.07325     0.01353     0.03696    -0.01825     0.03470
 PZ  C  11  -0.00782    -0.00033    -0.01797     0.01208     0.00969    -0.04804
  
  S  C  12   0.09045     0.14288     0.17458     0.08272    -0.16790    -0.04085
 PX  C  12   0.00064    -0.00465     0.00239    -0.01366     0.00658     0.03235
 PY  C  12  -0.00195    -0.03843     0.00367    -0.07622     0.03468     0.13797
 PZ  C  12   0.03113     0.08340     0.02125     0.07261    -0.01858    -0.02401
  
  S  C  13   0.04314    -0.01901     0.12109    -0.10900    -0.01674     0.21334
 PX  C  13  -0.02247    -0.04671    -0.01780    -0.02699     0.02241     0.00444
 PY  C  13  -0.04625    -0.13431    -0.03362    -0.11388     0.05773     0.03466
 PZ  C  13   0.01574     0.08380    -0.03873     0.08286     0.06338     0.06074
  
  S  C  14   0.02963     0.05856    -0.05356    -0.00455     0.18689     0.23831
 PX  C  14  -0.01773    -0.03335    -0.00999    -0.00342     0.00195    -0.01088
 PY  C  14  -0.03625    -0.09473     0.01082    -0.04687    -0.01382    -0.01122
 PZ  C  14  -0.00055     0.04268    -0.08582     0.03879     0.07910    -0.05652
  
  S  C  15   0.01986     0.11999    -0.23304     0.00723     0.22965     0.06137
 PX  C  15  -0.00154    -0.00654    -0.00344    -0.00345     0.02489     0.01419
 PY  C  15   0.01480     0.00827     0.03100     0.01107     0.08222     0.07295
 PZ  C  15  -0.04014    -0.07134    -0.10006    -0.07609     0.05702    -0.05407
  
  S  C  16  -0.00314     0.02998    -0.21258    -0.05836     0.22007    -0.06339
 PX  C  16   0.00724     0.00922     0.01465     0.01234     0.01545    -0.03253
 PY  C  16   0.02384     0.03803     0.02879     0.04183     0.08382    -0.10814
 PZ  C  16   0.02215     0.00160     0.11538     0.02862    -0.06367    -0.05749
  
  S  C  17  -0.03497    -0.07719    -0.02436    -0.07891    -0.08908     0.23341
 PX  C  17   0.00618     0.01544    -0.02050     0.00094     0.01626    -0.01670
 PY  C  17   0.01688     0.05087    -0.09581    -0.00247     0.10063    -0.09730
 PZ  C  17   0.04489     0.04684     0.12992     0.06246    -0.05514     0.08295
  
  S  C  18   0.02170    -0.01269     0.16430     0.02343    -0.19635     0.32958
 PX  C  18   0.00475     0.00718     0.00443     0.00495    -0.00640    -0.00787
 PY  C  18   0.01608     0.02100     0.01814     0.01394    -0.01577    -0.01960
 PZ  C  18   0.01341     0.02766     0.01290     0.02820    -0.00198    -0.04494
  
  S  C  19   0.04581     0.03756     0.16481     0.06748    -0.15328     0.07419
 PX  C  19   0.00080     0.00279    -0.00422     0.00189     0.01151    -0.04171
 PY  C  19   0.00694     0.01345    -0.00603     0.01012     0.03925    -0.15059
 PZ  C  19  -0.01277    -0.00907    -0.03310    -0.00865     0.02295    -0.03087
  
  S  C  20   0.04879     0.05509     0.10503     0.06740    -0.00732    -0.25162
 PX  C  20  -0.00366    -0.00306    -0.01038    -0.00364     0.01057    -0.01253
 PY  C  20  -0.01103    -0.00759    -0.04204    -0.01311     0.05583    -0.06951
 PZ  C  20  -0.00919    -0.01313     0.01063    -0.00168    -0.05214     0.07566
  
  S  C  21   0.03756     0.05936    -0.02620     0.02806     0.17599    -0.30197
 PX  C  21  -0.00167    -0.00285     0.00666     0.00223    -0.00847    -0.00520
 PY  C  21  -0.00934    -0.01136     0.00321     0.00079    -0.00834    -0.00200
 PZ  C  21   0.01226     0.00437     0.07970     0.02770    -0.07589    -0.06165
  
  S  C  22  -0.01604    -0.28508     0.07385    -0.31628    -0.01008    -0.02337
 PX  C  22  -0.03941    -0.08079    -0.01597    -0.05304     0.01246    -0.07075
 PY  C  22  -0.00542    -0.06311    -0.03814    -0.02453     0.02072    -0.11539
 PZ  C  22  -0.02373    -0.01176     0.01569    -0.02107     0.01145     0.08912
  
  S  C  23  -0.16651    -0.30095    -0.01297    -0.23410     0.00818    -0.22894
 PX  C  23  -0.11148     0.05921    -0.02832     0.09860    -0.00653    -0.00808
 PY  C  23  -0.01689     0.06951    -0.01323     0.05522    -0.00146    -0.03993
 PZ  C  23  -0.04216    -0.04548    -0.01703     0.02870     0.00501     0.04837
  
  S  C  24  -0.13089     0.06001     0.01628    -0.06794     0.00257    -0.08810
 PX  C  24  -0.36708     0.23786     0.05226    -0.04821     0.00166     0.03955
 PY  C  24  -0.02113     0.14631     0.01545     0.07186     0.00007     0.11723
 PZ  C  24  -0.08419    -0.08404    -0.00637    -0.07427     0.00122    -0.10746
  
  S  O  25  -0.47805     0.41065     0.08694    -0.05976     0.00460     0.08365
 PX  O  25   0.08878    -0.10251    -0.01797    -0.00067    -0.00102    -0.02655
 PY  O  25   0.09678    -0.05502    -0.01220     0.02169    -0.00038     0.01472
 PZ  O  25  -0.07813     0.02889     0.00636    -0.01912     0.00013    -0.02232
  
  S  O  26   0.48365    -0.15202    -0.06170     0.15948    -0.00339     0.05453
 PX  O  26   0.06779     0.00065    -0.00500     0.02190     0.00035     0.00671
 PY  O  26   0.01894     0.03379    -0.00327     0.04811    -0.00029     0.05710
 PZ  O  26  -0.00289    -0.03156     0.00077    -0.03841     0.00085    -0.05443
  
  S  C  27  -0.29827    -0.29396    -0.17234     0.29392    -0.03391    -0.04877
 PX  C  27  -0.02951    -0.00000    -0.07848     0.27100    -0.03447     0.06666
 PY  C  27  -0.01908     0.02621     0.00135     0.00202    -0.00299    -0.02472
 PZ  C  27   0.00382    -0.03547    -0.06911     0.21797    -0.01612     0.09149
  
  S  N  28  -0.23457    -0.23875    -0.22091     0.53179    -0.06021     0.06513
 PX  N  28   0.08303     0.08873     0.07026    -0.15380     0.01401    -0.01737
 PY  N  28  -0.00832     0.00278    -0.00301     0.00967    -0.00269    -0.00649
 PZ  N  28   0.07759     0.06679     0.05852    -0.13517     0.01833    -0.00228
  
  S  H  29   0.02264    -0.10297     0.03469    -0.12020    -0.01488    -0.02065
  
  S  H  30  -0.03298    -0.05052     0.10035     0.03697     0.12280     0.01592
  
  S  H  31  -0.02958    -0.04624     0.09676     0.03688     0.12843     0.01781
  
  S  H  32  -0.03297    -0.05052     0.10034     0.03697     0.12279     0.01596
  
  S  H  33  -0.03925    -0.05564     0.08760     0.02682     0.06383     0.00363
  
  S  H  34  -0.03924    -0.05563     0.08761     0.02684     0.06385     0.00351
  
  S  H  35  -0.02831    -0.03256     0.01668    -0.00325    -0.04587    -0.01040
  
  S  H  36  -0.02832    -0.03260     0.01672    -0.00328    -0.04582    -0.01002
  
  S  H  37  -0.00076     0.01284    -0.07278    -0.03215    -0.10969    -0.00983
  
  S  H  38  -0.00075     0.01291    -0.07272    -0.03198    -0.10970    -0.01103
  
  S  H  39   0.02695     0.05005    -0.10057    -0.02898    -0.04418     0.00225
  
  S  H  40   0.02683     0.04967    -0.10071    -0.02961    -0.04407     0.00618
  
  S  H  41   0.03992     0.05490    -0.04288     0.00144     0.07338     0.01991
  
  S  H  42   0.04028     0.05613    -0.04264     0.00331     0.07307     0.00816
  
  S  H  43   0.03057     0.02765     0.04846     0.03425     0.09809    -0.02130
  
  S  H  44   0.02862     0.02141     0.04649     0.02561     0.10036     0.02025
  
  S  H  45   0.00598    -0.02487     0.11223     0.02610     0.02382     0.03959
  
  S  H  46   0.00933    -0.01281     0.11170     0.04186     0.02514    -0.05018
  
  S  H  47   0.02425     0.04975     0.07611     0.07410    -0.08244    -0.15002
  
  S  H  48   0.02845     0.02956     0.07292     0.00939    -0.07541    -0.02453
  
  S  H  49  -0.01160    -0.02304    -0.04045    -0.01215     0.09828     0.09345
  
  S  H  50   0.00487    -0.01333     0.07697     0.00975    -0.08541     0.16529
  
  S  H  51   0.01491     0.01211     0.06313     0.02697    -0.06653     0.03731
  
  S  H  52   0.01596     0.01883     0.03831     0.02679    -0.00122    -0.12165
  
  S  H  53   0.01153     0.02221    -0.02357     0.01029     0.09463    -0.13582
  
  S  H  54   0.18275    -0.02408    -0.02241     0.08967    -0.00153     0.06415




    ROOT NO.   13          14          15          16          17          18

           -32.47665   -31.36079   -30.28705   -29.05888   -27.03006   -26.58524
  
  
  S  C   1  -0.24335     0.06964     0.18834     0.26619    -0.01888     0.14372
 PX  C   1  -0.00422    -0.00388    -0.02609    -0.06714     0.00992    -0.08244
 PY  C   1   0.01591    -0.00607    -0.02009    -0.03323     0.00079    -0.01657
 PZ  C   1   0.00001     0.00000    -0.00003     0.00002     0.00033    -0.00003
  
  S  C   2  -0.05254     0.00246    -0.02743    -0.09647     0.01724    -0.12353
 PX  C   2   0.12318    -0.03731    -0.10386    -0.14637     0.01071    -0.06655
 PY  C   2   0.06218    -0.02105    -0.06270    -0.09147     0.00206    -0.03064
 PZ  C   2   0.00003     0.00000    -0.00009     0.00007     0.00086    -0.00007
  
  S  C   3   0.18828    -0.05944    -0.16471    -0.22099     0.00458    -0.06824
 PX  C   3   0.08616    -0.01722    -0.02175     0.01710    -0.00495     0.06565
 PY  C   3   0.01421     0.00265     0.02632     0.06877    -0.01276     0.06768
 PZ  C   3   0.00007     0.00001    -0.00024     0.00020     0.00208    -0.00016
  
  S  C   4   0.16154    -0.02828    -0.02265     0.06135    -0.00701     0.12579
 PX  C   4  -0.10243     0.03605     0.10611     0.14693    -0.00081     0.04120
 PY  C   4  -0.03775     0.01989     0.07277     0.11869    -0.01158     0.03975
 PZ  C   4   0.00001     0.00009    -0.00061     0.00056     0.00492    -0.00047
  
  S  C   5  -0.11259     0.05167     0.16725     0.22938    -0.01522     0.02017
 PX  C   5  -0.11905     0.02681     0.03792    -0.01972     0.01455    -0.08285
 PY  C   5  -0.06071     0.00851    -0.00555    -0.06200     0.00055    -0.08779
 PZ  C   5   0.00012     0.00029    -0.00164     0.00171     0.01164    -0.00102
  
  S  C   6  -0.21031     0.04377     0.04923    -0.05102     0.02624    -0.10024
 PX  C   6   0.05899    -0.03199    -0.10926    -0.14349     0.00923     0.01914
 PY  C   6  -0.01203    -0.01014    -0.05908    -0.11902    -0.00351    -0.04882
 PZ  C   6   0.00045     0.00077    -0.00488     0.00441     0.02720    -0.00250
  
  S  C   7   0.00019    -0.02846    -0.13778    -0.24316    -0.00342    -0.04426
 PX  C   7   0.13468    -0.03294    -0.05322     0.02351     0.00034     0.11994
 PY  C   7   0.07720    -0.01141     0.00346     0.04321    -0.01868     0.02477
 PZ  C   7   0.00116     0.00309    -0.01506     0.01129     0.06593    -0.00603
  
  S  C   8   0.27432    -0.05944    -0.08801     0.08495     0.01708     0.20073
 PX  C   8   0.03610     0.01344     0.08019     0.16713     0.01224     0.01942
 PY  C   8   0.06910     0.01442     0.08173     0.11122     0.00252    -0.04222
 PZ  C   8   0.00076     0.00941    -0.04382     0.03300     0.14552    -0.01817
  
  S  N   9   0.10028     0.07479     0.19659     0.10907     0.07838    -0.06014
 PX  N   9  -0.07192     0.02339     0.01195    -0.02389     0.02923    -0.03285
 PY  N   9  -0.19941     0.06132     0.04719    -0.19780     0.02082    -0.10393
 PZ  N   9   0.00158     0.05647    -0.12864     0.09226     0.30130    -0.05951
  
  S  C  10  -0.13082    -0.13537     0.14090    -0.09722    -0.19845    -0.07740
 PX  C  10  -0.01314    -0.00929     0.00107    -0.02042     0.05557     0.01795
 PY  C  10  -0.03869    -0.07485    -0.07634    -0.06131     0.19455     0.05203
 PZ  C  10   0.01626     0.08885     0.11414    -0.11886     0.06950     0.07060
  
  S  C  11  -0.17836    -0.02381    -0.13556     0.09201    -0.17913    -0.06698
 PX  C  11  -0.00874    -0.01205     0.00446     0.00051     0.02848    -0.01316
 PY  C  11  -0.03671     0.00466    -0.04038    -0.00575     0.17426    -0.00889
 PZ  C  11   0.02037    -0.13045     0.12023    -0.02369    -0.17310    -0.08904
  
  S  C  12  -0.11872     0.29151    -0.17169    -0.00414     0.22072     0.13495
 PX  C  12   0.01894     0.01098     0.02492    -0.01209     0.01359    -0.01501
 PY  C  12   0.08413     0.09547     0.09699    -0.07374     0.05081     0.02093
 PZ  C  12  -0.02045    -0.11424    -0.01055     0.04779     0.01424    -0.11913
  
  S  C  13   0.12322     0.22175     0.11055    -0.05553     0.00864    -0.06834
 PX  C  13   0.02146    -0.04710     0.02906     0.01348    -0.06489    -0.06560
 PY  C  13   0.07314    -0.02758     0.10063    -0.01402    -0.22532    -0.07079
 PZ  C  13   0.07641    -0.23593     0.03383     0.10599     0.05389    -0.16865
  
  S  C  14   0.26503    -0.23056     0.10324     0.13227    -0.01178    -0.08361
 PX  C  14   0.00368     0.00683     0.00080     0.00734    -0.03766    -0.00679
 PY  C  14   0.02259     0.07593     0.02569     0.00995    -0.12869    -0.03928
 PZ  C  14   0.00202    -0.10976    -0.08249     0.03632     0.02840     0.19694
  
  S  C  15   0.04580    -0.22037    -0.02666    -0.04807     0.05374     0.20988
 PX  C  15   0.03811    -0.00273    -0.01685     0.03578    -0.00831     0.02673
 PY  C  15   0.16657    -0.05999    -0.05014     0.15314    -0.00155     0.06795
 PZ  C  15  -0.04017     0.15448    -0.08452    -0.06497    -0.07975     0.15599
  
  S  C  16   0.02570     0.13632    -0.23911     0.02316    -0.13199     0.14315
 PX  C  16   0.04168     0.00311    -0.00641     0.04157    -0.01970     0.00891
 PY  C  16   0.15936    -0.02400    -0.01544     0.12130    -0.05799     0.10232
 PZ  C  16   0.02448     0.09668    -0.05325     0.10376    -0.07221    -0.19407
  
  S  C  17  -0.13462     0.10495    -0.18633     0.08399     0.09955    -0.19322
 PX  C  17  -0.01755     0.00828    -0.02066    -0.01190    -0.04913     0.00790
 PY  C  17  -0.04605     0.04651    -0.06662    -0.10841    -0.17356     0.05742
 PZ  C  17  -0.01129    -0.10027    -0.12463     0.10978    -0.13802    -0.04492
  
  S  C  18  -0.15728    -0.18150    -0.13770     0.08683    -0.10694     0.00809
 PX  C  18  -0.01136    -0.00943     0.01629    -0.02161    -0.02698     0.01300
 PY  C  18  -0.03713    -0.00956     0.01908    -0.06043    -0.08347    -0.00426
 PZ  C  18  -0.00913    -0.10519     0.12919    -0.12383    -0.08979     0.19813
  
  S  C  19  -0.09275    -0.23055     0.24041    -0.20875    -0.02589     0.22609
 PX  C  19   0.02091     0.01653     0.04238    -0.01868     0.04624    -0.00991
 PY  C  19   0.07367     0.06679     0.13359    -0.05659     0.15043    -0.06687
 PZ  C  19   0.02432    -0.01540     0.09009    -0.06079     0.08285     0.10616
  
  S  C  20   0.12258     0.01555     0.32268    -0.10977     0.25141    -0.07507
 PX  C  20   0.01414     0.01284     0.00426     0.01116     0.02985    -0.01269
 PY  C  20   0.07073     0.07709    -0.01746     0.07612     0.08971    -0.08227
 PZ  C  20  -0.05781    -0.10058     0.11360    -0.12185     0.07682     0.12380
  
  S  C  21   0.23312     0.18135    -0.04578     0.17192    -0.00046    -0.07018
 PX  C  21   0.00713    -0.00689     0.03205    -0.00187     0.03672    -0.01062
 PY  C  21   0.02891    -0.02726     0.06943     0.00948     0.09237     0.00813
 PZ  C  21  -0.00057    -0.00176     0.17206    -0.06292     0.15413    -0.15459
  
  S  C  22  -0.02025     0.16015     0.05138    -0.11251    -0.18364     0.13527
 PX  C  22  -0.03586    -0.11844    -0.02228     0.04293    -0.00635    -0.09718
 PY  C  22  -0.06201    -0.19172    -0.05583     0.06066     0.03038    -0.01361
 PZ  C  22   0.07369     0.05033     0.07654    -0.00344    -0.09042    -0.14203
  
  S  C  23  -0.14636    -0.22833    -0.09876     0.06226     0.08324    -0.05072
 PX  C  23  -0.01017    -0.04956    -0.02786     0.04144     0.09279    -0.09904
 PY  C  23  -0.03248    -0.08138    -0.05765     0.04527     0.15932     0.02727
 PZ  C  23   0.04368     0.02711     0.05184    -0.00114    -0.11220    -0.13950
  
  S  C  24  -0.06273    -0.10458    -0.06844     0.03830     0.14967     0.06889
 PX  C  24   0.02778     0.05055     0.02874    -0.01688    -0.05920    -0.04080
 PY  C  24   0.08151     0.11936     0.07200    -0.03621    -0.11275    -0.03415
 PZ  C  24  -0.07341    -0.11922    -0.06626     0.04186     0.10934    -0.00438
  
  S  O  25   0.05825     0.10340     0.05439    -0.04029    -0.10349     0.01660
 PX  O  25  -0.01811    -0.02525    -0.01323     0.00622     0.01018    -0.00036
 PY  O  25   0.01109     0.01744     0.01344    -0.00787    -0.03405    -0.00583
 PZ  O  25  -0.01615    -0.02784    -0.01797     0.01260     0.04198    -0.00349
  
  S  O  26   0.03649     0.02997     0.02441    -0.00018    -0.02861    -0.05836
 PX  O  26   0.00401    -0.00088    -0.00233     0.00237     0.02579     0.03470
 PY  O  26   0.04113     0.05200     0.04049    -0.01214    -0.08211    -0.09265
 PZ  O  26  -0.03893    -0.05702    -0.04129     0.01707     0.09462     0.08899
  
  S  C  27  -0.04390    -0.05286    -0.02854     0.02649     0.02841    -0.09638
 PX  C  27   0.02105     0.11504     0.00972    -0.04639     0.01692     0.12988
 PY  C  27  -0.02102    -0.02572    -0.02551     0.01138     0.05691     0.01583
 PZ  C  27   0.05567     0.10939     0.04412    -0.03872    -0.06198     0.07268
  
  S  N  28   0.01393     0.11656     0.01282    -0.04434    -0.00758     0.09491
 PX  N  28  -0.00744    -0.01952    -0.00689     0.00328     0.01353     0.00924
 PY  N  28  -0.00694    -0.00404    -0.00796     0.00172     0.01986     0.00809
 PZ  N  28   0.00896    -0.01632     0.00671     0.00621    -0.01747    -0.00746
  
  S  H  29  -0.02659     0.10367    -0.00002    -0.06978    -0.04471     0.17217
  
  S  H  30  -0.10882     0.03187     0.08885     0.13153    -0.01142     0.08342
  
  S  H  31  -0.12308     0.03721     0.10633     0.16030    -0.01173     0.09730
  
  S  H  32  -0.10881     0.03187     0.08881     0.13156    -0.01101     0.08339
  
  S  H  33  -0.01728    -0.00033    -0.01562    -0.04782     0.01050    -0.06278
  
  S  H  34  -0.01731    -0.00033    -0.01551    -0.04791     0.00943    -0.06270
  
  S  H  35   0.07252    -0.02276    -0.06232    -0.08316    -0.00260    -0.02369
  
  S  H  36   0.07252    -0.02272    -0.06259    -0.08289     0.00000    -0.02392
  
  S  H  37   0.06461    -0.01150    -0.01091     0.02294     0.00384     0.05445
  
  S  H  38   0.06458    -0.01162    -0.01019     0.02213    -0.00228     0.05500
  
  S  H  39  -0.04562     0.02061     0.06840     0.08923    -0.01799    -0.00108
  
  S  H  40  -0.04542     0.02096     0.06625     0.09123    -0.00341    -0.00243
  
  S  H  41  -0.08018     0.01660     0.01381    -0.01403     0.03252    -0.02579
  
  S  H  42  -0.08055     0.01574     0.01998    -0.01921    -0.00110    -0.02237
  
  S  H  43  -0.00839    -0.01246    -0.04338    -0.11082    -0.05228    -0.03847
  
  S  H  44  -0.00603    -0.00847    -0.06156    -0.09727     0.02957    -0.04531
  
  S  H  45   0.11095    -0.02846    -0.07475     0.06297     0.08381     0.10156
  
  S  H  46   0.10993    -0.03486    -0.02965     0.02725    -0.07390     0.11981
  
  S  H  47  -0.06546     0.00671    -0.06787     0.05233    -0.16278    -0.00646
  
  S  H  48  -0.05807     0.19430    -0.09130    -0.02183     0.09432     0.14209
  
  S  H  49   0.14305    -0.09128     0.04753     0.08257    -0.08065    -0.03250
  
  S  H  50  -0.05302    -0.10143    -0.06136     0.05908    -0.01630     0.04510
  
  S  H  51  -0.04114    -0.12896     0.15082    -0.13061     0.01514     0.18535
  
  S  H  52   0.06595     0.00033     0.19681    -0.07149     0.19876    -0.02270
  
  S  H  53   0.13292     0.07023    -0.01030     0.10345     0.02667    -0.00422
  
  S  H  54   0.04510     0.05563     0.04181    -0.01301    -0.08388    -0.09031




    ROOT NO.   19          20          21          22          23          24

           -26.10364   -25.37431   -25.23557   -24.42364   -24.06947   -23.87957
  
  
  S  C   1  -0.10770     0.09291     0.17597     0.00233    -0.11478     0.01031
 PX  C   1   0.08725    -0.07430    -0.14558    -0.02429     0.12951    -0.01134
 PY  C   1  -0.06098    -0.00542    -0.01043     0.12458    -0.01338    -0.00405
 PZ  C   1   0.00001    -0.00004    -0.00003     0.00000    -0.00117     0.00087
  
  S  C   2   0.21665    -0.10600    -0.20402    -0.14617     0.17254    -0.01032
 PX  C   2   0.10170    -0.03298    -0.05827    -0.06507     0.01912     0.00119
 PY  C   2  -0.11117    -0.00159    -0.00104     0.21262    -0.04784    -0.00425
 PZ  C   2   0.00003    -0.00008    -0.00006    -0.00001    -0.00252     0.00184
  
  S  C   3  -0.19747    -0.01592    -0.02871     0.28414    -0.03329    -0.00742
 PX  C   3   0.05434     0.05720     0.11398    -0.18998    -0.07601     0.01535
 PY  C   3  -0.20634     0.04634     0.08402     0.13123    -0.04564    -0.00047
 PZ  C   3   0.00007    -0.00018    -0.00012    -0.00002    -0.00476     0.00343
  
  S  C   4   0.14832     0.10559     0.20995    -0.22368    -0.15276     0.02192
 PX  C   4   0.15303     0.00801     0.01397    -0.08179     0.01365    -0.00013
 PY  C   4  -0.17941    -0.00503    -0.02181     0.09907     0.08081    -0.01107
 PZ  C   4   0.00003    -0.00048    -0.00049     0.00019    -0.00847     0.00606
  
  S  C   5  -0.18520    -0.05337    -0.11971    -0.02776     0.18012    -0.01404
 PX  C   5   0.18043    -0.05060    -0.09022     0.05549     0.00172    -0.00409
 PY  C   5  -0.16167    -0.07135    -0.14047     0.02240     0.09801    -0.00704
 PZ  C   5  -0.00021    -0.00105    -0.00113     0.00063    -0.01488     0.01059
  
  S  C   6   0.25409    -0.04183    -0.07067     0.25269    -0.02873    -0.00983
 PX  C   6   0.07809     0.05942     0.12164     0.09368    -0.11175     0.00628
 PY  C   6  -0.19856    -0.01528    -0.02576    -0.11625    -0.00577     0.00965
 PZ  C   6  -0.00118    -0.00231    -0.00273     0.00116    -0.02665     0.01833
  
  S  C   7  -0.21652     0.02322     0.05955    -0.26689    -0.10457     0.02423
 PX  C   7   0.07671     0.07361     0.13370     0.05005     0.00235    -0.00478
 PY  C   7  -0.15032    -0.00092    -0.00171    -0.23397     0.00677     0.00913
 PZ  C   7  -0.00354    -0.00395    -0.00556     0.00171    -0.04739     0.03020
  
  S  C   8   0.07044     0.08099     0.12800     0.10579     0.12414    -0.02057
 PX  C   8   0.08737    -0.04006    -0.09251     0.14655     0.11502    -0.01893
 PY  C   8  -0.08102    -0.06389    -0.12399    -0.14048     0.04916    -0.00285
 PZ  C   8  -0.00857    -0.00541    -0.01733     0.00129    -0.09948     0.03604
  
  S  N   9   0.01229    -0.03960    -0.14411     0.00249     0.06220    -0.02062
 PX  N   9   0.04767     0.00380    -0.00884     0.09149    -0.03008    -0.00831
 PY  N   9  -0.01948     0.02610     0.02693    -0.02431    -0.14253     0.01662
 PZ  N   9  -0.01863     0.02888    -0.04401    -0.00407    -0.18873    -0.07797
  
  S  C  10   0.01497    -0.12345     0.12229     0.02223     0.00528     0.17516
 PX  C  10   0.01753     0.00830     0.01783     0.03902     0.00357     0.02276
 PY  C  10  -0.01382     0.00775     0.11247     0.00781    -0.05187     0.08192
 PZ  C  10  -0.00570     0.07037    -0.05623    -0.01499     0.06190     0.00389
  
  S  C  11   0.01404     0.03191    -0.11220     0.00994    -0.19775    -0.15044
 PX  C  11   0.00733    -0.01612     0.03799     0.01759     0.02729     0.04609
 PY  C  11  -0.01168    -0.01210     0.08742    -0.00170     0.06102     0.10638
 PZ  C  11   0.00782    -0.16234     0.16527     0.01282     0.06695     0.15959
  
  S  C  12  -0.01166     0.15155    -0.12541    -0.01812     0.07355    -0.00766
 PX  C  12   0.00083    -0.01181     0.04722     0.00507     0.05507     0.05590
 PY  C  12  -0.00690    -0.07959     0.14203    -0.00547     0.21005     0.18364
 PZ  C  12  -0.00120    -0.05991     0.11459     0.00872    -0.00981     0.02412
  
  S  C  13  -0.00454     0.00703     0.09706    -0.00804     0.15607     0.05361
 PX  C  13   0.00498     0.04953    -0.01350     0.00697    -0.04947    -0.02903
 PY  C  13   0.01324    -0.00307    -0.04205     0.00981    -0.15156    -0.11276
 PZ  C  13  -0.00599    -0.01756     0.05507    -0.00892     0.00374    -0.12759
  
  S  C  14  -0.00314    -0.01135    -0.09338    -0.02138    -0.03797    -0.23602
 PX  C  14   0.00431     0.04042    -0.04704     0.00342    -0.03186    -0.03094
 PY  C  14   0.00663     0.07454    -0.11703    -0.00752    -0.07623    -0.14242
 PZ  C  14   0.00120    -0.02294    -0.15069    -0.00223    -0.07840    -0.00372
  
  S  C  15  -0.00047    -0.00649    -0.03461     0.00811    -0.03764     0.06951
 PX  C  15   0.00640     0.01731    -0.05794     0.00703    -0.00237    -0.03666
 PY  C  15  -0.00323     0.00235    -0.17022    -0.02335    -0.00805    -0.13783
 PZ  C  15   0.00499     0.13180    -0.12369    -0.00294    -0.01211    -0.02705
  
  S  C  16   0.00444     0.10157    -0.01315    -0.00467     0.10521    -0.06143
 PX  C  16   0.00761    -0.01842    -0.03178     0.01096     0.01236     0.03463
 PY  C  16   0.00576    -0.05528    -0.15556    -0.00301     0.01019     0.15357
 PZ  C  16  -0.00103    -0.06318     0.14083    -0.00642     0.10939    -0.05689
  
  S  C  17  -0.01001    -0.00722     0.07709    -0.00351    -0.10168    -0.15127
 PX  C  17   0.01868     0.01408     0.03707     0.03124     0.05128    -0.02934
 PY  C  17  -0.00017     0.08552     0.14959    -0.01077     0.17322    -0.10569
 PZ  C  17   0.00175    -0.09535     0.07484    -0.00074     0.03387     0.03921
  
  S  C  18   0.00520    -0.10696    -0.08001     0.00728    -0.09217     0.22265
 PX  C  18   0.00661     0.01551     0.01789     0.00811     0.04754    -0.03430
 PY  C  18  -0.00387     0.04587     0.10793    -0.01747     0.15371    -0.16284
 PZ  C  18   0.00805     0.05140    -0.11565    -0.00041     0.06969     0.14189
  
  S  C  19   0.00282     0.11134    -0.10767    -0.00943     0.07927    -0.04183
 PX  C  19  -0.00019     0.01780     0.01253     0.00296    -0.00608    -0.05646
 PY  C  19  -0.00813     0.05107     0.08587    -0.00371    -0.00522    -0.22182
 PZ  C  19   0.00027     0.05943    -0.12795     0.00197    -0.06936     0.03385
  
  S  C  20  -0.00825     0.00911     0.03191     0.00658    -0.11670    -0.07965
 PX  C  20   0.00049    -0.01381    -0.01873     0.00516    -0.04676     0.03840
 PY  C  20  -0.00099    -0.07931    -0.04669     0.01277    -0.16239     0.17497
 PZ  C  20  -0.00229     0.09481    -0.08047    -0.00289    -0.05090    -0.10227
  
  S  C  21   0.00460    -0.10982    -0.07184     0.00851    -0.04346     0.24458
 PX  C  21   0.00109    -0.01609    -0.02463     0.00645    -0.04911     0.04584
 PY  C  21  -0.00023    -0.04802    -0.12513     0.00832    -0.16222     0.18125
 PZ  C  21  -0.00738    -0.04443     0.11694     0.00730    -0.08172    -0.02865
  
  S  C  22   0.01410    -0.19368     0.01116     0.02247    -0.17284     0.01089
 PX  C  22   0.00121     0.12717    -0.01560     0.00624    -0.03418     0.00711
 PY  C  22  -0.00050    -0.06328    -0.00248     0.00250    -0.09159    -0.08335
 PZ  C  22   0.00351     0.16323    -0.00604     0.00097     0.02591     0.00302
  
  S  C  23  -0.00413     0.11125    -0.00613     0.00070     0.02599     0.05447
 PX  C  23  -0.00751     0.24587    -0.01606    -0.00929     0.16055     0.12223
 PY  C  23  -0.01179    -0.04170     0.02160    -0.02151     0.14536    -0.02823
 PZ  C  23   0.00690     0.24048    -0.04302     0.01223    -0.03937     0.06846
  
  S  C  24  -0.01046    -0.14963     0.03677    -0.02069     0.10394    -0.09092
 PX  C  24   0.00406     0.11754    -0.02126     0.00991    -0.02111     0.09248
 PY  C  24   0.00697     0.03759    -0.01601     0.00840    -0.06181    -0.00857
 PZ  C  24  -0.00721     0.04268     0.00630    -0.00853     0.08698     0.04222
  
  S  O  25   0.00736    -0.04306    -0.00926     0.01150    -0.10370    -0.01494
 PX  O  25  -0.00029     0.01074    -0.00146     0.00170    -0.00709     0.01787
 PY  O  25   0.00249    -0.00186    -0.00479     0.00403    -0.03876    -0.01214
 PZ  O  25  -0.00310     0.02380     0.00298    -0.00469     0.05063     0.02245
  
  S  O  26   0.00154     0.12135    -0.01634     0.00454     0.00792     0.06485
 PX  O  26  -0.00222    -0.11592     0.01919    -0.00893     0.01242    -0.10424
 PY  O  26   0.00542     0.21237    -0.03431     0.01338    -0.02227     0.12583
 PZ  O  26  -0.00665    -0.22231     0.03833    -0.01734     0.04147    -0.15257
  
  S  C  27  -0.00197     0.21865    -0.02018     0.00163     0.06051     0.10193
 PX  C  27  -0.00082    -0.22815     0.04188    -0.00288    -0.01467    -0.05049
 PY  C  27  -0.00401    -0.00398     0.00753    -0.00597     0.05261     0.01615
 PZ  C  27   0.00420    -0.17617     0.00785     0.00145    -0.08327    -0.10366
  
  S  N  28   0.00095    -0.17799     0.03084     0.00033    -0.03791    -0.05206
 PX  N  28  -0.00087    -0.01718     0.00765    -0.00078     0.00913     0.00470
 PY  N  28  -0.00144    -0.00472     0.00465    -0.00210     0.02063     0.00867
 PZ  N  28   0.00115    -0.00589    -0.00985     0.00026    -0.02318    -0.02869
  
  S  H  29   0.00464    -0.22384     0.01222     0.00734    -0.08256    -0.00287
  
  S  H  30  -0.09509     0.06127     0.11723     0.05127    -0.09190     0.00585
  
  S  H  31  -0.03537     0.06512     0.12468    -0.06987    -0.07777     0.01020
  
  S  H  32  -0.09504     0.06122     0.11719     0.05122    -0.09335     0.00695
  
  S  H  33   0.16776    -0.05679    -0.10862    -0.16247     0.10038    -0.00173
  
  S  H  34   0.16774    -0.05669    -0.10856    -0.16248     0.10352    -0.00403
  
  S  H  35  -0.18167    -0.00486    -0.01146     0.22747    -0.00999    -0.00960
  
  S  H  36  -0.18169    -0.00512    -0.01169     0.22766    -0.01586    -0.00534
  
  S  H  37   0.17362     0.05277     0.10897    -0.16023    -0.10204     0.01793
  
  S  H  38   0.17422     0.05340     0.10967    -0.16082    -0.09167     0.01040
  
  S  H  39  -0.19115    -0.03744    -0.08349    -0.01910     0.12789    -0.01468
  
  S  H  40  -0.19205    -0.03884    -0.08506    -0.01834     0.10961    -0.00145
  
  S  H  41   0.20975    -0.00054     0.00500     0.18333    -0.05628     0.00507
  
  S  H  42   0.21245     0.00263     0.00886     0.18271    -0.02306    -0.01796
  
  S  H  43  -0.17264    -0.00542    -0.00361    -0.22168    -0.02219    -0.00393
  
  S  H  44  -0.17781    -0.01059    -0.00944    -0.22072    -0.07760     0.03505
  
  S  H  45   0.07997     0.04210     0.06561     0.13770     0.00432     0.01748
  
  S  H  46   0.08966     0.05321     0.08548     0.13643     0.11555    -0.03865
  
  S  H  47   0.01158     0.05747    -0.13972     0.00156    -0.14833    -0.18139
  
  S  H  48  -0.00432     0.11633    -0.15274    -0.01400     0.00965    -0.04553
  
  S  H  49   0.00342     0.04270    -0.15545    -0.01444    -0.09014    -0.20256
  
  S  H  50   0.00721    -0.07165    -0.12456     0.01638    -0.13105     0.24626
  
  S  H  51   0.00272     0.08607    -0.14339    -0.00298    -0.00146     0.03053
  
  S  H  52  -0.00551     0.00977    -0.04034     0.00838    -0.16075    -0.00459
  
  S  H  53   0.00373    -0.07734    -0.13873     0.00831    -0.11350     0.23977
  
  S  H  54   0.00566     0.21130    -0.03491     0.01447    -0.02884     0.13281




    ROOT NO.   25          26          27          28          29          30

           -23.24976   -21.47143   -21.38284   -20.72929   -19.74116   -19.57326
  
  
  S  C   1  -0.07695     0.01223     0.00122     0.00128    -0.00504     0.00821
 PX  C   1   0.11067    -0.02983    -0.00327    -0.00345     0.02441    -0.04387
 PY  C   1  -0.04974     0.07353     0.01421     0.03975     0.05563    -0.09181
 PZ  C   1   0.00217    -0.00260     0.13421    -0.09171     0.03247     0.00984
  
  S  C   2   0.15620    -0.05525    -0.00853    -0.01529     0.00129    -0.00488
 PX  C   2   0.00757    -0.00185    -0.00135    -0.00380    -0.02131     0.03753
 PY  C   2  -0.10634     0.11534     0.02141     0.05535     0.06118    -0.09768
 PZ  C   2   0.00434    -0.00435     0.22256    -0.14008     0.04275     0.01259
  
  S  C   3  -0.08745     0.06005     0.01082     0.01992     0.00661    -0.00597
 PX  C   3  -0.00889    -0.07500    -0.01629    -0.04512    -0.07223     0.11748
 PY  C   3  -0.02350    -0.03279    -0.00594    -0.02243    -0.02767     0.04576
 PZ  C   3   0.00754    -0.00579     0.29059    -0.15868     0.03570     0.00982
  
  S  C   4  -0.08590     0.00575    -0.00060    -0.00086    -0.00444     0.00511
 PX  C   4   0.00889     0.04965     0.01047     0.03556     0.06658    -0.11117
 PY  C   4   0.10349    -0.08238    -0.01286    -0.03420    -0.01567     0.02304
 PZ  C   4   0.01244    -0.00664     0.32574    -0.13966     0.01314     0.00231
  
  S  C   5   0.19870    -0.09191    -0.01490    -0.02621    -0.00157    -0.00192
 PX  C   5  -0.09157     0.15852     0.02933     0.07529     0.06834    -0.10257
 PY  C   5   0.08055    -0.04147    -0.00768    -0.01770    -0.03003     0.04745
 PZ  C   5   0.02024    -0.00702     0.32481    -0.08814    -0.01496    -0.00608
  
  S  C   6  -0.12862     0.10317     0.01907     0.03178     0.00559     0.00242
 PX  C   6  -0.07205    -0.07241    -0.01539    -0.05162    -0.06799     0.10753
 PY  C   6   0.02946    -0.06943    -0.01476    -0.03349    -0.04645     0.07272
 PZ  C   6   0.03272    -0.00704     0.28690    -0.01542    -0.03735    -0.01198
  
  S  C   7  -0.07441     0.01887     0.00185     0.00741     0.00512     0.00813
 PX  C   7   0.06449    -0.09247    -0.01355    -0.03691    -0.00407     0.01926
 PY  C   7   0.00170     0.08879     0.01873     0.05350     0.07073    -0.11329
 PZ  C   7   0.05259    -0.00630     0.21436     0.06033    -0.04186    -0.01025
  
  S  C   8   0.20040    -0.11423    -0.01532    -0.01948     0.01830     0.00412
 PX  C   8   0.07203     0.03885     0.00728     0.03039     0.01590    -0.02885
 PY  C   8  -0.11187     0.27860     0.05613     0.13136     0.10321    -0.09067
 PZ  C   8   0.09033    -0.00642     0.11862     0.13292    -0.05146    -0.01832
  
  S  N   9  -0.15512     0.13944     0.03774     0.07280     0.03769     0.11937
 PX  N   9   0.01754    -0.09936    -0.02179    -0.03850    -0.06150     0.07431
 PY  N   9  -0.10370    -0.17852    -0.03270    -0.10222    -0.09136     0.13506
 PZ  N   9   0.15607     0.00878     0.02000     0.21827    -0.12726    -0.03230
  
  S  C  10   0.00702    -0.02090     0.01161    -0.06280     0.02232    -0.04442
 PX  C  10   0.04520    -0.03281    -0.00640    -0.00672     0.03892     0.04616
 PY  C  10   0.20674    -0.01803    -0.01232     0.07801     0.08673    -0.00209
 PZ  C  10  -0.13844    -0.05079    -0.04172    -0.14768     0.13456     0.17979
  
  S  C  11   0.06256    -0.05541     0.03045     0.06158    -0.13967    -0.07744
 PX  C  11   0.02053     0.00411     0.01562     0.03953     0.03420     0.02939
 PY  C  11   0.04986     0.04417     0.03281     0.14185     0.11923     0.13981
 PZ  C  11   0.02204     0.04780     0.02075     0.00868    -0.10247    -0.19204
  
  S  C  12  -0.08744     0.01883    -0.01900    -0.04976     0.15807     0.11163
 PX  C  12  -0.00814    -0.00390     0.00808     0.03115     0.00869    -0.02984
 PY  C  12  -0.08161     0.04421    -0.00801    -0.03216    -0.08765    -0.15047
 PZ  C  12   0.07585    -0.02221     0.05660     0.23080    -0.11205     0.03337
  
  S  C  13  -0.12842    -0.11656     0.02303     0.05385    -0.13180    -0.08884
 PX  C  13   0.02618    -0.06109     0.01359     0.05206     0.09463     0.01577
 PY  C  13   0.03861    -0.10364     0.00869    -0.01648    -0.07583    -0.05984
 PZ  C  13  -0.05534    -0.06144     0.02347     0.08921    -0.04578     0.22338
  
  S  C  14  -0.12510     0.02113    -0.02568    -0.12611    -0.04403     0.11367
 PX  C  14  -0.00906    -0.02957     0.00059    -0.01238     0.05376     0.00312
 PY  C  14  -0.10390    -0.11890     0.00514    -0.07435    -0.06945     0.01518
 PZ  C  14   0.07363     0.21778    -0.05712    -0.17450     0.11100    -0.08172
  
  S  C  15   0.14989     0.10064    -0.04858    -0.09392     0.13502    -0.11613
 PX  C  15  -0.01621     0.01777    -0.00258    -0.01113     0.00505    -0.00716
 PY  C  15  -0.07232     0.15968    -0.01573    -0.05845    -0.03791    -0.04562
 PZ  C  15  -0.01780    -0.11026     0.01672     0.03740    -0.06908    -0.13721
  
  S  C  16   0.02471    -0.01850     0.05728     0.14562    -0.08841    -0.10800
 PX  C  16  -0.02077     0.01337     0.01365     0.03306    -0.00543     0.01683
 PY  C  16  -0.06897     0.08006     0.04750     0.10766    -0.00829    -0.03710
 PZ  C  16  -0.06213     0.04756     0.04774     0.08242    -0.04073     0.13916
  
  S  C  17   0.06194     0.00072    -0.04006    -0.01157    -0.09931    -0.05891
 PX  C  17   0.01301    -0.02442    -0.00818    -0.02528     0.00065     0.01939
 PY  C  17   0.01135    -0.04475     0.01740    -0.02799     0.02547     0.01715
 PZ  C  17   0.03351     0.09401    -0.05013    -0.16146     0.09675    -0.14980
  
  S  C  18  -0.05647    -0.06468    -0.06884    -0.14828     0.06895    -0.04145
 PX  C  18  -0.00784     0.01422     0.00521     0.00462     0.01319     0.05209
 PY  C  18  -0.01144     0.11015     0.02796     0.00789     0.06018     0.11106
 PZ  C  18  -0.11222    -0.10034     0.04679     0.07839     0.02968     0.18393
  
  S  C  19  -0.04511     0.01840     0.06909     0.15992    -0.05240     0.08573
 PX  C  19   0.03228     0.02177     0.00228     0.01225    -0.02176    -0.03813
 PY  C  19   0.11940     0.11574     0.00462    -0.00030    -0.02749    -0.14729
 PZ  C  19  -0.00353    -0.07996     0.04122     0.18534    -0.17497    -0.04432
  
  S  C  20   0.10300     0.00986    -0.05665    -0.13031     0.04360    -0.10710
 PX  C  20   0.00441    -0.03847    -0.02037    -0.02775    -0.00755    -0.02361
 PY  C  20  -0.00385    -0.13909    -0.07380    -0.11726     0.00616    -0.04115
 PZ  C  20   0.06433     0.00565     0.00239     0.05549    -0.11531    -0.20882
  
  S  C  21  -0.09977    -0.06885     0.02221     0.07972    -0.01611     0.12620
 PX  C  21  -0.00426    -0.03763    -0.01965    -0.02793     0.00346     0.01640
 PY  C  21  -0.03745    -0.11898    -0.04581    -0.03787    -0.02713     0.02081
 PZ  C  21   0.06443    -0.02483    -0.08242    -0.22175     0.14159     0.06089
  
  S  C  22   0.19535     0.11069    -0.00441     0.01650    -0.01888     0.00755
 PX  C  22   0.05102    -0.06549     0.02638     0.14077     0.26695     0.08892
 PY  C  22   0.07278     0.03961     0.01242     0.08975     0.09850     0.23341
 PZ  C  22  -0.06448    -0.19244     0.02842     0.05999     0.03105    -0.13277
  
  S  C  23   0.02877     0.04250    -0.00185     0.02240     0.05222     0.06265
 PX  C  23  -0.10159    -0.00247    -0.02016    -0.10639    -0.09924    -0.18125
 PY  C  23  -0.17947    -0.02129    -0.01652    -0.12073    -0.24893    -0.05018
 PZ  C  23   0.06726    -0.06394     0.01346     0.05784     0.17260    -0.09860
  
  S  C  24  -0.17994    -0.12156     0.00686    -0.03005    -0.07093    -0.10363
 PX  C  24   0.09363     0.15064    -0.02365    -0.06518    -0.14775     0.06785
 PY  C  24   0.04008    -0.09074     0.01859     0.06643     0.15934    -0.10772
 PZ  C  24  -0.05144     0.09419    -0.02433    -0.10148    -0.22968     0.06408
  
  S  O  25   0.10797     0.05019     0.00513     0.05737     0.09365     0.14018
 PX  O  25   0.03322     0.07732    -0.00861    -0.00991    -0.03861     0.13838
 PY  O  25   0.03304    -0.02819     0.01082     0.05576     0.12866     0.01723
 PZ  O  25  -0.03955     0.03355    -0.01344    -0.06957    -0.15862    -0.01749
  
  S  O  26   0.03811     0.07598    -0.01301    -0.03757    -0.08236     0.05753
 PX  O  26  -0.10579    -0.23133     0.03571     0.09905     0.24878    -0.19883
 PY  O  26   0.11360     0.13069    -0.01891    -0.03952    -0.07019     0.03133
 PZ  O  26  -0.16440    -0.22499     0.03094     0.06306     0.13099    -0.12943
  
  S  C  27  -0.00040    -0.01084    -0.00388    -0.01242     0.06582    -0.11601
 PX  C  27  -0.00260     0.04936    -0.00525    -0.01661    -0.10747     0.05837
 PY  C  27  -0.04278     0.03315    -0.01266    -0.06200    -0.12633    -0.01597
 PZ  C  27   0.01347    -0.03654     0.01216     0.04009     0.03592     0.07423
  
  S  N  28   0.01627     0.01613     0.00368     0.02103    -0.03529     0.08210
 PX  N  28  -0.00049     0.02322    -0.00298    -0.00680    -0.04668     0.02532
 PY  N  28  -0.01494     0.01741    -0.00581    -0.02824    -0.06428    -0.00869
 PZ  N  28  -0.00016    -0.01943     0.00445     0.01390     0.02412     0.03705
  
  S  H  29   0.10132     0.18235    -0.03002    -0.09553    -0.15879     0.03432
  
  S  H  30  -0.08413     0.04129    -0.07854     0.07399    -0.00995    -0.02343
  
  S  H  31  -0.03238    -0.03551    -0.00810    -0.02554    -0.04803     0.08057
  
  S  H  32  -0.08138     0.03797     0.09147    -0.04277     0.03173    -0.01072
  
  S  H  33   0.11559    -0.07103     0.12662    -0.11594    -0.00083     0.05171
  
  S  H  34   0.11020    -0.06562    -0.15091     0.05906    -0.05445     0.03592
  
  S  H  35  -0.05155     0.03836    -0.17487     0.11192    -0.01129    -0.02199
  
  S  H  36  -0.04216     0.03118     0.18856    -0.08693     0.03375    -0.00970
  
  S  H  37  -0.06710     0.04047     0.21096    -0.06685     0.02861    -0.03256
  
  S  H  38  -0.08287     0.04904    -0.19643     0.10830     0.01221    -0.03564
  
  S  H  39   0.13138    -0.09262    -0.22049     0.01799    -0.01950     0.04581
  
  S  H  40   0.15693    -0.10173     0.18576    -0.09271    -0.03838     0.03853
  
  S  H  41  -0.06742     0.04953     0.19002     0.00389    -0.02196    -0.00655
  
  S  H  42  -0.10853     0.05870    -0.16870     0.02308     0.02563     0.00876
  
  S  H  43  -0.08008     0.06409    -0.12358    -0.00706     0.05054    -0.04111
  
  S  H  44  -0.01674     0.05721     0.14296     0.06619     0.00181    -0.05228
  
  S  H  45   0.19967    -0.15368     0.04671     0.02290    -0.06079     0.00698
  
  S  H  46   0.09935    -0.14426    -0.10206    -0.13249    -0.00275     0.03067
  
  S  H  47  -0.00501    -0.06983    -0.02110    -0.07631    -0.13587    -0.09689
  
  S  H  48  -0.07622     0.02700    -0.04964    -0.18772     0.17156     0.05903
  
  S  H  49  -0.11318    -0.03111    -0.01895    -0.14140    -0.03126     0.05515
  
  S  H  50  -0.03525    -0.13271    -0.03851    -0.06163    -0.00198    -0.06310
  
  S  H  51  -0.04197    -0.06271     0.06374     0.21306    -0.14980     0.03570
  
  S  H  52   0.08141    -0.06461    -0.06705    -0.10290    -0.03487    -0.18868
  
  S  H  53  -0.08995    -0.11072    -0.00646     0.04907    -0.05449     0.07158
  
  S  H  54   0.13129     0.17143    -0.02403    -0.04955    -0.09812     0.08504




    ROOT NO.   31          32          33          34          35          36

           -19.55047   -18.95669   -18.60955   -17.77055   -17.40973   -17.29591
  
  
  S  C   1   0.00132    -0.04703     0.00472     0.00095     0.00094     0.00319
 PX  C   1  -0.00374     0.27560     0.04067     0.02420     0.01484     0.13045
 PY  C   1   0.01742     0.04448     0.28620     0.06009     0.03331     0.14995
 PZ  C   1   0.25641     0.00477    -0.03107     0.20525     0.19417    -0.12252
  
  S  C   2  -0.00439     0.09554     0.00314     0.00884     0.00581     0.03697
 PX  C   2   0.00195    -0.22602    -0.03072    -0.01897    -0.01175    -0.11399
 PY  C   2   0.02234    -0.03505     0.29204     0.04774     0.02373     0.08855
 PZ  C   2   0.32666     0.00538    -0.03269     0.17182     0.14335    -0.08652
  
  S  C   3   0.00245    -0.03852    -0.03497    -0.01791    -0.01152    -0.06508
 PX  C   3  -0.01335    -0.22273    -0.21512    -0.03731    -0.01680    -0.10015
 PY  C   3  -0.01589     0.13141    -0.23122    -0.04051    -0.02137    -0.05910
 PZ  C   3   0.25191     0.00299    -0.01340    -0.00346    -0.03740     0.03008
  
  S  C   4   0.00246    -0.02465     0.03101     0.00949     0.00589     0.04428
 PX  C   4   0.01206     0.24229     0.22296     0.04390     0.02120     0.13261
 PY  C   4  -0.01964     0.26965    -0.17979    -0.01747    -0.00698     0.00413
 PZ  C   4   0.05739    -0.00096     0.01519    -0.17626    -0.18256     0.11715
  
  S  C   5  -0.00350     0.05118     0.05114     0.01784     0.00984     0.03678
 PX  C   5   0.02578    -0.08153     0.19698    -0.00014    -0.00907    -0.06721
 PY  C   5   0.00404    -0.29378     0.04883     0.00589     0.00405    -0.02679
 PZ  C   5  -0.16378    -0.00402     0.03304    -0.19427    -0.15065     0.08697
  
  S  C   6  -0.00004    -0.04932    -0.09546    -0.02668    -0.01440    -0.07973
 PX  C   6  -0.02357     0.02292    -0.24582    -0.01322     0.00251     0.03228
 PY  C   6   0.00265    -0.28669     0.06472     0.02179     0.01361     0.07151
 PZ  C   6  -0.30739    -0.00492     0.02821    -0.04020     0.02783    -0.03039
  
  S  C   7   0.00229     0.02873    -0.00094     0.00415     0.00166     0.03981
 PX  C   7  -0.02307     0.30246    -0.10189     0.01620     0.01241     0.05907
 PY  C   7   0.01181     0.21009     0.08671    -0.01113    -0.01114    -0.05847
 PZ  C   7  -0.30312    -0.00410     0.00538     0.14748     0.17784    -0.11611
  
  S  C   8  -0.00050     0.02757     0.09588     0.02130    -0.00188     0.00644
 PX  C   8   0.02324    -0.28770     0.13810    -0.01306    -0.01743    -0.08557
 PY  C   8   0.01550     0.07940    -0.10527    -0.05554    -0.04169    -0.19029
 PZ  C   8  -0.14775     0.00326    -0.02625     0.22906     0.14648    -0.07959
  
  S  N   9  -0.00302    -0.06124    -0.06850     0.01573    -0.03354    -0.01931
 PX  N   9   0.01111    -0.20886     0.06282     0.02007     0.00196     0.11419
 PY  N   9  -0.03164     0.08688    -0.01244     0.06037     0.03838     0.18613
 PZ  N   9   0.12492     0.01046    -0.04379     0.11585    -0.11726     0.09842
  
  S  C  10  -0.08519    -0.02023    -0.04687     0.07272     0.10655     0.07839
 PX  C  10  -0.00696    -0.08870     0.04381     0.01839    -0.01587     0.00876
 PY  C  10   0.04004     0.05072     0.05770     0.10445    -0.10638    -0.05262
 PZ  C  10  -0.06086     0.04996     0.08022    -0.01339    -0.03182    -0.08578
  
  S  C  11   0.01637     0.01000     0.00619     0.03735    -0.02572    -0.02963
 PX  C  11  -0.00492    -0.04800    -0.01373    -0.00945     0.03852     0.03713
 PY  C  11   0.02137     0.01367    -0.02415     0.00485     0.05434     0.04625
 PZ  C  11  -0.01110    -0.05364    -0.11348     0.00217     0.11672     0.14432
  
  S  C  12  -0.03048    -0.00133    -0.00787    -0.04544     0.05374     0.02553
 PX  C  12   0.01644    -0.03580    -0.02356    -0.05897     0.01759     0.02026
 PY  C  12   0.02141    -0.04201    -0.07099    -0.08933     0.05895     0.08216
 PZ  C  12   0.10762     0.02175     0.02182    -0.05937    -0.04571    -0.04644
  
  S  C  13   0.04451     0.01374     0.04081    -0.08149     0.00149    -0.09017
 PX  C  13   0.00382    -0.01606     0.00347    -0.03367    -0.01384    -0.03383
 PY  C  13  -0.02927     0.03815     0.06222     0.13550    -0.05742    -0.09949
 PZ  C  13   0.04656     0.06984     0.11735    -0.07453    -0.02745    -0.09956
  
  S  C  14  -0.04453     0.02121     0.02543     0.02255     0.01709     0.03689
 PX  C  14  -0.02162    -0.03023    -0.01607    -0.00301     0.04241     0.04716
 PY  C  14  -0.06701     0.03713     0.03080     0.06650     0.13845     0.05884
 PZ  C  14  -0.07017    -0.07511    -0.14634     0.08656     0.00894     0.17633
  
  S  C  15  -0.02042    -0.02533    -0.01804     0.02780    -0.07205    -0.07036
 PX  C  15   0.00164    -0.06606    -0.01638    -0.03935     0.00914     0.02737
 PY  C  15   0.00638    -0.03858    -0.09781    -0.06977    -0.00813     0.04370
 PZ  C  15   0.02305     0.02294     0.04433    -0.09857     0.06356    -0.13712
  
  S  C  16   0.05263     0.00090     0.02190    -0.12085     0.05973    -0.12786
 PX  C  16   0.00390    -0.06651    -0.02267     0.00450     0.01189     0.04159
 PY  C  16   0.00046    -0.05042    -0.11623     0.02072     0.04582     0.00906
 PZ  C  16  -0.00639    -0.00349    -0.02657     0.05132     0.01716     0.09545
  
  S  C  17   0.07658    -0.00046    -0.03773    -0.06090    -0.02398     0.15780
 PX  C  17   0.00314    -0.08238     0.04690    -0.02680     0.00152     0.01166
 PY  C  17  -0.03043     0.07269     0.11541    -0.06779     0.02476    -0.13907
 PZ  C  17  -0.04335    -0.03116    -0.05632    -0.09811     0.06260     0.00277
  
  S  C  18  -0.01643     0.01538     0.02603    -0.06894     0.01899    -0.07801
 PX  C  18  -0.00265    -0.03338     0.00849     0.03490    -0.03652     0.04650
 PY  C  18  -0.03666     0.00589    -0.02834     0.11574    -0.09812     0.12797
 PZ  C  18  -0.02719     0.05647     0.10963     0.09619    -0.05751    -0.14315
  
  S  C  19   0.02142    -0.00609    -0.02921     0.08618    -0.04448     0.09999
 PX  C  19   0.00996    -0.03236    -0.02351    -0.01518     0.02255     0.02758
 PY  C  19  -0.00559    -0.05837    -0.09833    -0.02801     0.08997     0.03204
 PZ  C  19   0.10835     0.00432    -0.01601    -0.08398     0.02384     0.09266
  
  S  C  20  -0.02349    -0.00532     0.01365    -0.04821     0.03490    -0.10425
 PX  C  20   0.01518     0.00004     0.02405    -0.04993     0.00260    -0.01651
 PY  C  20   0.02906     0.05796     0.09804    -0.12466    -0.01299    -0.10801
 PZ  C  20   0.07599    -0.03123    -0.06236    -0.20200     0.10049     0.02751
  
  S  C  21   0.01384     0.01262     0.00054     0.07790    -0.04183     0.07720
 PX  C  21   0.00813    -0.00774     0.01739     0.00228    -0.02516     0.04617
 PY  C  21   0.04483     0.03843     0.01901    -0.00995    -0.06653     0.14889
 PZ  C  21  -0.07634     0.04671     0.10209     0.09350    -0.07765    -0.11757
  
  S  C  22   0.00817    -0.00391    -0.01315     0.07088    -0.07697     0.00116
 PX  C  22   0.03363    -0.02201    -0.02181    -0.17517     0.00242    -0.06368
 PY  C  22   0.03327     0.03303     0.04590    -0.09488     0.01621    -0.02498
 PZ  C  22  -0.00181     0.00208     0.01585    -0.00130     0.01464    -0.09647
  
  S  C  23   0.01458     0.00069     0.00071    -0.06380     0.00175    -0.01758
 PX  C  23  -0.03270    -0.02609    -0.04710     0.10459    -0.00594     0.07735
 PY  C  23  -0.02376     0.03746     0.06311     0.05544     0.05611    -0.02035
 PZ  C  23  -0.01236    -0.03879    -0.07448     0.06409     0.03021     0.09639
  
  S  C  24  -0.01630    -0.00001     0.00687     0.08951    -0.14163    -0.07410
 PX  C  24   0.00378     0.02661     0.04279     0.05016    -0.13458    -0.07851
 PY  C  24  -0.01017    -0.03883    -0.07032     0.09847    -0.06669     0.04680
 PZ  C  24  -0.00170     0.04791     0.08290    -0.03204     0.09549    -0.04172
  
  S  O  25   0.02194     0.01032     0.01660    -0.19757     0.31266     0.09699
 PX  O  25   0.01718     0.03022     0.05386    -0.22309     0.36906     0.07800
 PY  O  25   0.00646    -0.01496    -0.02866    -0.08014     0.17752     0.09552
 PZ  O  25  -0.00950     0.02350     0.04239     0.06078    -0.04101    -0.05597
  
  S  O  26   0.00367     0.02191     0.03871    -0.07640     0.16518     0.02518
 PX  O  26  -0.01536    -0.06787    -0.11597     0.12813    -0.21800     0.02069
 PY  O  26   0.00280     0.00923     0.00955     0.07289    -0.15206    -0.05732
 PZ  O  26  -0.01422    -0.02804    -0.04127    -0.00841     0.15278     0.07621
  
  S  C  27  -0.01676    -0.03663    -0.07038     0.06858     0.02582     0.11435
 PX  C  27   0.01623     0.02513     0.04601    -0.02853    -0.03898    -0.06702
 PY  C  27  -0.00853     0.01807     0.02574     0.03912     0.01626    -0.00192
 PZ  C  27   0.00394     0.01434     0.02644    -0.02910     0.02261    -0.02190
  
  S  N  28   0.01873     0.02498     0.04962    -0.06492    -0.02861    -0.10217
 PX  N  28   0.00999     0.01278     0.02602    -0.03184    -0.03302    -0.06779
 PY  N  28  -0.00328     0.00968     0.01363     0.02302     0.00762    -0.00148
 PZ  N  28  -0.00083     0.00723     0.01512    -0.02663     0.01334    -0.02861
  
  S  H  29  -0.01448     0.01020    -0.00150     0.13002    -0.03574     0.09531
  
  S  H  30  -0.15707    -0.08520     0.11529    -0.11939    -0.12010     0.10164
  
  S  H  31  -0.01077    -0.12926    -0.21861    -0.05189    -0.02941    -0.15136
  
  S  H  32   0.17289    -0.07903     0.07473     0.15107     0.13739    -0.06125
  
  S  H  33   0.19517     0.00245    -0.13775     0.08978     0.08160    -0.10288
  
  S  H  34  -0.21492    -0.00434    -0.09652    -0.12842    -0.10094     0.00737
  
  S  H  35  -0.16019     0.08494    -0.03785    -0.01177     0.01478    -0.04580
  
  S  H  36   0.15750     0.08901    -0.05475    -0.01582    -0.03283    -0.00730
  
  S  H  37   0.04751    -0.04934     0.14699    -0.09054    -0.10645     0.12922
  
  S  H  38  -0.02473    -0.04851     0.12843     0.13486     0.12797    -0.02123
  
  S  H  39   0.09674    -0.06041    -0.02928     0.13502     0.10538    -0.03136
  
  S  H  40  -0.10969    -0.06612     0.01248    -0.11349    -0.08799     0.08051
  
  S  H  41  -0.20103     0.08419    -0.11190    -0.04943     0.00697    -0.07555
  
  S  H  42   0.18610     0.09186    -0.14831     0.00109    -0.02905    -0.03674
  
  S  H  43   0.20257     0.01856     0.05487    -0.09927    -0.12098     0.05498
  
  S  H  44  -0.17891     0.01356     0.06300     0.08476     0.10789    -0.09472
  
  S  H  45  -0.09793    -0.08924     0.10510     0.16799     0.11514    -0.00712
  
  S  H  46   0.09803    -0.09389     0.13676    -0.12057    -0.08805     0.10683
  
  S  H  47   0.00913     0.01699     0.05503     0.00722    -0.10096    -0.08709
  
  S  H  48  -0.09804    -0.00706    -0.00826     0.04732     0.04815     0.03896
  
  S  H  49  -0.08504     0.01354    -0.00529     0.08057     0.12535     0.12750
  
  S  H  50   0.00150     0.02017     0.06319    -0.09124     0.08356    -0.18628
  
  S  H  51   0.09061     0.00958    -0.00996    -0.01631    -0.01882     0.11819
  
  S  H  52   0.04449     0.01102     0.02993    -0.21485     0.06805    -0.10061
  
  S  H  53   0.05163     0.02141    -0.00789     0.01631    -0.05522     0.19545
  
  S  H  54   0.00884     0.01984     0.02789     0.02279    -0.11262    -0.05416




    ROOT NO.   37          38          39          40          41          42

           -17.05923   -16.65977   -16.41312   -16.09384   -15.92791   -15.71026
  
  
  S  C   1  -0.00264    -0.00194    -0.00589    -0.01001    -0.00359     0.01145
 PX  C   1  -0.07817     0.24028     0.02072    -0.08278    -0.02882     0.08833
 PY  C   1  -0.07084    -0.18614    -0.15768    -0.09845    -0.02818     0.06339
 PZ  C   1  -0.07523     0.03443    -0.08731     0.16933    -0.11173     0.12653
  
  S  C   2  -0.01971    -0.00600    -0.02598    -0.02355    -0.00692     0.01607
 PX  C   2   0.07039    -0.25665    -0.03582     0.07494     0.02684    -0.08507
 PY  C   2  -0.03526    -0.16016    -0.09102    -0.03517    -0.00854     0.01474
 PZ  C   2  -0.04800     0.01780    -0.03850     0.05691    -0.03125     0.02572
  
  S  C   3   0.03527     0.00999     0.04462     0.04700     0.01435    -0.03646
 PX  C   3   0.04685    -0.08706    -0.01584     0.00533     0.00010     0.00446
 PY  C   3   0.01846     0.27523     0.13218     0.03422     0.00731    -0.00711
 PZ  C   3   0.02647    -0.01783     0.05330    -0.12155     0.08576    -0.10444
  
  S  C   4  -0.02703     0.07200     0.00102    -0.03346    -0.01153     0.03440
 PX  C   4  -0.06622     0.12861     0.01185    -0.02671    -0.00732     0.01519
 PY  C   4  -0.00879     0.08187     0.00812    -0.00940    -0.00294     0.00354
 PZ  C   4   0.07319    -0.03269     0.07952    -0.13912     0.08492    -0.08405
  
  S  C   5  -0.01378    -0.09317    -0.04566    -0.00721    -0.00021    -0.00654
 PX  C   5   0.04617     0.06515     0.11647     0.10896     0.03422    -0.08818
 PY  C   5   0.01959    -0.19384    -0.06158    -0.00773    -0.00166     0.00618
 PZ  C   5   0.04209    -0.00950     0.00699     0.02994    -0.03398     0.05917
  
  S  C   6   0.03889    -0.02247     0.01997     0.02261     0.00547    -0.00849
 PX  C   6  -0.03121    -0.04969    -0.10088    -0.10542    -0.03390     0.09226
 PY  C   6  -0.04386     0.08250     0.00030    -0.05898    -0.02105     0.06651
[...]
    Config     466   0.04926389  0.00242693
    Config     467  -0.05992710  0.00359126
    Config     471  -0.06203936  0.00384888
    Config     475  -0.05155824  0.00265825
    Config     479  -0.11835762  0.01400853
    Config     480  -0.04266064  0.00181993
    Config     483  -0.05396469  0.00291219
    Config     489   0.05936309  0.00352398
    Config     490   0.08608333  0.00741034
    Config     493   0.11677692  0.01363685
    Config     495  -0.14429111  0.02081992
    Config     499   0.05422523  0.00294038
    Config     500   0.07536834  0.00568039
    Config     502   0.10483099  0.01098954
    Config     521  -0.04244305  0.00180141
    Config     534  -0.16863901  0.02843911
    Config     535   0.04393179  0.00193000
    Config     546  -0.08536362  0.00728695
    Config     550   0.06222913  0.00387246
    Config     554   0.07240929  0.00524310
    Config     561   0.08445612  0.00713284
    Config     571  -0.04058042  0.00164677
    Config     579   0.04266627  0.00182041
    Config     581  -0.06845271  0.00468577
    Config     583   0.04234366  0.00179299
    Config     584   0.08442484  0.00712755
    Config     586   0.06689302  0.00447468
    Config     590  -0.05508867  0.00303476
    Config     594  -0.04894536  0.00239565
    Config     597  -0.12524068  0.01568523
    Config     606  -0.04656334  0.00216814
    Config     614   0.05864586  0.00343934
    Config     618  -0.08871477  0.00787031
    Config     619  -0.04835651  0.00233835
    Config     620  -0.04688036  0.00219777
    Config     622  -0.05918772  0.00350319
    Config     633   0.10135431  0.01027270
    Config     640  -0.09882871  0.00976711
    Config     642  -0.05690890  0.00323862
    Config     644   0.07045332  0.00496367
    Config     647  -0.11532253  0.01329929
    Config     659   0.07591307  0.00576279
    Config     662   0.07066660  0.00499377
    Config     667  -0.04387773  0.00192526
    Config     669   0.05865226  0.00344009
    Config     672   0.07454009  0.00555623
    Config     682  -0.04496768  0.00202209
    Config     683   0.04527394  0.00204973
    Config     687  -0.06006175  0.00360741
    Config     692  -0.05318821  0.00282899
    Config     693  -0.04113799  0.00169233
    Config     697   0.05033346  0.00253346
    Config     700  -0.05621032  0.00315960
    Config     701   0.05436866  0.00295595
    Config     703  -0.05392265  0.00290765
    Config     712   0.06706460  0.00449766
    Config     713  -0.07367205  0.00542757
    Config     714   0.05455960  0.00297675
    Config     718   0.04871355  0.00237301
    Config     747  -0.05987302  0.00358478
    Config     768   0.06787666  0.00460724
    Config     772  -0.05680553  0.00322687
    Config     778  -0.06974847  0.00486485
    Config     779   0.04838091  0.00234071
    Config     783  -0.04206029  0.00176907
    Config     804  -0.04375577  0.00191457
    Config     807   0.08056943  0.00649143
    Config     822  -0.08269176  0.00683793
    Config     824   0.04222783  0.00178319
    Config     869  -0.05722345  0.00327452
    Config     876   0.04327790  0.00187298
    Config     883  -0.04451416  0.00198151
    Config    1065  -0.04987062  0.00248708
 Total coeff printed             0.75930797
  

 -------------------------------------------------------------------------------
 INDO CIS EPS=4.81 N**2=1.4
 Dye30
 Calculo de Estados Excitados


     1SCF WAS SPECIFIED, SO BFGS WAS NOT USED                 
     SCF FIELD WAS ACHIEVED                                   


                              INDO CALCULATION
                                                       MOPAC2016 (Version: 21.013L)
                                                       Thu Oct 21 12:00:06 2021
                                                       No. of days remaining =  84




          FINAL HEAT OF FORMATION =    -116035.23229 KCAL/MOL = -485491.41191 KJ/MOL
          VAN DER WAALS AREA      =        429.71 SQUARE ANGSTROMS


          TOTAL ENERGY            =      -5283.32904 EV
          ELECTRONIC ENERGY       =     -11657.45304 EV  POINT GROUP:     C1  
          CORE-CORE REPULSION     =       6374.12400 EV

          DIELECTRIC ENERGY       =         -0.41432 EV
          COSMO AREA              =        429.71 SQUARE ANGSTROMS
          COSMO VOLUME            =        479.20 CUBIC ANGSTROMS

          IONIZATION POTENTIAL    =          7.622811 EV
          HOMO LUMO ENERGIES (EV) =         -7.623 -0.836
          NO. OF FILLED LEVELS    =         72
          MOLECULAR WEIGHT        =        374.4816

          MOLECULAR DIMENSIONS (Angstroms)

            Atom       Atom       Distance
            H    31    O    25    18.14920
            H    54    H    51     9.74492
            H    52    H    46     4.56015


          SCF CALCULATIONS        =          2
 
          WALL-CLOCK TIME         =  8 MINUTES AND 37.738 SECONDS
          COMPUTATION TIME        =  8 MINUTES AND 45.768 SECONDS




   ATOM   CHEMICAL          X               Y               Z
  NUMBER   SYMBOL      (ANGSTROMS)     (ANGSTROMS)     (ANGSTROMS)
 
     1       C          0.00000000  *   0.00000000  *   0.00000000  *
     2       C          1.51997831  *   0.00000000  *   0.00000000  *
     3       C          2.06080397  *   1.42767083  *   0.00000000  *
     4       C          3.58768885  *   1.42880246  *   0.00128664  *
     5       C          4.12634266  *   2.85773186  *  -0.00082470  *
     6       C          5.65350313  *   2.85871736  *   0.00126360  *
     7       C          6.18778575  *   4.28809461  *  -0.00360368  *
     8       C          7.72379861  *   4.27395376  *  -0.00294532  *
     9       N          8.27343722  *   5.62606746  *  -0.01167112  *
    10       C          8.33760784  *   6.45931328  *  -1.13767708  *
    11       C          8.12127998  *   6.15535509  *  -2.48267360  *
    12       C          8.29753569  *   7.17356824  *  -3.40051033  *
    13       C          8.69420619  *   8.46217341  *  -3.00374701  *
    14       C          8.89697601  *   8.77221553  *  -1.66187519  *
    15       C          8.71181327  *   7.77041065  *  -0.72688946  *
    16       C          8.82324476  *   7.74546275  *   0.70911695  *
    17       C          8.51665483  *   6.42322741  *   1.12888331  *
    18       C          8.52153769  *   6.06945040  *   2.47538773  *
    19       C          8.84845077  *   7.05984156  *   3.38857414  *
    20       C          9.16193759  *   8.36132215  *   2.98270931  *
    21       C          9.15332946  *   8.71555328  *   1.64219450  *
    22       C          8.85679599  *   9.47714762  *  -4.02904461  *
    23       C          9.89954882  *  10.32517142  *  -4.06513148  *
    24       C         10.05750787  *  11.36332554  *  -5.09365308  *
    25       O         11.08167878  *  11.94262766  *  -5.41385492  *
    26       O          8.90136327  *  11.67626608  *  -5.72326190  *
    27       C         10.96951192  *  10.26654835  *  -3.13431208  *
    28       N         11.84830049  *  10.23051802  *  -2.38374217  *
    29       H          8.07297157  *   9.51277554  *  -4.79932306  *
    30       H         -0.41717422  *   0.50650552  *  -0.88231588  *
    31       H         -0.40912344  *  -1.02071985  *  -0.00031637  *
    32       H         -0.41717643  *   0.50594463  *   0.88263854  *
    33       H          1.90221829  *  -0.56126680  *   0.87884301  *
    34       H          1.90225159  *  -0.56133533  *  -0.87878421  *
    35       H          1.67373834  *   1.98462134  *  -0.87939038  *
    36       H          1.67239028  *   1.98515564  *   0.87846916  *
    37       H          3.97275614  *   0.87226647  *   0.88185920  *
    38       H          3.97441082  *   0.86879486  *  -0.87634968  *
    39       H          3.74124788  *   3.41418680  *  -0.88143768  *
    40       H          3.73914281  *   3.41766966  *   0.87668864  *
    41       H          6.03795269  *   2.30452674  *   0.88377365  *
    42       H          6.04060278  *   2.29711028  *  -0.87539817  *
    43       H          5.80863972  *   4.84677304  *  -0.88561749  *
    44       H          5.80629063  *   4.85301588  *   0.87305851  *
    45       H          8.11968663  *   3.72623193  *   0.88330332  *
    46       H          8.11895823  *   3.71997068  *  -0.88671577  *
    47       H          7.82156767  *   5.15571248  *  -2.80293555  *
    48       H          8.13335998  *   6.96753844  *  -4.46380747  *
    49       H          9.17076106  *   9.77959624  *  -1.33501677  *
    50       H          8.27998989  *   5.05865428  *   2.80807688  *
    51       H          8.86290322  *   6.81784966  *   4.45618053  *
    52       H          9.41910645  *   9.10918566  *   3.73817333  *
    53       H          9.40210456  *   9.72980960  *   1.31953485  *
    54       H          9.04334286  *  12.36422331  *  -6.38885113  *

                             CARTESIAN COORDINATES

   1    C        0.000000000     0.000000000     0.000000000
   2    C        1.519978313     0.000000000     0.000000000
   3    C        2.060803966     1.427670834     0.000000000
   4    C        3.587688849     1.428802458     0.001286644
   5    C        4.126342663     2.857731864    -0.000824698
   6    C        5.653503125     2.858717358     0.001263598
   7    C        6.187785753     4.288094607    -0.003603676
   8    C        7.723798608     4.273953756    -0.002945323
   9    N        8.273437224     5.626067455    -0.011671116
  10    C        8.337607843     6.459313284    -1.137677082
  11    C        8.121279984     6.155355095    -2.482673603
  12    C        8.297535692     7.173568243    -3.400510328
  13    C        8.694206188     8.462173408    -3.003747009
  14    C        8.896976010     8.772215528    -1.661875193
  15    C        8.711813266     7.770410652    -0.726889455
  16    C        8.823244762     7.745462752     0.709116952
  17    C        8.516654830     6.423227410     1.128883315
  18    C        8.521537688     6.069450405     2.475387730
  19    C        8.848450772     7.059841558     3.388574144
  20    C        9.161937595     8.361322145     2.982709305
  21    C        9.153329462     8.715553277     1.642194495
  22    C        8.856795987     9.477147620    -4.029044608
  23    C        9.899548822    10.325171420    -4.065131478
  24    C       10.057507870    11.363325540    -5.093653078
  25    O       11.081678780    11.942627660    -5.413854923
  26    O        8.901363268    11.676266080    -5.723261897
  27    C       10.969511920    10.266548350    -3.134312085
  28    N       11.848300490    10.230518020    -2.383742167
  29    H        8.072971571     9.512775537    -4.799323057
  30    H       -0.417174218     0.506505524    -0.882315879
  31    H       -0.409123444    -1.020719847    -0.000316368
  32    H       -0.417176429     0.505944633     0.882638541
  33    H        1.902218287    -0.561266800     0.878843009
  34    H        1.902251591    -0.561335326    -0.878784205
  35    H        1.673738339     1.984621339    -0.879390384
  36    H        1.672390282     1.985155636     0.878469156
  37    H        3.972756144     0.872266475     0.881859198
  38    H        3.974410816     0.868794862    -0.876349681
  39    H        3.741247883     3.414186799    -0.881437682
  40    H        3.739142814     3.417669657     0.876688640
  41    H        6.037952686     2.304526742     0.883773649
  42    H        6.040602781     2.297110281    -0.875398170
  43    H        5.808639725     4.846773036    -0.885617492
  44    H        5.806290629     4.853015884     0.873058505
  45    H        8.119686628     3.726231933     0.883303325
  46    H        8.118958225     3.719970677    -0.886715766
  47    H        7.821567673     5.155712481    -2.802935548
  48    H        8.133359982     6.967538437    -4.463807466
  49    H        9.170761056     9.779596237    -1.335016771
  50    H        8.279989889     5.058654278     2.808076876
  51    H        8.862903218     6.817849656     4.456180531
  52    H        9.419106454     9.109185663     3.738173329
  53    H        9.402104556     9.729809597     1.319534845
  54    H        9.043342863    12.364223310    -6.388851132


           Empirical Formula: C24 H26 N2 O2  =    54 atoms



      MOLECULAR POINT GROUP   :   C1  


                  EIGENVALUES  
 -48.63431 -46.78685 -43.57626 -43.09999 -42.13799 -40.17545 -39.55022 -38.91513
 -37.31306 -36.29691 -34.89263 -32.89188 -32.47665 -31.36079 -30.28705 -29.05888
 -27.03006 -26.58524 -26.10364 -25.37431 -25.23557 -24.42364 -24.06947 -23.87957
 -23.24976 -21.47143 -21.38284 -20.72929 -19.74116 -19.57326 -19.55047 -18.95669
 -18.60955 -17.77055 -17.40973 -17.29591 -17.05923 -16.65977 -16.41312 -16.09384
 -15.92791 -15.71026 -15.40363 -15.18037 -15.01892 -14.91066 -14.73138 -14.36934
 -14.17580 -13.80447 -13.67710 -13.52817 -13.42530 -13.32644 -13.13840 -12.93924
 -12.84094 -12.74431 -12.50204 -12.46396 -12.13175 -12.04329 -11.94165 -11.81761
 -11.56026 -11.08358 -10.82851 -10.12859  -9.85605  -8.93834  -7.84314  -7.62281
  -0.83643   0.09737   0.65261   0.86786   1.11931   1.40536   1.80269   2.15777
   2.51199   2.73165   2.83712   2.99023   3.17626   3.35322   3.40644   3.51719
   3.79428   3.81963   4.00324   4.02234   4.21128   4.31664   4.48215   4.74370
   4.85850   5.06969   5.28887   5.44125   5.60795   5.80375   6.16006   6.27916
   6.42534   6.53210   6.66607   6.71709   6.73896   6.74671   6.75997   6.84416
   6.96079   6.98923   7.06017   7.99053   8.15552   8.39629   8.46561   8.59204
   8.62492   8.68112   8.84501   8.99333   9.79908   9.92663  10.42688  10.80745
  10.96700  11.45302  11.59027  11.80703  12.55607  12.92933  13.02683  13.83930
  14.12861  14.95414


              NET ATOMIC CHARGES AND DIPOLE CONTRIBUTIONS

  ATOM NO.   TYPE          CHARGE      No. of ELECS.   s-Pop       p-Pop       
    1          C          -0.027763        4.0278     1.05489     2.97288
    2          C          -0.006898        4.0069     1.04476     2.96214
    3          C          -0.008468        4.0085     1.05051     2.95796
    4          C          -0.011278        4.0113     1.05208     2.95919
    5          C          -0.011084        4.0111     1.05195     2.95913
    6          C          -0.011325        4.0113     1.05103     2.96029
    7          C          -0.004228        4.0042     1.05252     2.95171
    8          C           0.074037        3.9260     1.04916     2.87680
    9          N          -0.150522        5.1505     1.24713     3.90339
   10          C           0.089866        3.9101     1.05148     2.85866
   11          C          -0.038083        4.0381     1.07679     2.96129
   12          C          -0.011394        4.0114     1.08200     2.92939
   13          C          -0.006317        4.0063     1.03574     2.97058
   14          C          -0.004834        4.0048     1.08231     2.92252
   15          C          -0.015970        4.0160     1.04930     2.96666
   16          C          -0.016585        4.0166     1.04689     2.96970
   17          C           0.076872        3.9231     1.05134     2.87178
   18          C          -0.041901        4.0419     1.07543     2.96647
   19          C          -0.021527        4.0215     1.08077     2.94076
   20          C          -0.042014        4.0420     1.07763     2.96438
   21          C          -0.018168        4.0182     1.07934     2.93883
   22          C           0.121243        3.8788     1.10421     2.77455
   23          C           0.017965        3.9820     1.00356     2.97848
   24          C           0.502247        3.4978     1.04598     2.45177
   25          O          -0.590152        6.5902     1.81520     4.77495
   26          O          -0.311855        6.3119     1.68865     4.62320
   27          C           0.213576        3.7864     1.15011     2.63632
   28          N          -0.388132        5.3881     1.75347     3.63467
   29          H           0.064004        0.9360     0.93600
   30          H           0.007720        0.9923     0.99228
   31          H           0.000544        0.9995     0.99946
   32          H           0.007784        0.9922     0.99222
   33          H           0.006258        0.9937     0.99374
   34          H           0.006170        0.9938     0.99383
   35          H           0.006730        0.9933     0.99327
   36          H           0.006834        0.9932     0.99317
   37          H           0.006738        0.9933     0.99326
   38          H           0.006617        0.9934     0.99338
   39          H           0.006528        0.9935     0.99347
   40          H           0.006705        0.9933     0.99329
   41          H           0.008458        0.9915     0.99154
   42          H           0.008160        0.9918     0.99184
   43          H           0.011499        0.9885     0.98850
   44          H           0.011490        0.9885     0.98851
   45          H           0.021040        0.9790     0.97896
   46          H           0.020495        0.9795     0.97950
   47          H           0.029616        0.9704     0.97038
   48          H           0.027616        0.9724     0.97238
   49          H           0.035315        0.9647     0.96468
   50          H           0.026933        0.9731     0.97307
   51          H           0.020153        0.9798     0.97985
   52          H           0.017745        0.9823     0.98225
   53          H           0.025484        0.9745     0.97452
   54          H           0.246051        0.7539     0.75395
 DIPOLE           X         Y         Z       TOTAL
 POINT-CHG.    -7.612    -5.569     0.308     9.437
 HYBRID        -1.026     0.333    -1.272     1.668
 SUM           -8.639    -5.236    -0.964    10.148


          ATOMIC ORBITAL ELECTRON POPULATIONS

     Atom    s        px        py        pz   
    1  C   1.05489   0.99073   0.98903   0.99312
    2  C   1.04476   0.99102   0.98533   0.98579
    3  C   1.05051   0.99083   0.98026   0.98687
    4  C   1.05208   0.99057   0.98212   0.98651
    5  C   1.05195   0.98934   0.98333   0.98646
    6  C   1.05103   0.99263   0.97976   0.98790
    7  C   1.05252   0.97214   0.98868   0.99089
    8  C   1.04916   0.99248   0.88601   0.99831
    9  N   1.24713   1.66560   1.13048   1.10731
   10  C   1.05148   0.97830   0.96202   0.91834
   11  C   1.07679   1.03485   0.95771   0.96874
   12  C   1.08200   0.98735   0.98815   0.95389
   13  C   1.03574   1.03847   0.96632   0.96579
   14  C   1.08231   0.98710   0.95881   0.97661
   15  C   1.04930   1.02708   0.97639   0.96320
   16  C   1.04689   1.03101   0.97956   0.95913
   17  C   1.05134   0.99471   0.96403   0.91305
   18  C   1.07543   1.04216   0.95455   0.96976
   19  C   1.08077   0.99717   0.99447   0.94911
   20  C   1.07763   1.02634   0.96934   0.96870
   21  C   1.07934   0.99641   0.95101   0.99141
   22  C   1.10421   0.92651   0.91452   0.93352
   23  C   1.00356   0.98986   1.00756   0.98106
   24  C   1.04598   0.84137   0.80833   0.80208
   25  O   1.81520   1.45117   1.60007   1.72371
   26  O   1.68865   1.45871   1.61685   1.54764
   27  C   1.15011   0.90199   0.84456   0.88977
   28  N   1.75347   1.22160   1.19522   1.21785
   29  H   0.93600
   30  H   0.99228
   31  H   0.99946
   32  H   0.99222
   33  H   0.99374
   34  H   0.99383
   35  H   0.99327
   36  H   0.99317
   37  H   0.99326
   38  H   0.99338
   39  H   0.99347
   40  H   0.99329
   41  H   0.99154
   42  H   0.99184
   43  H   0.98850
   44  H   0.98851
   45  H   0.97896
   46  H   0.97950
   47  H   0.97038
   48  H   0.97238
   49  H   0.96468
   50  H   0.97307
   51  H   0.97985
   52  H   0.98225
   53  H   0.97452
   54  H   0.75395

 **********************
 *                    *
 * JOB ENDED NORMALLY *
 *                    *
 **********************



 TOTAL JOB TIME:           518.09 SECONDS

 == MOPAC DONE ==
