 *******************************************************************************
 ** Site#: 37966        For non-commercial use only           Version 21.186W **
 *******************************************************************************
 ** Cite this program as: MOPAC2016, Version: 21.186W, James J. P. Stewart,   **
 ** Stewart Computational Chemistry, web: HTTP://OpenMOPAC.net. Days left: 254**
 *******************************************************************************
 **                                                                           **
 **                                MOPAC2016                                  **
 **                                                                           **
 *******************************************************************************

                              INDO CALCULATION RESULTS

 *******************************************************************************
 *  CALCULATION DONE:                                Sun Oct 24 21:41:11 2021  *
 *  INDO       - The INDO Hamiltonian to be used
 *  CIS        - C.I. USES 1 ELECTRON EXCITATIONS ONLY
 *  EPS=7.58   - USE ANDREAS KLAMT'S COSMO IMPLICIT SOLVATION MODEL
 *  N**2=1.40  - USED IN COSMO-CI
 *  T=         - A TIME OF 172800.0 SECONDS REQUESTED
 *  DUMP=N     - RESTART FILE WRITTEN EVERY 7200.0 SECONDS REQUESTED
 *******************************************************************************
INDO CIS EPS=7.58 N**2=1.40
 DyeE2
 Calculo de Estados Excitados
   ATOM   CHEMICAL          X               Y               Z
  NUMBER   SYMBOL      (ANGSTROMS)     (ANGSTROMS)     (ANGSTROMS)
 
     1       C          0.00000000  *   0.00000000  *   0.00000000  *
     2       C          1.51998080  *   0.00000000  *   0.00000000  *
     3       C          2.06039737  *   1.42784716  *   0.00000000  *
     4       C          3.58731909  *   1.42866817  *  -0.00185368  *
     5       C          4.12240971  *   2.85773291  *  -0.00297641  *
     6       C          5.65798129  *   2.84449109  *  -0.00091418  *
     7       N          6.21855947  *   4.19616006  *   0.03906095  *
     8       C          6.07922385  *   5.00561345  *   1.18629983  *
     9       C          5.85549422  *   4.61850753  *   2.50675926  *
    10       C          5.82928673  *   5.61152335  *   3.47016513  *
    11       C          6.01757353  *   6.95988714  *   3.13279184  *
    12       C          6.23839257  *   7.34781119  *   1.81331266  *
    13       C          6.26620480  *   6.36864229  *   0.83473625  *
    14       C          6.44971588  *   6.41241955  *  -0.59655811  *
    15       C          6.36212627  *   5.06763235  *  -1.07257684  *
    16       C          6.49316757  *   4.76766017  *  -2.42602225  *
    17       C          6.41743447  *   3.41358485  *  -2.96486573  *
    18       C          5.20591636  *   2.92574663  *  -3.44976712  *
    19       C          5.14457689  *   1.64363322  *  -3.98163266  *
    20       C          6.28669951  *   0.85312266  *  -4.03203746  *
    21       C          7.49489996  *   1.34457073  *  -3.55194438  *
    22       C          7.56515246  *   2.62563337  *  -3.01864150  *
    23       C          6.71309534  *   5.83654736  *  -3.28082632  *
    24       C          6.80325710  *   7.18221702  *  -2.80466107  *
    25       C          6.67195846  *   7.48163979  *  -1.45246085  *
    26       C          6.74766498  *   8.83605615  *  -0.91451074  *
    27       C          5.60444380  *   9.63142255  *  -0.87957085  *
    28       C          5.67518462  *  10.91362598  *  -0.34887844  *
    29       C          6.87967777  *  11.39927450  *   0.14608418  *
    30       C          8.01757073  *  10.60170379  *   0.11352755  *
    31       C          7.95545217  *   9.31812479  *  -0.41448655  *
    32       N          6.93498989  *   8.05803281  *  -3.91615181  *
    33       C          7.07508170  *   7.24278292  *  -5.06605708  *
    34       C          6.88939698  *   5.88121445  *  -4.71330428  *
    35       C          6.90865409  *   4.90383563  *  -5.69574007  *
    36       C          7.11902856  *   5.29013404  *  -7.01180860  *
    37       C          7.30797091  *   6.63258437  *  -7.34842366  *
    38       C          7.29118167  *   7.63029107  *  -6.38591658  *
    39       C          7.56327999  *   9.38057136  *  -3.86826519  *
    40       C          9.09616899  *   9.29418589  *  -3.84925470  *
    41       C          9.69949289  *  10.69567651  *  -3.83509643  *
    42       C         11.22462479  *  10.62317195  *  -3.82126722  *
    43       C         11.83310596  *  12.02326403  *  -3.80446845  *
    44       C         13.35125888  *  11.95021647  *  -3.79043812  *
    45       C          5.99372625  *   7.97169614  *   4.16219026  *
    46       C          6.84421212  *   9.03561975  *   4.25746039  *
    47       C          6.54613247  *   9.86385599  *   5.38626297  *
    48       C          5.47942693  *   9.39294462  *   6.09977002  *
    49       S          4.82897914  *   7.95958944  *   5.41782679  *
    50       C          4.91951366  *   9.97058136  *   7.27815993  *
    51       C          3.59010252  *  10.11698358  *   7.56714025  *
    52       C          3.38229884  *  10.72278381  *   8.84533239  *
    53       C          4.56421538  *  11.01113138  *   9.47342014  *
    54       S          5.92268184  *  10.56463006  *   8.53205549  *
    55       C          4.73600295  *  11.64136057  *  10.75011733  *
    56       C          3.92045437  *  11.41679432  *  11.79732723  *
    57       C          4.08702352  *  12.07560842  *  13.10091588  *
    58       O          3.62433251  *  11.72549782  *  14.17333476  *
    59       O          4.84512639  *  13.19481514  *  13.04498768  *
    60       C          2.84648032  *  10.49083710  *  11.75074701  *
    61       N          1.96944517  *   9.73751270  *  11.72904204  *
    62       H         -0.40905286  *  -1.02074924  *  -0.00072457  *
    63       H         -0.41715542  *   0.50557412  *   0.88287226  *
    64       H         -0.41728295  *   0.50693098  *  -0.88202597  *
    65       H          1.90207691  *  -0.56118945  *   0.87896125  *
    66       H          1.90232731  *  -0.56139072  *  -0.87870270  *
    67       H          1.67204399  *   1.98563886  *  -0.87829157  *
    68       H          1.67366540  *   1.98470403  *   0.87961181  *
    69       H          3.97377686  *   0.87059945  *   0.87730392  *
    70       H          3.97240130  *   0.87115306  *  -0.88213056  *
    71       H          3.74573280  *   3.41617313  *  -0.88627355  *
    72       H          3.73817439  *   3.42094633  *   0.87400130  *
    73       H          6.05798786  *   2.29668714  *  -0.88324201  *
    74       H          6.05173821  *   2.28209201  *   0.87854639  *
    75       H          5.70723527  *   3.57287713  *   2.78312030  *
    76       H          5.66401072  *   5.33497220  *   4.51678393  *
    77       H          6.37517827  *   8.40181788  *   1.55433019  *
    78       H          4.31009652  *   3.55327466  *  -3.41694027  *
    79       H          4.19494695  *   1.25742383  *  -4.36338779  *
    80       H          6.23519665  *  -0.15537329  *  -4.45238984  *
    81       H          8.39410931  *   0.72314130  *  -3.59588678  *
    82       H          8.51579483  *   3.01712419  *  -2.64430520  *
    83       H          4.65710524  *   9.24524432  *  -1.26775855  *
    84       H          4.77921192  *  11.54060557  *  -0.31910001  *
    85       H          6.93167022  *  12.40907129  *   0.56319602  *
    86       H          8.96480997  *  10.98427757  *   0.50459357  *
    87       H          8.84819835  *   8.68574535  *  -0.43506862  *
    88       H          6.76382087  *   3.85027433  *  -5.44168525  *
    89       H          7.13838268  *   4.53282919  *  -7.80031107  *
    90       H          7.47431592  *   6.90230794  *  -8.39618204  *
    91       H          7.44030070  *   8.67494017  *  -6.66412065  *
    92       H          7.20671437  *   9.96139001  *  -4.75134962  *
    93       H          7.17968950  *   9.94650434  *  -2.99014035  *
    94       H          9.43559542  *   8.71273514  *  -2.96573384  *
    95       H          9.46251887  *   8.71863598  *  -4.72590649  *
    96       H          9.34960745  *  11.27704391  *  -4.71445914  *
    97       H          9.33237515  *  11.26569863  *  -2.95515628  *
    98       H         11.57645157  *  10.04085609  *  -2.94350211  *
    99       H         11.59350172  *  10.05471399  *  -4.70113080  *
   100       H         11.48666178  *  12.60912664  *  -4.68209374  *
   101       H         11.46976147  *  12.59544095  *  -2.92464521  *
   102       H         13.80890827  *  12.95004331  *  -3.77813487  *
   103       H         13.73518973  *  11.41739110  *  -2.90853073  *
   104       H         13.75206500  *  11.43149920  *  -4.67325845  *
   105       H          7.66373613  *   9.24454571  *   3.57417806  *
   106       H          7.11310205  *  10.76113647  *   5.62233233  *
   107       H          2.77080865  *   9.82004623  *   6.91623070  *
   108       H          2.38813656  *  10.94243228  *   9.23085954  *
   109       H          5.59191901  *  12.32677562  *  10.83791824  *
   110       H          4.92901541  *  13.60190596  *  13.91900331  *
 


          CARTESIAN COORDINATES 

    NO.       ATOM           X           Y           Z

     1         C          0.0000      0.0000      0.0000
     2         C          1.5200      0.0000      0.0000
     3         C          2.0604      1.4278      0.0000
     4         C          3.5873      1.4287     -0.0019
     5         C          4.1224      2.8577     -0.0030
     6         C          5.6580      2.8445     -0.0009
     7         N          6.2186      4.1962      0.0391
     8         C          6.0792      5.0056      1.1863
     9         C          5.8555      4.6185      2.5068
    10         C          5.8293      5.6115      3.4702
    11         C          6.0176      6.9599      3.1328
    12         C          6.2384      7.3478      1.8133
    13         C          6.2662      6.3686      0.8347
    14         C          6.4497      6.4124     -0.5966
    15         C          6.3621      5.0676     -1.0726
    16         C          6.4932      4.7677     -2.4260
    17         C          6.4174      3.4136     -2.9649
    18         C          5.2059      2.9257     -3.4498
    19         C          5.1446      1.6436     -3.9816
    20         C          6.2867      0.8531     -4.0320
    21         C          7.4949      1.3446     -3.5519
    22         C          7.5652      2.6256     -3.0186
    23         C          6.7131      5.8365     -3.2808
    24         C          6.8033      7.1822     -2.8047
    25         C          6.6720      7.4816     -1.4525
    26         C          6.7477      8.8361     -0.9145
    27         C          5.6044      9.6314     -0.8796
    28         C          5.6752     10.9136     -0.3489
    29         C          6.8797     11.3993      0.1461
    30         C          8.0176     10.6017      0.1135
    31         C          7.9555      9.3181     -0.4145
    32         N          6.9350      8.0580     -3.9162
    33         C          7.0751      7.2428     -5.0661
    34         C          6.8894      5.8812     -4.7133
    35         C          6.9087      4.9038     -5.6957
    36         C          7.1190      5.2901     -7.0118
    37         C          7.3080      6.6326     -7.3484
    38         C          7.2912      7.6303     -6.3859
    39         C          7.5633      9.3806     -3.8683
    40         C          9.0962      9.2942     -3.8493
    41         C          9.6995     10.6957     -3.8351
    42         C         11.2246     10.6232     -3.8213
    43         C         11.8331     12.0233     -3.8045
    44         C         13.3513     11.9502     -3.7904
    45         C          5.9937      7.9717      4.1622
    46         C          6.8442      9.0356      4.2575
    47         C          6.5461      9.8639      5.3863
    48         C          5.4794      9.3929      6.0998
    49         S          4.8290      7.9596      5.4178
    50         C          4.9195      9.9706      7.2782
    51         C          3.5901     10.1170      7.5671
    52         C          3.3823     10.7228      8.8453
    53         C          4.5642     11.0111      9.4734
    54         S          5.9227     10.5646      8.5321
    55         C          4.7360     11.6414     10.7501
    56         C          3.9205     11.4168     11.7973
    57         C          4.0870     12.0756     13.1009
    58         O          3.6243     11.7255     14.1733
    59         O          4.8451     13.1948     13.0450
    60         C          2.8465     10.4908     11.7507
    61         N          1.9694      9.7375     11.7290
    62         H         -0.4091     -1.0207     -0.0007
    63         H         -0.4172      0.5056      0.8829
    64         H         -0.4173      0.5069     -0.8820
    65         H          1.9021     -0.5612      0.8790
    66         H          1.9023     -0.5614     -0.8787
    67         H          1.6720      1.9856     -0.8783
    68         H          1.6737      1.9847      0.8796
    69         H          3.9738      0.8706      0.8773
    70         H          3.9724      0.8712     -0.8821
    71         H          3.7457      3.4162     -0.8863
    72         H          3.7382      3.4209      0.8740
    73         H          6.0580      2.2967     -0.8832
    74         H          6.0517      2.2821      0.8785
    75         H          5.7072      3.5729      2.7831
    76         H          5.6640      5.3350      4.5168
    77         H          6.3752      8.4018      1.5543
    78         H          4.3101      3.5533     -3.4169
    79         H          4.1949      1.2574     -4.3634
    80         H          6.2352     -0.1554     -4.4524
    81         H          8.3941      0.7231     -3.5959
    82         H          8.5158      3.0171     -2.6443
    83         H          4.6571      9.2452     -1.2678
    84         H          4.7792     11.5406     -0.3191
    85         H          6.9317     12.4091      0.5632
    86         H          8.9648     10.9843      0.5046
    87         H          8.8482      8.6857     -0.4351
    88         H          6.7638      3.8503     -5.4417
    89         H          7.1384      4.5328     -7.8003
    90         H          7.4743      6.9023     -8.3962
    91         H          7.4403      8.6749     -6.6641
    92         H          7.2067      9.9614     -4.7513
    93         H          7.1797      9.9465     -2.9901
    94         H          9.4356      8.7127     -2.9657
    95         H          9.4625      8.7186     -4.7259
    96         H          9.3496     11.2770     -4.7145
    97         H          9.3324     11.2657     -2.9552
    98         H         11.5765     10.0409     -2.9435
    99         H         11.5935     10.0547     -4.7011
   100         H         11.4867     12.6091     -4.6821
   101         H         11.4698     12.5954     -2.9246
   102         H         13.8089     12.9500     -3.7781
   103         H         13.7352     11.4174     -2.9085
   104         H         13.7521     11.4315     -4.6733
   105         H          7.6637      9.2445      3.5742
   106         H          7.1131     10.7611      5.6223
   107         H          2.7708      9.8200      6.9162
   108         H          2.3881     10.9424      9.2309
   109         H          5.5919     12.3268     10.8379
   110         H          4.9290     13.6019     13.9190

           Empirical Formula: C54 H49 N3 O2 S2  =   110 atoms



      MOLECULAR POINT GROUP   :   C1  


      RHF CALCULATION, NO. OF DOUBLY OCCUPIED LEVELS = 152

 WARNING: INDO only performs single-point calculations


 ALL CONVERGERS ARE NOW FORCED ON
 SHIFT=10, PULAY ON, CAMP-KING ON
 AND ITERATION COUNTER RESET



 Summary of symmetry occupancy in each shell:

 SHELL     
    1  152
    v  141
 TOTAL 293




    ROOT NO.    1           2           3           4           5           6

           -49.18567   -48.01091   -46.80054   -44.98557   -44.30755   -43.71543
  
  
  S  C   1   0.00329    -0.00527    -0.00001     0.01153     0.00210    -0.00825
 PX  C   1   0.00147    -0.00230    -0.00000     0.00462     0.00083    -0.00314
 PY  C   1   0.00053    -0.00080    -0.00000     0.00141     0.00022    -0.00092
 PZ  C   1  -0.00001    -0.00000     0.00000    -0.00005    -0.00005    -0.00001
  
  S  C   2   0.00784    -0.01192    -0.00002     0.02246     0.00405    -0.01469
 PX  C   2   0.00170    -0.00232    -0.00000     0.00295     0.00055    -0.00125
 PY  C   2   0.00263    -0.00387    -0.00001     0.00633     0.00103    -0.00389
 PZ  C   2  -0.00003    -0.00000     0.00000    -0.00021    -0.00023    -0.00007
  
  S  C   3   0.01729    -0.02458    -0.00004     0.03624     0.00553    -0.02158
 PX  C   3   0.00620    -0.00826    -0.00001     0.00934     0.00133    -0.00439
 PY  C   3   0.00142    -0.00152    -0.00000    -0.00082    -0.00064     0.00099
 PZ  C   3  -0.00009    -0.00004     0.00000    -0.00078    -0.00085    -0.00020
  
  S  C   4   0.03579    -0.04749    -0.00008     0.05450     0.00763    -0.02795
 PX  C   4   0.00651    -0.00738    -0.00001     0.00335     0.00040     0.00024
 PY  C   4   0.01164    -0.01470    -0.00002     0.01139    -0.00008    -0.00604
 PZ  C   4  -0.00038    -0.00018     0.00000    -0.00314    -0.00343    -0.00090
  
  S  C   5   0.08241    -0.10220    -0.00015     0.06993    -0.00422    -0.04185
 PX  C   5   0.03129    -0.03697    -0.00005     0.01422    -0.00551    -0.01079
 PY  C   5   0.01124    -0.01206    -0.00001    -0.00699    -0.00803    -0.00111
 PZ  C   5  -0.00022    -0.00196     0.00000    -0.00794    -0.00904    -0.00120
  
  S  C   6   0.14562    -0.17305    -0.00023     0.08788    -0.01567    -0.05817
 PX  C   6   0.00812    -0.00727    -0.00001    -0.00292    -0.00146     0.00071
 PY  C   6   0.06376    -0.07485    -0.00009     0.01041    -0.02487    -0.02630
 PZ  C   6  -0.00156    -0.00390     0.00001    -0.02024    -0.02282    -0.00374
  
  S  N   7   0.31451    -0.35718    -0.00042     0.05260    -0.09680    -0.11293
 PX  N   7  -0.02127     0.02831     0.00004    -0.01072     0.00797     0.01007
 PY  N   7   0.06473    -0.06564    -0.00005    -0.03109    -0.03246    -0.01471
 PZ  N   7  -0.00332    -0.00833     0.00002    -0.02562    -0.02866     0.00775
  
  S  C   8   0.23952    -0.28249    -0.00014    -0.06917    -0.13293     0.02080
 PX  C   8   0.01039    -0.00984    -0.00001    -0.00372    -0.00239    -0.00510
 PY  C   8   0.00466     0.00003     0.00008    -0.04713    -0.00781     0.04502
 PZ  C   8  -0.08445     0.08786     0.00018    -0.02625     0.00987     0.08112
  
  S  C   9   0.09628    -0.12585     0.00008    -0.06885    -0.09055     0.09609
 PX  C   9   0.00671    -0.00832     0.00000    -0.00539    -0.00565     0.00485
 PY  C   9   0.02164    -0.02845     0.00008    -0.03989    -0.02876     0.05701
 PZ  C   9  -0.04052     0.04931     0.00006     0.00152     0.02039     0.01452
  
  S  C  10   0.05967    -0.08129     0.00032    -0.09223    -0.07921     0.16640
 PX  C  10   0.00429    -0.00563     0.00002    -0.00673    -0.00495     0.01036
 PY  C  10   0.00512    -0.00658     0.00014    -0.02013    -0.00838     0.04515
 PZ  C  10  -0.02863     0.03771    -0.00002     0.03197     0.03003    -0.03861
  
  S  C  11   0.06297    -0.08216     0.00068    -0.12501    -0.07611     0.24421
 PX  C  11   0.00148    -0.00134     0.00002    -0.00341     0.00047     0.00400
 PY  C  11  -0.01506     0.02146     0.00017     0.00907     0.02102     0.00586
 PZ  C  11  -0.02106     0.02478     0.00013     0.02400     0.01117    -0.00058
  
  S  C  12   0.08941    -0.09655     0.00035    -0.14132    -0.03937     0.16200
 PX  C  12  -0.00173     0.00421    -0.00001     0.00183     0.00783    -0.00975
 PY  C  12  -0.03494     0.04649     0.00001     0.02579     0.04208    -0.03405
 PZ  C  12  -0.01453     0.00561     0.00017     0.00192    -0.02477     0.05724
  
  S  C  13   0.20616    -0.21294    -0.00000    -0.13264    -0.07170     0.05525
 PX  C  13  -0.00185     0.00622    -0.00001     0.00048     0.00891    -0.00760
 PY  C  13  -0.06279     0.08035     0.00010    -0.01435     0.05144     0.02331
 PZ  C  13  -0.03896     0.02037     0.00014    -0.01896    -0.02639     0.07878
  
  S  C  14   0.24808    -0.15068    -0.00016    -0.08611     0.02472    -0.05957
 PX  C  14  -0.00611     0.01669     0.00001    -0.00218     0.01133     0.00039
 PY  C  14  -0.05892     0.08188     0.00011    -0.04019     0.05462     0.02355
 PZ  C  14   0.00005    -0.06423    -0.00000    -0.02252    -0.04418     0.01687
  
  S  C  15   0.28422    -0.21307    -0.00031     0.04815     0.00411    -0.08625
 PX  C  15  -0.00493     0.01674     0.00001    -0.00192     0.00859     0.00342
 PY  C  15   0.01239     0.02733     0.00004    -0.04731     0.00173    -0.00205
 PZ  C  15   0.05805    -0.11674    -0.00009    -0.03793    -0.07175    -0.02968
  
  S  C  16   0.19055    -0.03105    -0.00017     0.15396     0.11953    -0.00738
 PX  C  16   0.00060     0.01049     0.00001    -0.00241    -0.00121     0.00134
 PY  C  16   0.03624     0.02862     0.00002    -0.04777    -0.03664    -0.02628
 PZ  C  16   0.02425    -0.05699    -0.00005    -0.02743    -0.02046    -0.03202
  
  S  C  17   0.11081    -0.03615    -0.00016     0.28495     0.25904     0.09102
 PX  C  17  -0.00052     0.00354     0.00000    -0.00350    -0.00291    -0.00042
 PY  C  17   0.01720     0.00539     0.00000    -0.04713    -0.06241    -0.03662
 PZ  C  17   0.01165    -0.01868    -0.00002    -0.02201    -0.02878    -0.02457
  
  S  C  18   0.06376    -0.02371    -0.00011     0.23433     0.22803     0.09292
 PX  C  18   0.02296    -0.00687    -0.00004     0.08539     0.08302     0.03458
 PY  C  18   0.00583     0.00223     0.00000    -0.03026    -0.04067    -0.02227
 PZ  C  18   0.01010    -0.00914    -0.00002     0.00802     0.00251    -0.00504
  
  S  C  19   0.03542    -0.01539    -0.00008     0.19872     0.20945     0.09459
 PX  C  19   0.01268    -0.00506    -0.00003     0.07383     0.07821     0.03583
 PY  C  19   0.00996    -0.00327    -0.00002     0.03747     0.03545     0.01458
 PZ  C  19   0.00769    -0.00479    -0.00002     0.03265     0.03257     0.01299
  
  S  C  20   0.03009    -0.01344    -0.00007     0.19029     0.20537     0.09491
 PX  C  20   0.00055    -0.00004    -0.00000     0.00374     0.00423     0.00210
 PY  C  20   0.01451    -0.00599    -0.00003     0.08006     0.08365     0.03773
 PZ  C  20   0.00626    -0.00348    -0.00001     0.03311     0.03460     0.01505
  
  S  C  21   0.03452    -0.01495    -0.00007     0.19672     0.20907     0.09482
 PX  C  21  -0.01198     0.00559     0.00003    -0.06956    -0.07365    -0.03338
 PY  C  21   0.01274    -0.00469    -0.00002     0.05493     0.05462     0.02330
 PZ  C  21   0.00291    -0.00244    -0.00001     0.00595     0.00476     0.00063
  
  S  C  22   0.06189    -0.02359    -0.00011     0.23040     0.22739     0.09298
 PX  C  22  -0.02344     0.01034     0.00004    -0.08817    -0.08603    -0.03481
 PY  C  22   0.01154    -0.00086    -0.00001    -0.00872    -0.01927    -0.01394
 PZ  C  22   0.00138    -0.00514    -0.00000    -0.02395    -0.02820    -0.01705
  
  S  C  23   0.24442     0.15680    -0.00003     0.09744     0.01418    -0.00308
 PX  C  23   0.00563     0.01646     0.00001    -0.00292    -0.01132     0.00143
 PY  C  23   0.05744     0.08313     0.00005    -0.03832    -0.05437    -0.01318
 PZ  C  23   0.00144    -0.06333    -0.00005    -0.01589     0.04625    -0.02427
  
  S  C  24   0.28059     0.22114     0.00004    -0.03103    -0.00029    -0.03580
 PX  C  24   0.00429     0.01655     0.00001    -0.00236    -0.00895     0.00177
 PY  C  24  -0.01211     0.02758     0.00004    -0.04773     0.00035     0.00054
 PZ  C  24  -0.05543    -0.11744    -0.00006    -0.03660     0.07858    -0.01580
  
  S  C  25   0.19101     0.03724    -0.00001    -0.13867     0.12981    -0.04765
 PX  C  25  -0.00076     0.01067     0.00001    -0.00236     0.00108     0.00069
 PY  C  25  -0.03640     0.02773     0.00006    -0.05012     0.04007     0.01190
 PZ  C  25  -0.02332    -0.05809    -0.00001    -0.03025     0.02475     0.00468
  
  S  C  26   0.11147     0.03982     0.00009    -0.27475     0.28268    -0.02631
 PX  C  26   0.00060     0.00368     0.00000    -0.00353     0.00324    -0.00041
 PY  C  26  -0.01732     0.00480     0.00002    -0.04747     0.06788     0.00198
 PZ  C  26  -0.01135    -0.01936     0.00001    -0.02365     0.03146     0.00625
  
  S  C  27   0.06226     0.02577     0.00007    -0.22348     0.24783    -0.01676
 PX  C  27   0.02354     0.01118     0.00003    -0.08534     0.09350    -0.00621
 PY  C  27  -0.01177    -0.00143     0.00000    -0.00866     0.02044     0.00095
 PZ  C  27  -0.00091    -0.00514     0.00001    -0.02548     0.03205     0.00168
  
  S  C  28   0.03478     0.01608     0.00006    -0.19196     0.22784    -0.01154
 PX  C  28   0.01205     0.00597     0.00002    -0.06771     0.07998    -0.00388
 PY  C  28  -0.01292    -0.00514    -0.00002     0.05398    -0.06001     0.00299
 PZ  C  28  -0.00267    -0.00247     0.00000     0.00436    -0.00393     0.00148
  
  S  C  29   0.03038     0.01437     0.00006    -0.18608     0.22382    -0.01027
 PX  C  29  -0.00054    -0.00006    -0.00000     0.00364    -0.00464     0.00031
 PY  C  29  -0.01468    -0.00644    -0.00003     0.07840    -0.09125     0.00391
 PZ  C  29  -0.00623    -0.00369    -0.00001     0.03190    -0.03754     0.00278
  
  S  C  30   0.03580     0.01645     0.00007    -0.19442     0.22832    -0.01031
 PX  C  30  -0.01277    -0.00540    -0.00002     0.07201    -0.08499     0.00368
 PY  C  30  -0.01004    -0.00352    -0.00001     0.03639    -0.03826     0.00144
 PZ  C  30  -0.00783    -0.00516    -0.00001     0.03230    -0.03659     0.00348
  
  S  C  31   0.06434     0.02562     0.00008    -0.22815     0.24881    -0.01530
 PX  C  31  -0.02305    -0.00741    -0.00003     0.08289    -0.09024     0.00497
 PY  C  31  -0.00579     0.00216     0.00001    -0.03039     0.04476    -0.00082
 PZ  C  31  -0.01029    -0.00973     0.00000     0.00783    -0.00421     0.00490
  
  S  N  32   0.30742     0.36420     0.00015    -0.03881    -0.10612    -0.01563
 PX  N  32   0.02408     0.03288     0.00002    -0.01050    -0.00940    -0.00228
 PY  N  32  -0.06390    -0.06788    -0.00001    -0.03059     0.03616    -0.00437
 PZ  N  32   0.00439    -0.00692    -0.00000    -0.02258     0.02976    -0.00930
  
  S  C  33   0.23292     0.28595     0.00011     0.05994    -0.13882     0.03093
 PX  C  33  -0.00950    -0.00929    -0.00000    -0.00463     0.00303    -0.00026
 PY  C  33  -0.00420     0.00063     0.00001    -0.03944     0.00712    -0.01668
 PZ  C  33   0.08282     0.09032     0.00003    -0.01473    -0.01545    -0.01634
  
  S  C  34   0.20032     0.21529     0.00005     0.11920    -0.07812     0.04677
 PX  C  34   0.00187     0.00624     0.00001    -0.00118    -0.00822     0.00147
 PY  C  34   0.06135     0.08183     0.00004    -0.01226    -0.05310    -0.00562
 PZ  C  34   0.03898     0.02250    -0.00001    -0.00538     0.02100    -0.01762
  
  S  C  35   0.08387     0.09297     0.00001     0.10816    -0.03441     0.05648
 PX  C  35   0.00165     0.00407     0.00000     0.00002    -0.00687     0.00121
 PY  C  35   0.03413     0.04709     0.00002     0.02017    -0.04175     0.01304
 PZ  C  35   0.01613     0.00883    -0.00001     0.01508     0.01736     0.00095
  
  S  C  36   0.05471     0.07282     0.00002     0.07232    -0.05739     0.04651
 PX  C  36  -0.00102    -0.00084     0.00000    -0.00194    -0.00065    -0.00083
 PY  C  36   0.01678     0.02462     0.00001     0.01443    -0.02483     0.01061
 PZ  C  36   0.02215     0.02754     0.00001     0.02685    -0.01600     0.01530
  
  S  C  37   0.05540     0.07768     0.00003     0.06022    -0.06941     0.04184
 PX  C  37  -0.00380    -0.00514    -0.00000    -0.00450     0.00426    -0.00283
 PY  C  37  -0.00341    -0.00417    -0.00000    -0.00969     0.00371    -0.00576
 PZ  C  37   0.02793     0.03816     0.00001     0.02555    -0.03010     0.01670
  
  S  C  38   0.09284     0.12582     0.00005     0.05044    -0.08837     0.03615
 PX  C  38  -0.00619    -0.00798    -0.00000    -0.00447     0.00561    -0.00240
 PY  C  38  -0.02056    -0.02786    -0.00001    -0.02954     0.02670    -0.01808
 PZ  C  38   0.03977     0.05051     0.00002     0.00301    -0.02267     0.00150
  
  S  C  39   0.14436     0.17876     0.00009    -0.07774    -0.01774    -0.01865
 PX  C  39  -0.01018    -0.01020    -0.00000    -0.00233     0.00237    -0.00089
 PY  C  39  -0.06285    -0.07697    -0.00003     0.00757     0.02728     0.00337
 PZ  C  39   0.00167    -0.00379     0.00000    -0.01901     0.02450    -0.00384
  
  S  C  40   0.08263     0.10653     0.00006    -0.06272    -0.00533    -0.01613
 PX  C  40  -0.03180    -0.03904    -0.00002     0.01210     0.00653     0.00254
 PY  C  40  -0.01001    -0.01098    -0.00000    -0.00743     0.00851    -0.00194
 PZ  C  40   0.00006    -0.00225     0.00000    -0.00732     0.00971    -0.00155
  
  S  C  41   0.03581     0.04939     0.00003    -0.04968     0.00791    -0.01391
 PX  C  41  -0.00704    -0.00838    -0.00000     0.00357    -0.00047     0.00002
 PY  C  41  -0.01134    -0.01492    -0.00001     0.01014     0.00018     0.00251
 PZ  C  41   0.00028    -0.00031     0.00000    -0.00287     0.00366    -0.00043
  
  S  C  42   0.01733     0.02560     0.00002    -0.03307     0.00572    -0.01082
 PX  C  42  -0.00627    -0.00866    -0.00001     0.00848    -0.00135     0.00219
 PY  C  42  -0.00114    -0.00117    -0.00000    -0.00118     0.00075    -0.00072
 PZ  C  42   0.00003    -0.00013     0.00000    -0.00066     0.00090    -0.00010
  
  S  C  43   0.00785     0.01242     0.00001    -0.02054     0.00421    -0.00751
 PX  C  43  -0.00182    -0.00260    -0.00000     0.00297    -0.00063     0.00077
 PY  C  43  -0.00255    -0.00391    -0.00000     0.00564    -0.00104     0.00193
 PZ  C  43  -0.00001    -0.00006    -0.00000    -0.00013     0.00023    -0.00001
  
  S  C  44   0.00330     0.00549     0.00000    -0.01054     0.00218    -0.00419
 PX  C  44  -0.00150    -0.00243    -0.00000     0.00428    -0.00087     0.00162
 PY  C  44  -0.00046    -0.00072    -0.00000     0.00108    -0.00019     0.00038
 PZ  C  44  -0.00001    -0.00003    -0.00000     0.00001     0.00005     0.00001
  
  S  C  45   0.02136    -0.02912     0.00173    -0.08275    -0.04164     0.29325
 PX  C  45   0.00124    -0.00138     0.00005    -0.00573    -0.00103     0.01701
 PY  C  45  -0.00500     0.00701     0.00052     0.00170     0.00474     0.04121
 PZ  C  45  -0.00714     0.00865     0.00043     0.01162     0.00329     0.01850
  
  S  C  46   0.01099    -0.01465     0.00187    -0.06025    -0.02560     0.26171
 PX  C  46  -0.00251     0.00373    -0.00061     0.01598     0.00856    -0.07926
 PY  C  46  -0.00366     0.00493    -0.00007     0.01283     0.00610    -0.03366
 PZ  C  46  -0.00158     0.00112     0.00059    -0.00224    -0.00498     0.05208
  
  S  C  47   0.00486    -0.00731     0.00317    -0.04233    -0.02186     0.25588
 PX  C  47  -0.00081     0.00136    -0.00102     0.00858     0.00513    -0.06019
 PY  C  47  -0.00198     0.00296    -0.00053     0.01531     0.00778    -0.08063
 PZ  C  47  -0.00112     0.00142     0.00060     0.00583     0.00164    -0.01243
  
  S  C  48   0.00402    -0.00637     0.00634    -0.03983    -0.02288     0.28679
 PX  C  48   0.00085    -0.00130    -0.00087    -0.00695    -0.00327     0.02767
 PY  C  48  -0.00066     0.00099     0.00105     0.00353     0.00161    -0.00354
 PZ  C  48  -0.00160     0.00238     0.00178     0.01133     0.00519    -0.03715
  
  S  S  49   0.00667    -0.00996     0.00241    -0.03889    -0.02228     0.20206
 PX  S  49   0.00299    -0.00450     0.00064    -0.01854    -0.01024     0.09134
 PY  S  49   0.00010    -0.00027     0.00124    -0.00897    -0.00438     0.07250
 PZ  S  49  -0.00298     0.00425     0.00041     0.01124     0.00613    -0.02938
  
  S  C  50   0.00114    -0.00202     0.01775    -0.02019    -0.01472     0.26903
 PX  C  50   0.00020    -0.00031    -0.00387    -0.00070     0.00030    -0.02494
 PY  C  50  -0.00019     0.00029     0.00277     0.00122     0.00029     0.00962
 PZ  C  50  -0.00045     0.00070     0.00587     0.00317     0.00093     0.01593
  
  S  C  51   0.00048    -0.00092     0.02045    -0.01288    -0.01072     0.22854
 PX  C  51   0.00020    -0.00038     0.00561    -0.00477    -0.00378     0.07604
 PY  C  51  -0.00002     0.00003     0.00317    -0.00037    -0.00059     0.01891
 PZ  C  51  -0.00006     0.00008     0.00717    -0.00081    -0.00130     0.04145
  
  S  C  52   0.00023    -0.00050     0.03757    -0.00984    -0.00919     0.21945
 PX  C  52   0.00009    -0.00019     0.01150    -0.00372    -0.00343     0.08063
 PY  C  52  -0.00003     0.00006     0.00214     0.00084     0.00069    -0.01418
 PZ  C  52  -0.00006     0.00012     0.00780     0.00167     0.00132    -0.02586
  
  S  C  53   0.00021    -0.00045     0.05756    -0.00929    -0.00887     0.21696
 PX  C  53  -0.00002     0.00004    -0.00747     0.00110     0.00111    -0.02843
 PY  C  53  -0.00004     0.00008     0.00407     0.00138     0.00119    -0.02602
 PZ  C  53  -0.00008     0.00016     0.01487     0.00282     0.00238    -0.05046
  
  S  S  54   0.00037    -0.00071     0.02051    -0.00964    -0.00798     0.16994
 PX  S  54  -0.00013     0.00027    -0.01203     0.00486     0.00437    -0.10048
 PY  S  54  -0.00007     0.00013     0.00154     0.00118     0.00076    -0.01104
 PZ  S  54  -0.00018     0.00032     0.00345     0.00279     0.00179    -0.02572
  
  S  C  55   0.00007    -0.00017     0.12856    -0.00359    -0.00387     0.10510
 PX  C  55  -0.00001     0.00003    -0.02488     0.00066     0.00073    -0.02031
 PY  C  55  -0.00002     0.00003     0.00315     0.00096     0.00096    -0.02483
 PZ  C  55  -0.00002     0.00004     0.04965     0.00138     0.00126    -0.02957
  
  S  C  56   0.00004    -0.00012     0.22921    -0.00161    -0.00207     0.06214
 PX  C  56   0.00000    -0.00001     0.02098    -0.00002    -0.00004     0.00123
 PY  C  56  -0.00000     0.00000     0.04688     0.00051     0.00048    -0.01231
 PZ  C  56  -0.00001     0.00002     0.06577     0.00137     0.00135    -0.03500
  
  S  C  57   0.00002    -0.00011     0.51196     0.00189     0.00136    -0.02750
 PX  C  57   0.00000    -0.00001     0.04281     0.00023     0.00020    -0.00509
 PY  C  57   0.00000    -0.00001     0.09428     0.00069     0.00064    -0.01662
 PZ  C  57  -0.00000    -0.00000     0.09557     0.00103     0.00102    -0.02731
  
  S  O  58   0.00001    -0.00008     0.41083     0.00204     0.00168    -0.03910
 PX  O  58   0.00000    -0.00001     0.07742     0.00041     0.00035    -0.00828
 PY  O  58   0.00000    -0.00001     0.07129     0.00041     0.00036    -0.00883
 PZ  O  58  -0.00001     0.00003    -0.14108    -0.00064    -0.00050     0.01101
  
  S  O  59   0.00002    -0.00011     0.57206     0.00271     0.00221    -0.05123
 PX  O  59  -0.00000     0.00002    -0.09348    -0.00043    -0.00034     0.00776
 PY  O  59  -0.00000     0.00002    -0.11409    -0.00045    -0.00033     0.00686
 PZ  O  59   0.00000    -0.00001     0.08582     0.00058     0.00053    -0.01350
  
  S  C  60   0.00003    -0.00008     0.10106    -0.00163    -0.00194     0.05676
 PX  C  60   0.00001    -0.00002     0.03211    -0.00028    -0.00033     0.00917
 PY  C  60   0.00000    -0.00001     0.03297    -0.00009    -0.00013     0.00387
 PZ  C  60  -0.00001     0.00002     0.01469     0.00059     0.00059    -0.01506
  
  S  N  61   0.00001    -0.00003     0.03404    -0.00092    -0.00109     0.03243
 PX  N  61   0.00001    -0.00002     0.01529    -0.00039    -0.00046     0.01348
 PY  N  61   0.00000    -0.00001     0.01413    -0.00031    -0.00037     0.01089
 PZ  N  61  -0.00000     0.00001     0.00250     0.00017     0.00017    -0.00426
  
  S  H  62   0.00100    -0.00164    -0.00000     0.00383     0.00072    -0.00281
  
  S  H  63   0.00145    -0.00231    -0.00000     0.00494     0.00086    -0.00355
  
  S  H  64   0.00145    -0.00231    -0.00000     0.00500     0.00093    -0.00354
  
  S  H  65   0.00342    -0.00518    -0.00001     0.00946     0.00163    -0.00619
  
  S  H  66   0.00346    -0.00518    -0.00001     0.00979     0.00198    -0.00608
  
  S  H  67   0.00785    -0.01088    -0.00002     0.01595     0.00280    -0.00904
  
  S  H  68   0.00773    -0.01096    -0.00002     0.01490     0.00166    -0.00930
  
  S  H  69   0.01530    -0.02052    -0.00003     0.02201     0.00199    -0.01200
  
  S  H  70   0.01609    -0.02047    -0.00003     0.02751     0.00792    -0.01013
  
  S  H  71   0.03936    -0.04566    -0.00007     0.03573     0.00413    -0.01695
  
  S  H  72   0.03891    -0.04900    -0.00006     0.02381    -0.00910    -0.01749
  
  S  H  73   0.05882    -0.06321    -0.00010     0.06474     0.02677    -0.01172
  
  S  H  74   0.05190    -0.06404    -0.00008     0.02866    -0.01098    -0.02020
  
  S  H  75   0.03257    -0.04294     0.00000    -0.01227    -0.02742     0.01952
  
  S  H  76   0.01416    -0.01999     0.00014    -0.02638    -0.02253     0.05698
  
  S  H  77   0.03225    -0.02359     0.00018    -0.07256     0.02238     0.05632
  
  S  H  78   0.02538    -0.00870    -0.00004     0.07058     0.06436     0.02356
  
  S  H  79   0.00863    -0.00392    -0.00002     0.05154     0.05496     0.02507
  
  S  H  80   0.00676    -0.00312    -0.00002     0.04854     0.05368     0.02536
  
  S  H  81   0.00817    -0.00359    -0.00002     0.05056     0.05477     0.02526
  
  S  H  82   0.02376    -0.00830    -0.00004     0.06765     0.06398     0.02382
  
  S  H  83   0.02388     0.00924     0.00002    -0.06517     0.06971    -0.00612
  
  S  H  84   0.00823     0.00387     0.00002    -0.04933     0.05968    -0.00303
  
  S  H  85   0.00683     0.00332     0.00002    -0.04753     0.05850    -0.00253
  
  S  H  86   0.00874     0.00416     0.00002    -0.05054     0.05990    -0.00238
  
  S  H  87   0.02564     0.00944     0.00002    -0.06851     0.07029    -0.00546
  
  S  H  88   0.02993     0.02191    -0.00001     0.06051     0.02234     0.02784
  
  S  H  89   0.01263     0.01670     0.00000     0.02028    -0.01316     0.01325
  
  S  H  90   0.01263     0.01829     0.00001     0.01518    -0.01820     0.01117
  
  S  H  91   0.03147     0.04308     0.00002     0.00842    -0.02712     0.00817
  
  S  H  92   0.05119     0.06582     0.00003    -0.02548    -0.01188    -0.00561
  
  S  H  93   0.05825     0.06535     0.00004    -0.05950     0.02870    -0.01105
  
  S  H  94   0.03984     0.04795     0.00003    -0.03216     0.00393    -0.00794
  
  S  H  95   0.03896     0.05098     0.00003    -0.02121    -0.01002    -0.00531
  
  S  H  96   0.01527     0.02129     0.00001    -0.02005     0.00204    -0.00567
  
  S  H  97   0.01611     0.02131     0.00001    -0.02529     0.00841    -0.00632
  
  S  H  98   0.00788     0.01135     0.00001    -0.01456     0.00290    -0.00465
  
  S  H  99   0.00774     0.01141     0.00001    -0.01357     0.00168    -0.00449
  
  S  H 100   0.00343     0.00540     0.00000    -0.00865     0.00169    -0.00314
  
  S  H 101   0.00347     0.00540     0.00000    -0.00896     0.00207    -0.00318
  
  S  H 102   0.00101     0.00171     0.00000    -0.00350     0.00075    -0.00143
  
  S  H 103   0.00146     0.00241     0.00000    -0.00457     0.00096    -0.00180
  
  S  H 104   0.00145     0.00241     0.00000    -0.00451     0.00089    -0.00180
  
  S  H 105   0.00535    -0.00607     0.00048    -0.02369    -0.00565     0.07858
  
  S  H 106   0.00120    -0.00179     0.00119    -0.01138    -0.00584     0.07428
  
  S  H 107   0.00020    -0.00036     0.00522    -0.00429    -0.00338     0.06785
  
  S  H 108   0.00006    -0.00013     0.01638    -0.00270    -0.00261     0.06437
  
  S  H 109   0.00002    -0.00006     0.05968    -0.00103    -0.00115     0.03152
  
  S  H 110   0.00001    -0.00004     0.24088     0.00123     0.00103    -0.02463




    ROOT NO.    7           8           9          10          11          12

           -43.05713   -42.66804   -42.48276   -42.03857   -41.47342   -40.80004
  
  
  S  C   1   0.02684     0.10385     0.08963     0.13015    -0.06473    -0.15467
 PX  C   1   0.00993     0.03774     0.03227     0.04579    -0.02206    -0.05051
 PY  C   1   0.00278     0.01027     0.00868     0.01191    -0.00547    -0.01176
 PZ  C   1   0.00001    -0.00000     0.00001    -0.00000    -0.00000     0.00000
  
  S  C   2   0.04579     0.17240     0.14665     0.20571    -0.09767    -0.21971
 PX  C   2   0.00300     0.00901     0.00657     0.00556    -0.00028     0.00663
 PY  C   2   0.01147     0.04165     0.03485     0.04673    -0.02076    -0.04257
 PZ  C   2   0.00003    -0.00002     0.00006    -0.00001     0.00000     0.00001
  
  S  C   3   0.06191     0.22142     0.18419     0.24296    -0.10564    -0.21152
 PX  C   3   0.01060     0.03299     0.02530     0.02595    -0.00644     0.00153
 PY  C   3  -0.00477    -0.02129    -0.01911    -0.03081     0.01702     0.04410
 PZ  C   3   0.00004    -0.00005     0.00020    -0.00011    -0.00006     0.00012
  
  S  C   4   0.07159     0.23581     0.18867     0.22333    -0.08070    -0.11940
 PX  C   4  -0.00421    -0.02337    -0.02247    -0.03934     0.02316     0.06027
 PY  C   4   0.01173     0.03040     0.02251     0.01768     0.00005     0.01678
 PZ  C   4   0.00033     0.00004     0.00103    -0.00009    -0.00025     0.00021
  
  S  C   5   0.08074     0.21261     0.16356     0.15101    -0.02406     0.02369
 PX  C   5   0.01175     0.00519     0.00058    -0.02213     0.02550     0.06491
 PY  C   5  -0.00717    -0.04084    -0.03263    -0.04818     0.02374     0.04082
 PZ  C   5  -0.00081     0.00218     0.00317    -0.00177    -0.00324     0.00308
  
  S  C   6   0.08890     0.16399     0.11867     0.05870     0.04429     0.15739
 PX  C   6  -0.00720    -0.03849    -0.03114    -0.03903     0.01916     0.02207
 PY  C   6   0.02638     0.00797     0.00789    -0.02476     0.03864     0.07243
 PZ  C   6  -0.00110     0.00606     0.00870    -0.00402    -0.00747     0.00886
  
  S  N   7   0.11845     0.06833     0.05955    -0.05770     0.13233     0.24141
 PX  N   7  -0.01393    -0.03027    -0.02238    -0.00600    -0.00627    -0.03553
 PY  N   7  -0.00013    -0.05506    -0.03370    -0.03970     0.01528    -0.02105
 PZ  N   7  -0.01880     0.02057     0.01458    -0.01751    -0.03267     0.02240
  
  S  C   8  -0.07305     0.03400     0.01272    -0.11021    -0.09258     0.06935
 PX  C   8   0.00377    -0.01238    -0.00717    -0.00711     0.00940    -0.00108
 PY  C   8  -0.06656    -0.03847    -0.03366    -0.02363    -0.06539    -0.08474
 PZ  C   8  -0.09677     0.01864    -0.00560     0.00578    -0.11996    -0.07550
  
  S  C   9  -0.14634     0.05451     0.00921    -0.06821    -0.18418    -0.01283
 PX  C   9  -0.00845    -0.00109    -0.00218    -0.00706    -0.00853    -0.00090
 PY  C   9  -0.08030     0.00024    -0.01440    -0.02838    -0.08591    -0.04309
 PZ  C   9  -0.00983    -0.01256    -0.01148     0.01644    -0.00404    -0.03453
  
  S  C  10  -0.20755     0.03822    -0.01807    -0.03950    -0.20195    -0.07628
 PX  C  10  -0.01341     0.00106    -0.00181    -0.00364    -0.01273    -0.00563
 PY  C  10  -0.04175     0.00119    -0.00969     0.01034    -0.01269    -0.01970
 PZ  C  10   0.06396    -0.01046     0.00285     0.03294     0.08453     0.02493
  
  S  C  11  -0.25526     0.03565    -0.03263     0.00743    -0.16147    -0.09350
 PX  C  11  -0.00335    -0.00055    -0.00047     0.00108     0.00070    -0.00153
 PY  C  11   0.02926    -0.00387    -0.00033     0.04588     0.08563     0.02207
 PZ  C  11   0.03366     0.00306    -0.00042     0.04271     0.07668     0.03005
  
  S  C  12  -0.20162     0.00018    -0.02193    -0.03757    -0.16742    -0.10988
 PX  C  12   0.01224    -0.00333     0.00176     0.00248     0.01277     0.00349
 PY  C  12   0.06112    -0.00237     0.01255     0.03733     0.08249     0.03102
 PZ  C  12  -0.04940     0.02348    -0.00541     0.01730    -0.02156    -0.00027
  
  S  C  13  -0.11357    -0.05000    -0.03618    -0.09193    -0.11507    -0.08341
 PX  C  13   0.01066    -0.00760    -0.00213     0.00495     0.01344    -0.00370
 PY  C  13  -0.01609    -0.00625    -0.00005     0.03178    -0.01347    -0.05052
 PZ  C  13  -0.09714     0.04557     0.00962    -0.01809    -0.10981    -0.01316
  
  S  C  14   0.04993    -0.17349    -0.09597     0.01866     0.06125    -0.17687
 PX  C  14   0.00195    -0.00676    -0.00519     0.00993     0.00056    -0.01495
 PY  C  14  -0.02368     0.00368     0.00572     0.02398    -0.03856    -0.04354
 PZ  C  14  -0.03735     0.05306     0.03815    -0.06872    -0.03348     0.08191
  
  S  C  15   0.10214    -0.12741    -0.07455     0.02183     0.13974    -0.06884
 PX  C  15  -0.00291    -0.01901    -0.01344     0.00698    -0.00111    -0.02872
 PY  C  15  -0.00471    -0.07508    -0.04589     0.01988    -0.01035    -0.10884
 PZ  C  15   0.01281     0.04737     0.03771    -0.06657     0.01217     0.12534
  
  S  C  16   0.04294    -0.14790    -0.09124     0.07850     0.09130    -0.18607
 PX  C  16  -0.00196    -0.00927    -0.00418     0.00263    -0.00171    -0.01130
 PY  C  16   0.02515    -0.07112    -0.03157     0.04246     0.01334    -0.08343
 PZ  C  16   0.03340    -0.00356    -0.01072     0.00287     0.02971     0.01467
  
  S  C  17  -0.05504    -0.00226    -0.06114    -0.01453    -0.00622    -0.02383
 PX  C  17  -0.00059    -0.00834    -0.00328    -0.00180     0.00280    -0.00573
 PY  C  17   0.03609    -0.05181     0.00750     0.03156     0.04927    -0.06470
 PZ  C  17   0.02709    -0.00484     0.00345     0.01716     0.02422    -0.00230
  
  S  C  18  -0.06758     0.03755    -0.04505    -0.02972    -0.04638     0.02303
 PX  C  18  -0.02612     0.00657    -0.01974    -0.01501    -0.01330     0.00652
 PY  C  18   0.02155    -0.02565     0.01004     0.01672     0.03089    -0.03323
 PZ  C  18   0.00883     0.00197     0.00163     0.00961     0.00880    -0.00299
  
  S  C  19  -0.07756     0.05444    -0.04697    -0.04524    -0.07483     0.05720
 PX  C  19  -0.03004     0.01722    -0.01967    -0.01993    -0.02665     0.02239
 PY  C  19  -0.01049     0.00499    -0.00542    -0.00457    -0.00497     0.00113
 PZ  C  19  -0.00914     0.01016    -0.00560    -0.00331    -0.00906     0.00759
  
  S  C  20  -0.08022     0.05382    -0.05154    -0.05136    -0.08016     0.06633
 PX  C  20  -0.00201    -0.00043    -0.00221    -0.00230    -0.00099     0.00172
 PY  C  20  -0.03092     0.01935    -0.01908    -0.01901    -0.02718     0.02141
 PZ  C  20  -0.01191     0.00942    -0.00792    -0.00678    -0.01152     0.01011
  
  S  C  21  -0.07879     0.04891    -0.05285    -0.05044    -0.07323     0.06080
 PX  C  21   0.02759    -0.01895     0.01733     0.01715     0.02632    -0.02202
 PY  C  21  -0.01794     0.00843    -0.01185    -0.01030    -0.01152     0.00766
 PZ  C  21   0.00066     0.00117    -0.00072     0.00121     0.00142     0.00040
  
  S  C  22  -0.06920     0.02906    -0.05491    -0.03765    -0.04403     0.02813
 PX  C  22   0.02538    -0.01423     0.01829     0.01319     0.01657    -0.01246
 PY  C  22   0.01568    -0.02187     0.00516     0.01398     0.02680    -0.03073
 PZ  C  22   0.01693    -0.00543     0.00643     0.01156     0.01548    -0.00630
  
  S  C  23   0.02433    -0.16996    -0.06787     0.11591     0.02080    -0.17596
 PX  C  23  -0.00316     0.00738     0.00599    -0.00228    -0.00774     0.01488
 PY  C  23   0.01090     0.00239    -0.01576     0.03511    -0.04348     0.04162
 PZ  C  23   0.03598    -0.04911    -0.07181     0.03978     0.02911    -0.08266
  
  S  C  24   0.05584    -0.10629    -0.13230     0.15490    -0.05600    -0.07308
 PX  C  24  -0.00230     0.02273    -0.00048    -0.00543    -0.01085     0.02875
 PY  C  24  -0.00457     0.08290     0.00143    -0.01918    -0.04359     0.10679
 PZ  C  24   0.01715    -0.05795    -0.01544    -0.00598     0.06240    -0.12439
  
  S  C  25   0.05408    -0.14744    -0.09815     0.09570     0.01475    -0.18927
 PX  C  25  -0.00011     0.01078    -0.00042    -0.00010    -0.00442     0.01142
 PY  C  25  -0.01834     0.06830     0.04829    -0.02710    -0.02896     0.08284
 PZ  C  25  -0.01480    -0.00377     0.03280    -0.03749     0.01476    -0.01404
  
  S  C  26   0.01314    -0.03106     0.07462     0.00531     0.00789    -0.02469
 PX  C  26   0.00065     0.00889    -0.00006    -0.00380     0.00136     0.00591
 PY  C  26  -0.00702     0.03556     0.07351    -0.03004     0.01169     0.06656
 PZ  C  26  -0.01155    -0.00351     0.03881    -0.01721     0.00896     0.00324
  
  S  C  27   0.00327    -0.00533     0.11353    -0.01680     0.01613     0.02936
 PX  C  27   0.00122     0.00192     0.04134    -0.00769     0.00578     0.01292
 PY  C  27  -0.00274     0.01406     0.03411    -0.01457     0.00880     0.03175
 PZ  C  27  -0.00470    -0.00102     0.02758    -0.00863     0.00583     0.00710
  
  S  C  28  -0.00210     0.01019     0.13986    -0.03320     0.02638     0.06351
 PX  C  28  -0.00087     0.00556     0.04867    -0.01270     0.00961     0.02295
 PY  C  28   0.00050    -0.00016    -0.02928     0.00545    -0.00377    -0.00810
 PZ  C  28  -0.00149    -0.00090     0.00163    -0.00079     0.00089     0.00011
  
  S  C  29  -0.00313     0.01453     0.14401    -0.03738     0.03019     0.06953
 PX  C  29   0.00011     0.00149    -0.00382    -0.00025     0.00032    -0.00171
 PY  C  29   0.00151    -0.00474    -0.05337     0.01319    -0.00984    -0.02239
 PZ  C  29  -0.00052    -0.00326    -0.02130     0.00592    -0.00406    -0.01041
  
  S  C  30  -0.00287     0.01723     0.13552    -0.03745     0.02983     0.06005
 PX  C  30   0.00156    -0.00272    -0.05260     0.01186    -0.00896    -0.02327
 PY  C  30   0.00069    -0.00071    -0.01472     0.00333    -0.00185    -0.00099
 PZ  C  30  -0.00148    -0.00533    -0.01674     0.00605    -0.00383    -0.00810
  
  S  C  31   0.00196     0.00566     0.10671    -0.02466     0.02059     0.02402
 PX  C  31   0.00038     0.00581    -0.04074     0.00467    -0.00389    -0.00663
 PY  C  31  -0.00201     0.01475     0.04453    -0.01604     0.01074     0.03475
 PZ  C  31  -0.00599    -0.00446     0.01357    -0.00358     0.00227     0.00336
  
  S  N  32   0.02716     0.11089    -0.11146     0.09233    -0.16160     0.23281
 PX  N  32   0.00367     0.03955    -0.02002    -0.00577    -0.01377     0.03830
 PY  N  32   0.00441     0.05620    -0.01557    -0.03915     0.01714     0.01889
 PZ  N  32   0.01430    -0.01576    -0.03304     0.02907    -0.00745    -0.02283
  
  S  C  33  -0.05258     0.01152     0.14939    -0.06110    -0.00177     0.07302
 PX  C  33  -0.00048     0.01259     0.00105    -0.01232     0.00666     0.00225
 PY  C  33   0.02691     0.06225    -0.09050     0.03407    -0.05285     0.08026
 PZ  C  33   0.03325     0.01355    -0.11840     0.10136    -0.09240     0.06989
  
  S  C  34  -0.06588    -0.08753     0.17868    -0.05805     0.05774    -0.07624
 PX  C  34  -0.00420     0.00451     0.01525    -0.01152     0.00472     0.00456
 PY  C  34   0.00349     0.00993     0.00159     0.01905    -0.03168     0.04979
 PZ  C  34   0.03798    -0.01572    -0.12815     0.10185    -0.06220     0.00883
  
  S  C  35  -0.08631    -0.06037     0.24096    -0.14484     0.11787    -0.10215
 PX  C  35  -0.00378    -0.00092     0.01608    -0.01008     0.00768    -0.00276
 PY  C  35  -0.02730    -0.02000     0.10078    -0.05273     0.04384    -0.02652
 PZ  C  35   0.00698    -0.00799    -0.04192     0.03304    -0.02217    -0.00051
  
  S  C  36  -0.08326    -0.04242     0.26742    -0.17000     0.13403    -0.08809
 PX  C  36   0.00090     0.00115    -0.00134     0.00049    -0.00046     0.00141
 PY  C  36  -0.02164    -0.00857     0.07675    -0.04735     0.03597    -0.01677
 PZ  C  36  -0.02512    -0.01502     0.07456    -0.04449     0.03436    -0.02515
  
  S  C  37  -0.07927    -0.02893     0.26478    -0.17160     0.12971    -0.06770
 PX  C  37   0.00512     0.00325    -0.01678     0.00972    -0.00762     0.00489
 PY  C  37   0.01000     0.01096    -0.03259     0.01832    -0.01788     0.01860
 PZ  C  37  -0.03067    -0.01091     0.09942    -0.06179     0.04440    -0.02082
  
  S  C  38  -0.06850     0.00725     0.22007    -0.14777     0.08829    -0.00493
 PX  C  38   0.00427     0.00437    -0.01411     0.00513    -0.00327     0.00092
 PY  C  38   0.03321     0.02650    -0.11154     0.06280    -0.05284     0.03869
 PZ  C  38  -0.00182     0.01674    -0.00181     0.00281    -0.01774     0.03415
  
  S  C  39   0.02855     0.20335    -0.12276    -0.02855    -0.05311     0.15325
 PX  C  39   0.00239     0.04351    -0.02219    -0.03526     0.02898    -0.02412
 PY  C  39  -0.00569    -0.01879     0.02255    -0.02969     0.04833    -0.06894
 PZ  C  39   0.00467    -0.00650    -0.00370     0.00774     0.00021    -0.00949
  
  S  C  40   0.02751     0.25573    -0.14872    -0.11243     0.04468     0.02416
 PX  C  40  -0.00302    -0.00590     0.00392    -0.02355     0.03899    -0.06483
 PY  C  40   0.00388     0.04754    -0.02629    -0.03856     0.03510    -0.03630
 PZ  C  40   0.00197    -0.00222    -0.00219     0.00298     0.00027    -0.00416
  
  S  C  41   0.02632     0.28060    -0.16476    -0.17471     0.13191    -0.11461
 PX  C  41   0.00133     0.02616    -0.01842    -0.03073     0.03750    -0.05915
 PY  C  41  -0.00412    -0.03765     0.02110     0.01461    -0.00227    -0.01363
 PZ  C  41   0.00044    -0.00032     0.00039     0.00029     0.00047    -0.00096
  
  S  C  42   0.02280     0.26378    -0.16061    -0.19114     0.17236    -0.20429
 PX  C  42  -0.00381    -0.03786     0.02112     0.01908    -0.00901    -0.00377
 PY  C  42   0.00202     0.02726    -0.01767    -0.02535     0.02825    -0.04261
 PZ  C  42   0.00010    -0.00021     0.00011     0.00011     0.00017    -0.00048
  
  S  C  43   0.01696     0.20556    -0.12790    -0.16220     0.15947    -0.21262
 PX  C  43  -0.00133    -0.01301     0.00709     0.00611    -0.00197    -0.00455
 PY  C  43  -0.00417    -0.04904     0.03008     0.03653    -0.03381     0.04139
 PZ  C  43  -0.00002    -0.00052     0.00035     0.00036    -0.00027     0.00027
  
  S  C  44   0.00993     0.12394    -0.07826    -0.10269     0.10581    -0.14983
 PX  C  44  -0.00372    -0.04555     0.02849     0.03651    -0.03641     0.04938
 PY  C  44  -0.00085    -0.01006     0.00621     0.00763    -0.00719     0.00901
 PZ  C  44  -0.00004    -0.00052     0.00033     0.00042    -0.00040     0.00054
  
  S  C  45  -0.15314     0.03749    -0.03901     0.16862     0.14497     0.01786
 PX  C  45  -0.01016     0.00204    -0.00218     0.01218     0.01241     0.00165
 PY  C  45   0.01937     0.00258    -0.00484     0.05961     0.10670     0.03844
 PZ  C  45   0.03169     0.00095    -0.00287     0.04332     0.08850     0.03685
  
  S  C  46  -0.09257     0.03066    -0.03364     0.18875     0.22309     0.05588
 PX  C  46   0.02403    -0.00916     0.01059    -0.05807    -0.07068    -0.01883
 PY  C  46   0.02905    -0.00494     0.00493    -0.01352     0.00109     0.00705
 PZ  C  46   0.00390     0.00536    -0.00741     0.05042     0.07938     0.02867
  
  S  C  47  -0.02441     0.02383    -0.02879     0.18563     0.25697     0.08037
 PX  C  47  -0.00371    -0.00428     0.00563    -0.03786    -0.05482    -0.01808
 PY  C  47   0.02353    -0.00966     0.01109    -0.06521    -0.08385    -0.02397
 PZ  C  47   0.02695    -0.00461     0.00444    -0.02157    -0.02091    -0.00320
  
  S  C  48   0.04461     0.01580    -0.02187     0.15763     0.23470     0.07899
 PX  C  48  -0.03163     0.00721    -0.00771     0.04255     0.05323     0.01496
 PY  C  48   0.02923    -0.00467     0.00454    -0.02012    -0.01939    -0.00339
 PZ  C  48   0.05905    -0.01203     0.01253    -0.06537    -0.07698    -0.01984
  
  S  S  49  -0.03880     0.02028    -0.02311     0.12826     0.15688     0.04352
 PX  S  49  -0.02961     0.01105    -0.01234     0.06740     0.08131     0.02190
 PY  S  49   0.00910     0.00477    -0.00677     0.05173     0.07999     0.02720
 PZ  S  49   0.03751    -0.00681     0.00646    -0.02310    -0.01278     0.00175
  
  S  C  50   0.25182    -0.01899     0.01310    -0.01800     0.02785     0.02342
 PX  C  50  -0.06030     0.00794    -0.00748     0.03418     0.03797     0.00980
 PY  C  50   0.03713    -0.00539     0.00526    -0.02552    -0.03022    -0.00854
 PZ  C  50   0.07792    -0.01169     0.01150    -0.05693    -0.06857    -0.01974
  
  S  C  51   0.27721    -0.02681     0.02201    -0.07239    -0.04900    -0.00240
 PX  C  51   0.08378    -0.00745     0.00580    -0.01574    -0.00507     0.00295
 PY  C  51   0.03440    -0.00420     0.00386    -0.01702    -0.01872    -0.00504
 PZ  C  51   0.07492    -0.00911     0.00837    -0.03679    -0.04040    -0.01090
  
  S  C  52   0.31016    -0.03351     0.02923    -0.11485    -0.11109    -0.02602
 PX  C  52   0.11145    -0.01184     0.01023    -0.03909    -0.03592    -0.00744
 PY  C  52  -0.01555     0.00133    -0.00100     0.00208    -0.00112    -0.00185
 PZ  C  52  -0.02548     0.00188    -0.00123     0.00019    -0.00792    -0.00610
  
  S  C  53   0.31655    -0.03500     0.03092    -0.12596    -0.12989    -0.03477
 PX  C  53  -0.04381     0.00501    -0.00449     0.01906     0.02079     0.00607
 PY  C  53  -0.03202     0.00308    -0.00250     0.00774     0.00381    -0.00103
 PZ  C  53  -0.05865     0.00531    -0.00413     0.01055     0.00000    -0.00548
  
  S  S  54   0.20642    -0.02006     0.01654    -0.05542    -0.04012    -0.00407
 PX  S  54  -0.13480     0.01402    -0.01198     0.04436     0.03849     0.00691
 PY  S  54  -0.00406    -0.00033     0.00062    -0.00573    -0.01019    -0.00422
 PZ  S  54  -0.00880    -0.00088     0.00155    -0.01389    -0.02441    -0.01002
  
  S  C  55   0.17349    -0.02078     0.01913    -0.08664    -0.10480    -0.03605
 PX  C  55  -0.03458     0.00423    -0.00393     0.01832     0.02311     0.00851
 PY  C  55  -0.03895     0.00453    -0.00411     0.01794     0.02070     0.00675
 PZ  C  55  -0.04077     0.00430    -0.00370     0.01378     0.01166     0.00164
  
  S  C  56   0.11295    -0.01428     0.01349    -0.06508    -0.08581    -0.03338
 PX  C  56   0.00198    -0.00021     0.00018    -0.00051     0.00018     0.00077
 PY  C  56  -0.01970     0.00235    -0.00216     0.00993     0.01254     0.00487
 PZ  C  56  -0.05566     0.00654    -0.00597     0.02646     0.03099     0.01005
  
  S  C  57  -0.03365     0.00337    -0.00283     0.01012     0.00815     0.00080
 PX  C  57  -0.00829     0.00102    -0.00097     0.00481     0.00713     0.00376
 PY  C  57  -0.02752     0.00338    -0.00317     0.01526     0.02080     0.00917
 PZ  C  57  -0.04592     0.00562    -0.00524     0.02458     0.03116     0.01109
  
  S  O  58  -0.05702     0.00644    -0.00577     0.02454     0.02674     0.00675
 PX  O  58  -0.01252     0.00145    -0.00132     0.00588     0.00704     0.00238
 PY  O  58  -0.01382     0.00164    -0.00151     0.00692     0.00868     0.00322
 PZ  O  58   0.01503    -0.00162     0.00141    -0.00559    -0.00527    -0.00076
  
  S  O  59  -0.07567     0.00872    -0.00793     0.03560     0.04464     0.01797
 PX  O  59   0.01108    -0.00124     0.00112    -0.00482    -0.00568    -0.00205
 PY  O  59   0.00875    -0.00091     0.00078    -0.00304    -0.00309    -0.00097
 PZ  O  59  -0.02190     0.00265    -0.00246     0.01154     0.01494     0.00584
  
  S  C  60   0.10233    -0.01297     0.01228    -0.05989    -0.08089    -0.03311
 PX  C  60   0.01517    -0.00180     0.00164    -0.00714    -0.00791    -0.00215
 PY  C  60   0.00672    -0.00081     0.00074    -0.00320    -0.00342    -0.00079
 PZ  C  60  -0.02346     0.00271    -0.00245     0.01058     0.01187     0.00355
  
  S  N  61   0.05983    -0.00771     0.00737    -0.03685    -0.05163    -0.02229
 PX  N  61   0.02455    -0.00314     0.00299    -0.01476    -0.02034    -0.00858
 PY  N  61   0.01999    -0.00257     0.00245    -0.01214    -0.01685    -0.00717
 PZ  N  61  -0.00658     0.00075    -0.00068     0.00289     0.00315     0.00088
  
  S  H  62   0.00930     0.03635     0.03152     0.04630    -0.02339    -0.05694
  
  S  H  63   0.01151     0.04447     0.03837     0.05564    -0.02764    -0.06598
  
  S  H  64   0.01151     0.04448     0.03836     0.05566    -0.02765    -0.06600
  
  S  H  65   0.01916     0.07189     0.06107     0.08529    -0.04032    -0.09009
  
  S  H  66   0.01910     0.07194     0.06099     0.08530    -0.04035    -0.09010
  
  S  H  67   0.02603     0.09279     0.07697     0.10137    -0.04379    -0.08753
  
  S  H  68   0.02608     0.09280     0.07728     0.10126    -0.04393    -0.08738
  
  S  H  69   0.03003     0.09903     0.07940     0.09305    -0.03388    -0.04898
  
  S  H  70   0.02903     0.09948     0.07778     0.09287    -0.03420    -0.04883
  
  S  H  71   0.03433     0.08646     0.06552     0.06332    -0.00754     0.00722
  
  S  H  72   0.03156     0.09018     0.06992     0.05999    -0.01401     0.01154
  
  S  H  73   0.02919     0.06722     0.03960     0.02727     0.01412     0.05490
  
  S  H  74   0.03081     0.07100     0.05170     0.02530     0.00762     0.06009
  
  S  H  75  -0.03109     0.02858     0.01303    -0.01474    -0.04726     0.01263
  
  S  H  76  -0.06336     0.01335    -0.00623    -0.00269    -0.05197    -0.02126
  
  S  H  77  -0.06216    -0.00480     0.00411    -0.00085    -0.03291    -0.03624
  
  S  H  78  -0.01448     0.00835    -0.00970    -0.00132    -0.00724    -0.00279
  
  S  H  79  -0.02069     0.01642    -0.01171    -0.01136    -0.02196     0.01598
  
  S  H  80  -0.02198     0.01523    -0.01428    -0.01453    -0.02367     0.01996
  
  S  H  81  -0.02144     0.01337    -0.01476    -0.01426    -0.02103     0.01794
  
  S  H  82  -0.01598     0.00176    -0.01687    -0.00733    -0.00554     0.00026
  
  S  H  83   0.00272    -0.00674     0.02464     0.00024     0.00250     0.00037
  
  S  H  84  -0.00058     0.00268     0.03881    -0.00921     0.00762     0.01876
  
  S  H  85  -0.00095     0.00432     0.04036    -0.01074     0.00919     0.02100
  
  S  H  86  -0.00089     0.00652     0.03646    -0.01140     0.00966     0.01693
  
  S  H  87   0.00217     0.00175     0.01937    -0.00563     0.00565    -0.00293
  
  S  H  88  -0.03259    -0.01887     0.05730    -0.04227     0.02911    -0.03554
  
  S  H  89  -0.02353    -0.01194     0.07498    -0.04923     0.03941    -0.02730
  
  S  H  90  -0.02173    -0.00706     0.07410    -0.04968     0.03813    -0.01982
  
  S  H  91  -0.01616     0.01891     0.04946    -0.04256     0.01895     0.01428
  
  S  H  92   0.00860     0.08583    -0.04336    -0.02165    -0.01412     0.05893
  
  S  H  93   0.01429     0.07942    -0.04159    -0.01319    -0.01457     0.05335
  
  S  H  94   0.01289     0.10404    -0.06325    -0.04364     0.01790     0.00716
  
  S  H  95   0.00935     0.10767    -0.05769    -0.05007     0.01932     0.01187
  
  S  H  96   0.01082     0.11789    -0.06884    -0.07333     0.05486    -0.04697
  
  S  H  97   0.01137     0.11765    -0.06723    -0.07303     0.05525    -0.04686
  
  S  H  98   0.00966     0.11051    -0.06724    -0.07961     0.07157    -0.08455
  
  S  H  99   0.00949     0.11060    -0.06727    -0.07980     0.07154    -0.08438
  
  S  H 100   0.00708     0.08572    -0.05324    -0.06728     0.06580    -0.08718
  
  S  H 101   0.00712     0.08572    -0.05315    -0.06727     0.06584    -0.08718
  
  S  H 102   0.00344     0.04340    -0.02752    -0.03655     0.03824    -0.05518
  
  S  H 103   0.00426     0.05308    -0.03350    -0.04391     0.04519    -0.06394
  
  S  H 104   0.00425     0.05308    -0.03351    -0.04391     0.04519    -0.06393
  
  S  H 105  -0.03593     0.00926    -0.00881     0.05206     0.05552     0.01091
  
  S  H 106   0.00076     0.00584    -0.00731     0.05045     0.07299     0.02392
  
  S  H 107   0.07541    -0.00679     0.00534    -0.01516    -0.00633     0.00193
  
  S  H 108   0.09516    -0.01062     0.00942    -0.03884    -0.04079    -0.01129
  
  S  H 109   0.05262    -0.00634     0.00584    -0.02659    -0.03225    -0.01104
  
  S  H 110  -0.03747     0.00439    -0.00402     0.01832     0.02323     0.00924




    ROOT NO.   13          14          15          16          17          18

           -39.64311   -39.08176   -38.80936   -37.78390   -37.34479   -36.45328
  
  
  S  C   1   0.01566     0.04895    -0.15275    -0.20029    -0.19973    -0.01111
 PX  C   1   0.00469     0.01397    -0.04249    -0.04977    -0.04687    -0.00227
 PY  C   1   0.00094     0.00255    -0.00735    -0.00649    -0.00507    -0.00011
 PZ  C   1   0.00000    -0.00000     0.00002    -0.00002     0.00000     0.00001
  
  S  C   2   0.01984     0.05826    -0.17612    -0.20229    -0.18928    -0.00913
 PX  C   2  -0.00190    -0.00776     0.02694     0.04851     0.05383     0.00357
 PY  C   2   0.00307     0.00769    -0.02114    -0.01373    -0.00783     0.00024
 PZ  C   2   0.00000    -0.00001     0.00009    -0.00004     0.00001     0.00003
  
  S  C   3   0.01462     0.03602    -0.09822    -0.06364    -0.03809     0.00066
 PX  C   3  -0.00273    -0.01187     0.04161     0.07328     0.07903     0.00493
 PY  C   3  -0.00490    -0.01563     0.04909     0.06323     0.06142     0.00325
 PZ  C   3   0.00002     0.00000     0.00023    -0.00024     0.00019     0.00009
  
  S  C   4   0.00118    -0.00939     0.04659     0.13091     0.15139     0.01001
 PX  C   4  -0.00621    -0.01828     0.05440     0.05473     0.04497     0.00116
 PY  C   4  -0.00401    -0.01449     0.04725     0.06454     0.06165     0.00306
 PZ  C   4   0.00006    -0.00001     0.00087    -0.00067     0.00082     0.00032
  
  S  C   5  -0.01339    -0.04920     0.15904     0.21475     0.20733     0.00886
 PX  C   5  -0.00672    -0.01704     0.04467     0.02245     0.00788    -0.00251
 PY  C   5  -0.00155    -0.00024    -0.00616    -0.03730    -0.04376    -0.00355
 PZ  C   5   0.00047     0.00067     0.00134    -0.00393     0.00613     0.00116
  
  S  C   6  -0.02320    -0.06575     0.18416     0.15627     0.11290    -0.00282
 PX  C   6   0.00032     0.00613    -0.02770    -0.05868    -0.06774    -0.00489
 PY  C   6  -0.00603    -0.00985     0.01350    -0.03146    -0.03623    -0.00633
 PZ  C   6   0.00112     0.00195     0.00145    -0.01113     0.01904     0.00249
  
  S  N   7  -0.01915    -0.02604     0.01551    -0.09659    -0.05734    -0.02088
 PX  N   7   0.00410     0.01182    -0.03502    -0.02277    -0.02329     0.00015
 PY  N   7   0.00874     0.03511    -0.11990    -0.11486    -0.04360    -0.00365
 PZ  N   7   0.00435     0.00804    -0.00192    -0.03032     0.04060     0.00705
  
  S  C   8   0.01557     0.02886    -0.01290    -0.11221    -0.02600     0.02056
 PX  C   8   0.00090     0.00631    -0.02745    -0.02358    -0.00806    -0.00280
 PY  C   8   0.01342     0.02821    -0.05586    -0.01815    -0.00484     0.00664
 PZ  C   8   0.00900    -0.00619     0.10036     0.09068     0.00460     0.02395
  
  S  C   9   0.01732     0.00428     0.12591     0.03094    -0.02398     0.04114
 PX  C   9   0.00138     0.00242    -0.00176    -0.00695    -0.00452     0.00124
 PY  C   9   0.00954     0.00905     0.02271     0.00811    -0.02096     0.01119
 PZ  C   9  -0.00067    -0.00377     0.00833     0.03023    -0.00744    -0.00138
  
  S  C  10   0.01136    -0.01082     0.13442     0.07859    -0.04751     0.02000
 PX  C  10   0.00098     0.00040     0.00429     0.00202    -0.00258     0.00054
 PY  C  10  -0.00460    -0.01051     0.00521     0.01685    -0.00787    -0.01569
 PZ  C  10  -0.01062    -0.01011    -0.03214    -0.00721     0.00836    -0.01716
  
  S  C  11  -0.00649    -0.03746     0.10482     0.09472    -0.03791    -0.02550
 PX  C  11  -0.00057    -0.00048    -0.00381    -0.00069     0.00241    -0.00238
 PY  C  11  -0.01619    -0.01955    -0.03396    -0.00501     0.01398    -0.02844
 PZ  C  11  -0.01492    -0.02215    -0.00226     0.00226    -0.00794    -0.01761
  
  S  C  12   0.01200     0.01007     0.00807     0.04881     0.02979    -0.00559
 PX  C  12  -0.00060     0.00113    -0.01010    -0.00379     0.00593    -0.00089
 PY  C  12  -0.01237    -0.01703    -0.00762     0.00570     0.00872    -0.01598
 PZ  C  12  -0.00845    -0.02662     0.06576     0.03143    -0.04144    -0.01217
  
  S  C  13   0.02673     0.06368    -0.14166    -0.07806     0.04875     0.01163
 PX  C  13  -0.00072     0.00133    -0.01416     0.00064     0.00779    -0.00227
 PY  C  13  -0.00124    -0.00704     0.01560     0.07714     0.05062    -0.00290
 PZ  C  13   0.00488    -0.01251     0.10546     0.04025    -0.03436     0.01324
  
  S  C  14   0.01357     0.05593    -0.21836     0.00980     0.11335    -0.00472
 PX  C  14  -0.00020    -0.00125     0.00274     0.01986     0.01090     0.00054
 PY  C  14   0.00347     0.00364    -0.00186     0.08451     0.11225     0.00503
 PZ  C  14   0.00564     0.01868    -0.04660    -0.09821    -0.01048    -0.00109
  
  S  C  15  -0.00768    -0.00389    -0.04737     0.00476    -0.12829    -0.01217
 PX  C  15   0.00118     0.00181    -0.00316     0.00858    -0.00646     0.00136
 PY  C  15   0.00972     0.02716    -0.07984    -0.00206     0.06417     0.00430
 PZ  C  15   0.00281     0.02618    -0.10691    -0.13750     0.04794    -0.01134
  
  S  C  16  -0.01208    -0.05070     0.16652     0.14986    -0.25606     0.00988
 PX  C  16   0.00060     0.00039     0.00273    -0.00398    -0.00244     0.00094
 PY  C  16   0.00218     0.00380    -0.00647    -0.00402     0.04150     0.00164
 PZ  C  16  -0.00143     0.00712    -0.05452     0.00674     0.02388    -0.00808
  
  S  C  17  -0.00429    -0.02231     0.08159     0.07693    -0.17024     0.00700
 PX  C  17   0.00014     0.00015     0.00023    -0.00424    -0.01391     0.00003
 PY  C  17  -0.00640    -0.02562     0.08651     0.05833    -0.10792     0.00483
 PZ  C  17  -0.00447    -0.01247     0.03112     0.03236    -0.03174    -0.00127
  
  S  C  18   0.00293     0.00618    -0.01280     0.00678    -0.01217     0.00229
 PX  C  18   0.00085     0.00136    -0.00143     0.00044    -0.02303     0.00086
 PY  C  18  -0.00469    -0.01851     0.06232     0.04558    -0.08110     0.00362
 PZ  C  18  -0.00263    -0.00908     0.02769     0.02667    -0.02772     0.00075
  
  S  C  19   0.00951     0.03348    -0.10634    -0.07433     0.11855    -0.00422
 PX  C  19   0.00352     0.01255    -0.04004    -0.03052     0.03701    -0.00182
 PY  C  19  -0.00013    -0.00175     0.00789     0.01104    -0.01806     0.00143
 PZ  C  19   0.00050     0.00154    -0.00465     0.00036     0.00531    -0.00004
  
  S  C  20   0.01125     0.04126    -0.13390    -0.10352     0.15017    -0.00695
 PX  C  20   0.00022     0.00090    -0.00310    -0.00375    -0.00123    -0.00035
 PY  C  20   0.00326     0.01117    -0.03488    -0.02358     0.03019    -0.00113
 PZ  C  20   0.00122     0.00433    -0.01387    -0.00901     0.01351    -0.00064
  
  S  C  21   0.00967     0.03485    -0.11228    -0.08510     0.10712    -0.00558
 PX  C  21  -0.00336    -0.01207     0.03873     0.02834    -0.04159     0.00178
 PY  C  21   0.00083     0.00194    -0.00450     0.00026    -0.01122     0.00055
 PZ  C  21  -0.00071    -0.00260     0.00826     0.00840    -0.01222     0.00038
  
  S  C  22   0.00331     0.00896    -0.02463    -0.00990    -0.02934     0.00023
 PX  C  22  -0.00091    -0.00217     0.00540    -0.00086     0.00892    -0.00035
 PY  C  22  -0.00443    -0.01778     0.06007     0.04660    -0.08379     0.00375
 PZ  C  22  -0.00282    -0.00912     0.02679     0.02309    -0.02616     0.00038
  
  S  C  23  -0.00666    -0.04861     0.21944    -0.01166    -0.11161     0.01282
 PX  C  23   0.00029     0.00068     0.00125    -0.01951     0.01030    -0.00058
 PY  C  23   0.00203     0.00569    -0.00514    -0.08735     0.10883    -0.00481
 PZ  C  23  -0.00002     0.00418    -0.03950     0.10121    -0.00938     0.00050
  
  S  C  24   0.00066    -0.00825     0.05083    -0.00897     0.12594     0.00108
 PX  C  24  -0.00007     0.00103    -0.00474    -0.00741    -0.00780    -0.00060
 PY  C  24   0.00243     0.01790    -0.07938     0.00614     0.06260    -0.00513
 PZ  C  24   0.00350     0.01888    -0.09969     0.14960     0.05263     0.00226
  
  S  C  25   0.01009     0.03775    -0.15685     0.16089     0.26043     0.00043
 PX  C  25  -0.00040    -0.00103     0.00268     0.00386    -0.00289     0.00013
 PY  C  25  -0.00004     0.00199    -0.00747     0.00360     0.04143    -0.00091
 PZ  C  25   0.00364     0.01490    -0.05617     0.00120     0.02536    -0.00108
  
  S  C  26   0.00440     0.01885    -0.07819     0.08397     0.17296    -0.00027
 PX  C  26  -0.00038    -0.00057    -0.00015     0.00499    -0.01413     0.00031
 PY  C  26  -0.00555    -0.02073     0.08352    -0.06427    -0.10991     0.00068
 PZ  C  26  -0.00105    -0.00592     0.02851    -0.03291    -0.03200    -0.00033
  
  S  C  27  -0.00146    -0.00539     0.02450    -0.01134     0.02925     0.00036
 PX  C  27  -0.00052    -0.00139     0.00525     0.00095     0.00884     0.00015
 PY  C  27  -0.00344    -0.01381     0.05781    -0.05097    -0.08550     0.00079
 PZ  C  27  -0.00121    -0.00565     0.02523    -0.02424    -0.02641    -0.00009
  
  S  C  28  -0.00611    -0.02506     0.10838    -0.09292    -0.10981     0.00146
 PX  C  28  -0.00220    -0.00876     0.03709    -0.03066    -0.04239     0.00052
 PY  C  28   0.00037     0.00116    -0.00462    -0.00011    -0.01111     0.00014
 PZ  C  28  -0.00040    -0.00190     0.00826    -0.00930    -0.01304    -0.00011
  
  S  C  29  -0.00735    -0.03008     0.12878    -0.11265    -0.15352     0.00176
 PX  C  29   0.00006     0.00052    -0.00313     0.00421    -0.00110    -0.00000
 PY  C  29   0.00207     0.00804    -0.03353     0.02554     0.03093    -0.00026
 PZ  C  29   0.00076     0.00306    -0.01343     0.00991     0.01369    -0.00046
  
  S  C  30  -0.00627    -0.02453     0.10197    -0.08048    -0.12089     0.00139
 PX  C  30   0.00219     0.00892    -0.03840     0.03308     0.03775    -0.00032
 PY  C  30  -0.00022    -0.00153     0.00799    -0.01253    -0.01871     0.00028
 PZ  C  30   0.00037     0.00124    -0.00517     0.00024     0.00589    -0.00061
  
  S  C  31  -0.00132    -0.00349     0.01173     0.00832     0.01255     0.00068
 PX  C  31   0.00002     0.00004    -0.00127    -0.00065    -0.02336     0.00029
 PY  C  31  -0.00369    -0.01457     0.06037    -0.05016    -0.08263     0.00078
 PZ  C  31  -0.00119    -0.00583     0.02602    -0.02832    -0.02833    -0.00058
  
  S  N  32   0.00005     0.00575    -0.01533    -0.10836     0.05101    -0.01023
 PX  N  32   0.00037     0.00638    -0.03547     0.02598    -0.02350    -0.00064
 PY  N  32   0.00178     0.01973    -0.11174     0.12397    -0.04020    -0.00000
 PZ  N  32   0.00052     0.00034    -0.00055     0.02673     0.03976     0.00173
  
  S  C  33   0.00010     0.00135     0.00624    -0.10271     0.02767    -0.00664
 PX  C  33   0.00045     0.00475    -0.02651     0.02719    -0.00782    -0.00016
 PY  C  33   0.00054     0.00970    -0.05220     0.01753    -0.00679    -0.00434
 PZ  C  33  -0.00230    -0.01793     0.09768    -0.11057    -0.00156     0.00003
  
  S  C  34  -0.00262    -0.02544     0.13325    -0.08124    -0.04435     0.00735
 PX  C  34   0.00040     0.00301    -0.01395     0.00166     0.00771    -0.00084
 PY  C  34   0.00001    -0.00057     0.01267    -0.07741     0.04825    -0.00504
 PZ  C  34  -0.00300    -0.02163     0.10516    -0.05701    -0.03766     0.00303
  
  S  C  35   0.00115     0.00241    -0.01026     0.05199    -0.02544     0.00661
 PX  C  35   0.00024     0.00188    -0.00932     0.00479     0.00567    -0.00039
 PY  C  35   0.00032     0.00203    -0.00939     0.00337     0.01168    -0.00013
 PZ  C  35  -0.00162    -0.01251     0.06184    -0.03092    -0.03865     0.00302
  
  S  C  36   0.00309     0.01971    -0.09853     0.09382     0.03449     0.00044
 PX  C  36   0.00004     0.00057    -0.00316     0.00143     0.00203    -0.00035
 PY  C  36   0.00089     0.00683    -0.03458     0.02116     0.01818    -0.00171
 PZ  C  36   0.00044     0.00153    -0.00608     0.00896    -0.00231     0.00138
  
  S  C  37   0.00349     0.02557    -0.13007     0.09965     0.05024    -0.00389
 PX  C  37  -0.00015    -0.00085     0.00397    -0.00263    -0.00276     0.00002
 PY  C  37  -0.00025    -0.00054     0.00196    -0.00931    -0.00453    -0.00128
 PZ  C  37   0.00100     0.00691    -0.03372     0.01914     0.01224    -0.00101
  
  S  C  38   0.00295     0.02494    -0.12577     0.06053     0.03101    -0.00686
 PX  C  38  -0.00004     0.00006    -0.00139     0.00634    -0.00495     0.00036
 PY  C  38  -0.00095    -0.00511     0.02367    -0.01662    -0.02289     0.00037
 PZ  C  38  -0.00026    -0.00083     0.00672    -0.03033    -0.00730    -0.00129
  
  S  C  39   0.00199     0.03080    -0.17422     0.16698    -0.11138     0.00063
 PX  C  39   0.00006     0.00321    -0.02526     0.06483    -0.06713     0.00493
 PY  C  39  -0.00036    -0.00373     0.01361     0.03239    -0.03159     0.00457
 PZ  C  39   0.00016    -0.00020     0.00161     0.01064     0.01817     0.00099
  
  S  C  40   0.00127     0.02399    -0.15054     0.23165    -0.20243     0.01121
 PX  C  40  -0.00056    -0.00790     0.04158    -0.02140     0.00561     0.00215
 PY  C  40  -0.00010     0.00041    -0.00823     0.04194    -0.04326     0.00401
 PZ  C  40   0.00003    -0.00031     0.00174     0.00343     0.00613     0.00045
  
  S  C  41  -0.00009     0.00470    -0.04471     0.14225    -0.14834     0.01206
 PX  C  41  -0.00058    -0.00927     0.05348    -0.06224     0.04656    -0.00169
 PY  C  41  -0.00038    -0.00676     0.04223    -0.06686     0.05790    -0.00348
 PZ  C  41  -0.00004    -0.00032     0.00166    -0.00056     0.00178     0.00008
  
  S  C  42  -0.00131    -0.01761     0.09249    -0.06816     0.03658     0.00075
 PX  C  42  -0.00028    -0.00625     0.04174    -0.08269     0.08005    -0.00601
 PY  C  42  -0.00045    -0.00744     0.04451    -0.06450     0.05607    -0.00349
 PZ  C  42  -0.00001    -0.00016     0.00096    -0.00111     0.00146    -0.00005
  
  S  C  43  -0.00181    -0.02866     0.16655    -0.21863     0.18441    -0.01080
 PX  C  43  -0.00016    -0.00365     0.02463    -0.05189     0.05225    -0.00427
[...]
    Config    1458  -0.05535442  0.00306411
    Config    1492   0.04005038  0.00160403
 Total coeff printed             0.68721654
  
State  497  9.2772     CI coeff  CI percent
    Config     138  -0.05925905  0.00351163
    Config     221  -0.06088829  0.00370738
    Config     256  -0.05670551  0.00321551
    Config     264   0.22968360  0.05275456
    Config     269  -0.04105646  0.00168563
    Config     275  -0.04204587  0.00176786
    Config     279   0.04140927  0.00171473
    Config     282  -0.06650632  0.00442309
    Config     298   0.05295328  0.00280405
    Config     300   0.05245996  0.00275205
    Config     301  -0.11559772  0.01336283
    Config     305  -0.04939744  0.00244011
    Config     334   0.04562796  0.00208191
    Config     341   0.04102609  0.00168314
    Config     357  -0.04388121  0.00192556
    Config     366  -0.04376020  0.00191496
    Config     379  -0.05685972  0.00323303
    Config     393   0.19899218  0.03959789
    Config     447   0.06146327  0.00377773
    Config     449   0.05051998  0.00255227
    Config     452   0.24303187  0.05906449
    Config     453  -0.05985717  0.00358288
    Config     465   0.05072262  0.00257278
    Config     468  -0.04018010  0.00161444
    Config     478  -0.06980257  0.00487240
    Config     479   0.05389924  0.00290513
    Config     488   0.04959981  0.00246014
    Config     517   0.04661256  0.00217273
    Config     526  -0.11407729  0.01301363
    Config     527  -0.05931072  0.00351776
    Config     534   0.04293052  0.00184303
    Config     536   0.05000602  0.00250060
    Config     544  -0.04060723  0.00164895
    Config     552   0.04676200  0.00218668
    Config     554   0.04520562  0.00204355
    Config     570  -0.24624803  0.06063809
    Config     576  -0.05197781  0.00270169
    Config     580  -0.04371247  0.00191078
    Config     595  -0.05818131  0.00338507
    Config     596   0.04452905  0.00198284
    Config     657   0.07521034  0.00565659
    Config     672   0.04758393  0.00226423
    Config     680  -0.04854462  0.00235658
    Config     693   0.05248680  0.00275486
    Config     710   0.04572248  0.00209055
    Config     712  -0.11799372  0.01392252
    Config     717   0.05029678  0.00252977
    Config     730  -0.05789863  0.00335225
    Config     746   0.05305746  0.00281509
    Config     759   0.06165859  0.00380178
    Config     763  -0.05630951  0.00317076
    Config     789  -0.04233344  0.00179212
    Config     793   0.04072069  0.00165817
    Config     800   0.05758749  0.00331632
    Config     814  -0.04677329  0.00218774
    Config     820   0.04922468  0.00242307
    Config     825  -0.10567961  0.01116818
    Config     841  -0.14430092  0.02082276
    Config     850  -0.05018501  0.00251853
    Config     864   0.04127434  0.00170357
    Config     869  -0.07661044  0.00586916
    Config     871   0.05788334  0.00335048
    Config     881  -0.13643316  0.01861401
    Config     899   0.04120689  0.00169801
    Config     906   0.10828316  0.01172524
    Config     907  -0.05936848  0.00352462
    Config     918  -0.06016896  0.00362030
    Config     924  -0.06034570  0.00364160
    Config     940  -0.14741880  0.02173230
    Config     950  -0.08459486  0.00715629
    Config     974  -0.05032200  0.00253230
    Config     977  -0.08530579  0.00727708
    Config     989  -0.08937633  0.00798813
    Config     992   0.05696455  0.00324496
    Config    1026  -0.05334386  0.00284557
    Config    1088  -0.07299543  0.00532833
    Config    1094  -0.07728438  0.00597288
    Config    1109  -0.06431414  0.00413631
    Config    1141   0.05079545  0.00258018
    Config    1144   0.09730930  0.00946910
    Config    1159   0.04612149  0.00212719
    Config    1166   0.06009824  0.00361180
    Config    1174   0.08746496  0.00765012
    Config    1215   0.04514575  0.00203814
    Config    1242  -0.08237300  0.00678531
    Config    1247  -0.14460571  0.02091081
    Config    1257   0.05640561  0.00318159
    Config    1277  -0.07828668  0.00612880
    Config    1278   0.05870910  0.00344676
    Config    1328   0.04532518  0.00205437
    Config    1401  -0.17514425  0.03067551
    Config    1415   0.04306814  0.00185486
    Config    1419  -0.11595386  0.01344530
    Config    1454  -0.04492918  0.00201863
    Config    1529   0.08951550  0.00801303
    Config    1537   0.05376110  0.00289026
    Config    1547   0.10310494  0.01063063
    Config    1627   0.05746339  0.00330204
    Config    1675   0.04510972  0.00203489
    Config    1738  -0.04935726  0.00243614
    Config    1825   0.10003062  0.01000613
    Config    1901   0.04614097  0.00212899
    Config    1976   0.04934878  0.00243530
 Total coeff printed             0.70194248
  
State  498  9.2839     CI coeff  CI percent
    Config     219  -0.05475881  0.00299853
    Config     264  -0.21621236  0.04674778
    Config     268  -0.05229779  0.00273506
    Config     275  -0.05736073  0.00329025
    Config     281  -0.04330512  0.00187533
    Config     282  -0.06514814  0.00424428
    Config     285  -0.07478721  0.00559313
    Config     299  -0.04226165  0.00178605
    Config     300  -0.05266264  0.00277335
    Config     301   0.21756873  0.04733615
    Config     302  -0.06778601  0.00459494
    Config     305   0.04616868  0.00213155
    Config     309   0.08257676  0.00681892
    Config     319   0.04066884  0.00165395
    Config     337  -0.04359738  0.00190073
    Config     338  -0.05306561  0.00281596
    Config     339   0.04449453  0.00197976
    Config     340  -0.05352535  0.00286496
    Config     346  -0.04474926  0.00200250
    Config     351   0.10140981  0.01028395
    Config     361   0.06974764  0.00486473
    Config     363   0.06166255  0.00380227
    Config     366  -0.04540011  0.00206117
    Config     375   0.04290255  0.00184063
    Config     379  -0.06493243  0.00421622
    Config     381   0.04293154  0.00184312
    Config     384  -0.04205669  0.00176876
    Config     385  -0.04208124  0.00177083
    Config     393   0.16505782  0.02724408
    Config     396  -0.04693988  0.00220335
    Config     400  -0.05015818  0.00251584
    Config     404   0.04154558  0.00172603
    Config     418  -0.04100404  0.00168133
    Config     426  -0.05439295  0.00295859
    Config     431  -0.04806519  0.00231026
    Config     447   0.04252859  0.00180868
    Config     449  -0.05048423  0.00254866
    Config     452   0.21464557  0.04607272
    Config     453   0.07943696  0.00631023
    Config     465  -0.05541054  0.00307033
    Config     476  -0.05057997  0.00255833
    Config     488  -0.07121011  0.00507088
    Config     493   0.05152146  0.00265446
    Config     514   0.04779926  0.00228477
    Config     526   0.07945466  0.00631304
    Config     536  -0.04190010  0.00175562
    Config     548  -0.05784614  0.00334618
    Config     570  -0.23460160  0.05503791
    Config     576   0.06209672  0.00385600
    Config     587  -0.05493770  0.00301815
    Config     613  -0.09227035  0.00851382
    Config     614  -0.04234661  0.00179324
    Config     642   0.04161460  0.00173177
    Config     647  -0.04058096  0.00164681
    Config     653  -0.06860101  0.00470610
    Config     672   0.04595905  0.00211223
    Config     674   0.04898278  0.00239931
    Config     675   0.05010883  0.00251089
    Config     686   0.04322307  0.00186823
    Config     689  -0.04046243  0.00163721
    Config     705  -0.05264121  0.00277110
    Config     712  -0.06994508  0.00489231
    Config     730   0.08580436  0.00736239
    Config     735   0.04988333  0.00248835
    Config     757  -0.04239379  0.00179723
    Config     758   0.04639525  0.00215252
    Config     759   0.07640630  0.00583792
    Config     812  -0.05354434  0.00286700
    Config     825  -0.04560371  0.00207970
    Config     833   0.04138264  0.00171252
    Config     841   0.18149412  0.03294012
    Config     858   0.05114449  0.00261576
    Config     864  -0.06453570  0.00416486
    Config     869   0.05563370  0.00309511
    Config     871  -0.08252836  0.00681093
    Config     879  -0.05803267  0.00336779
    Config     881   0.19972784  0.03989121
    Config     884   0.05234306  0.00273980
    Config     906  -0.13338221  0.01779081
    Config     907   0.06170220  0.00380716
    Config     940  -0.16120685  0.02598765
    Config     950  -0.04278184  0.00183029
    Config     977   0.07804687  0.00609131
    Config     989   0.10057105  0.01011454
    Config     994  -0.06494268  0.00421755
    Config    1054   0.04047420  0.00163816
    Config    1056  -0.04130118  0.00170579
    Config    1058   0.04989891  0.00248990
    Config    1080   0.04710232  0.00221863
    Config    1094  -0.08185597  0.00670040
    Config    1174   0.04071945  0.00165807
    Config    1242  -0.09215877  0.00849324
    Config    1247   0.14502617  0.02103259
    Config    1257   0.04474979  0.00200254
    Config    1298   0.06607804  0.00436631
    Config    1328  -0.05192819  0.00269654
    Config    1332  -0.07589484  0.00576003
    Config    1368  -0.06982049  0.00487490
    Config    1401  -0.14628549  0.02139944
    Config    1419  -0.10610914  0.01125915
    Config    1489   0.05049485  0.00254973
    Config    1498   0.07696450  0.00592353
    Config    1528  -0.04224655  0.00178477
    Config    1529  -0.08186480  0.00670185
    Config    1537   0.07686080  0.00590758
    Config    1547   0.06371821  0.00406001
    Config    1627   0.06556742  0.00429909
    Config    1825   0.08702691  0.00757368
    Config    1976   0.04553010  0.00207299
 Total coeff printed             0.73245481
  
State  499  9.2934     CI coeff  CI percent
    Config      97  -0.06665218  0.00444251
    Config     216   0.04361450  0.00190222
    Config     228   0.05022855  0.00252291
    Config     231  -0.06205114  0.00385034
    Config     234   0.07715850  0.00595343
    Config     240   0.04854542  0.00235666
    Config     254  -0.07600518  0.00577679
    Config     268  -0.09561801  0.00914280
    Config     271  -0.07964878  0.00634393
    Config     278   0.04460073  0.00198923
    Config     279   0.05121935  0.00262342
    Config     296   0.06681848  0.00446471
    Config     310   0.07459162  0.00556391
    Config     318   0.05475311  0.00299790
    Config     321   0.10979646  0.01205526
    Config     334   0.04005691  0.00160456
    Config     338  -0.05857262  0.00343075
    Config     346  -0.08069181  0.00651117
    Config     361   0.06982646  0.00487573
    Config     365   0.11712369  0.01371796
    Config     375   0.07599020  0.00577451
    Config     376   0.05968807  0.00356267
    Config     380   0.06038276  0.00364608
    Config     385  -0.08522695  0.00726363
    Config     394  -0.04299239  0.00184835
    Config     412   0.05640862  0.00318193
    Config     423   0.04834946  0.00233767
    Config     433   0.05057615  0.00255795
    Config     435   0.04587560  0.00210457
    Config     437   0.04244475  0.00180156
    Config     459  -0.19166010  0.03673359
    Config     466  -0.13070235  0.01708310
    Config     468  -0.04016113  0.00161292
    Config     469   0.13945708  0.01944828
    Config     472   0.13450553  0.01809174
    Config     477  -0.05965462  0.00355867
    Config     480   0.04011547  0.00160925
    Config     493   0.07120770  0.00507054
    Config     496   0.06810009  0.00463762
    Config     505   0.05649924  0.00319216
    Config     521  -0.29283088  0.08574992
    Config     522  -0.04519598  0.00204268
    Config     523  -0.30227056  0.09136749
    Config     524   0.06353844  0.00403713
    Config     537   0.04746094  0.00225254
    Config     541   0.05115746  0.00261709
    Config     545  -0.12342177  0.01523293
    Config     558  -0.12194681  0.01487102
    Config     560   0.06200199  0.00384425
    Config     566  -0.07347028  0.00539788
    Config     569  -0.06006324  0.00360759
    Config     572  -0.06978964  0.00487059
    Config     576   0.05254308  0.00276078
    Config     579  -0.07828332  0.00612828
    Config     590  -0.08451853  0.00714338
    Config     591  -0.05730651  0.00328404
    Config     601   0.04280045  0.00183188
    Config     620   0.07954630  0.00632761
    Config     626  -0.05072172  0.00257269
    Config     642   0.06010909  0.00361310
    Config     651  -0.13466840  0.01813558
    Config     661   0.04329689  0.00187462
    Config     662   0.05941368  0.00352999
    Config     665  -0.12826204  0.01645115
    Config     673  -0.08126213  0.00660353
    Config     696  -0.11366322  0.01291933
    Config     704  -0.04160412  0.00173090
    Config     738  -0.07175018  0.00514809
    Config     740   0.05551177  0.00308156
    Config     753  -0.04483066  0.00200979
    Config     757  -0.06262167  0.00392147
    Config     769   0.08225421  0.00676575
    Config     785  -0.04591258  0.00210797
    Config     787  -0.04711814  0.00222012
    Config     799   0.04683002  0.00219305
    Config     821   0.07395435  0.00546925
    Config     829   0.07681901  0.00590116
    Config     853  -0.07404849  0.00548318
    Config     855   0.04302626  0.00185126
    Config     883  -0.06697173  0.00448521
    Config     897   0.07105126  0.00504828
    Config     909   0.08675742  0.00752685
    Config     912   0.28289104  0.08002734
    Config     926   0.04992113  0.00249212
    Config     953   0.06259705  0.00391839
    Config     964   0.05047350  0.00254757
    Config     998  -0.25975398  0.06747213
    Config    1025  -0.04665669  0.00217685
    Config    1053   0.04236574  0.00179486
    Config    1185   0.04697434  0.00220659
    Config    1317   0.04352307  0.00189426
 Total coeff printed             0.80578407
  
State  500  9.2966     CI coeff  CI percent
    Config     129   0.04037778  0.00163036
    Config     181   0.09403987  0.00884350
    Config     186   0.04117748  0.00169559
    Config     187   0.04408257  0.00194327
    Config     202   0.06464307  0.00417873
    Config     205  -0.06956327  0.00483905
    Config     209  -0.06424911  0.00412795
    Config     214  -0.04702700  0.00221154
    Config     215   0.09044797  0.00818083
    Config     219   0.06770210  0.00458357
    Config     223   0.06427552  0.00413134
    Config     228   0.06482593  0.00420240
    Config     236   0.04682594  0.00219267
    Config     237  -0.07165463  0.00513439
    Config     242   0.04227625  0.00178728
    Config     247  -0.04485746  0.00201219
    Config     254  -0.07908529  0.00625448
    Config     256   0.06378288  0.00406826
    Config     258  -0.08659317  0.00749838
    Config     263  -0.05020417  0.00252046
    Config     266  -0.06511971  0.00424058
    Config     280   0.05836054  0.00340595
    Config     282   0.05243474  0.00274940
    Config     283  -0.13101879  0.01716592
    Config     293   0.05880401  0.00345791
    Config     301  -0.04398924  0.00193505
    Config     309  -0.16259413  0.02643685
    Config     315   0.04830578  0.00233345
    Config     319  -0.11913828  0.01419393
    Config     325  -0.09015391  0.00812773
    Config     326  -0.08301599  0.00689165
    Config     329   0.07722949  0.00596439
    Config     333  -0.09822145  0.00964745
    Config     336  -0.07159940  0.00512647
    Config     338   0.13038113  0.01699924
    Config     340   0.12146280  0.01475321
    Config     345   0.11967352  0.01432175
    Config     350  -0.05971955  0.00356642
    Config     357   0.09434761  0.00890147
    Config     360  -0.19266322  0.03711912
    Config     366   0.18050376  0.03258161
    Config     375  -0.04043369  0.00163488
    Config     381   0.06934936  0.00480933
    Config     384   0.04907321  0.00240818
    Config     386  -0.07413694  0.00549629
    Config     388   0.09324973  0.00869551
    Config     389  -0.04802675  0.00230657
    Config     390   0.10076295  0.01015317
    Config     393   0.04149741  0.00172204
    Config     406  -0.09497215  0.00901971
    Config     407   0.09057007  0.00820294
    Config     413   0.04183663  0.00175030
    Config     416   0.07814773  0.00610707
    Config     417   0.10971074  0.01203645
    Config     418   0.13292609  0.01766934
    Config     423   0.05151610  0.00265391
    Config     429   0.04359440  0.00190047
    Config     432  -0.07230007  0.00522730
    Config     435  -0.05257378  0.00276400
    Config     438   0.09568859  0.00915631
    Config     445  -0.11687750  0.01366035
    Config     446  -0.21096433  0.04450595
    Config     447   0.07854583  0.00616945
    Config     448   0.08918185  0.00795340
    Config     449  -0.05594397  0.00312973
    Config     456  -0.04945086  0.00244539
    Config     458  -0.04394842  0.00193146
    Config     462  -0.04354134  0.00189585
    Config     468  -0.04517069  0.00204039
    Config     477  -0.07741556  0.00599317
    Config     486   0.09727573  0.00946257
    Config     489   0.09083639  0.00825125
    Config     490  -0.04513304  0.00203699
    Config     492  -0.04474154  0.00200180
    Config     497   0.05906363  0.00348851
    Config     512   0.09957409  0.00991500
    Config     513  -0.04688105  0.00219783
    Config     523  -0.04627288  0.00214118
    Config     524   0.06586982  0.00433883
    Config     530  -0.08506307  0.00723573
    Config     532  -0.04322580  0.00186847
    Config     540  -0.07002570  0.00490360
    Config     543  -0.07320320  0.00535871
    Config     546   0.06745741  0.00455050
    Config     548   0.05749339  0.00330549
    Config     549  -0.04292757  0.00184278
    Config     558  -0.06234147  0.00388646
    Config     559   0.07722143  0.00596315
    Config     560  -0.04754283  0.00226032
    Config     583   0.06107862  0.00373060
    Config     602  -0.06565939  0.00431115
    Config     603   0.08274492  0.00684672
    Config     617  -0.05634108  0.00317432
    Config     628  -0.04319844  0.00186611
    Config     647  -0.04952299  0.00245253
    Config     664  -0.04649644  0.00216192
    Config     669   0.04341502  0.00188486
    Config     673  -0.05929821  0.00351628
    Config     693   0.04497192  0.00202247
    Config     714  -0.04368452  0.00190834
    Config     717  -0.04963933  0.00246406
    Config     725   0.05471522  0.00299376
    Config     726  -0.09943329  0.00988698
    Config     736  -0.05745043  0.00330055
    Config     757  -0.04035713  0.00162870
    Config     761   0.06859048  0.00470465
    Config     765  -0.05393330  0.00290880
    Config     775  -0.04600108  0.00211610
    Config     785  -0.05824465  0.00339244
    Config     805  -0.04112755  0.00169148
    Config     875  -0.06322878  0.00399788
    Config     901  -0.05238134  0.00274380
    Config     904  -0.07339143  0.00538630
    Config     912  -0.04654812  0.00216673
    Config     925  -0.05429421  0.00294786
    Config     953   0.05226167  0.00273128
    Config     964   0.05480950  0.00300408
    Config     998   0.04533640  0.00205539
    Config     999   0.07775260  0.00604547
    Config    1115   0.05847257  0.00341904
    Config    1133  -0.04641897  0.00215472
    Config    1166   0.05660862  0.00320454
    Config    1201   0.04586408  0.00210351
    Config    1215   0.05923023  0.00350822
    Config    1273  -0.04479957  0.00200700
 Total coeff printed             0.72684253
  

 **********************
 *                    *
 * JOB ENDED NORMALLY *
 *                    *
 **********************



 TOTAL JOB TIME:           609.69 SECONDS

 == MOPAC DONE ==
