 *******************************************************************************
 ** Site#: 37966        For non-commercial use only           Version 21.186W **
 *******************************************************************************
 ** Cite this program as: MOPAC2016, Version: 21.186W, James J. P. Stewart,   **
 ** Stewart Computational Chemistry, web: HTTP://OpenMOPAC.net. Days left: 254**
 *******************************************************************************
 **                                                                           **
 **                                MOPAC2016                                  **
 **                                                                           **
 *******************************************************************************

                              INDO CALCULATION RESULTS

 *******************************************************************************
 *  CALCULATION DONE:                                Sun Oct 24 22:39:19 2021  *
 *  INDO       - The INDO Hamiltonian to be used
 *  CIS        - C.I. USES 1 ELECTRON EXCITATIONS ONLY
 *  EPS=7.58   - USE ANDREAS KLAMT'S COSMO IMPLICIT SOLVATION MODEL
 *  N**2=1.40  - USED IN COSMO-CI
 *  T=         - A TIME OF 172800.0 SECONDS REQUESTED
 *  DUMP=N     - RESTART FILE WRITTEN EVERY 7200.0 SECONDS REQUESTED
 *******************************************************************************
INDO CIS EPS=7.58 N**2=1.40
 DyeE8
 Calculo de Estados Excitados
   ATOM   CHEMICAL          X               Y               Z
  NUMBER   SYMBOL      (ANGSTROMS)     (ANGSTROMS)     (ANGSTROMS)
 
     1       N          0.00000000  *   0.00000000  *   0.00000000  *
     2       C          1.15652245  *   0.00000000  *   0.00000000  *
     3       C          2.57325957  *   0.02029704  *   0.00000000  *
     4       C          3.32487100  *  -1.09853517  *  -0.01746119  *
     5       C          2.77497612  *  -2.42076672  *   0.01983162  *
     6       C          1.66423388  *  -2.83983262  *   0.70252671  *
     7       C          1.42775263  *  -4.23910983  *   0.52776698  *
     8       C          2.36713166  *  -4.82208228  *  -0.27695517  *
     9       S          3.53748974  *  -3.70368808  *  -0.82100915  *
    10       C          2.39246027  *  -6.21098913  *  -0.66934897  *
    11       C          3.60128972  *  -6.91832495  *  -0.68279102  *
    12       C          3.65498481  *  -8.25475552  *  -1.04626022  *
    13       C          2.46700761  *  -8.88129045  *  -1.40865871  *
    14       C          1.23143115  *  -8.16391683  *  -1.38715233  *
    15       C          1.19459933  *  -6.83339637  *  -1.01777675  *
    16       C          0.18736532  *  -9.07561212  *  -1.78897803  *
    17       C         -1.17914408  *  -8.97029283  *  -1.98973667  *
    18       C         -1.86160558  * -10.09916054  *  -2.42554914  *
    19       C         -1.21537110  * -11.32250932  *  -2.64548996  *
    20       C          0.14861252  * -11.46408962  *  -2.42616609  *
    21       C          0.81600880  * -10.31830876  *  -2.01765854  *
    22       N          2.20266058  * -10.21869236  *  -1.77881122  *
    23       C          3.03629824  * -11.27035267  *  -2.20672826  *
    24       C          4.42625188  * -11.12842748  *  -2.22359339  *
    25       C          5.22024990  * -12.18655034  *  -2.64015331  *
    26       C          4.63870727  * -13.37929672  *  -3.04457952  *
    27       C          3.25654649  * -13.51349485  *  -3.02915136  *
    28       C          2.42843670  * -12.47360676  *  -2.61787689  *
    29       C          0.93493178  * -12.72912853  *  -2.56592688  *
    30       C          0.49640434  * -13.46739240  *  -3.84141696  *
    31       C          0.75643047  * -12.62819434  *  -5.08049059  *
    32       C          0.71931824  * -13.60572645  *  -1.31183706  *
    33       C         -0.73551669  * -13.87918813  *  -0.97974213  *
    34       C          3.23132608  *   1.33359475  *  -0.01088383  *
    35       O          4.43579840  *   1.54367208  *  -0.03965644  *
    36       O          2.37596221  *   2.37508969  *   0.01691814  *
    37       H          4.42291002  *  -1.02732267  *  -0.06862254  *
    38       H          1.03414861  *  -2.21713572  *   1.33517303  *
    39       H          0.59641184  *  -4.75960096  *   0.99774089  *
    40       H          4.52707014  *  -6.41192231  *  -0.38984439  *
    41       H          4.60793112  *  -8.79325903  *  -1.03967622  *
    42       H          0.24503925  *  -6.29096177  *  -1.00997939  *
    43       H         -1.69643366  *  -8.02401070  *  -1.81540831  *
    44       H         -2.93932967  * -10.03444469  *  -2.60339129  *
    45       H         -1.81341764  * -12.16820107  *  -2.99888817  *
    46       H          4.90921378  * -10.19571478  *  -1.91486479  *
    47       H          6.30896062  * -12.07563008  *  -2.65015491  *
    48       H          5.26532784  * -14.21276790  *  -3.37339763  *
    49       H          2.81429378  * -14.46380499  *  -3.35633344  *
    50       H          1.02414838  * -14.44444957  *  -3.92340175  *
    51       H         -0.57478185  * -13.75177280  *  -3.79182557  *
    52       H          0.45622835  * -13.15580197  *  -5.99794536  *
    53       H          0.20131786  * -11.67892571  *  -5.06871056  *
    54       H          1.81927520  * -12.37221877  *  -5.19926302  *
    55       H          1.25954401  * -14.56944400  *  -1.43185136  *
    56       H          1.20792482  * -13.11925160  *  -0.43957399  *
    57       H         -0.82291131  * -14.58532848  *  -0.13891814  *
    58       H         -1.27955115  * -12.97550034  *  -0.66990358  *
    59       H         -1.29408637  * -14.32876659  *  -1.81212109  *
    60       H          2.85303715  *   3.21763023  *   0.00682548  *
 


          CARTESIAN COORDINATES 

    NO.       ATOM           X           Y           Z

     1         N          0.0000      0.0000      0.0000
     2         C          1.1565      0.0000      0.0000
     3         C          2.5733      0.0203      0.0000
     4         C          3.3249     -1.0985     -0.0175
     5         C          2.7750     -2.4208      0.0198
     6         C          1.6642     -2.8398      0.7025
     7         C          1.4278     -4.2391      0.5278
     8         C          2.3671     -4.8221     -0.2770
     9         S          3.5375     -3.7037     -0.8210
    10         C          2.3925     -6.2110     -0.6693
    11         C          3.6013     -6.9183     -0.6828
    12         C          3.6550     -8.2548     -1.0463
    13         C          2.4670     -8.8813     -1.4087
    14         C          1.2314     -8.1639     -1.3872
    15         C          1.1946     -6.8334     -1.0178
    16         C          0.1874     -9.0756     -1.7890
    17         C         -1.1791     -8.9703     -1.9897
    18         C         -1.8616    -10.0992     -2.4255
    19         C         -1.2154    -11.3225     -2.6455
    20         C          0.1486    -11.4641     -2.4262
    21         C          0.8160    -10.3183     -2.0177
    22         N          2.2027    -10.2187     -1.7788
    23         C          3.0363    -11.2704     -2.2067
    24         C          4.4263    -11.1284     -2.2236
    25         C          5.2202    -12.1866     -2.6402
    26         C          4.6387    -13.3793     -3.0446
    27         C          3.2565    -13.5135     -3.0292
    28         C          2.4284    -12.4736     -2.6179
    29         C          0.9349    -12.7291     -2.5659
    30         C          0.4964    -13.4674     -3.8414
    31         C          0.7564    -12.6282     -5.0805
    32         C          0.7193    -13.6057     -1.3118
    33         C         -0.7355    -13.8792     -0.9797
    34         C          3.2313      1.3336     -0.0109
    35         O          4.4358      1.5437     -0.0397
    36         O          2.3760      2.3751      0.0169
    37         H          4.4229     -1.0273     -0.0686
    38         H          1.0341     -2.2171      1.3352
    39         H          0.5964     -4.7596      0.9977
    40         H          4.5271     -6.4119     -0.3898
    41         H          4.6079     -8.7933     -1.0397
    42         H          0.2450     -6.2910     -1.0100
    43         H         -1.6964     -8.0240     -1.8154
    44         H         -2.9393    -10.0344     -2.6034
    45         H         -1.8134    -12.1682     -2.9989
    46         H          4.9092    -10.1957     -1.9149
    47         H          6.3090    -12.0756     -2.6502
    48         H          5.2653    -14.2128     -3.3734
    49         H          2.8143    -14.4638     -3.3563
    50         H          1.0241    -14.4444     -3.9234
    51         H         -0.5748    -13.7518     -3.7918
    52         H          0.4562    -13.1558     -5.9979
    53         H          0.2013    -11.6789     -5.0687
    54         H          1.8193    -12.3722     -5.1993
    55         H          1.2595    -14.5694     -1.4319
    56         H          1.2079    -13.1193     -0.4396
    57         H         -0.8229    -14.5853     -0.1389
    58         H         -1.2796    -12.9755     -0.6699
    59         H         -1.2941    -14.3288     -1.8121
    60         H          2.8530      3.2176      0.0068

           Empirical Formula: C31 H24 N2 O2 S  =    60 atoms



      MOLECULAR POINT GROUP   :   C1  


      RHF CALCULATION, NO. OF DOUBLY OCCUPIED LEVELS = 88

 WARNING: INDO only performs single-point calculations

 Summary of symmetry occupancy in each shell:

 SHELL     
    1   88
    v   80
 TOTAL 168




    ROOT NO.    1           2           3           4           5           6

           -49.52739   -46.78370   -45.86214   -43.70011   -43.47079   -42.08736
  
  
  S  N   1   0.00021     0.04031    -0.00190     0.03761    -0.02548     0.07514
 PX  N   1   0.00012     0.02484    -0.00098     0.01988    -0.01343     0.03872
 PY  N   1  -0.00004     0.00384     0.00060    -0.00579     0.00372    -0.00778
 PZ  N   1   0.00001     0.00019    -0.00011     0.00109    -0.00070     0.00135
  
  S  C   2   0.00047     0.11471    -0.00299     0.06603    -0.04442     0.12364
 PX  C   2   0.00013     0.04971    -0.00016     0.01091    -0.00722     0.01632
 PY  C   2  -0.00014     0.02196     0.00221    -0.01999     0.01283    -0.02689
 PZ  C   2   0.00002     0.00033    -0.00021     0.00210    -0.00134     0.00260
  
  S  C   3   0.00065     0.22959    -0.00198     0.07735    -0.05229     0.14662
 PX  C   3  -0.00000     0.03178     0.00098    -0.00469     0.00288    -0.00402
 PY  C   3  -0.00022     0.07717     0.00519    -0.04550     0.02935    -0.06439
 PZ  C   3   0.00001    -0.00079    -0.00015     0.00130    -0.00082     0.00141
  
  S  C   4   0.00113     0.11703    -0.00981     0.13228    -0.08644     0.20144
 PX  C   4  -0.00033    -0.01843     0.00319    -0.03823     0.02483    -0.05555
 PY  C   4  -0.00041     0.04698     0.00500    -0.03417     0.02085    -0.02598
 PZ  C   4   0.00004     0.00099    -0.00041     0.00422    -0.00269     0.00540
  
  S  C   5   0.00371     0.05465    -0.03061     0.26621    -0.16666     0.28513
 PX  C   5  -0.00075    -0.00364     0.00612    -0.04800     0.02966    -0.04353
 PY  C   5  -0.00154     0.01496     0.01065    -0.05875     0.03394    -0.01849
 PZ  C   5   0.00014     0.00273    -0.00159     0.01645    -0.01050     0.01976
  
  S  C   6   0.00439     0.03675    -0.03394     0.26983    -0.16719     0.25853
 PX  C   6   0.00087     0.00990    -0.00767     0.06553    -0.04075     0.06644
 PY  C   6  -0.00166     0.00516     0.01029    -0.05552     0.03227    -0.02028
 PZ  C   6  -0.00106    -0.00742     0.00813    -0.06186     0.03804    -0.05544
  
  S  C   7   0.00975     0.02073    -0.05200     0.28336    -0.16717     0.16377
 PX  C   7   0.00231     0.00644    -0.01439     0.08688    -0.05130     0.05542
 PY  C   7  -0.00256     0.00598     0.00502     0.03256    -0.02446     0.08054
 PZ  C   7  -0.00259    -0.00335     0.01242    -0.05534     0.03144    -0.01825
  
  S  C   8   0.02028     0.01871    -0.08390     0.32111    -0.17556     0.05951
 PX  C   8  -0.00098    -0.00140     0.00502    -0.02468     0.01562    -0.01301
 PY  C   8  -0.00845     0.00630     0.01898     0.03543    -0.03348     0.13998
 PZ  C   8  -0.00181     0.00236     0.00248     0.02361    -0.01729     0.04444
  
  S  S   9   0.00633     0.01994    -0.03530     0.20470    -0.12055     0.13325
 PX  S   9  -0.00269    -0.00833     0.01676    -0.10424     0.06221    -0.07157
 PY  S   9  -0.00264     0.00543     0.00874    -0.00451    -0.00234     0.04847
 PZ  S   9   0.00138     0.00697    -0.01011     0.07269    -0.04421     0.06002
  
  S  C  10   0.06379     0.00896    -0.16832     0.27507    -0.10980    -0.26670
 PX  C  10  -0.00252    -0.00042     0.00461    -0.00440     0.00832    -0.00576
 PY  C  10  -0.02636     0.00152     0.04848     0.00086    -0.01887     0.11660
 PZ  C  10  -0.00743     0.00054     0.01307     0.00352    -0.00625     0.03206
  
  S  C  11   0.06315     0.00507    -0.14883     0.19534    -0.04928    -0.27492
 PX  C  11  -0.02456    -0.00185     0.05733    -0.06680     0.02288     0.09605
 PY  C  11  -0.01731     0.00050     0.02551     0.00130    -0.01824     0.04636
 PZ  C  11  -0.00854    -0.00012     0.01560    -0.00954    -0.00196     0.02733
  
  S  C  12   0.10752     0.00315    -0.16237     0.13327     0.02281    -0.22577
 PX  C  12  -0.04802    -0.00120     0.07156    -0.03617     0.00063     0.07707
 PY  C  12  -0.01610     0.00098    -0.01658     0.04550    -0.03811    -0.08461
 PZ  C  12  -0.01231     0.00010     0.00607     0.00665    -0.01190    -0.01216
  
  S  C  13   0.28450     0.00312    -0.27756     0.03925     0.07841    -0.11091
 PX  C  13  -0.07902    -0.00029     0.06393     0.05074     0.00989    -0.03814
 PY  C  13  -0.07444     0.00134    -0.00850     0.08290    -0.06878    -0.16364
 PZ  C  13  -0.03119     0.00037     0.00429     0.02981    -0.01932    -0.05265
  
  S  C  14   0.22670     0.00375    -0.26695     0.03399    -0.03266    -0.15836
 PX  C  14   0.02888     0.00105    -0.05306     0.05609     0.02360    -0.08273
 PY  C  14  -0.08849     0.00080     0.04026     0.09082    -0.02726    -0.10980
 PZ  C  14  -0.01981     0.00040     0.00243     0.03361    -0.00462    -0.04306
  
  S  C  15   0.08690     0.00568    -0.17518     0.17459    -0.07853    -0.24743
 PX  C  15   0.02073     0.00184    -0.05368     0.07478    -0.01656    -0.10261
 PY  C  15  -0.03669     0.00057     0.04530     0.02127    -0.00994     0.04039
 PZ  C  15  -0.00709     0.00051     0.00431     0.01871    -0.00626    -0.00332
  
  S  C  16   0.24821     0.00085    -0.16018    -0.15794    -0.13507     0.07025
 PX  C  16   0.08187     0.00071    -0.08583     0.00927     0.07178    -0.00386
 PY  C  16  -0.05503     0.00062    -0.01093     0.06092     0.04164    -0.05946
 PZ  C  16  -0.00324     0.00028    -0.01583     0.01847     0.02232    -0.01742
  
  S  C  17   0.10675    -0.00007    -0.03526    -0.13274    -0.18072     0.05981
 PX  C  17   0.04298     0.00014    -0.02792    -0.03200    -0.03039     0.01350
 PY  C  17  -0.03419     0.00033    -0.00789     0.05183     0.06898    -0.02959
 PZ  C  17  -0.00248     0.00011    -0.00655     0.00906     0.01381    -0.00611
  
  S  C  18   0.08943    -0.00062     0.01510    -0.13120    -0.20185     0.05694
 PX  C  18   0.04485    -0.00027     0.00350    -0.05609    -0.07996     0.02589
 PY  C  18  -0.00563     0.00021    -0.01786     0.00158     0.01501     0.00645
 PZ  C  18   0.00654     0.00000    -0.00383    -0.00972    -0.01087     0.00609
  
  S  C  19   0.12671    -0.00156     0.09553    -0.12041    -0.24475     0.01488
 PX  C  19   0.04953    -0.00064     0.04145    -0.02508    -0.05925    -0.00246
 PY  C  19   0.01710     0.00019    -0.03327    -0.04950    -0.03985     0.04416
 PZ  C  19   0.01424    -0.00008     0.00007    -0.01880    -0.02471     0.01030
  
  S  C  20   0.24711    -0.00290     0.17896    -0.10732    -0.23213     0.00885
 PX  C  20   0.05264    -0.00043     0.02021     0.02890     0.06914     0.00801
 PY  C  20   0.02381     0.00068    -0.09059    -0.06880    -0.01207     0.08085
 PZ  C  20   0.01479     0.00009    -0.01815    -0.01401     0.00369     0.01974
  
  S  C  21   0.36901    -0.00087    -0.07770    -0.17394    -0.08424     0.14303
 PX  C  21   0.08313     0.00024    -0.05725     0.03112     0.14424     0.03248
 PY  C  21   0.02505     0.00128    -0.12907    -0.03261     0.02004     0.01950
 PZ  C  21   0.01522     0.00039    -0.04219    -0.00342     0.02408     0.00681
  
  S  N  22   0.44311    -0.00016    -0.17256    -0.07992     0.20079     0.18417
 PX  N  22  -0.06453    -0.00003     0.03421     0.05421     0.04630    -0.02193
 PY  N  22   0.02207     0.00119    -0.10971    -0.02597    -0.01217    -0.01919
 PZ  N  22  -0.02299     0.00038    -0.02168     0.00073    -0.01333    -0.02026
  
  S  C  23   0.25834    -0.00203     0.09254     0.10131     0.28328     0.11947
 PX  C  23  -0.07723     0.00038     0.00302     0.05185     0.04710    -0.01811
 PY  C  23   0.03505     0.00076    -0.09752    -0.05958    -0.01200     0.03379
 PZ  C  23   0.01147     0.00025    -0.03245    -0.02164    -0.00732     0.01033
  
  S  C  24   0.11145    -0.00106     0.06914     0.13190     0.26103     0.06777
 PX  C  24  -0.04955     0.00034    -0.01107    -0.01633    -0.05752    -0.02702
 PY  C  24  -0.00733     0.00054    -0.05275    -0.05061    -0.06736    -0.01166
 PZ  C  24  -0.00094     0.00018    -0.01803    -0.01690    -0.02147    -0.00349
  
  S  C  25   0.06084    -0.00109     0.09447     0.13999     0.22901     0.04523
 PX  C  25  -0.03062     0.00054    -0.04557    -0.05857    -0.09463    -0.01836
 PY  C  25   0.00191     0.00010    -0.01121    -0.00678    -0.00286     0.00237
 PZ  C  25   0.00197     0.00001    -0.00195     0.00026     0.00324     0.00161
  
  S  C  26   0.06058    -0.00131     0.11809     0.14453     0.21155     0.02830
 PX  C  26  -0.02173     0.00048    -0.04237    -0.03758    -0.04509     0.00094
 PY  C  26   0.02006    -0.00037     0.03119     0.04416     0.07400     0.01671
 PZ  C  26   0.00814    -0.00015     0.01300     0.01765     0.02898     0.00616
  
  S  C  27   0.10420    -0.00226     0.20034     0.16134     0.17539    -0.01763
 PX  C  27  -0.01985     0.00043    -0.03655     0.01300     0.06113     0.03613
 PY  C  27   0.03668    -0.00065     0.05273     0.05024     0.07525     0.01297
 PZ  C  27   0.01358    -0.00024     0.01945     0.01725     0.02518     0.00399
  
  S  C  28   0.21887    -0.00349     0.27072     0.14520     0.15268    -0.00907
 PX  C  28  -0.03023     0.00046    -0.03259     0.05148     0.12906     0.04629
 PY  C  28   0.04121     0.00011    -0.03837    -0.02215     0.04088     0.05856
 PZ  C  28   0.01704    -0.00002    -0.00888    -0.00826     0.01009     0.01779
  
  S  C  29   0.22953    -0.00420     0.34160     0.05125    -0.13579    -0.12935
 PX  C  29   0.01617    -0.00013     0.00568     0.03301     0.07666     0.02026
 PY  C  29   0.04051    -0.00009    -0.01731    -0.03070     0.00304     0.04832
 PZ  C  29   0.00786     0.00005    -0.01119    -0.00958     0.00393     0.01544
  
  S  C  30   0.12081    -0.00280     0.25052     0.05138    -0.12557    -0.14345
 PX  C  30   0.01675    -0.00036     0.03192     0.01907     0.01214    -0.01139
 PY  C  30   0.03164    -0.00059     0.04774     0.00149    -0.02945    -0.01800
 PZ  C  30   0.03016    -0.00063     0.05369     0.00773    -0.02619    -0.02367
  
  S  C  31   0.07167    -0.00164     0.14602     0.03021    -0.07333    -0.08466
 PX  C  31   0.00152    -0.00002     0.00174     0.00692     0.01381     0.00258
 PY  C  31  -0.00258     0.00014    -0.01567    -0.00774     0.00463     0.01396
 PZ  C  31   0.03379    -0.00071     0.06129     0.01078    -0.02885    -0.02976
  
  S  C  32   0.12417    -0.00264     0.22847     0.03915    -0.11480    -0.12025
 PX  C  32   0.00458    -0.00001    -0.00183     0.01264     0.03513     0.01336
 PY  C  32   0.03505    -0.00052     0.03786    -0.00082    -0.01666    -0.00481
 PZ  C  32  -0.03526     0.00075    -0.06514    -0.01424     0.02445     0.03006
  
  S  C  33   0.06261    -0.00146     0.13069     0.00872    -0.10584    -0.08590
 PX  C  33   0.02034    -0.00046     0.04120     0.00751    -0.02230    -0.02459
 PY  C  33   0.01475    -0.00027     0.02104    -0.00355    -0.02050    -0.00763
 PZ  C  33  -0.01494     0.00034    -0.03036    -0.00244     0.02208     0.01746
  
  S  C  34   0.00036     0.51294     0.01107    -0.02886     0.01663    -0.01463
 PX  C  34  -0.00001     0.01694     0.00064    -0.00313     0.00180     0.00165
 PY  C  34  -0.00002     0.13768     0.00511    -0.04072     0.02673    -0.06985
 PZ  C  34   0.00000     0.00037    -0.00000     0.00002    -0.00000    -0.00023
  
  S  O  35   0.00024     0.41037     0.00962    -0.03203     0.01905    -0.02104
 PX  O  35  -0.00010    -0.17539    -0.00418     0.01487    -0.00897     0.01241
 PY  O  35  -0.00002    -0.00523     0.00029    -0.00647     0.00445    -0.01455
 PZ  O  35   0.00000     0.00433     0.00010    -0.00037     0.00023    -0.00035
  
  S  O  36   0.00027     0.57218     0.01485    -0.07328     0.04656    -0.10640
 PX  O  36   0.00007     0.15841     0.00420    -0.02135     0.01357    -0.03042
 PY  O  36  -0.00005    -0.06429    -0.00130     0.00173    -0.00077    -0.00259
 PZ  O  36  -0.00000    -0.00467    -0.00012     0.00062    -0.00039     0.00084
  
  S  H  37   0.00035     0.05140    -0.00271     0.04097    -0.02691     0.06485
  
  S  H  38   0.00109     0.01628    -0.00893     0.07911    -0.04976     0.08689
  
  S  H  39   0.00442     0.00548    -0.01939     0.08566    -0.04945     0.03302
  
  S  H  40   0.01493     0.00190    -0.03968     0.06656    -0.01966    -0.07538
  
  S  H  41   0.03860     0.00074    -0.04269     0.04049     0.02835    -0.05204
  
  S  H  42   0.02432     0.00230    -0.05067     0.05943    -0.03614    -0.06212
  
  S  H  43   0.02684     0.00011    -0.01509    -0.03224    -0.04962     0.01086
  
  S  H  44   0.02043    -0.00016     0.00541    -0.03466    -0.05637     0.01427
  
  S  H  45   0.04148    -0.00071     0.05405    -0.02804    -0.08705    -0.01564
  
  S  H  46   0.04464    -0.00009    -0.00006     0.03991     0.08446     0.01515
  
  S  H  47   0.01418    -0.00025     0.02238     0.03789     0.06276     0.01253
  
  S  H  48   0.01415    -0.00033     0.03113     0.03937     0.05627     0.00649
  
  S  H  49   0.03979    -0.00095     0.08691     0.05298     0.03128    -0.02806
  
  S  H  50   0.04735    -0.00117     0.10691     0.03154    -0.03899    -0.06288
  
  S  H  51   0.04725    -0.00112     0.10075     0.01322    -0.06784    -0.06208
  
  S  H  52   0.02028    -0.00050     0.04632     0.01047    -0.02510    -0.03063
  
  S  H  53   0.03742    -0.00075     0.06422     0.00524    -0.04268    -0.03326
  
  S  H  54   0.03674    -0.00079     0.06982     0.02042    -0.01965    -0.03471
  
  S  H  55   0.04705    -0.00108     0.09705     0.02556    -0.03674    -0.05392
  
  S  H  56   0.05719    -0.00107     0.08850     0.01523    -0.03594    -0.03884
  
  S  H  57   0.01820    -0.00045     0.04119     0.00390    -0.03364    -0.02993
  
  S  H  58   0.03270    -0.00068     0.05823    -0.00364    -0.05697    -0.03388
  
  S  H  59   0.02901    -0.00070     0.06291     0.00423    -0.05208    -0.04221
  
  S  H  60   0.00011     0.24094     0.00639    -0.03308     0.02112    -0.04924




    ROOT NO.    7           8           9          10          11          12

           -40.98762   -39.67533   -39.14714   -37.03038   -36.64658   -36.29379
  
  
  S  N   1  -0.02479    -0.03730     0.39380    -0.11222    -0.18892     0.49532
 PX  N   1  -0.01244    -0.01764     0.18504    -0.04611    -0.07497     0.18959
 PY  N   1   0.00183     0.00891    -0.00174    -0.00149    -0.00229     0.00419
 PZ  N   1  -0.00027     0.00002     0.00073     0.00029     0.00031    -0.00012
  
  S  C   2  -0.03816    -0.07432     0.47219    -0.08575    -0.12321     0.26775
 PX  C   2  -0.00347    -0.02236    -0.05342     0.05386     0.10787    -0.32783
 PY  C   2   0.00648     0.03670    -0.00476    -0.00461    -0.00768     0.01641
 PZ  C   2  -0.00052     0.00030     0.00144     0.00060     0.00070    -0.00045
  
  S  C   3  -0.04503    -0.22507     0.31302    -0.00741     0.03350    -0.20968
 PX  C   3  -0.00005    -0.09872    -0.10608     0.01448     0.02552    -0.07096
 PY  C   3   0.01624     0.07005    -0.05203    -0.01233    -0.02693     0.07950
 PZ  C   3  -0.00021     0.00271     0.00106     0.00057     0.00055     0.00011
  
  S  C   4  -0.05327    -0.24937     0.20739     0.03336     0.08976    -0.31013
 PX  C   4   0.01391     0.02565    -0.08878    -0.00518    -0.01623     0.05785
 PY  C   4   0.00055    -0.08868     0.03047    -0.01848    -0.01628    -0.00621
 PZ  C   4  -0.00118    -0.00079     0.00438     0.00115     0.00173    -0.00306
  
  S  C   5  -0.05139    -0.01718     0.03502     0.06368     0.08984    -0.16289
 PX  C   5   0.00545    -0.03115     0.01310    -0.00659     0.00022    -0.03512
 PY  C   5  -0.00789    -0.11262     0.13959    -0.00471     0.01849    -0.11544
 PZ  C   5  -0.00371     0.00275     0.00428     0.00521     0.00530    -0.00073
  
  S  C   6  -0.03848     0.07396    -0.05249     0.05376     0.04978     0.00163
 PX  C   6  -0.01095     0.00709    -0.01056     0.01687     0.02326    -0.04205
 PY  C   6  -0.00550    -0.07326     0.11148    -0.00506     0.01005    -0.07061
 PZ  C   6   0.00748    -0.01867     0.02060    -0.01102    -0.01108     0.00668
  
  S  C   7  -0.00521     0.14366    -0.17935     0.01236    -0.01571     0.12657
 PX  C   7  -0.00367     0.04264    -0.05549     0.00273    -0.00257     0.02109
 PY  C   7  -0.01815     0.01579    -0.00688     0.03156     0.03348    -0.01573
 PZ  C   7  -0.00276    -0.02586     0.03592     0.00532     0.01031    -0.02229
  
  S  C   8   0.02343     0.13629    -0.18803    -0.05596    -0.08114     0.12654
 PX  C   8  -0.00177    -0.01715     0.02180    -0.00905    -0.00137    -0.03360
 PY  C   8  -0.02883     0.04362    -0.04648     0.05616     0.05137     0.00464
 PZ  C   8  -0.00731     0.02202    -0.02597     0.01531     0.01088     0.01672
  
  S  S   9  -0.01154     0.06902    -0.09574     0.00717     0.00514    -0.00358
 PX  S   9   0.00566    -0.04899     0.06086    -0.00712    -0.00105    -0.02321
 PY  S   9  -0.01440    -0.02295     0.03021     0.03225     0.04107    -0.05400
 PZ  S   9  -0.00703     0.02907    -0.03728     0.01081     0.00921     0.00142
  
  S  C  10   0.07910     0.00701    -0.02976    -0.12422    -0.12024     0.03125
 PX  C  10  -0.00497    -0.00640     0.00868    -0.03842    -0.02449    -0.04580
 PY  C  10  -0.01401     0.05535    -0.07377    -0.00425    -0.02103     0.06341
 PZ  C  10  -0.00418     0.01677    -0.02253    -0.00716    -0.01061     0.01525
  
  S  C  11   0.05721    -0.04181     0.04257    -0.15515    -0.11072    -0.10904
 PX  C  11  -0.02060     0.01234    -0.01154     0.01625     0.01521    -0.00166
 PY  C  11   0.00163     0.02849    -0.04036     0.00425    -0.01510     0.05955
 PZ  C  11  -0.00270     0.00990    -0.01313     0.00400    -0.00167     0.01696
  
  S  C  12   0.00980    -0.05914     0.07444    -0.12881    -0.05946    -0.17032
 PX  C  12   0.00533     0.01980    -0.02550    -0.01365    -0.01577     0.01426
 PY  C  12   0.03434    -0.01577     0.01691    -0.02038    -0.02060    -0.01343
 PZ  C  12   0.00992    -0.00138     0.00085    -0.00582    -0.00686    -0.00020
  
  S  C  13  -0.09250    -0.03885     0.05603     0.05627     0.06911    -0.05200
 PX  C  13   0.02098    -0.00506     0.00331    -0.14725    -0.09677    -0.09737
 PY  C  13   0.09106    -0.04137     0.04959     0.00140     0.00860    -0.02844
 PZ  C  13   0.02719    -0.01275     0.01506    -0.01737    -0.00714    -0.02016
  
  S  C  14   0.03796    -0.05270     0.07097     0.23016     0.17977     0.08553
 PX  C  14  -0.04049    -0.01665     0.02106    -0.04609    -0.02516    -0.05204
 PY  C  14   0.04589    -0.01494     0.01313    -0.08507    -0.06161    -0.03390
 PZ  C  14   0.00644    -0.00654     0.00668    -0.02957    -0.01882    -0.01576
  
  S  C  15   0.08295    -0.03090     0.02906     0.03573     0.01743     0.06393
 PX  C  15   0.01184    -0.01285     0.01190    -0.05002    -0.03838    -0.02428
 PY  C  15  -0.00589     0.03164    -0.04540    -0.07272    -0.06816     0.01073
 PZ  C  15   0.00012     0.00816    -0.01263    -0.02792    -0.02512     0.00152
  
  S  C  16   0.19826    -0.01415     0.02049     0.20894     0.14285     0.10431
 PX  C  16  -0.13428     0.00179     0.00281     0.09406     0.07040     0.04581
 PY  C  16  -0.04226    -0.01173     0.01648     0.05350     0.04602     0.02090
 PZ  C  16  -0.03351    -0.00290     0.00491     0.02670     0.02757     0.01397
  
  S  C  17   0.30891    -0.01366     0.01344     0.03721     0.01717     0.01201
 PX  C  17   0.04118    -0.00298     0.00440     0.05613     0.03855     0.03162
 PY  C  17  -0.10211     0.00031     0.00193     0.04295     0.03368     0.02615
 PZ  C  17  -0.02165    -0.00040     0.00124     0.01955     0.01779     0.01296
  
  S  C  18   0.31208    -0.00984     0.00626    -0.08516    -0.06440    -0.06108
 PX  C  18   0.11111    -0.00225     0.00071    -0.01818    -0.01799    -0.01131
 PY  C  18   0.00695    -0.00050     0.00112     0.03659     0.01746     0.02080
 PZ  C  18   0.02161    -0.00056     0.00045     0.00154     0.00818     0.00503
  
  S  C  19   0.22972    -0.00835     0.00450    -0.13653    -0.08428    -0.08812
 PX  C  19   0.01396     0.00134    -0.00289    -0.02429    -0.02743    -0.01174
 PY  C  19   0.12207    -0.00021    -0.00204    -0.01508    -0.03360    -0.01239
 PZ  C  19   0.03474     0.00012    -0.00105    -0.03296     0.01759     0.00124
  
  S  C  20   0.06790     0.01008    -0.01876    -0.16748    -0.12487    -0.06743
 PX  C  20  -0.12743     0.01459    -0.01766     0.00130    -0.03072     0.02021
 PY  C  20   0.12239     0.00629    -0.01015    -0.00986    -0.04471    -0.00587
 PZ  C  20   0.00606     0.00414    -0.00577    -0.05313     0.05015     0.01736
  
  S  C  21   0.02162     0.02788    -0.03571    -0.00900    -0.03440     0.03055
 PX  C  21  -0.20810     0.02078    -0.02253     0.01033    -0.00384     0.01970
 PY  C  21   0.02994    -0.01132     0.01934     0.17290     0.12449     0.06580
 PZ  C  21  -0.02439    -0.00055     0.00266     0.03830     0.05350     0.02613
  
  S  N  22  -0.26233     0.05352    -0.06333    -0.09928    -0.08567    -0.02301
 PX  N  22   0.02114    -0.00443     0.00383    -0.09751    -0.05426    -0.06705
 PY  N  22  -0.00205    -0.01742     0.02772     0.15045     0.12065     0.03863
 PZ  N  22   0.01259    -0.00902     0.01286     0.04055     0.04505     0.00936
  
  S  C  23   0.01806     0.02905    -0.04135    -0.20434    -0.13882    -0.06801
 PX  C  23   0.14471    -0.02135     0.02710     0.03695     0.07147    -0.00359
 PY  C  23  -0.11222     0.01499    -0.01740    -0.06381    -0.04528    -0.03918
 PZ  C  23  -0.04609     0.00592    -0.00703    -0.03691    -0.00685    -0.01192
  
  S  C  24   0.18995    -0.00496     0.00330    -0.11332    -0.00428    -0.05895
 PX  C  24   0.01453    -0.00858     0.01187     0.05108     0.04570     0.01897
 PY  C  24  -0.10692     0.00688    -0.00751    -0.03295    -0.04193    -0.02750
 PZ  C  24  -0.03885     0.00275    -0.00312    -0.01735    -0.01466    -0.01071
  
  S  C  25   0.26998    -0.01845     0.02117     0.01263     0.09421     0.01133
 PX  C  25  -0.09582     0.00524    -0.00544    -0.00273    -0.01794    -0.00445
 PY  C  25  -0.01977     0.00270    -0.00366    -0.04254    -0.02557    -0.02518
 PZ  C  25  -0.00284     0.00074    -0.00108    -0.01669    -0.00698    -0.00862
  
  S  C  26   0.26406    -0.02197     0.02658     0.10665     0.11687     0.05603
 PX  C  26  -0.04269     0.00435    -0.00525    -0.03844    -0.00872    -0.01551
 PY  C  26   0.08280    -0.00435     0.00445    -0.00799     0.01861    -0.00001
 PZ  C  26   0.03184    -0.00170     0.00174    -0.00516     0.01151     0.00181
  
  S  C  27   0.17842    -0.02204     0.02766     0.17656     0.07038     0.06860
 PX  C  27   0.09626    -0.00277     0.00257    -0.02093     0.04096     0.00492
 PY  C  27   0.06502    -0.00220     0.00144    -0.00154    -0.00521     0.00281
 PZ  C  27   0.01867    -0.00028    -0.00021    -0.01944     0.01774     0.00620
  
  S  C  28   0.03018     0.00240    -0.00583     0.02331    -0.06079     0.02180
 PX  C  28   0.15525    -0.00757     0.00839     0.01095     0.04192     0.00941
 PY  C  28  -0.02377     0.01849    -0.02583    -0.12550    -0.08357    -0.04054
 PZ  C  28  -0.01923     0.00742    -0.01040    -0.08761     0.01976    -0.00126
  
  S  C  29  -0.16392    -0.00319     0.00447    -0.00310    -0.00365     0.00656
 PX  C  29  -0.00236     0.00482    -0.00649     0.03770    -0.03789     0.01704
 PY  C  29   0.00946     0.01448    -0.02133    -0.08093    -0.11726    -0.03883
 PZ  C  29  -0.00702     0.00579    -0.00853    -0.15618     0.13673     0.03145
  
  S  C  30  -0.11825    -0.02015     0.03021     0.29900    -0.14686    -0.03284
 PX  C  30  -0.01201    -0.00137     0.00218     0.05303    -0.02211     0.00849
 PY  C  30  -0.01894    -0.00037     0.00033     0.03172    -0.07138    -0.02249
 PZ  C  30  -0.02635    -0.00075     0.00069    -0.07699     0.09283     0.02331
  
  S  C  31  -0.06443    -0.01357     0.02076     0.32206    -0.25216    -0.06202
 PX  C  31   0.00141     0.00040    -0.00057     0.00336     0.00453     0.00688
 PY  C  31   0.01167     0.00281    -0.00441    -0.04624     0.01064    -0.00025
 PZ  C  31  -0.02560    -0.00330     0.00483     0.05902    -0.04774    -0.01108
  
  S  C  32  -0.13394    -0.01033     0.01531    -0.16803     0.36621     0.09055
 PX  C  32   0.00671     0.00279    -0.00403     0.05401    -0.08576    -0.00652
 PY  C  32  -0.01844     0.00341    -0.00522    -0.03024    -0.02933    -0.00887
 PZ  C  32   0.02992     0.00249    -0.00357    -0.03682     0.02655     0.00222
  
  S  C  33  -0.07894    -0.01080     0.01586    -0.19156     0.38272     0.07424
 PX  C  33  -0.03014    -0.00213     0.00327    -0.03613     0.08315     0.02124
 PY  C  33  -0.00358    -0.00021    -0.00004    -0.02542     0.01044    -0.00251
 PZ  C  33   0.01388     0.00205    -0.00289     0.00119    -0.01387    -0.00051
  
  S  C  34  -0.00114    -0.13422    -0.05610    -0.00781    -0.00786     0.00100
 PX  C  34  -0.00433    -0.33104    -0.25585    -0.01511    -0.04103     0.14752
 PY  C  34   0.02236     0.20748    -0.07677     0.00998    -0.00322     0.06486
 PZ  C  34   0.00020     0.00933     0.00566     0.00060     0.00123    -0.00370
  
  S  O  35  -0.00229    -0.47478    -0.37046    -0.02626    -0.06447     0.21751
 PX  O  35  -0.00088     0.12635     0.11041     0.00609     0.01580    -0.05418
 PY  O  35   0.00553     0.08940     0.01127     0.00374     0.00220     0.00671
 PZ  O  35   0.00005    -0.00266    -0.00275    -0.00010    -0.00034     0.00132
  
  S  O  36   0.03377     0.51456     0.10009     0.02998     0.04312    -0.09003
 PX  O  36   0.00898     0.08050    -0.02698     0.00599     0.00445     0.00401
 PY  O  36   0.00157    -0.00676    -0.04517     0.00436     0.00156     0.01380
 PZ  O  36  -0.00024    -0.00237     0.00018    -0.00008    -0.00004    -0.00012
  
  S  H  37  -0.01786    -0.11455     0.04639     0.01194     0.03224    -0.11285
  
  S  H  38  -0.01585     0.00424     0.02905     0.01355     0.01272     0.00418
  
  S  H  39   0.00348     0.04360    -0.05577    -0.00129    -0.01255     0.05342
  
  S  H  40   0.01869    -0.00567     0.00270    -0.06594    -0.05061    -0.03588
  
  S  H  41   0.00200    -0.01580     0.02026    -0.07052    -0.03276    -0.07700
  
  S  H  42   0.03548     0.00060    -0.00515     0.02168     0.00809     0.04718
  
  S  H  43   0.09341    -0.00590     0.00648     0.02562     0.01580     0.01171
  
  S  H  44   0.09321    -0.00357     0.00264    -0.03083    -0.02195    -0.02348
  
  S  H  45   0.04956    -0.00506     0.00505    -0.04421    -0.01786    -0.03404
  
  S  H  46   0.04188    -0.00290     0.00318    -0.06761    -0.01555    -0.04763
  
  S  H  47   0.08073    -0.00613     0.00730     0.00256     0.03490     0.00182
  
  S  H  48   0.07810    -0.00739     0.00929     0.04422     0.04471     0.02221
  
  S  H  49   0.02976    -0.00998     0.01364     0.10483     0.02468     0.03049
  
  S  H  50  -0.04656    -0.01035     0.01558     0.14775    -0.03847     0.00006
  
  S  H  51  -0.04642    -0.00924     0.01367     0.09897    -0.03606    -0.01609
  
  S  H  52  -0.02243    -0.00563     0.00874     0.13638    -0.10115    -0.02527
  
  S  H  53  -0.02078    -0.00507     0.00753     0.12431    -0.11966    -0.03415
  
  S  H  54  -0.02344    -0.00579     0.00878     0.14721    -0.11311    -0.02370
  
  S  H  55  -0.05250    -0.00646     0.00962    -0.04011     0.16128     0.04624
  
  S  H  56  -0.05246    -0.00159     0.00243    -0.09254     0.15255     0.03916
  
  S  H  57  -0.02890    -0.00411     0.00618    -0.07935     0.16688     0.03448
  
  S  H  58  -0.02211    -0.00438     0.00602    -0.09777     0.15756     0.02509
  
  S  H  59  -0.03521    -0.00584     0.00854    -0.06978     0.15782     0.02842
  
  S  H  60   0.01552     0.19831     0.00266     0.01367     0.01577    -0.01957




    ROOT NO.   13          14          15          16          17          18

           -35.14545   -33.56701   -32.72331   -32.21610   -30.85064   -30.66374
  
  
  S  N   1   0.11776     0.06701    -0.01382     0.03286    -0.07366     0.08702
 PX  N   1   0.03910     0.01692    -0.00318     0.00517    -0.01419     0.01448
 PY  N   1  -0.00242    -0.00757     0.00177    -0.01029     0.00723    -0.01553
 PZ  N   1   0.00088     0.00168    -0.00026     0.00207     0.00108     0.00020
  
  S  C   2   0.01677    -0.03002     0.00771    -0.03666     0.04356    -0.06718
 PX  C   2  -0.11598    -0.09740     0.02098    -0.06489     0.10778    -0.13969
 PY  C   2  -0.00520    -0.02091     0.00539    -0.02835     0.02937    -0.05263
 PZ  C   2   0.00170     0.00332    -0.00054     0.00399     0.00175     0.00063
  
  S  C   3  -0.15374    -0.17174     0.03645    -0.12925     0.15302    -0.21328
 PX  C   3  -0.02071    -0.01275     0.00141    -0.00508    -0.01991     0.02491
 PY  C   3   0.01188    -0.02670     0.01011    -0.05012     0.09416    -0.14623
 PZ  C   3   0.00200     0.00364    -0.00065     0.00414     0.00127     0.00116
  
  S  C   4  -0.10848    -0.04031    -0.00153     0.01383    -0.12743     0.17430
 PX  C   4   0.01991     0.00656    -0.00115    -0.00650    -0.01740     0.00934
 PY  C   4  -0.06016    -0.10434     0.02612    -0.09268     0.14031    -0.18862
 PZ  C   4   0.00190     0.00504    -0.00076     0.00700     0.00563    -0.00094
  
  S  C   5   0.06441     0.15629    -0.03910     0.13121    -0.17957     0.23031
 PX  C   5  -0.03604    -0.03428     0.00076    -0.02966    -0.08720     0.08053
 PY  C   5  -0.07438    -0.04347     0.00421     0.01461    -0.05251     0.10465
 PZ  C   5   0.01379     0.02229    -0.00192     0.02856     0.03657    -0.01925
  
  S  C   6   0.12457     0.16529    -0.02051     0.14749     0.11268    -0.05646
 PX  C   6   0.01899     0.04108    -0.01296     0.01904    -0.07579     0.07017
 PY  C   6  -0.03207     0.00728    -0.01048     0.02493    -0.10115     0.12602
 PZ  C   6  -0.01915    -0.02351     0.00518    -0.00808     0.02548    -0.01847
  
  S  C   7   0.03495    -0.04398     0.03304    -0.00626     0.23635    -0.20315
 PX  C   7   0.01705     0.00199    -0.00425    -0.03404    -0.02740    -0.00808
 PY  C   7   0.09072     0.13194    -0.02497     0.07709     0.02492    -0.03423
 PZ  C   7   0.01665     0.03955    -0.00803     0.03292     0.01612    -0.00776
  
  S  C   8  -0.09249    -0.20576     0.02869    -0.21570    -0.03265    -0.04694
 PX  C   8   0.01717     0.04369    -0.02909    -0.05466    -0.13512     0.04370
 PY  C   8   0.12433     0.13930    -0.01403     0.07512     0.05303    -0.07506
 PZ  C   8   0.03265     0.02376     0.00461     0.02425     0.07581    -0.06306
  
  S  S   9   0.03228     0.03007    -0.02448    -0.07670    -0.19815     0.09428
 PX  S   9  -0.02471    -0.01182     0.00420     0.02199     0.01994     0.01084
 PY  S   9   0.03348     0.07549    -0.00811     0.10727    -0.01292     0.08113
 PZ  S   9   0.02764     0.03082    -0.00797     0.00187    -0.02954     0.01159
  
  S  C  10  -0.20819    -0.20776     0.00150    -0.12072    -0.09288     0.11796
 PX  C  10   0.06618     0.09239    -0.05557    -0.16205    -0.15671    -0.05124
 PY  C  10  -0.03952    -0.13321     0.03263    -0.14071    -0.03696    -0.02382
 PZ  C  10  -0.00418    -0.03072     0.00408    -0.06158    -0.01502    -0.02370
  
  S  C  11   0.04016     0.13569    -0.08191    -0.21811    -0.23307    -0.06537
 PX  C  11   0.05576     0.03566     0.01071    -0.03314    -0.02544    -0.07086
 PY  C  11  -0.11084    -0.14781     0.01096    -0.06990    -0.07046     0.07167
 PZ  C  11  -0.02310    -0.03627     0.00477    -0.02362    -0.01860     0.00739
  
  S  C  12   0.26966     0.26993    -0.01189    -0.09240     0.00328    -0.16043
 PX  C  12  -0.02159    -0.03675     0.01985    -0.03984    -0.08605    -0.04644
 PY  C  12  -0.05620     0.05450    -0.06644    -0.02548    -0.10008    -0.00727
 PZ  C  12  -0.02129     0.01087    -0.01827    -0.01532    -0.03898    -0.00808
  
  S  C  13   0.22825     0.10213    -0.01819    -0.05281     0.18013    -0.00153
 PX  C  13   0.10360     0.08146     0.07322    -0.02681     0.01429    -0.04645
 PY  C  13  -0.03219     0.11487    -0.05459     0.13437    -0.00782    -0.04769
 PZ  C  13   0.00634     0.04664    -0.01069     0.02784     0.00294    -0.02054
  
  S  C  14  -0.05813     0.00248     0.00766     0.26109     0.06666    -0.00188
 PX  C  14   0.07213     0.05609    -0.08117    -0.03519     0.10577     0.05494
 PY  C  14  -0.07142    -0.00843     0.06241     0.18217     0.06290     0.07119
 PZ  C  14  -0.00988     0.00559     0.00326     0.04417     0.03490     0.02665
  
  S  C  15  -0.21425    -0.15686     0.09033     0.31791     0.12753     0.13583
 PX  C  15  -0.01863    -0.00241    -0.04519    -0.03607     0.00553     0.04904
 PY  C  15  -0.03887    -0.10120     0.00897    -0.13392    -0.01519     0.02213
 PZ  C  15  -0.01471    -0.03187    -0.00348    -0.04398     0.00332     0.00918
  
  S  C  16  -0.07201     0.01107     0.09273     0.01754    -0.21188    -0.16973
 PX  C  16   0.00058    -0.05032    -0.16797    -0.00269     0.05284     0.02885
 PY  C  16  -0.01013    -0.00829     0.10428     0.11782     0.02979     0.00756
 PZ  C  16  -0.00342    -0.00972    -0.00152     0.03079     0.01676     0.00539
  
  S  C  17  -0.02141     0.08465     0.36679    -0.03715    -0.13505    -0.06957
 PX  C  17  -0.03368    -0.00796    -0.02744     0.03883    -0.10262    -0.09695
 PY  C  17  -0.02588    -0.02304     0.00060     0.06446    -0.03678    -0.03618
 PZ  C  17  -0.01297    -0.00772    -0.00591     0.02419    -0.02748    -0.02671
  
  S  C  18   0.07978     0.05993     0.22191    -0.11121     0.17353     0.17515
 PX  C  18   0.00158     0.01388    -0.00825    -0.00846    -0.03431    -0.03552
 PY  C  18  -0.03885     0.03801     0.13660    -0.01504    -0.12273    -0.07786
 PZ  C  18  -0.01029     0.01283     0.03599    -0.00637    -0.03934    -0.02681
  
  S  C  19   0.13702    -0.05565    -0.14449     0.01768     0.27062     0.17355
 PX  C  19  -0.01486    -0.01578    -0.13542     0.06420    -0.06203    -0.09068
 PY  C  19  -0.01893     0.05738     0.07989    -0.06225     0.00482     0.02287
 PZ  C  19  -0.00819     0.01272    -0.00296    -0.00813    -0.00842    -0.00703
  
  S  C  20  -0.04517    -0.01619    -0.33224     0.15355     0.02375    -0.06933
 PX  C  20  -0.13152     0.05294     0.00892     0.03380    -0.11672    -0.07684
 PY  C  20  -0.03729     0.02385    -0.02107    -0.06386    -0.04285     0.01588
 PZ  C  20  -0.03993     0.02286    -0.00472    -0.01486    -0.03193    -0.01490
  
  S  C  21  -0.12871    -0.01055    -0.22878    -0.04598    -0.14125    -0.06937
 PX  C  21  -0.02507    -0.04138     0.01859    -0.04294     0.03956     0.09613
 PY  C  21   0.06245    -0.02867     0.07347    -0.10583    -0.03376    -0.01918
 PZ  C  21   0.01060    -0.01027     0.01690    -0.03722    -0.00341     0.00422
  
  S  N  22   0.04141    -0.09598     0.07352    -0.12600     0.07251     0.15481
 PX  N  22   0.11556    -0.00456     0.19183     0.04719     0.08043     0.02749
 PY  N  22   0.13048    -0.01490    -0.06313    -0.12290     0.06857    -0.02601
 PZ  N  22   0.04668     0.00612    -0.01309    -0.03349     0.02815    -0.01559
  
  S  C  23  -0.02771    -0.03479     0.24174     0.14155    -0.01091     0.06248
 PX  C  23   0.14735    -0.07931     0.02865     0.03715    -0.02092    -0.07686
 PY  C  23   0.11143    -0.08778     0.06178    -0.02730     0.02554     0.03314
 PZ  C  23   0.03030    -0.01954     0.02888    -0.01120     0.01270     0.01070
  
  S  C  24   0.20655    -0.18753     0.12017     0.18999    -0.12062    -0.16869
 PX  C  24   0.02209    -0.02647    -0.11999    -0.00472    -0.05557    -0.08868
 PY  C  24   0.02929     0.03104     0.07879    -0.02590     0.03335     0.00359
 PZ  C  24   0.00948     0.01476     0.03593    -0.00911     0.01507     0.00349
  
  S  C  25   0.14072    -0.19739    -0.19012     0.08889    -0.12852    -0.13819
 PX  C  25  -0.00712     0.01149    -0.00730    -0.01399    -0.00563    -0.01663
 PY  C  25   0.04591    -0.03432     0.09677     0.08920    -0.06037    -0.09367
 PZ  C  25   0.01634    -0.01178     0.03581     0.03273    -0.02118    -0.03373
  
  S  C  26   0.01382    -0.03177    -0.26215    -0.15012     0.07396     0.11289
 PX  C  26   0.04887    -0.07909    -0.03561     0.06883    -0.07098    -0.07369
 PY  C  26   0.03095    -0.05867    -0.02675     0.06392    -0.05660    -0.05400
 PZ  C  26   0.00692    -0.01509    -0.00764     0.01974    -0.01652    -0.01772
  
  S  C  27  -0.12233     0.19627    -0.03306    -0.23623     0.16458     0.14649
 PX  C  27   0.04976    -0.08597    -0.13492    -0.01445     0.01550     0.06369
 PY  C  27  -0.03521     0.02020     0.02160     0.04129    -0.01480    -0.00942
 PZ  C  27  -0.02469     0.02223     0.01596     0.01492    -0.00376    -0.01299
  
  S  C  28  -0.24821     0.24189     0.11896     0.00347     0.03623     0.00493
 PX  C  28   0.04160    -0.03754     0.01439    -0.03667     0.03951     0.09693
 PY  C  28  -0.01055    -0.08130     0.00384     0.12970    -0.06043     0.01407
 PZ  C  28  -0.02823     0.00004     0.01272     0.04378    -0.02081    -0.01496
  
  S  C  29  -0.09627     0.10703    -0.03618     0.08754    -0.00595    -0.15715
 PX  C  29  -0.13418     0.14273     0.10732    -0.05072    -0.00913    -0.00437
 PY  C  29  -0.07035    -0.00656    -0.13187     0.10557    -0.01385    -0.00058
 PZ  C  29  -0.06018     0.03908    -0.00983     0.01097    -0.01370    -0.01845
  
  S  C  30   0.17304    -0.11618     0.07450    -0.02640    -0.03008    -0.01915
 PX  C  30  -0.04863     0.06892     0.04408    -0.03588    -0.00491    -0.01983
 PY  C  30   0.01251    -0.02396    -0.04215     0.05059    -0.00651    -0.01339
 PZ  C  30  -0.04992     0.07002    -0.02307     0.01432     0.04430    -0.06356
  
  S  C  31   0.18889    -0.18726     0.06972    -0.01051    -0.10783     0.07351
 PX  C  31  -0.02929     0.03427     0.01649    -0.01515    -0.00053    -0.00429
 PY  C  31  -0.02423     0.01295    -0.02933     0.02155     0.00678    -0.00260
 PZ  C  31   0.01792    -0.00610    -0.00470     0.00996     0.00870    -0.02007
  
  S  C  32   0.01835     0.01075     0.10393    -0.05113    -0.05556    -0.04371
 PX  C  32  -0.09103     0.10770     0.02054    -0.00411     0.01224    -0.05814
 PY  C  32  -0.04649     0.03289    -0.05136     0.05360     0.00614    -0.04629
 PZ  C  32   0.02293    -0.04479     0.00683    -0.01322    -0.02304     0.05823
  
  S  C  33   0.15831    -0.17066     0.07096    -0.06342    -0.05135     0.13828
 PX  C  33   0.00305     0.00407     0.02439    -0.01015    -0.02302    -0.02799
 PY  C  33   0.00326    -0.00429    -0.02972     0.02100     0.01417    -0.00843
 PZ  C  33  -0.01640     0.00844     0.00997    -0.00833    -0.01261     0.01480
  
  S  C  34  -0.02640    -0.05349     0.01416    -0.05763     0.09211    -0.13626
 PX  C  34   0.06858     0.07015    -0.01509     0.05740    -0.07141     0.10601
 PY  C  34   0.06942     0.09317    -0.02117     0.08053    -0.09966     0.14493
 PZ  C  34  -0.00111    -0.00066     0.00015    -0.00023     0.00137    -0.00144
  
  S  O  35   0.08604     0.07065    -0.01319     0.04707    -0.03800     0.05689
 PX  O  35  -0.02083    -0.01486     0.00242    -0.00795     0.00301    -0.00434
 PY  O  35   0.01494     0.02346    -0.00554     0.02192    -0.02658     0.03968
 PZ  O  35   0.00065     0.00062    -0.00011     0.00049    -0.00019     0.00042
  
  S  O  36   0.00379     0.03073    -0.00853     0.03450    -0.05778     0.08369
 PX  O  36   0.01573     0.02348    -0.00540     0.02102    -0.02591     0.03812
 PY  O  36   0.02414     0.04338    -0.01148     0.04803    -0.08166     0.12282
 PZ  O  36  -0.00021    -0.00021     0.00005    -0.00007     0.00025    -0.00019
  
  S  H  37  -0.04164    -0.01856    -0.00060    -0.00037    -0.06674     0.08249
  
  S  H  38   0.04077     0.06304    -0.00755     0.07131     0.05623    -0.01675
  
  S  H  39  -0.01138    -0.04940     0.02435     0.00301     0.12813    -0.08844
  
  S  H  40   0.01422     0.03974    -0.03189    -0.14474    -0.14981    -0.04621
  
  S  H  41   0.14831     0.09098     0.03138    -0.04775    -0.01820    -0.11045
  
  S  H  42  -0.10585    -0.10296     0.07354     0.13572     0.05860     0.04293
  
  S  H  43  -0.01706     0.03001     0.18705     0.00898    -0.05790    -0.02757
  
  S  H  44   0.03774     0.02162     0.11351    -0.05006     0.10344     0.10565
  
  S  H  45   0.08987    -0.05796    -0.06111     0.01612     0.14953     0.10744
  
  S  H  46   0.14090    -0.06779     0.07639     0.06938    -0.05216    -0.11589
  
  S  H  47   0.06678    -0.09117    -0.09128     0.04056    -0.06954    -0.08259
  
  S  H  48   0.00791    -0.01339    -0.12637    -0.08175     0.04050     0.05822
  
  S  H  49  -0.04329     0.09874     0.00945    -0.13956     0.08267     0.06221
  
  S  H  50   0.06019    -0.01742     0.07210    -0.06126    -0.00646     0.00021
  
  S  H  51   0.11354    -0.09498     0.01319    -0.00013    -0.00119     0.01224
  
  S  H  52   0.09125    -0.09421     0.04032    -0.01299    -0.05716     0.04610
  
  S  H  53   0.08740    -0.09404     0.00452     0.01425    -0.04245     0.03658
  
  S  H  54   0.06255    -0.06012     0.04055    -0.01491    -0.04822     0.03581
  
  S  H  55   0.00361     0.02655     0.08235    -0.05932    -0.02019    -0.01457
  
  S  H  56  -0.01949     0.02174     0.04428    -0.01573    -0.03329    -0.02000
  
  S  H  57   0.06683    -0.07592     0.04677    -0.04051    -0.03362     0.07662
  
  S  H  58   0.07598    -0.08437     0.00626    -0.01599    -0.00411     0.07699
  
  S  H  59   0.08706    -0.08973     0.02878    -0.02829    -0.01190     0.07139
  
  S  H  60   0.01876     0.03919    -0.01020     0.04174    -0.06763     0.10044




    ROOT NO.   19          20          21          22          23          24

           -29.66767   -28.95151   -28.08284   -27.84017   -27.11688   -26.13691
  
  
  S  N   1  -0.04944    -0.00523     0.00335    -0.04336     0.04899     0.09442
 PX  N   1  -0.00915    -0.00313     0.00673    -0.00464     0.00367    -0.00262
 PY  N   1  -0.00238    -0.01217     0.03780    -0.00572     0.01127     0.00004
 PZ  N   1   0.00305     0.00286    -0.00762     0.00370    -0.00487    -0.00429
  
  S  C   2   0.02069    -0.01438     0.04052     0.02474    -0.03010    -0.09059
 PX  C   2   0.06217    -0.00704     0.02912     0.05520    -0.06185    -0.13704
 PY  C   2   0.00315    -0.02943     0.09346    -0.00617     0.01951    -0.01148
 PZ  C   2   0.00558     0.00523    -0.01379     0.00690    -0.00904    -0.00850
  
  S  C   3   0.05652    -0.03270     0.08187     0.02522    -0.01610    -0.02966
 PX  C   3  -0.02962    -0.00339    -0.00689    -0.04894     0.06449     0.17147
 PY  C   3   0.04599    -0.05377     0.19230     0.02987    -0.00567    -0.10845
 PZ  C   3   0.00563     0.00547    -0.01468     0.00767    -0.01030    -0.01115
  
  S  C   4  -0.10557     0.02461    -0.12019    -0.10313     0.09953     0.24285
 PX  C   4  -0.03174    -0.02625     0.07338    -0.04809     0.06964     0.11320
 PY  C   4   0.06075    -0.01752     0.03111     0.01900    -0.00567     0.06702
 PZ  C   4   0.01326     0.01205    -0.03310     0.01612    -0.02132    -0.01958
  
  S  C   5  -0.06578     0.00443     0.03072    -0.00574    -0.00374    -0.12209
 PX  C   5  -0.10067    -0.04226     0.08918    -0.09317     0.10351     0.12130
 PY  C   5  -0.03037     0.06540    -0.22291    -0.02530     0.00022     0.09055
 PZ  C   5   0.05694     0.04294    -0.10905     0.05399    -0.06463    -0.04672
  
  S  C   6   0.18736     0.10956    -0.22126     0.15877    -0.16597    -0.14233
 PX  C   6  -0.04662    -0.03367     0.10508    -0.01077     0.00997    -0.08553
 PY  C   6  -0.03763     0.02463    -0.08383     0.02584    -0.06061    -0.12389
 PZ  C   6   0.02394     0.02783    -0.09087     0.01598    -0.02234     0.03655
  
  S  C   7   0.10876     0.06439    -0.16880    -0.03788     0.06973     0.25427
 PX  C   7  -0.03712    -0.05198     0.12742    -0.01214     0.01971    -0.03686
 PY  C   7   0.09526     0.01032     0.03120     0.10441    -0.09509    -0.11814
 PZ  C   7   0.05224     0.03297    -0.07867     0.04748    -0.04844     0.00448
  
  S  C   8  -0.13063    -0.07644     0.06018    -0.08046     0.06700     0.08999
 PX  C   8  -0.03826    -0.06809     0.13583     0.07021    -0.09021    -0.11562
 PY  C   8   0.04362    -0.04944     0.21079    -0.00810     0.03859     0.00720
 PZ  C   8   0.04531     0.02041    -0.03767    -0.01522     0.03288     0.09920
  
  S  S   9  -0.16014    -0.15715     0.38888    -0.05150     0.05048    -0.08358
 PX  S   9   0.02822     0.04754    -0.12545     0.00878    -0.01570     0.03833
 PY  S   9  -0.00233     0.02372     0.01260    -0.03960     0.06279     0.00256
 PZ  S   9  -0.01971    -0.03113     0.09130    -0.00720     0.01403    -0.01735
  
  S  C  10  -0.05296     0.02816    -0.14161     0.06119    -0.04173    -0.11574
 PX  C  10   0.02490    -0.06118     0.03521     0.13334    -0.15500     0.02150
 PY  C  10  -0.10670    -0.03299    -0.03576    -0.08001     0.01344     0.07554
 PZ  C  10  -0.01894    -0.00664    -0.03681    -0.01186    -0.00598     0.06004
  
  S  C  11   0.11072    -0.00803    -0.04388     0.15430    -0.21473     0.04880
 PX  C  11   0.00702    -0.00729     0.01106    -0.05325    -0.03878     0.09866
 PY  C  11  -0.07162    -0.02808    -0.03714     0.07964    -0.09799    -0.08092
 PZ  C  11  -0.01601    -0.00497    -0.01827     0.01233    -0.02960     0.00350
  
  S  C  12   0.06047     0.03704     0.01322    -0.17483     0.08904     0.12101
 PX  C  12   0.00571     0.00410    -0.03993    -0.02925    -0.08058     0.03626
 PY  C  12   0.10387    -0.00950     0.00611     0.14863    -0.10491     0.03551
 PZ  C  12   0.03171    -0.00047    -0.00582     0.03911    -0.03979     0.02179
  
  S  C  13  -0.11365    -0.02242     0.02495    -0.05563     0.15171     0.04103
 PX  C  13   0.02700     0.08233     0.00168    -0.19981     0.05662    -0.02567
 PY  C  13   0.09674    -0.04613     0.07321     0.04803     0.06261     0.03421
 PZ  C  13   0.02839     0.00072     0.01828    -0.01163     0.03307     0.01202
  
  S  C  14  -0.01606    -0.10384     0.13509     0.05498    -0.05162     0.05303
 PX  C  14  -0.01633    -0.00192    -0.00744     0.08669     0.14635    -0.03744
 PY  C  14   0.06288     0.08896     0.07860    -0.06970     0.01020    -0.10803
 PZ  C  14   0.01463     0.02504     0.01668    -0.00572     0.02814    -0.03062
  
  S  C  15   0.00768     0.08258     0.02461    -0.09821     0.03515    -0.12762
 PX  C  15   0.00571     0.00213    -0.04920     0.07830     0.05380    -0.07273
 PY  C  15  -0.04358     0.04759    -0.14536    -0.05591     0.05447    -0.01192
 PZ  C  15  -0.00948     0.01739    -0.06038    -0.00761     0.02928     0.00176
  
  S  C  16   0.04151    -0.07641    -0.03813    -0.11483    -0.11855     0.03089
 PX  C  16  -0.05087    -0.13217    -0.03192     0.14111     0.01656     0.04057
 PY  C  16  -0.02894     0.03302     0.13299     0.00166    -0.13340     0.11900
 PZ  C  16  -0.01676    -0.01208     0.02868     0.02291    -0.02964     0.03803
  
  S  C  17   0.02940     0.23464     0.09839    -0.05001    -0.08085     0.08782
 PX  C  17   0.04631    -0.09206    -0.05599    -0.16680    -0.05690    -0.05853
 PY  C  17   0.00870     0.01687     0.05658    -0.05150    -0.10628     0.08341
 PZ  C  17   0.01053    -0.01168     0.00516    -0.04369    -0.03836     0.01262
  
  S  C  18  -0.09710     0.11435     0.06606     0.29049     0.08518     0.05200
 PX  C  18   0.03065    -0.03764    -0.05685    -0.11627     0.02790    -0.09704
 PY  C  18   0.04282     0.15605     0.04143    -0.04403    -0.00663     0.03906
 PZ  C  18   0.01825     0.03557     0.00121    -0.03391     0.00219    -0.00569
  
  S  C  19  -0.12343    -0.17617    -0.00291     0.07456    -0.06265     0.01464
 PX  C  19   0.03983    -0.03824    -0.03652    -0.20164    -0.00996    -0.06303
 PY  C  19   0.01426     0.02795    -0.03655     0.06179     0.13999    -0.09479
 PZ  C  19   0.01481    -0.00223    -0.01662    -0.02328     0.03333    -0.03477
  
  S  C  20   0.01088    -0.03977     0.01565    -0.16183    -0.00013    -0.00405
 PX  C  20   0.06889     0.14414     0.05483     0.04803     0.06421     0.04960
 PY  C  20   0.11904    -0.05359    -0.09455    -0.04162     0.14358    -0.16713
 PZ  C  20   0.03476     0.01791    -0.01706    -0.00291     0.06366    -0.04762
  
  S  C  21   0.12698    -0.01483    -0.10179    -0.01421     0.10282    -0.09072
 PX  C  21  -0.01052     0.11233     0.07483     0.17362    -0.06309     0.10413
 PY  C  21  -0.07190    -0.09663    -0.08101     0.05406    -0.05854     0.02187
 PZ  C  21  -0.02735    -0.00597    -0.01296     0.04377    -0.01458     0.01893
  
  S  N  22  -0.01036     0.17340     0.02144    -0.00572    -0.07551    -0.06232
 PX  N  22  -0.05237     0.00745     0.02768    -0.19878    -0.06258    -0.08343
 PY  N  22  -0.16673    -0.08204    -0.09276     0.00865     0.07065     0.02922
 PZ  N  22  -0.06107    -0.02384    -0.02748    -0.01152     0.03512     0.00582
  
  S  C  23   0.10277    -0.13978     0.03283    -0.02090    -0.12480     0.00286
 PX  C  23  -0.10682    -0.16221    -0.10535    -0.04070    -0.00500    -0.05354
 PY  C  23  -0.05503     0.16411     0.00846    -0.13493    -0.06371    -0.14734
 PZ  C  23  -0.02552     0.07152     0.00706    -0.04839    -0.01272    -0.06253
  
  S  C  24  -0.15547    -0.13204    -0.11797     0.02853     0.02672    -0.10187
 PX  C  24  -0.07814     0.12801    -0.01051     0.09690     0.11325    -0.00104
 PY  C  24  -0.02733     0.02509    -0.01539    -0.13187    -0.01205    -0.07531
 PZ  C  24  -0.00902     0.00418    -0.00554    -0.05353    -0.00692    -0.02993
  
  S  C  25  -0.11186     0.23716     0.03491     0.18606     0.10241     0.01732
 PX  C  25  -0.03128     0.12268     0.02320     0.00836     0.03962    -0.03039
 PY  C  25  -0.08339    -0.14633    -0.09763     0.06043     0.05122    -0.04464
 PZ  C  25  -0.03020    -0.05794    -0.03657     0.02121     0.01763    -0.01621
  
  S  C  26   0.08180     0.31042     0.13473    -0.13412    -0.07004    -0.00137
 PX  C  26  -0.05353     0.16359     0.05005     0.09737     0.04581     0.01524
 PY  C  26  -0.02183    -0.02880    -0.00572     0.12680     0.03869     0.06821
 PZ  C  26  -0.00947    -0.01654    -0.00509     0.04237     0.01405     0.02058
  
  S  C  27   0.04672    -0.07369    -0.05164    -0.18614    -0.03283    -0.07521
 PX  C  27   0.09106     0.11895     0.08786    -0.08623    -0.08235     0.02519
 PY  C  27   0.03093    -0.13417    -0.00899     0.09173     0.01914     0.10997
 PZ  C  27  -0.00867    -0.04907    -0.01023     0.04236     0.02112     0.02613
  
  S  C  28   0.03305    -0.18621    -0.01274     0.10221     0.06593     0.12080
 PX  C  28   0.10678    -0.18199    -0.03345    -0.03829    -0.06938     0.01893
 PY  C  28   0.12627     0.01335     0.09284     0.05301    -0.05847     0.09467
 PZ  C  28   0.00757     0.02581     0.02725     0.03594     0.01771     0.00043
  
  S  C  29  -0.22939     0.10968     0.03439     0.02632    -0.05039     0.08066
 PX  C  29   0.02111    -0.01752    -0.03016     0.09103     0.16102    -0.03018
 PY  C  29   0.11762     0.00985     0.09006    -0.02064     0.02067     0.11703
 PZ  C  29   0.01495     0.03108     0.01434     0.02778     0.12329    -0.04295
  
  S  C  30  -0.09642     0.04801    -0.03929    -0.01768    -0.20180    -0.03731
 PX  C  30  -0.01879     0.00655    -0.03077     0.01348     0.09065    -0.04266
 PY  C  30   0.02140    -0.00210     0.04540     0.00658     0.02064     0.09097
 PZ  C  30  -0.18592     0.02472    -0.01403    -0.02061    -0.12937     0.02827
  
  S  C  31   0.28315    -0.01074     0.03695     0.05283     0.24892    -0.01401
 PX  C  31   0.00261    -0.00350    -0.01087     0.00596     0.04791    -0.01256
 PY  C  31   0.01603    -0.01095     0.02165     0.00408     0.04457     0.03857
 PZ  C  31  -0.06530     0.01047    -0.00475    -0.01675    -0.11140     0.02887
  
  S  C  32  -0.03239     0.06910    -0.03258     0.05703     0.18383    -0.14297
 PX  C  32  -0.10947     0.03350    -0.02779     0.04614     0.09844    -0.07370
 PY  C  32  -0.05457     0.03153     0.03569     0.00571    -0.00406     0.05619
 PZ  C  32   0.15115    -0.03480     0.01261     0.00420     0.08983    -0.00936
  
  S  C  33   0.28513    -0.08475     0.02292    -0.03069    -0.03769     0.09267
 PX  C  33  -0.02715     0.04007    -0.01384     0.01368     0.07597    -0.08112
 PY  C  33  -0.02709     0.00176     0.01416    -0.00495    -0.01275     0.01938
 PZ  C  33   0.06162    -0.01219     0.00197     0.00820     0.06432    -0.00146
  
  S  C  34   0.04216    -0.03957     0.13861     0.02493    -0.00660    -0.07867
 PX  C  34  -0.02628     0.03077    -0.10158    -0.01216    -0.00097     0.04953
 PY  C  34  -0.03295     0.03471    -0.09794    -0.00373    -0.01496    -0.02746
 PZ  C  34   0.00147     0.00062    -0.00149     0.00169    -0.00203    -0.00277
  
  S  O  35  -0.00208     0.01720    -0.04358     0.01492    -0.02694    -0.05299
 PX  O  35  -0.00175    -0.00036    -0.00298    -0.00272     0.00194     0.00583
 PY  O  35  -0.00690     0.01184    -0.03376     0.00418    -0.01278    -0.02814
 PZ  O  35   0.00025     0.00038    -0.00104     0.00046    -0.00067    -0.00071
  
  S  O  36  -0.02997     0.01966    -0.07036    -0.02445     0.01934     0.07984
 PX  O  36  -0.00858     0.00958    -0.02694    -0.00131    -0.00341    -0.00604
 PY  O  36  -0.04218     0.04032    -0.15421    -0.03587     0.02141     0.15616
 PZ  O  36   0.00026     0.00031    -0.00113     0.00025    -0.00040     0.00050
  
  S  H  37  -0.06769    -0.00504    -0.01082    -0.07843     0.09090     0.19072
  
  S  H  38   0.10392     0.08303    -0.20521     0.09738    -0.11573    -0.07239
  
  S  H  39   0.05732     0.06225    -0.17007    -0.03380     0.04177     0.17987
  
  S  H  40   0.03413    -0.01930    -0.02267     0.07412    -0.15867     0.05228
  
  S  H  41  -0.00902     0.02078    -0.02403    -0.15237     0.03668     0.05528
  
  S  H  42  -0.00889     0.05907    -0.00808    -0.11042     0.00690    -0.01683
  
  S  H  43   0.00768     0.14970     0.09456    -0.01224    -0.08278     0.10520
  
  S  H  44  -0.06494     0.07967     0.06651     0.21394     0.02610     0.08624
  
  S  H  45  -0.07906    -0.08897     0.03010     0.07604    -0.11319     0.08436
  
  S  H  46  -0.11434    -0.01635    -0.07315    -0.06264     0.04542    -0.08736
  
  S  H  47  -0.07743     0.17871     0.02511     0.10118     0.07845    -0.01158
  
  S  H  48   0.03448     0.22297     0.08735    -0.09841    -0.03994    -0.03105
  
  S  H  49  -0.01960     0.01449    -0.04729    -0.12595    -0.01450    -0.12005
  
  S  H  50  -0.05760     0.02382    -0.05794    -0.01711    -0.07274    -0.09718
  
  S  H  51  -0.04146     0.01076    -0.00611    -0.01749    -0.17097     0.00343
  
  S  H  52   0.16210    -0.00653     0.01571     0.03139     0.15427    -0.03110
  
  S  H  53   0.14025    -0.01403     0.03364     0.02311     0.12379     0.02114
  
  S  H  54   0.14476    -0.01462     0.01298     0.02945     0.16350    -0.00957
  
  S  H  55  -0.03181     0.02699    -0.04873     0.03199     0.11175    -0.12993
  
  S  H  56   0.01707     0.03307    -0.00587     0.04471     0.15927    -0.07712
  
  S  H  57   0.17415    -0.04875     0.00694    -0.01009     0.01324     0.03935
  
  S  H  58   0.13702    -0.05962     0.02374    -0.01907    -0.03989     0.08241
  
  S  H  59   0.11576    -0.04839     0.01035    -0.02179    -0.08481     0.06810
  
  S  H  60  -0.03351     0.02981    -0.11008    -0.02638     0.01573     0.10436




    ROOT NO.   25          26          27          28          29          30

           -25.52164   -25.15721   -24.72924   -23.75684   -23.49591   -23.14573
  
  
  S  N   1  -0.02343    -0.06874    -0.08063     0.11597    -0.00518     0.03276
 PX  N   1   0.00021     0.00572     0.01032    -0.02628     0.00062    -0.00967
 PY  N   1  -0.01460    -0.01808    -0.01503     0.01945    -0.03062     0.00928
 PZ  N   1   0.00290     0.00373     0.00226     0.00410    -0.00093     0.00376
  
  S  C   2   0.01983     0.07454     0.09724    -0.17511     0.02763    -0.06264
 PX  C   2   0.03160     0.10186     0.12372    -0.19448     0.02626    -0.06345
 PY  C   2  -0.03327    -0.04015    -0.03452     0.05662    -0.07776     0.02918
 PZ  C   2   0.00523     0.00716     0.00466     0.00616    -0.00196     0.00630
  
  S  C   3   0.00923     0.01975     0.02019    -0.06370     0.12742    -0.06370
 PX  C   3  -0.03344    -0.12978    -0.16656     0.25333     0.05611     0.05390
 PY  C   3  -0.05946    -0.05180    -0.04428     0.13952    -0.19442     0.08567
 PZ  C   3   0.00627     0.00994     0.00764     0.00279    -0.00262     0.00622
  
  S  C   4  -0.01028    -0.09040    -0.10333     0.08743     0.01300     0.02382
 PX  C   4  -0.05631    -0.12679    -0.13908     0.20161    -0.07223     0.06587
 PY  C   4   0.01553    -0.02970    -0.06111     0.04968     0.27710    -0.07352
 PZ  C   4   0.01371     0.02031     0.01503     0.00164     0.00367     0.00773
  
  S  C   5  -0.02902     0.02532     0.05314    -0.02773    -0.19589     0.04215
 PX  C   5  -0.04795    -0.08437    -0.06372     0.02720    -0.09958     0.02204
 PY  C   5   0.04583     0.04034     0.03657    -0.05147    -0.06171     0.03155
 PZ  C   5   0.03440     0.04297     0.02344     0.02917     0.01152     0.02340
  
  S  C   6   0.04793     0.04937     0.00262     0.14517     0.00327     0.06025
 PX  C   6  -0.01905     0.02771     0.04703    -0.06895    -0.03247    -0.01922
 PY  C   6   0.04832     0.11293     0.11464    -0.05864    -0.05585     0.03374
 PZ  C   6   0.02252    -0.00285    -0.02180     0.06778    -0.00590     0.03765
  
  S  C   7  -0.01806    -0.09904    -0.10109     0.00046    -0.01656    -0.01110
 PX  C   7  -0.01005     0.02462     0.01812    -0.05279     0.07134    -0.03712
 PY  C   7   0.00025    -0.01652    -0.04795     0.14016     0.08142     0.00581
 PZ  C   7   0.01377    -0.02196    -0.04133     0.09462    -0.01724     0.03504
  
  S  C   8   0.04324     0.08622     0.05337    -0.11081     0.09541    -0.01453
 PX  C   8   0.04724     0.03824     0.00808     0.08399     0.12243     0.01052
 PY  C   8  -0.05242    -0.09051    -0.04464    -0.03267     0.10725    -0.08242
 PZ  C   8  -0.01943    -0.05441    -0.04300    -0.02485    -0.02384    -0.01699
  
  S  S   9  -0.03132    -0.02246     0.00780     0.00307     0.05991    -0.02602
 PX  S   9   0.01148    -0.01452    -0.01120     0.03655    -0.06792     0.03315
 PY  S   9  -0.07997    -0.06795    -0.03810     0.00768    -0.19959     0.02125
 PZ  S   9  -0.01937    -0.01886    -0.01197     0.00367    -0.00390    -0.00818
  
  S  C  10  -0.00857     0.12529    -0.03699     0.09438    -0.03422     0.05897
 PX  C  10   0.09327     0.00609    -0.06429     0.11680     0.12649     0.03267
 PY  C  10   0.09148     0.06423     0.12388    -0.08328    -0.01177     0.03271
 PZ  C  10   0.03472     0.00800     0.01637    -0.01903    -0.01634     0.01628
  
  S  C  11   0.08272    -0.16747    -0.01495     0.06464    -0.03293    -0.01431
 PX  C  11   0.07750    -0.15885     0.14199    -0.09269    -0.08044    -0.04397
 PY  C  11   0.07648     0.07913    -0.02080     0.15407     0.07402     0.05166
 PZ  C  11   0.03152    -0.00593     0.01288     0.02351    -0.00579     0.00925
  
  S  C  12  -0.00920    -0.05473     0.12355    -0.18382    -0.09020     0.00232
 PX  C  12   0.07181    -0.20359     0.16981    -0.04058    -0.10576    -0.07259
 PY  C  12  -0.01451    -0.14268    -0.06743     0.00243    -0.02613    -0.06219
 PZ  C  12   0.00703    -0.06912     0.00454    -0.01182    -0.03171    -0.02530
  
  S  C  13  -0.00641     0.27977    -0.05230     0.00509     0.03928     0.08487
 PX  C  13  -0.01716     0.03228     0.04381    -0.06438    -0.00379     0.08903
 PY  C  13  -0.08682    -0.00092    -0.08565    -0.06400     0.09102    -0.05330
 PZ  C  13  -0.02566     0.01189    -0.01747    -0.03275     0.01259    -0.00221
  
  S  C  14   0.09095    -0.07351     0.01707     0.01554     0.12319    -0.03057
 PX  C  14  -0.13634     0.17973    -0.14227     0.03129     0.03214    -0.04586
 PY  C  14  -0.05336    -0.09778     0.00853     0.01803     0.05303    -0.02860
 PZ  C  14  -0.03448    -0.00114    -0.01939     0.00612     0.01080    -0.01755
  
  S  C  15  -0.04191    -0.14261     0.10604    -0.02683    -0.07575    -0.04487
 PX  C  15  -0.10046     0.13410    -0.14127     0.06111     0.02529     0.00618
 PY  C  15  -0.03445     0.06155     0.05049    -0.05144    -0.16829     0.02913
 PZ  C  15  -0.02575     0.03314    -0.01037    -0.01146    -0.05694     0.00939
  
  S  C  16   0.09278    -0.05276     0.00931    -0.04681     0.01688     0.14007
 PX  C  16   0.02420    -0.09475     0.05036    -0.02228    -0.02965    -0.11075
 PY  C  16   0.15539    -0.02843     0.09134     0.03567     0.03829     0.02430
 PZ  C  16   0.04811    -0.02326     0.03103     0.00413    -0.00047    -0.01810
  
  S  C  17  -0.01006     0.19995    -0.03358     0.07458    -0.04128    -0.03658
 PX  C  17   0.06367    -0.07258    -0.01159    -0.05195     0.06375     0.22632
 PY  C  17   0.09128     0.01326     0.06276     0.03396    -0.02376    -0.00662
 PZ  C  17   0.03578    -0.00841     0.01517     0.00045     0.00284     0.03508
  
  S  C  18  -0.04945    -0.04490     0.03387    -0.01489    -0.01849    -0.12721
 PX  C  18  -0.02325     0.01887    -0.07088    -0.01150     0.05204     0.14303
 PY  C  18  -0.07927     0.19964    -0.05895     0.07196    -0.06124    -0.15261
 PZ  C  18  -0.02806     0.05983    -0.02727     0.01958    -0.00834    -0.01933
  
  S  C  19   0.15251    -0.14796     0.06370    -0.02465     0.03205     0.15073
 PX  C  19  -0.00084     0.12968    -0.07383     0.06384     0.00311    -0.01131
 PY  C  19  -0.08421    -0.06293    -0.02773    -0.04144     0.05614     0.01985
 PZ  C  19  -0.02711     0.01009    -0.01551     0.00631     0.01432    -0.00450
  
  S  C  20   0.03435     0.11204     0.01637     0.09415    -0.00546    -0.10817
 PX  C  20  -0.09932     0.03771     0.04796     0.00780    -0.01542    -0.14493
 PY  C  20  -0.14952    -0.12671    -0.03962    -0.06926     0.07414     0.03594
 PZ  C  20  -0.01652    -0.02875    -0.02707    -0.02013    -0.00151    -0.05187
  
  S  C  21  -0.17396    -0.09027    -0.00827    -0.04845    -0.04675    -0.15728
 PX  C  21  -0.00745    -0.05518     0.06946     0.00632    -0.07342    -0.10985
 PY  C  21   0.04310    -0.01808    -0.02504    -0.03887    -0.04659     0.09268
 PZ  C  21   0.02503    -0.01162    -0.00329    -0.01178    -0.03803    -0.01405
  
  S  N  22   0.00066    -0.05698    -0.00139     0.04238    -0.01028     0.04528
 PX  N  22   0.12300     0.06126    -0.06169     0.04927     0.12876     0.22702
 PY  N  22   0.04559     0.19125     0.04671     0.06918    -0.09997     0.00760
 PZ  N  22   0.03387     0.07393     0.00879     0.01710    -0.03360     0.01583
  
  S  C  23   0.04663    -0.02442    -0.16349    -0.08647     0.04763     0.07070
 PX  C  23   0.04350     0.06605    -0.06073     0.07115    -0.05995    -0.14821
 PY  C  23   0.02617    -0.10127     0.01358     0.12192     0.09799     0.00592
 PZ  C  23   0.03612    -0.04781    -0.01126     0.02831     0.03641     0.01608
  
  S  C  24  -0.02575    -0.04554     0.04662     0.16187     0.01446    -0.21154
 PX  C  24  -0.09469    -0.05624     0.18541     0.07666     0.02074    -0.02646
 PY  C  24   0.03606    -0.06439     0.08753     0.09126     0.05979    -0.02937
 PZ  C  24   0.02569    -0.02384     0.01839     0.02408     0.01899    -0.00771
  
  S  C  25  -0.09430    -0.02966     0.06800    -0.02888     0.05130     0.16864
 PX  C  25  -0.03488    -0.07310     0.10599     0.03398     0.10457     0.14860
 PY  C  25  -0.06861    -0.03163     0.09650     0.13571    -0.00014    -0.17037
 PZ  C  25  -0.01917    -0.00968     0.02680     0.04458    -0.00589    -0.06805
  
  S  C  26   0.09700    -0.00544    -0.06856    -0.04720     0.01132     0.02010
 PX  C  26  -0.02675    -0.03075     0.00496    -0.08202     0.08266     0.24788
 PY  C  26  -0.04483     0.06082    -0.03852    -0.10018    -0.05162     0.10636
 PZ  C  26  -0.00700     0.02004    -0.02148    -0.03765    -0.02474     0.02637
  
  S  C  27   0.00047    -0.03345     0.11602     0.16278     0.00170    -0.15642
 PX  C  27   0.10438     0.03910    -0.12711    -0.04110    -0.06795    -0.15496
 PY  C  27  -0.01108     0.10482    -0.03307    -0.10960    -0.07957     0.09958
 PZ  C  27   0.02139     0.02474    -0.03062    -0.05330    -0.03314     0.04061
  
  S  C  28  -0.05391     0.05850     0.11883    -0.04958     0.01845     0.19644
 PX  C  28   0.01731     0.03476    -0.12416    -0.07954    -0.09431    -0.07876
 PY  C  28   0.00454     0.02381    -0.10874    -0.12653    -0.01034     0.00229
 PZ  C  28   0.07483    -0.02139    -0.08562    -0.07351    -0.01253     0.00087
  
  S  C  29   0.03230     0.10990     0.05285     0.06997    -0.01539     0.01181
 PX  C  29  -0.06451    -0.08011     0.13461    -0.00273     0.10182     0.18209
 PY  C  29   0.02779     0.11292     0.11336     0.07779    -0.00587    -0.06671
 PZ  C  29   0.19760    -0.01977    -0.07184    -0.01883    -0.03973    -0.06771
  
  S  C  30  -0.24420    -0.07059    -0.16900    -0.16248    -0.00469    -0.02818
 PX  C  30  -0.04168    -0.02265     0.11506     0.08689     0.07481     0.07451
 PY  C  30   0.09955     0.11707     0.09922     0.10311    -0.02291     0.02727
 PZ  C  30  -0.05131     0.03564     0.00971     0.03408    -0.00985     0.02131
  
  S  C  31   0.21375     0.02562     0.03564     0.05369    -0.01243    -0.00190
 PX  C  31  -0.01309    -0.00234     0.07079     0.05693     0.03734     0.03885
 PY  C  31   0.10351     0.06003     0.07089     0.08464    -0.01302     0.01983
 PZ  C  31  -0.13403     0.01297     0.00024    -0.02255     0.01238     0.01737
  
  S  C  32   0.25235    -0.08452    -0.18677    -0.07432    -0.04284    -0.04955
 PX  C  32   0.10016    -0.07020    -0.03440    -0.02737     0.01946     0.04864
 PY  C  32   0.08985     0.07154     0.02231     0.04277    -0.03615    -0.03906
 PZ  C  32   0.03288    -0.01203     0.01914    -0.00282     0.01344    -0.00652
  
  S  C  33  -0.22052     0.06011     0.16739     0.06110     0.04890     0.04939
 PX  C  33   0.14620    -0.03836    -0.14288    -0.05295    -0.04265    -0.07226
 PY  C  33   0.08387     0.02799    -0.01262     0.02002    -0.03413    -0.03505
 PZ  C  33  -0.01739     0.00028     0.06368     0.02846     0.03624     0.03359
  
  S  C  34  -0.04455    -0.04240    -0.04050     0.14019    -0.19475     0.09909
 PX  C  34   0.03237     0.02939     0.02399    -0.08175     0.15409    -0.06946
 PY  C  34   0.02246     0.05680     0.07223    -0.09367    -0.11895     0.02564
 PZ  C  34   0.00072     0.00120     0.00054     0.00432    -0.00457     0.00411
  
  S  O  35   0.02421     0.06271     0.07616    -0.12851     0.01361    -0.03969
 PX  O  35   0.00411     0.00657     0.00937    -0.03439     0.02835    -0.02190
 PY  O  35   0.01418     0.03911     0.05000    -0.07728    -0.04076    -0.00364
 PZ  O  35   0.00040     0.00055     0.00026     0.00146    -0.00096     0.00136
  
  S  O  36   0.01185    -0.01413    -0.02486     0.00138     0.11268    -0.03594
 PX  O  36   0.00430     0.01170     0.01504    -0.00882    -0.05952     0.02380
 PY  O  36   0.05360     0.01441    -0.00796    -0.11812     0.43710    -0.17885
 PZ  O  36   0.00061     0.00030    -0.00020     0.00085     0.00347    -0.00048
  
  S  H  37  -0.04006    -0.12582    -0.14160     0.17507    -0.02768     0.05073
  
  S  H  38   0.05755     0.05628     0.01994     0.09854    -0.00255     0.06185
  
  S  H  39  -0.00172    -0.06702    -0.05374     0.00752    -0.07857     0.01995
  
  S  H  40   0.11048    -0.14634     0.06498     0.03295    -0.03326    -0.01648
  
  S  H  41   0.03766    -0.10736     0.19406    -0.09582    -0.09095    -0.03962
  
  S  H  42   0.02258    -0.12465     0.14563    -0.06682    -0.11213    -0.01739
  
  S  H  43   0.02961     0.12516     0.02608     0.07225    -0.05535    -0.09097
  
  S  H  44  -0.01191    -0.03334     0.06180    -0.00009    -0.04486    -0.16290
  
  S  H  45   0.11001    -0.09005     0.06870    -0.02391    -0.01892     0.07089
  
  S  H  46  -0.00938    -0.08422     0.15553     0.14290     0.03522    -0.13497
  
  S  H  47  -0.07328    -0.06200     0.10803     0.01476     0.09361     0.17410
  
  S  H  48   0.06206    -0.04677    -0.01190     0.00114     0.06743     0.04568
  
  S  H  49  -0.03984    -0.10261     0.10111     0.15379     0.07457    -0.10548
  
  S  H  50  -0.18493    -0.12208    -0.09331    -0.09800     0.04419    -0.01381
  
[...]
    Config     551  -0.07800552  0.00608486
    Config     554   0.12510123  0.01565032
    Config     559   0.04552033  0.00207210
    Config     560  -0.06247119  0.00390265
    Config     568   0.05230295  0.00273560
    Config     572   0.13118508  0.01720953
    Config     580   0.06238177  0.00389148
    Config     593  -0.04813612  0.00231709
    Config     598  -0.05233062  0.00273849
    Config     599   0.13884279  0.01927732
    Config     604  -0.06756293  0.00456475
    Config     614   0.09646490  0.00930548
    Config     616  -0.06673197  0.00445316
    Config     622   0.04583508  0.00210085
    Config     624  -0.04063371  0.00165110
    Config     633  -0.05425878  0.00294402
    Config     635   0.05631123  0.00317096
    Config     641   0.06059215  0.00367141
    Config     644   0.04924617  0.00242518
    Config     645   0.05271975  0.00277937
    Config     651   0.06368678  0.00405601
    Config     652   0.04204486  0.00176777
    Config     653   0.04818873  0.00232215
    Config     659   0.08149354  0.00664120
    Config     662  -0.07444906  0.00554266
    Config     663   0.05665020  0.00320925
    Config     664   0.05018362  0.00251840
    Config     666  -0.07332350  0.00537634
    Config     667   0.04416949  0.00195094
    Config     684   0.04953120  0.00245334
    Config     692   0.05664089  0.00320819
    Config     699   0.06242803  0.00389726
    Config     701  -0.06412650  0.00411221
    Config     702  -0.09411467  0.00885757
    Config     706   0.04172001  0.00174056
    Config     719   0.04231967  0.00179095
    Config     730  -0.04275527  0.00182801
    Config     748   0.07587493  0.00575700
    Config     751  -0.04064302  0.00165186
    Config     762  -0.04982642  0.00248267
    Config     768   0.04446872  0.00197747
    Config     774   0.08084379  0.00653572
    Config     835  -0.04352371  0.00189431
    Config     867  -0.06041749  0.00365027
    Config     869   0.05049149  0.00254939
    Config     876  -0.04052287  0.00164210
 Total coeff printed             0.73001043
  
State  498 11.2222     CI coeff  CI percent
    Config     204  -0.08716962  0.00759854
    Config     209  -0.07795266  0.00607662
    Config     210  -0.05276314  0.00278395
    Config     211   0.05793495  0.00335646
    Config     212  -0.04171047  0.00173976
    Config     256  -0.12023799  0.01445717
    Config     274  -0.04092017  0.00167446
    Config     276   0.07362900  0.00542123
    Config     283  -0.05836375  0.00340633
    Config     291  -0.07281506  0.00530203
    Config     295   0.08537324  0.00728859
    Config     307   0.04867532  0.00236929
    Config     310  -0.05045292  0.00254550
    Config     311  -0.07448804  0.00554847
    Config     314   0.05888511  0.00346746
    Config     316   0.04774322  0.00227942
    Config     322   0.06328863  0.00400545
    Config     326  -0.05483072  0.00300641
    Config     331   0.06816990  0.00464714
    Config     336  -0.05939524  0.00352779
    Config     339   0.05459979  0.00298114
    Config     352   0.10070688  0.01014187
    Config     361   0.04144046  0.00171731
    Config     363  -0.06639617  0.00440845
    Config     365   0.11099655  0.01232023
    Config     373   0.06475574  0.00419331
    Config     376   0.05421645  0.00293942
    Config     378   0.08571767  0.00734752
    Config     382   0.09713948  0.00943608
    Config     383  -0.12689730  0.01610293
    Config     384  -0.07860267  0.00617838
    Config     388   0.12471350  0.01555346
    Config     389   0.04708402  0.00221691
    Config     391  -0.07049069  0.00496894
    Config     395  -0.04587911  0.00210489
    Config     398  -0.07828591  0.00612868
    Config     399   0.04853636  0.00235578
    Config     405  -0.05147356  0.00264953
    Config     406  -0.04263316  0.00181759
    Config     407   0.06677316  0.00445865
    Config     411   0.04235019  0.00179354
    Config     413   0.06321510  0.00399615
    Config     416   0.06242018  0.00389628
    Config     421  -0.06016317  0.00361961
    Config     423  -0.11861793  0.01407021
    Config     425  -0.04570240  0.00208871
    Config     426  -0.16613851  0.02760200
    Config     428   0.10016746  0.01003352
    Config     431  -0.17954714  0.03223717
    Config     434   0.05453504  0.00297407
    Config     439  -0.08088368  0.00654217
    Config     440   0.04405276  0.00194065
    Config     442  -0.08923294  0.00796252
    Config     448  -0.05009796  0.00250981
    Config     450   0.04397902  0.00193415
    Config     453  -0.06998157  0.00489742
    Config     454   0.05537965  0.00306691
    Config     458   0.05142528  0.00264456
    Config     459   0.08704214  0.00757633
    Config     460   0.13481419  0.01817487
    Config     461   0.06246556  0.00390195
    Config     469  -0.04459311  0.00198855
    Config     473   0.05291208  0.00279969
    Config     480  -0.04071020  0.00165732
    Config     483  -0.06237611  0.00389078
    Config     484   0.13481824  0.01817596
    Config     486   0.07991378  0.00638621
    Config     494  -0.06127220  0.00375428
    Config     497   0.06052054  0.00366274
    Config     500  -0.05435039  0.00295397
    Config     504   0.05406098  0.00292259
    Config     508   0.08517666  0.00725506
    Config     510   0.04138750  0.00171293
    Config     511  -0.05306250  0.00281563
    Config     517   0.06632181  0.00439858
    Config     520   0.04706718  0.00221532
    Config     523  -0.13194674  0.01740994
    Config     524  -0.13948365  0.01945569
    Config     525  -0.14302937  0.02045740
    Config     531   0.05776005  0.00333622
    Config     533  -0.04737601  0.00224449
    Config     535   0.06058359  0.00367037
    Config     536   0.06774594  0.00458951
    Config     540  -0.04710256  0.00221865
    Config     542   0.06220006  0.00386885
    Config     543  -0.09126229  0.00832881
    Config     544   0.05075443  0.00257601
    Config     550   0.05841315  0.00341210
    Config     551  -0.06657262  0.00443191
    Config     561  -0.07367696  0.00542829
    Config     566   0.04115115  0.00169342
    Config     568   0.11192647  0.01252753
    Config     572   0.05079238  0.00257987
    Config     573  -0.05353878  0.00286640
    Config     575   0.04140779  0.00171461
    Config     581  -0.04176078  0.00174396
    Config     584   0.05506858  0.00303255
    Config     585  -0.12173960  0.01482053
    Config     591  -0.05684705  0.00323159
    Config     597  -0.04535945  0.00205748
    Config     609  -0.04046287  0.00163724
    Config     610  -0.05031466  0.00253157
    Config     614   0.13215848  0.01746586
    Config     615  -0.06468329  0.00418393
    Config     618   0.08446472  0.00713429
    Config     621  -0.05539162  0.00306823
    Config     624   0.11002849  0.01210627
    Config     626   0.05765855  0.00332451
    Config     627   0.05093655  0.00259453
    Config     641   0.08858604  0.00784749
    Config     644  -0.04352939  0.00189481
    Config     645   0.05491453  0.00301561
    Config     663   0.04002274  0.00160182
    Config     670   0.10068698  0.01013787
    Config     676  -0.05638314  0.00317906
    Config     680  -0.05756003  0.00331316
    Config     687   0.04340740  0.00188420
    Config     696  -0.04625647  0.00213966
    Config     699   0.04604050  0.00211973
    Config     701  -0.04403376  0.00193897
    Config     709  -0.04635800  0.00214906
    Config     730   0.05145464  0.00264758
    Config     742  -0.05234849  0.00274036
    Config     748   0.04196147  0.00176077
    Config     754   0.05006242  0.00250625
    Config     769   0.05617368  0.00315548
    Config     771   0.05128281  0.00262993
    Config     788   0.04153562  0.00172521
    Config     799   0.08254287  0.00681333
    Config     828  -0.04204595  0.00176786
    Config     845  -0.06175690  0.00381391
    Config     861  -0.05373096  0.00288702
    Config     875   0.04850957  0.00235318
    Config     894  -0.04665590  0.00217677
    Config     907  -0.05174916  0.00267798
    Config     937  -0.05489394  0.00301334
    Config     960  -0.04434096  0.00196612
 Total coeff printed             0.72817443
  
State  499 11.2232     CI coeff  CI percent
    Config     155  -0.04228008  0.00178761
    Config     210  -0.04148048  0.00172063
    Config     248   0.04262529  0.00181692
    Config     256   0.04409376  0.00194426
    Config     264  -0.04766357  0.00227182
    Config     270  -0.04618721  0.00213326
    Config     273  -0.04997979  0.00249798
    Config     274  -0.04397672  0.00193395
    Config     276  -0.06683741  0.00446724
    Config     281  -0.04033517  0.00162693
    Config     289   0.04163084  0.00173313
    Config     291  -0.04763995  0.00226956
    Config     300   0.06496485  0.00422043
    Config     302  -0.08337905  0.00695207
    Config     307  -0.04183511  0.00175018
    Config     309   0.15038763  0.02261644
    Config     316  -0.04505120  0.00202961
    Config     318  -0.08817048  0.00777403
    Config     324   0.04292831  0.00184284
    Config     326   0.05734348  0.00328827
    Config     328  -0.06222538  0.00387200
    Config     329  -0.06118168  0.00374320
    Config     330   0.04697296  0.00220646
    Config     332   0.04878531  0.00238001
    Config     346   0.04044385  0.00163571
    Config     349  -0.05081549  0.00258221
    Config     352   0.04546642  0.00206720
    Config     357   0.06296744  0.00396490
    Config     361  -0.05926731  0.00351261
    Config     363   0.04019579  0.00161570
    Config     365  -0.09867780  0.00973731
    Config     368  -0.04725436  0.00223298
    Config     373  -0.04120843  0.00169813
    Config     383  -0.09777939  0.00956081
    Config     384   0.06359095  0.00404381
    Config     385  -0.07857693  0.00617433
    Config     391   0.07433969  0.00552639
    Config     392  -0.05760212  0.00331800
    Config     395   0.05094433  0.00259532
    Config     401   0.04662185  0.00217360
    Config     409   0.07000154  0.00490022
    Config     413  -0.04313036  0.00186023
    Config     417  -0.06175465  0.00381364
    Config     418   0.05817373  0.00338418
    Config     419  -0.05125509  0.00262708
    Config     421   0.07985351  0.00637658
    Config     422  -0.07076273  0.00500736
    Config     425  -0.06068883  0.00368313
    Config     427  -0.05372479  0.00288635
    Config     430  -0.04102031  0.00168267
    Config     431  -0.09171175  0.00841104
    Config     432   0.04877929  0.00237942
    Config     440   0.09104041  0.00828836
    Config     441  -0.04143632  0.00171697
    Config     446  -0.04554226  0.00207410
    Config     447  -0.06863251  0.00471042
    Config     452   0.08363466  0.00699476
    Config     453   0.08494749  0.00721608
    Config     454   0.06108973  0.00373196
    Config     457   0.04597867  0.00211404
    Config     460   0.04992490  0.00249250
    Config     461  -0.06113704  0.00373774
    Config     464   0.05141134  0.00264313
    Config     468  -0.07111608  0.00505750
    Config     471   0.09439352  0.00891014
    Config     474  -0.06343398  0.00402387
    Config     475   0.12232056  0.01496232
    Config     481  -0.04219092  0.00178007
    Config     482   0.07413197  0.00549555
    Config     484  -0.04243004  0.00180031
    Config     487  -0.07573229  0.00573538
    Config     488   0.06650379  0.00442275
    Config     490   0.07266900  0.00528078
    Config     491  -0.07027454  0.00493851
    Config     495   0.09700433  0.00940984
    Config     501   0.07594314  0.00576736
    Config     503  -0.04921226  0.00242185
    Config     504  -0.10761692  0.01158140
    Config     509  -0.07446199  0.00554459
    Config     512  -0.04845912  0.00234829
    Config     513   0.08459899  0.00715699
    Config     519  -0.17036642  0.02902472
    Config     521   0.04242191  0.00179962
    Config     522   0.10526290  0.01108028
    Config     530  -0.06027787  0.00363342
    Config     531  -0.04032985  0.00162650
    Config     534  -0.07645710  0.00584569
    Config     536   0.21690019  0.04704569
    Config     538   0.04753992  0.00226004
    Config     542   0.06200054  0.00384407
    Config     546   0.04476601  0.00200400
    Config     547  -0.05091057  0.00259189
    Config     548   0.06323936  0.00399922
    Config     552   0.04930322  0.00243081
    Config     554  -0.10423074  0.01086405
    Config     561  -0.04246666  0.00180342
    Config     564  -0.06198312  0.00384191
    Config     565  -0.04945167  0.00244547
    Config     567  -0.05778704  0.00333934
    Config     572   0.05806354  0.00337137
    Config     579   0.05935153  0.00352260
    Config     580   0.07552262  0.00570367
    Config     583   0.04805764  0.00230954
    Config     584  -0.05596146  0.00313168
    Config     591   0.04782875  0.00228759
    Config     597  -0.05392990  0.00290843
    Config     598   0.09231993  0.00852297
    Config     600  -0.06125838  0.00375259
    Config     603  -0.06394750  0.00408928
    Config     604  -0.05027051  0.00252712
    Config     605   0.12283680  0.01508888
    Config     608   0.05910648  0.00349358
    Config     609   0.04078341  0.00166329
    Config     610  -0.04757391  0.00226328
    Config     615   0.05615592  0.00315349
    Config     616  -0.04671390  0.00218219
    Config     622   0.05911124  0.00349414
    Config     627   0.07428269  0.00551792
    Config     633  -0.04510796  0.00203473
    Config     639   0.04790157  0.00229456
    Config     646   0.04706814  0.00221541
    Config     651   0.04092448  0.00167481
    Config     659  -0.07781507  0.00605518
    Config     662   0.07119410  0.00506860
    Config     663   0.04827421  0.00233040
    Config     668   0.04549389  0.00206969
    Config     672   0.04796805  0.00230093
    Config     673  -0.06436678  0.00414308
    Config     676   0.05096454  0.00259738
    Config     678   0.05465957  0.00298767
    Config     683  -0.08828270  0.00779384
    Config     688  -0.05211621  0.00271610
    Config     689   0.05874322  0.00345077
    Config     690  -0.05413482  0.00293058
    Config     691   0.06525974  0.00425883
    Config     694   0.04199277  0.00176339
    Config     697  -0.05467183  0.00298901
    Config     701   0.04041627  0.00163347
    Config     718  -0.06326534  0.00400250
    Config     725   0.04282403  0.00183390
    Config     729  -0.04402435  0.00193814
    Config     735  -0.04339581  0.00188320
    Config     739   0.04516129  0.00203954
    Config     746   0.14046392  0.01973011
    Config     764  -0.06337160  0.00401596
    Config     774   0.04369166  0.00190896
    Config     776  -0.06390729  0.00408414
    Config     779   0.05641846  0.00318304
    Config     801  -0.04042005  0.00163378
    Config     807   0.04385169  0.00192297
    Config     821  -0.06128648  0.00375603
    Config     834  -0.05785771  0.00334751
    Config     845   0.05523259  0.00305064
    Config     853  -0.04735584  0.00224258
    Config     920   0.04815122  0.00231854
    Config     935  -0.05022379  0.00252243
    Config     950  -0.04266333  0.00182016
    Config     987  -0.09257912  0.00857089
    Config    1445  -0.04265333  0.00181931
 Total coeff printed             0.71008376
  
State  500 11.2272     CI coeff  CI percent
    Config     202  -0.06343129  0.00402353
    Config     228  -0.06747422  0.00455277
    Config     248   0.09138905  0.00835196
    Config     253   0.08346604  0.00696658
    Config     257  -0.07723217  0.00596481
    Config     259   0.04647434  0.00215986
    Config     266  -0.05476483  0.00299919
    Config     270   0.04182781  0.00174957
    Config     274  -0.05226828  0.00273197
    Config     287   0.04396741  0.00193313
    Config     297  -0.05776361  0.00333663
    Config     302  -0.05668344  0.00321301
    Config     303   0.04159302  0.00172998
    Config     308  -0.06399613  0.00409550
    Config     309  -0.13137144  0.01725846
    Config     314   0.04779036  0.00228392
    Config     326  -0.31027496  0.09627055
    Config     327   0.28751757  0.08266635
    Config     329  -0.04226382  0.00178623
    Config     338  -0.06024618  0.00362960
    Config     340  -0.29651553  0.08792146
    Config     343   0.26476988  0.07010309
    Config     347   0.04685201  0.00219511
    Config     350   0.06215635  0.00386341
    Config     361   0.06049746  0.00365994
    Config     365  -0.04214682  0.00177635
    Config     368   0.04650274  0.00216250
    Config     377  -0.10139308  0.01028056
    Config     383  -0.04420806  0.00195435
    Config     384   0.09337090  0.00871813
    Config     389  -0.05218734  0.00272352
    Config     408  -0.04244564  0.00180163
    Config     414  -0.05270264  0.00277757
    Config     415  -0.09883365  0.00976809
    Config     429  -0.07947056  0.00631557
    Config     434  -0.05963023  0.00355576
    Config     441   0.04574651  0.00209274
    Config     448  -0.08778757  0.00770666
    Config     450  -0.08170230  0.00667527
    Config     453   0.23188869  0.05377236
    Config     454   0.04190599  0.00175611
    Config     463   0.04317021  0.00186367
    Config     470  -0.10568595  0.01116952
    Config     481   0.05039678  0.00253984
    Config     484  -0.06191894  0.00383396
    Config     488  -0.05258683  0.00276537
    Config     491  -0.05789989  0.00335240
    Config     495   0.08495585  0.00721750
    Config     498  -0.09784904  0.00957443
    Config     503   0.04170987  0.00173971
    Config     504   0.04980628  0.00248067
    Config     507  -0.05123518  0.00262504
    Config     510   0.18713400  0.03501913
    Config     512  -0.11056900  0.01222550
    Config     519   0.05847307  0.00341910
    Config     531  -0.07597681  0.00577248
    Config     532   0.05245742  0.00275178
    Config     534  -0.04224560  0.00178469
    Config     536  -0.09898888  0.00979880
    Config     537   0.05415178  0.00293242
    Config     548  -0.09448038  0.00892654
    Config     549  -0.05963238  0.00355602
    Config     556  -0.05167279  0.00267008
    Config     562   0.04839763  0.00234233
    Config     588   0.04874258  0.00237584
    Config     589   0.09435693  0.00890323
    Config     590   0.04526990  0.00204936
    Config     591   0.04379246  0.00191778
    Config     592  -0.12235209  0.01497004
    Config     595  -0.05249993  0.00275624
    Config     607  -0.04139224  0.00171332
    Config     614   0.04534518  0.00205619
    Config     622   0.07580041  0.00574570
    Config     626  -0.05191169  0.00269482
    Config     658  -0.04040503  0.00163257
    Config     664   0.04629761  0.00214347
    Config     671   0.04488030  0.00201424
    Config     672   0.05370520  0.00288425
    Config     676  -0.05140383  0.00264235
    Config     689  -0.07311007  0.00534508
    Config     691  -0.05690176  0.00323781
    Config     727   0.05200734  0.00270476
    Config     746  -0.13050515  0.01703159
    Config     759   0.04131949  0.00170730
    Config     788  -0.04347638  0.00189020
    Config     807  -0.04402129  0.00193787
    Config     839  -0.05450472  0.00297076
    Config     920  -0.04146036  0.00171896
    Config     935   0.04740739  0.00224746
    Config     987   0.08385631  0.00703188
 Total coeff printed             0.79396786
  

 **********************
 *                    *
 * JOB ENDED NORMALLY *
 *                    *
 **********************



 TOTAL JOB TIME:           319.45 SECONDS

 == MOPAC DONE ==
