 *******************************************************************************
 ** Site#: 37966        For non-commercial use only           Version 21.186W **
 *******************************************************************************
 ** Cite this program as: MOPAC2016, Version: 21.186W, James J. P. Stewart,   **
 ** Stewart Computational Chemistry, web: HTTP://OpenMOPAC.net. Days left: 254**
 *******************************************************************************
 **                                                                           **
 **                                MOPAC2016                                  **
 **                                                                           **
 *******************************************************************************

                              INDO CALCULATION RESULTS

 *******************************************************************************
 *  CALCULATION DONE:                                Sun Oct 24 21:51:30 2021  *
 *  INDO       - The INDO Hamiltonian to be used
 *  CIS        - C.I. USES 1 ELECTRON EXCITATIONS ONLY
 *  EPS=8.93   - USE ANDREAS KLAMT'S COSMO IMPLICIT SOLVATION MODEL
 *  N**2=1.42  - USED IN COSMO-CI
 *  T=         - A TIME OF 172800.0 SECONDS REQUESTED
 *  DUMP=N     - RESTART FILE WRITTEN EVERY 7200.0 SECONDS REQUESTED
 *******************************************************************************
INDO CIS EPS=8.93 N**2=1.42
 Dye42
 Calculo de Estados Excitados
   ATOM   CHEMICAL          X               Y               Z
  NUMBER   SYMBOL      (ANGSTROMS)     (ANGSTROMS)     (ANGSTROMS)
 
     1       C         -0.59790680  *   0.67535522  *  -0.13446321  *
     2       C          0.74374226  *   1.07434876  *   0.45536403  *
     3       C          1.60810208  *   1.83334021  *  -0.54742741  *
     4       C          1.93351852  *   0.98763769  *  -1.77559780  *
     5       C          3.06437790  *   1.60538443  *  -2.59799303  *
     6       C          4.44264833  *   1.19045677  *  -2.04263934  *
     7       N          5.49065009  *   2.02696640  *  -2.64106275  *
     8       C          6.00802290  *   1.84525531  *  -3.94053787  *
     9       C          5.59840602  *   0.98986066  *  -4.96907953  *
    10       C          6.28689747  *   1.03382580  *  -6.16389750  *
    11       C          7.36916038  *   1.91727755  *  -6.32748930  *
    12       C          7.79666070  *   2.77435602  *  -5.32787446  *
    13       C          7.09759437  *   2.73561567  *  -4.12667037  *
    14       C          7.23742210  *   3.47581910  *  -2.90929127  *
    15       C          6.22476763  *   3.05539313  *  -2.02288377  *
    16       C          6.07808820  *   3.69216102  *  -0.75534405  *
    17       C          4.99631976  *   3.46644030  *   0.12554713  *
    18       C          4.92839272  *   4.09309179  *   1.34026009  *
    19       C          5.93948651  *   4.99200835  *   1.72874831  *
    20       C          6.97447324  *   5.26420203  *   0.87674998  *
    21       C          7.06012838  *   4.63683315  *  -0.39074758  *
    22       C          8.11264059  *   4.98888383  *  -1.29366331  *
    23       C          8.18416736  *   4.44206917  *  -2.54628934  *
    24       C          9.13108308  *   5.93487079  *  -0.88725226  *
    25       C         10.10386440  *   5.70377423  *   0.05127645  *
    26       C         10.96316602  *   6.82677263  *   0.20045438  *
    27       C         10.60772017  *   7.86851934  *  -0.63238301  *
    28       S          9.24587672  *   7.47980325  *  -1.57567522  *
    29       C         11.32908099  *   9.10276533  *  -0.66143845  *
    30       C         11.05759063  *  10.16570656  *  -1.44881489  *
    31       C         11.90265078  *  11.36216177  *  -1.35278665  *
    32       O         12.86250328  *  11.52154748  *  -0.61097992  *
    33       O         11.54104783  *  12.35694339  *  -2.18842285  *
    34       C          9.99223897  *  10.20623834  *  -2.37989708  *
    35       N          9.13010434  *  10.26860693  *  -3.14884238  *
    36       O          7.97649978  *   2.00401415  *  -7.55719704  *
    37       C          8.85155614  *   0.92753620  *  -7.79734836  *
    38       C          4.68992201  *  -0.31031165  *  -2.27409834  *
    39       C          6.02708148  *  -0.75539069  *  -1.71069282  *
    40       H         12.18239265  *   9.16180111  *   0.03594153  *
    41       H         -0.50908773  *  -0.11428608  *  -0.89411797  *
    42       H         -1.28017983  *   0.28439870  *   0.63506543  *
    43       H         -1.11367793  *   1.52126708  *  -0.61115129  *
    44       H          0.58719072  *   1.70240333  *   1.35913994  *
    45       H          1.27981469  *   0.17795587  *   0.83340515  *
    46       H          1.10543091  *   2.77529264  *  -0.85482326  *
    47       H          2.54262895  *   2.17814376  *  -0.04643801  *
    48       H          2.18661664  *  -0.05671025  *  -1.48619445  *
    49       H          1.02896061  *   0.88425290  *  -2.41220280  *
    50       H          2.97158651  *   1.31037895  *  -3.66413805  *
    51       H          2.96678651  *   2.71217535  *  -2.62034832  *
    52       H          4.46902079  *   1.35616743  *  -0.92896508  *
    53       H          4.76166662  *   0.29681684  *  -4.83596091  *
    54       H          5.98619771  *   0.38980969  *  -6.99574256  *
    55       H          8.63207673  *   3.46231308  *  -5.47516872  *
    56       H          4.17273117  *   2.79648021  *  -0.16041692  *
    57       H          4.08766476  *   3.90917338  *   2.01568884  *
    58       H          5.87941050  *   5.47580167  *   2.70826688  *
    59       H          7.74124819  *   5.98361373  *   1.18095868  *
    60       H          8.96324102  *   4.72147598  *  -3.26161000  *
    61       H         10.21849789  *   4.77986041  *   0.61283381  *
    62       H         11.80122997  *   6.84173951  *   0.89497102  *
    63       H         12.12536723  *  13.12262786  *  -2.09041943  *
    64       H          8.34666342  *  -0.05278360  *  -7.80347764  *
    65       H          9.25880836  *   1.12412656  *  -8.80015053  *
    66       H          9.68367747  *   0.88259544  *  -7.07513264  *
    67       H          3.85926268  *  -0.87458526  *  -1.78962783  *
    68       H          4.60683813  *  -0.58475196  *  -3.34826506  *
    69       H          6.16289435  *  -1.84291805  *  -1.80650245  *
    70       H          6.87864701  *  -0.28854869  *  -2.22659234  *
    71       H          6.13329069  *  -0.51902304  *  -0.64199288  *
 


          CARTESIAN COORDINATES 

    NO.       ATOM           X           Y           Z

     1         C         -0.5979      0.6754     -0.1345
     2         C          0.7437      1.0743      0.4554
     3         C          1.6081      1.8333     -0.5474
     4         C          1.9335      0.9876     -1.7756
     5         C          3.0644      1.6054     -2.5980
     6         C          4.4426      1.1905     -2.0426
     7         N          5.4907      2.0270     -2.6411
     8         C          6.0080      1.8453     -3.9405
     9         C          5.5984      0.9899     -4.9691
    10         C          6.2869      1.0338     -6.1639
    11         C          7.3692      1.9173     -6.3275
    12         C          7.7967      2.7744     -5.3279
    13         C          7.0976      2.7356     -4.1267
    14         C          7.2374      3.4758     -2.9093
    15         C          6.2248      3.0554     -2.0229
    16         C          6.0781      3.6922     -0.7553
    17         C          4.9963      3.4664      0.1255
    18         C          4.9284      4.0931      1.3403
    19         C          5.9395      4.9920      1.7287
    20         C          6.9745      5.2642      0.8767
    21         C          7.0601      4.6368     -0.3907
    22         C          8.1126      4.9889     -1.2937
    23         C          8.1842      4.4421     -2.5463
    24         C          9.1311      5.9349     -0.8873
    25         C         10.1039      5.7038      0.0513
    26         C         10.9632      6.8268      0.2005
    27         C         10.6077      7.8685     -0.6324
    28         S          9.2459      7.4798     -1.5757
    29         C         11.3291      9.1028     -0.6614
    30         C         11.0576     10.1657     -1.4488
    31         C         11.9027     11.3622     -1.3528
    32         O         12.8625     11.5215     -0.6110
    33         O         11.5410     12.3569     -2.1884
    34         C          9.9922     10.2062     -2.3799
    35         N          9.1301     10.2686     -3.1488
    36         O          7.9765      2.0040     -7.5572
    37         C          8.8516      0.9275     -7.7973
    38         C          4.6899     -0.3103     -2.2741
    39         C          6.0271     -0.7554     -1.7107
    40         H         12.1824      9.1618      0.0359
    41         H         -0.5091     -0.1143     -0.8941
    42         H         -1.2802      0.2844      0.6351
    43         H         -1.1137      1.5213     -0.6112
    44         H          0.5872      1.7024      1.3591
    45         H          1.2798      0.1780      0.8334
    46         H          1.1054      2.7753     -0.8548
    47         H          2.5426      2.1781     -0.0464
    48         H          2.1866     -0.0567     -1.4862
    49         H          1.0290      0.8843     -2.4122
    50         H          2.9716      1.3104     -3.6641
    51         H          2.9668      2.7122     -2.6203
    52         H          4.4690      1.3562     -0.9290
    53         H          4.7617      0.2968     -4.8360
    54         H          5.9862      0.3898     -6.9957
    55         H          8.6321      3.4623     -5.4752
    56         H          4.1727      2.7965     -0.1604
    57         H          4.0877      3.9092      2.0157
    58         H          5.8794      5.4758      2.7083
    59         H          7.7412      5.9836      1.1810
    60         H          8.9632      4.7215     -3.2616
    61         H         10.2185      4.7799      0.6128
    62         H         11.8012      6.8417      0.8950
    63         H         12.1254     13.1226     -2.0904
    64         H          8.3467     -0.0528     -7.8035
    65         H          9.2588      1.1241     -8.8002
    66         H          9.6837      0.8826     -7.0751
    67         H          3.8593     -0.8746     -1.7896
    68         H          4.6068     -0.5848     -3.3483
    69         H          6.1629     -1.8429     -1.8065
    70         H          6.8786     -0.2885     -2.2266
    71         H          6.1333     -0.5190     -0.6420

           Empirical Formula: C33 H32 N2 O3 S  =    71 atoms



      MOLECULAR POINT GROUP   :   C1  


      RHF CALCULATION, NO. OF DOUBLY OCCUPIED LEVELS = 99

 WARNING: INDO only performs single-point calculations


 ALL CONVERGERS ARE NOW FORCED ON
 SHIFT=10, PULAY ON, CAMP-KING ON
 AND ITERATION COUNTER RESET



 Summary of symmetry occupancy in each shell:

 SHELL     
    1   99
    v   89
 TOTAL 188




    ROOT NO.    1           2           3           4           5           6

           -49.07759   -46.73914   -46.53325   -45.09445   -43.71786   -43.00795
  
  
  S  C   1   0.01250    -0.00009    -0.00898    -0.02341     0.13841     0.02181
 PX  C   1   0.00556    -0.00004    -0.00372    -0.00916     0.05112     0.00776
 PY  C   1   0.00159    -0.00001    -0.00113    -0.00267     0.01629     0.00235
 PZ  C   1  -0.00068     0.00001     0.00026     0.00064    -0.00024    -0.00010
  
  S  C   2   0.02311    -0.00014    -0.01532    -0.03586     0.20791     0.03033
 PX  C   2   0.00499    -0.00002    -0.00248    -0.00371     0.01655     0.00114
 PY  C   2   0.00193    -0.00000    -0.00120    -0.00160     0.01218     0.00091
 PZ  C   2  -0.00781     0.00005     0.00477     0.01132    -0.05783    -0.00867
  
  S  C   3   0.04915    -0.00024    -0.02748    -0.05632     0.28649     0.03785
 PX  C   3   0.01100    -0.00002    -0.00425    -0.00354     0.00772    -0.00214
 PY  C   3  -0.00665     0.00007     0.00393     0.01183    -0.04992    -0.00924
 PZ  C   3  -0.01058     0.00009     0.00470     0.01226    -0.03386    -0.00660
  
  S  C   4   0.07375    -0.00049    -0.03559    -0.08307     0.31718     0.04983
 PX  C   4   0.02408    -0.00015    -0.00890    -0.01884     0.03907     0.00640
 PY  C   4   0.00870    -0.00003    -0.00452    -0.00740     0.03795     0.00393
 PZ  C   4  -0.00154     0.00004    -0.00119     0.00032     0.02885     0.00178
  
  S  C   5   0.13736    -0.00090    -0.05021    -0.11283     0.28599     0.04997
 PX  C   5   0.04818    -0.00029    -0.01213    -0.02317    -0.00170     0.00239
 PY  C   5  -0.01022     0.00013     0.00416     0.01635    -0.04029    -0.00986
 PZ  C   5   0.01478    -0.00002    -0.00907    -0.01277     0.06629     0.00605
  
  S  C   6   0.25388    -0.00145    -0.07916    -0.15577     0.25891     0.04822
 PX  C   6   0.05589    -0.00025    -0.01010    -0.01131    -0.06116    -0.00635
 PY  C   6   0.03700     0.00001    -0.01007     0.00286    -0.02265    -0.01162
 PZ  C   6  -0.04514     0.00046     0.00756     0.03346     0.00055    -0.01372
  
  S  N   7   0.46695    -0.00222    -0.10284    -0.16359    -0.03509     0.02020
 PX  N   7   0.05712    -0.00011    -0.00149     0.01249    -0.11165    -0.01108
 PY  N   7   0.02640     0.00027    -0.00346     0.02999    -0.07363    -0.01955
 PZ  N   7  -0.03216     0.00057    -0.00884     0.02141     0.06278    -0.01256
  
  S  C   8   0.34745    -0.00337     0.01587    -0.12228    -0.17187     0.03461
 PX  C   8   0.00811    -0.00029     0.02531     0.01915    -0.06979    -0.00575
 PY  C   8   0.05603    -0.00004    -0.00946     0.00475    -0.06703    -0.00842
 PZ  C   8   0.10350     0.00039    -0.06755    -0.03157     0.00072    -0.00370
  
  S  C   9   0.15064    -0.00298     0.07615    -0.07375    -0.06916     0.03565
 PX  C   9   0.02683    -0.00091     0.03940    -0.00362    -0.04583     0.00380
 PY  C   9   0.04191    -0.00073     0.01946    -0.01339    -0.04044     0.00529
 PZ  C   9   0.04351     0.00008    -0.03166    -0.02613     0.00751     0.00621
  
  S  C  10   0.09715    -0.00440     0.19827    -0.01963    -0.05525     0.01899
 PX  C  10   0.01312    -0.00141     0.07833     0.01088     0.00322    -0.00265
 PY  C  10   0.02557    -0.00115     0.05349    -0.00217    -0.02070     0.00320
 PZ  C  10   0.03180    -0.00007    -0.01855    -0.02337    -0.04382     0.01132
  
  S  C  11   0.11539    -0.00796     0.40862     0.02189    -0.01189     0.00527
 PX  C  11  -0.00683    -0.00121     0.07992     0.02267     0.04528    -0.00921
 PY  C  11  -0.00012     0.00028    -0.01495    -0.00030    -0.00916    -0.00005
 PZ  C  11   0.01732     0.00206    -0.13586    -0.03619    -0.08952     0.01493
  
  S  C  12   0.11965    -0.00399     0.18361    -0.00370    -0.10630     0.01248
 PX  C  12  -0.03979     0.00078    -0.02253     0.01352     0.04566    -0.00673
 PY  C  12  -0.02402     0.00134    -0.06070     0.00563     0.01258    -0.00405
 PZ  C  12   0.02413     0.00117    -0.07433    -0.01188    -0.05375     0.00366
  
  S  C  13   0.27235    -0.00257     0.05202    -0.03609    -0.23800     0.01216
 PX  C  13  -0.07240     0.00054     0.01054     0.02946     0.03779    -0.00409
 PY  C  13  -0.02913     0.00095    -0.02173     0.02857     0.01552    -0.00947
 PZ  C  13   0.07183     0.00092    -0.06230     0.00326    -0.03340    -0.01076
  
  S  C  14   0.27064     0.00162    -0.04605     0.10662    -0.19911    -0.03266
 PX  C  14  -0.08008     0.00061     0.01530     0.02697     0.03695     0.00856
 PY  C  14  -0.06989     0.00134     0.00167     0.06136     0.04606    -0.00555
 PZ  C  14   0.00414     0.00162    -0.02382     0.07353     0.02506    -0.02290
  
  S  C  15   0.34029     0.00150    -0.08910     0.08600    -0.10760    -0.06918
 PX  C  15  -0.01266     0.00091     0.00532     0.05887    -0.05047    -0.00760
 PY  C  15  -0.06594     0.00160     0.00736     0.09883     0.00865    -0.02804
 PZ  C  15  -0.09605     0.00138     0.00404     0.07760     0.09749    -0.03341
  
  S  C  16   0.16377     0.00490    -0.07942     0.29545     0.07865    -0.17736
 PX  C  16   0.00852     0.00111    -0.00409     0.05434    -0.03576     0.00156
 PY  C  16  -0.01641     0.00124    -0.00116     0.07248     0.00961    -0.02591
 PZ  C  16  -0.04039     0.00059     0.00406     0.04567     0.06427    -0.04146
  
  S  C  17   0.09311     0.00297    -0.05498     0.19802     0.15224    -0.16432
 PX  C  17   0.01955     0.00118    -0.01336     0.07838     0.01465    -0.05093
 PY  C  17  -0.00196     0.00093    -0.00493     0.06582     0.01256    -0.04343
 PZ  C  17  -0.02377     0.00018     0.00631     0.01889     0.00758    -0.01501
  
  S  C  18   0.04596     0.00280    -0.03695     0.19584     0.12767    -0.15901
 PX  C  18   0.01195     0.00107    -0.01089     0.07121     0.02981    -0.04941
 PY  C  18  -0.00191     0.00029    -0.00058     0.01925     0.00017    -0.01069
 PZ  C  18  -0.01785    -0.00081     0.01236    -0.05425    -0.03656     0.04217
  
  S  C  19   0.03739     0.00335    -0.03373     0.21215     0.10919    -0.14570
 PX  C  19   0.00139     0.00046    -0.00136     0.01417    -0.00115     0.00558
 PY  C  19  -0.00808    -0.00043     0.00670    -0.03610    -0.02221     0.03280
 PZ  C  19  -0.01691    -0.00141     0.01435    -0.08670    -0.04032     0.05496
  
  S  C  20   0.05060     0.00571    -0.04206     0.27487     0.09888    -0.10585
 PX  C  20  -0.00814     0.00016     0.00768    -0.04046    -0.03293     0.06689
 PY  C  20  -0.01404    -0.00075     0.01092    -0.06218    -0.02669     0.04792
 PZ  C  20  -0.01538    -0.00152     0.01014    -0.06192    -0.00599     0.00348
  
  S  C  21   0.10960     0.00787    -0.06750     0.38191     0.06418    -0.11755
 PX  C  21  -0.01006     0.00066     0.00760    -0.02316    -0.03510     0.07607
 PY  C  21  -0.01966     0.00036     0.00796    -0.01622    -0.00035     0.04013
 PZ  C  21  -0.02387    -0.00024     0.00517    -0.00434     0.04725    -0.02434
  
  S  C  22   0.09197     0.00935    -0.04901     0.30683    -0.02098     0.06433
 PX  C  22  -0.02405     0.00083     0.01119    -0.04055     0.00146     0.07404
 PY  C  22  -0.02361     0.00083     0.00832    -0.02425     0.01523     0.05319
 PZ  C  22  -0.00856     0.00111    -0.00156     0.02231     0.02796     0.00953
  
  S  C  23   0.11159     0.00484    -0.03513     0.19845    -0.08382     0.01167
 PX  C  23  -0.04126    -0.00030     0.01241    -0.04000     0.02814     0.02879
 PY  C  23  -0.02868     0.00070     0.00321     0.00393     0.02783     0.02488
 PZ  C  23   0.01283     0.00210    -0.01464     0.07624     0.00771     0.00732
  
  S  C  24   0.03390     0.01767    -0.02569     0.23244     0.00876     0.32726
 PX  C  24  -0.00863     0.00426     0.00425    -0.01114     0.00281     0.10400
 PY  C  24  -0.00933     0.00305     0.00485    -0.02212     0.00385     0.06322
 PZ  C  24  -0.00132     0.00234    -0.00099     0.01604     0.00819     0.05008
  
  S  C  25   0.01691     0.01755    -0.01572     0.16708     0.01335     0.34837
 PX  C  25  -0.00602    -0.00064     0.00457    -0.03535    -0.00233    -0.01240
 PY  C  25   0.00084     0.00678    -0.00200     0.03402     0.00402     0.12709
 PZ  C  25  -0.00452    -0.00381     0.00380    -0.03941    -0.00123    -0.07652
  
  S  C  26   0.00836     0.02587    -0.00948     0.12453     0.01195     0.37148
 PX  C  26  -0.00344    -0.00447     0.00375    -0.04442    -0.00413    -0.11113
 PY  C  26  -0.00094     0.00589     0.00087    -0.00538    -0.00023     0.00889
 PZ  C  26  -0.00224    -0.00676     0.00251    -0.03316    -0.00278    -0.09845
  
  S  C  27   0.00715     0.04827    -0.00786     0.11433     0.01107     0.37674
 PX  C  27  -0.00137     0.00484     0.00149    -0.01474    -0.00103    -0.02500
 PY  C  27  -0.00306     0.01147     0.00369    -0.04065    -0.00331    -0.09556
 PZ  C  27   0.00045    -0.00189    -0.00072     0.00896     0.00113     0.02757
  
  S  S  28   0.01128     0.02336    -0.01001     0.11412     0.00673     0.27080
 PX  S  28   0.00014     0.01011    -0.00098     0.02208     0.00297     0.09828
 PY  S  28  -0.00642     0.00197     0.00522    -0.04963    -0.00119    -0.07415
 PZ  S  28   0.00332     0.00745    -0.00372     0.04505     0.00453     0.11892
  
  S  C  29   0.00214     0.11283    -0.00064     0.04198     0.00506     0.19535
 PX  C  29  -0.00050     0.00142     0.00076    -0.01042    -0.00112    -0.04007
 PY  C  29  -0.00086     0.04398     0.00216    -0.01784    -0.00163    -0.05272
 PZ  C  29   0.00002    -0.02177    -0.00049     0.00043    -0.00007    -0.00685
  
  S  C  30   0.00103     0.22512     0.00353     0.01322     0.00231     0.10124
 PX  C  30  -0.00002     0.04555     0.00111    -0.00384    -0.00035    -0.01198
 PY  C  30  -0.00028     0.07299     0.00219    -0.01271    -0.00134    -0.05068
 PZ  C  30   0.00013     0.00065    -0.00020     0.00340     0.00042     0.01625
  
  S  C  31   0.00070     0.51308     0.01096    -0.01865    -0.00094    -0.02436
 PX  C  31   0.00000     0.05015     0.00119    -0.00382    -0.00034    -0.01199
 PY  C  31  -0.00001     0.12862     0.00313    -0.01167    -0.00123    -0.04983
 PZ  C  31   0.00001    -0.02477    -0.00063     0.00288     0.00036     0.01597
  
  S  O  32   0.00050     0.41148     0.00890    -0.01653    -0.00090    -0.02412
 PX  O  32  -0.00016    -0.13319    -0.00287     0.00518     0.00027     0.00699
 PY  O  32  -0.00004     0.00057     0.00010    -0.00162    -0.00023    -0.01048
 PZ  O  32  -0.00012    -0.11491    -0.00252     0.00531     0.00036     0.01153
  
  S  O  33   0.00054     0.57416     0.01277    -0.03052    -0.00249    -0.09229
 PX  O  33   0.00008     0.10183     0.00229    -0.00586    -0.00050    -0.01899
 PY  O  33  -0.00009    -0.06487    -0.00139     0.00229     0.00010     0.00205
 PZ  O  33   0.00012     0.12178     0.00270    -0.00625    -0.00049    -0.01741
  
  S  C  34   0.00058     0.11215     0.00161     0.00948     0.00158     0.07070
 PX  C  34   0.00015     0.04326     0.00077     0.00073     0.00018     0.00735
 PY  C  34  -0.00009     0.02058     0.00066    -0.00435    -0.00048    -0.01829
 PZ  C  34   0.00018     0.02614     0.00031     0.00291     0.00041     0.01584
  
  S  N  35   0.00020     0.03930     0.00054     0.00431     0.00075     0.03603
 PX  N  35   0.00009     0.01943     0.00029     0.00156     0.00028     0.01340
 PY  N  35  -0.00000     0.00305     0.00010    -0.00082    -0.00011    -0.00467
 PZ  N  35   0.00007     0.01499     0.00020     0.00175     0.00030     0.01388
  
  S  O  36   0.08483    -0.01144     0.64094     0.08787     0.15049    -0.02367
 PX  O  36  -0.00060    -0.00024     0.01529     0.00426     0.01057    -0.00208
 PY  O  36  -0.01446     0.00213    -0.11990    -0.01712    -0.03219     0.00507
 PZ  O  36   0.01935    -0.00223     0.12295     0.01457     0.01973    -0.00275
  
  S  C  37   0.04082    -0.00567     0.31881     0.04481     0.08027    -0.01278
 PX  C  37  -0.01677     0.00228    -0.12754    -0.01734    -0.03036     0.00467
 PY  C  37   0.01608    -0.00233     0.13176     0.01909     0.03412    -0.00556
 PZ  C  37   0.00966    -0.00114     0.06326     0.00778     0.01169    -0.00169
  
  S  C  38   0.14382    -0.00113    -0.04371    -0.11771     0.19595     0.04935
 PX  C  38   0.01150    -0.00009    -0.00080    -0.00304    -0.02261    -0.00102
 PY  C  38   0.05516    -0.00035    -0.01637    -0.03499     0.04923     0.01091
 PZ  C  38  -0.00282     0.00009    -0.00319     0.00106     0.01797    -0.00064
  
  S  C  39   0.08313    -0.00065    -0.02459    -0.06668     0.09832     0.02759
 PX  C  39  -0.02217     0.00017     0.00778     0.02006    -0.03730    -0.00860
 PY  C  39   0.02985    -0.00019    -0.00804    -0.01748     0.01887     0.00516
 PZ  C  39  -0.01481     0.00014     0.00261     0.01081    -0.00735    -0.00441
  
  S  H  40   0.00079     0.05251    -0.00000     0.01522     0.00189     0.07274
  
  S  H  41   0.00659    -0.00005    -0.00448    -0.01170     0.06541     0.01044
  
  S  H  42   0.00360    -0.00003    -0.00275    -0.00738     0.04560     0.00730
  
  S  H  43   0.00558    -0.00004    -0.00397    -0.01029     0.06062     0.00952
  
  S  H  44   0.00777    -0.00004    -0.00533    -0.01203     0.07469     0.01052
  
  S  H  45   0.01047    -0.00006    -0.00669    -0.01554     0.08750     0.01277
  
  S  H  46   0.01917    -0.00009    -0.01084    -0.02206     0.11497     0.01505
  
  S  H  47   0.03173    -0.00005    -0.01626    -0.02173     0.13301     0.01015
  
  S  H  48   0.03675    -0.00026    -0.01705    -0.04116     0.14690     0.02421
  
  S  H  49   0.02446    -0.00018    -0.01236    -0.03074     0.12273     0.02007
  
  S  H  50   0.05981    -0.00046    -0.01860    -0.04988     0.10587     0.02259
  
  S  H  51   0.06030    -0.00033    -0.02174    -0.04275     0.11363     0.01718
  
  S  H  52   0.10388    -0.00033    -0.03712    -0.04858     0.13218     0.00829
  
  S  H  53   0.05899    -0.00091     0.01133    -0.03786     0.00821     0.01722
  
  S  H  54   0.02580    -0.00161     0.07864    -0.00106    -0.00344     0.00412
  
  S  H  55   0.03408    -0.00127     0.06651     0.00730    -0.02663     0.00214
  
  S  H  56   0.05599     0.00061    -0.02642     0.03357     0.09086    -0.04119
  
  S  H  57   0.01239     0.00067    -0.00987     0.04840     0.03961    -0.04338
  
  S  H  58   0.00859     0.00088    -0.00831     0.05503     0.02956    -0.03819
  
  S  H  59   0.01544     0.00308    -0.01327     0.09664     0.02703     0.00330
  
  S  H  60   0.03192     0.00173    -0.00604     0.05777    -0.02999     0.01915
  
  S  H  61   0.00685     0.00463    -0.00586     0.05639     0.00462     0.09380
  
  S  H  62   0.00199     0.00911    -0.00233     0.03251     0.00332     0.10538
  
  S  H  63   0.00022     0.24212     0.00541    -0.01325    -0.00110    -0.04138
  
  S  H  64   0.01596    -0.00209     0.11649     0.01553     0.02753    -0.00417
  
  S  H  65   0.01218    -0.00180     0.10158     0.01492     0.02786    -0.00455
  
  S  H  66   0.01556    -0.00205     0.11458     0.01574     0.02714    -0.00433
  
  S  H  67   0.04985    -0.00040    -0.01757    -0.04679     0.10123     0.02195
  
  S  H  68   0.06736    -0.00062    -0.01545    -0.05488     0.07669     0.02384
  
  S  H  69   0.02394    -0.00021    -0.00723    -0.02178     0.03434     0.00993
  
  S  H  70   0.04970    -0.00038    -0.01136    -0.03246     0.03313     0.01219
  
  S  H  71   0.03534    -0.00024    -0.01134    -0.02682     0.04438     0.01056




    ROOT NO.    7           8           9          10          11          12

           -41.06609   -40.85506   -39.75242   -39.29597   -38.78406   -36.35253
  
  
  S  C   1   0.24373    -0.08377    -0.08207    -0.08692    -0.10741     0.16789
 PX  C   1   0.07695    -0.02605    -0.02329    -0.02361    -0.02763     0.02995
 PY  C   1   0.02629    -0.00889    -0.00855    -0.00886    -0.01058     0.01102
 PZ  C   1   0.00784    -0.00279    -0.00461    -0.00559    -0.00780     0.01736
  
  S  C   2   0.32119    -0.10839    -0.10217    -0.10562    -0.12634     0.15639
 PX  C   2  -0.00387     0.00253     0.00589     0.00806     0.01268    -0.04172
 PY  C   2   0.01297    -0.00376    -0.00392    -0.00378    -0.00384    -0.00708
 PZ  C   2  -0.07265     0.02444     0.01885     0.01784     0.01914    -0.00909
  
  S  C   3   0.30710    -0.10053    -0.07658    -0.07092    -0.07301    -0.00272
 PX  C   3  -0.04914     0.01836     0.02140     0.02430     0.03235    -0.06260
 PY  C   3  -0.06051     0.02125     0.01300     0.01142     0.01154    -0.01235
 PZ  C   3   0.00375    -0.00025    -0.01379    -0.01858    -0.02736     0.06063
  
  S  C   4   0.21213    -0.06890    -0.01191     0.00572     0.02825    -0.12992
 PX  C   4  -0.04615     0.01632     0.03028     0.03535     0.04616    -0.05501
 PY  C   4   0.03130    -0.01134    -0.00832    -0.00753    -0.00705    -0.02622
 PZ  C   4   0.06574    -0.02275    -0.02690    -0.02885    -0.03483     0.03323
  
  S  C   5   0.01263    -0.00817     0.05262     0.06767     0.09233    -0.16386
 PX  C   5  -0.08839     0.02257     0.02180     0.01730     0.01163     0.03016
 PY  C   5   0.00005    -0.00584    -0.01940    -0.02463    -0.03343     0.01165
 PZ  C   5   0.02727    -0.01367    -0.00184     0.00186     0.00766    -0.03603
  
  S  C   6  -0.18818     0.03071     0.08773     0.09081     0.09963    -0.02678
 PX  C   6  -0.08297     0.00611    -0.00781    -0.01997    -0.03955     0.08934
 PY  C   6  -0.01029    -0.02421    -0.04196    -0.05428    -0.07521    -0.01977
 PZ  C   6   0.03417    -0.01141    -0.01396    -0.00967    -0.00144    -0.02634
  
  S  N   7  -0.23201    -0.05276    -0.05384    -0.09583    -0.16632     0.11104
 PX  N   7   0.03546    -0.04174    -0.05158    -0.05887    -0.07249     0.02502
 PY  N   7   0.03613    -0.05668    -0.05706    -0.06109    -0.06837    -0.02772
 PZ  N   7  -0.03715    -0.02172     0.00473     0.01164     0.02542    -0.04302
  
  S  C   8   0.08350     0.16098     0.00575    -0.01903    -0.05771     0.08085
 PX  C   8   0.08827     0.01734    -0.01565    -0.01290    -0.00717    -0.02910
 PY  C   8   0.01622    -0.05556    -0.04864    -0.05462    -0.06583    -0.01076
 PZ  C   8  -0.14856    -0.13891    -0.05760    -0.07310    -0.10323     0.05405
  
  S  C   9   0.15434     0.27163     0.09213     0.09169     0.09748     0.02808
 PX  C   9   0.07841     0.07529     0.01228     0.01226     0.01443    -0.00984
 PY  C   9   0.05106     0.05437     0.00463     0.00126    -0.00314     0.00012
 PZ  C   9  -0.05139    -0.02134    -0.00438    -0.01022    -0.02128     0.03218
  
  S  C  10   0.17527     0.23211     0.07310     0.07854     0.09431    -0.01868
 PX  C  10   0.00432    -0.00533    -0.00493    -0.00494    -0.00484    -0.00882
 PY  C  10   0.04740     0.04842     0.00983     0.01012     0.01213    -0.01115
 PZ  C  10   0.08262     0.10560     0.02971     0.03039     0.03432    -0.00237
  
  S  C  11   0.11406     0.12725     0.03634     0.04099     0.05317    -0.03738
 PX  C  11  -0.07835    -0.09466    -0.02544    -0.02650    -0.03091     0.00605
 PY  C  11   0.01003    -0.00246    -0.00360    -0.00324    -0.00245    -0.01074
 PZ  C  11   0.14512     0.14925     0.03457     0.03669     0.04480    -0.02640
  
  S  C  12   0.20644     0.15974     0.03248     0.04020     0.05889    -0.07114
 PX  C  12  -0.07601    -0.07849    -0.01443    -0.01402    -0.01568     0.00987
 PY  C  12  -0.04098    -0.05982    -0.01450    -0.01363    -0.01396     0.00255
 PZ  C  12   0.04835     0.01534    -0.00411    -0.00319    -0.00121    -0.00958
  
  S  C  13   0.21718     0.09208    -0.02430    -0.02604    -0.02602    -0.03799
 PX  C  13   0.00933    -0.01497     0.01554     0.02722     0.04694    -0.03711
 PY  C  13  -0.02679    -0.08292    -0.01480    -0.00632     0.00586    -0.02457
 PZ  C  13  -0.07741    -0.14072    -0.05499    -0.05871    -0.06934     0.02416
  
  S  C  14   0.11002    -0.22611    -0.05495    -0.01491     0.04375    -0.09297
 PX  C  14   0.03061     0.00798     0.04008     0.05453     0.07690    -0.02015
 PY  C  14   0.01614    -0.03639     0.03768     0.06092     0.09666    -0.03487
 PZ  C  14  -0.02308    -0.08910     0.00789     0.02914     0.06098    -0.02740
  
  S  C  15  -0.05178    -0.19746    -0.09204    -0.07767    -0.05414    -0.07165
 PX  C  15   0.07109    -0.06042     0.00636     0.02888     0.06241    -0.02831
 PY  C  15   0.06748    -0.03447     0.01937     0.04852     0.09628    -0.06742
 PZ  C  15  -0.00367     0.03433     0.03256     0.04941     0.08184    -0.05813
  
  S  C  16  -0.03081     0.00205    -0.04870    -0.02441     0.02803    -0.12351
 PX  C  16   0.03748    -0.07395     0.02075     0.04212     0.07015     0.00515
 PY  C  16   0.02536     0.02552     0.01223     0.01803     0.02631     0.01639
 PZ  C  16  -0.01123     0.14244    -0.00252    -0.02169    -0.04649     0.03046
  
  S  C  17  -0.05754     0.17825    -0.06374    -0.08160    -0.08949    -0.08757
 PX  C  17  -0.01438     0.03720    -0.01150    -0.01124    -0.00649    -0.00715
 PY  C  17  -0.00077     0.05910    -0.01093    -0.01601    -0.02057     0.01011
 PZ  C  17   0.00839     0.06268    -0.00385    -0.01379    -0.02837     0.02850
  
  S  C  18  -0.03961     0.24051    -0.05764    -0.08842    -0.11999    -0.00690
 PX  C  18  -0.01132     0.06950    -0.01105    -0.01815    -0.02567     0.01609
 PY  C  18  -0.00064     0.02194    -0.00007    -0.00300    -0.00798     0.02353
 PZ  C  18   0.01115    -0.04612     0.01397     0.01736     0.01756     0.02284
  
  S  C  19  -0.03244     0.24096    -0.03621    -0.06833    -0.10930     0.07233
 PX  C  19   0.00297    -0.00444     0.01114     0.01167     0.00924     0.02653
 PY  C  19   0.00751    -0.04229     0.01292     0.01701     0.01923     0.01171
 PZ  C  19   0.00986    -0.07423     0.00999     0.01695     0.02426    -0.01307
  
  S  C  20  -0.01113     0.17539     0.01654    -0.00549    -0.04440     0.12984
 PX  C  20   0.01497    -0.08012     0.03165     0.03768     0.03806     0.01491
 PY  C  20   0.00521    -0.04468     0.01094     0.01148     0.00844     0.00484
 PZ  C  20  -0.01074     0.02314    -0.02037    -0.02832    -0.03647    -0.00916
  
  S  C  21   0.03432    -0.00731     0.04399     0.07229     0.10800     0.03656
 PX  C  21   0.02575    -0.08246     0.04887     0.05470     0.04932     0.05235
 PY  C  21   0.00301     0.01543     0.02722     0.01606    -0.00981     0.06887
 PZ  C  21  -0.03264     0.14352    -0.01582    -0.04679    -0.09141     0.05926
  
  S  C  22   0.08871    -0.20240     0.13408     0.17345     0.20152     0.08003
 PX  C  22  -0.01020     0.02414     0.02543     0.00141    -0.04342     0.05123
 PY  C  22  -0.01739     0.05032     0.02084    -0.00480    -0.05096     0.06225
 PZ  C  22  -0.01957     0.06171     0.01177    -0.00749    -0.04145     0.06141
  
  S  C  23   0.11540    -0.23985     0.05858     0.11927     0.19908    -0.05931
 PX  C  23  -0.02172     0.05985     0.01474    -0.00382    -0.03497     0.04485
 PY  C  23  -0.01372     0.02135     0.02789     0.01979     0.00190     0.04353
 PZ  C  23   0.00865    -0.05920     0.03455     0.04819     0.06140     0.01863
  
  S  C  24   0.01166    -0.03937     0.15868     0.09188    -0.04280     0.16167
 PX  C  24  -0.02607     0.04251    -0.00353    -0.03961    -0.08891    -0.01824
 PY  C  24  -0.02430     0.04416    -0.02054    -0.04447    -0.06756    -0.03508
 PZ  C  24  -0.01344     0.03044     0.00923    -0.01257    -0.04899     0.02194
  
  S  C  25  -0.02208     0.02612     0.11343     0.02412    -0.14069     0.10346
 PX  C  25  -0.00924     0.01447    -0.02997    -0.02769    -0.01830    -0.05061
 PY  C  25  -0.01842     0.02717     0.01118    -0.02074    -0.06704    -0.01466
 PZ  C  25   0.00110     0.00359    -0.02882    -0.01179     0.01710    -0.02578
  
  S  C  26  -0.04760     0.06801     0.01561    -0.04667    -0.15153    -0.06178
 PX  C  26   0.00985    -0.01333    -0.03451     0.00147     0.05311    -0.03020
 PY  C  26  -0.00707     0.01159    -0.04839    -0.02380     0.02439    -0.07277
 PZ  C  26   0.01179    -0.01601    -0.00378     0.01363     0.03174     0.01406
  
  S  C  27  -0.05920     0.08764    -0.10759    -0.10803    -0.03875    -0.18306
 PX  C  27  -0.00191     0.00433    -0.04406    -0.00682     0.02535    -0.05951
 PY  C  27   0.00303    -0.00091    -0.09939    -0.02743     0.11415    -0.07742
 PZ  C  27  -0.00326     0.00475     0.01431     0.00850    -0.03788    -0.00914
  
  S  S  28  -0.02281     0.02606     0.01674    -0.03259    -0.02967     0.01580
 PX  S  28  -0.01794     0.02745    -0.02394    -0.03693    -0.02187    -0.04123
 PY  S  28  -0.00607     0.01584    -0.06996    -0.04776     0.05121    -0.04752
 PZ  S  28  -0.01314     0.01869     0.01544    -0.00757    -0.04744    -0.00721
  
  S  C  29  -0.05002     0.08050    -0.30668    -0.09265     0.15323    -0.27966
 PX  C  29   0.00804    -0.01239     0.01523     0.05264    -0.02920     0.03308
 PY  C  29   0.00458    -0.00515    -0.06474     0.02936     0.05815     0.01574
 PZ  C  29   0.00447    -0.00781     0.04676     0.02965    -0.05526     0.02028
  
  S  C  30  -0.03563     0.05960    -0.27843    -0.15130     0.25756    -0.16061
 PX  C  30   0.00214    -0.00310    -0.02998     0.09163    -0.05184    -0.02935
 PY  C  30   0.01261    -0.02025     0.07917     0.01366    -0.03062     0.06624
 PZ  C  30  -0.00478     0.00799    -0.06721     0.07129    -0.02825    -0.05948
  
  S  C  31  -0.00101     0.00331    -0.10433     0.10120     0.00086     0.00816
 PX  C  31   0.00102    -0.00054    -0.12471     0.23959    -0.09617     0.10926
 PY  C  31   0.01744    -0.02969     0.19915    -0.03181    -0.09137     0.03752
 PZ  C  31  -0.00832     0.01520    -0.21229     0.22269    -0.03439     0.07426
  
  S  O  32  -0.00387     0.00978    -0.34020     0.47805    -0.12797     0.19559
 PX  O  32   0.00115    -0.00280     0.08616    -0.11424     0.02751    -0.03593
 PY  O  32   0.00456    -0.00797     0.07044    -0.03727    -0.01449     0.00396
 PZ  O  32  -0.00141     0.00179     0.03699    -0.07865     0.03132    -0.03297
  
  S  O  33   0.02949    -0.05067     0.44593    -0.27998    -0.05727    -0.09316
 PX  O  33   0.00589    -0.00993     0.06051     0.00160    -0.03748     0.00179
 PY  O  33   0.00061    -0.00117    -0.00016     0.03303    -0.02944     0.00743
 PZ  O  33   0.00474    -0.00792     0.05207    -0.01608    -0.01664    -0.00234
  
  S  C  34  -0.02659     0.04478    -0.16350    -0.31533     0.37173     0.24408
 PX  C  34  -0.00148     0.00211    -0.00173     0.02649    -0.04482    -0.20191
 PY  C  34   0.00464    -0.00750     0.03590    -0.01095    -0.00231     0.02640
 PZ  C  34  -0.00370     0.00576    -0.02034     0.02839    -0.03707    -0.18617
  
  S  N  35  -0.01609     0.02768    -0.10729    -0.26469     0.32548     0.43098
 PX  N  35  -0.00578     0.00988    -0.03544    -0.09414     0.11089     0.12502
 PY  N  35   0.00154    -0.00257     0.01204     0.00506    -0.01020    -0.00581
 PZ  N  35  -0.00575     0.00980    -0.03660    -0.08305     0.10004     0.10982
  
  S  O  36  -0.17562    -0.18297    -0.04252    -0.04448    -0.05314     0.02350
 PX  O  36  -0.02374    -0.02703    -0.00792    -0.00895    -0.01163     0.00786
 PY  O  36   0.04306     0.04335     0.01035     0.01128     0.01426    -0.01063
 PZ  O  36  -0.00869    -0.00861    -0.00041     0.00051     0.00206    -0.00679
  
  S  C  37  -0.10402    -0.10828    -0.02639    -0.02847    -0.03543     0.02249
 PX  C  37   0.03543     0.03575     0.00804     0.00845     0.01021    -0.00570
 PY  C  37  -0.04452    -0.04733    -0.01167    -0.01246    -0.01522     0.00740
 PZ  C  37  -0.00914    -0.00911    -0.00157    -0.00138    -0.00125    -0.00078
  
  S  C  38  -0.15013     0.06775     0.13237     0.15230     0.18986     0.06168
 PX  C  38  -0.03381     0.01153     0.00875     0.00724     0.00547     0.05253
 PY  C  38  -0.03980     0.00677     0.01464     0.01273     0.00978    -0.01006
 PZ  C  38  -0.00790    -0.00794     0.00319     0.00602     0.01124    -0.00260
  
  S  C  39  -0.11912     0.04997     0.09453     0.10971     0.13894     0.10257
 PX  C  39   0.03000    -0.01221    -0.02577    -0.03003    -0.03805    -0.01216
 PY  C  39  -0.02765     0.00674     0.01138     0.01105     0.01095     0.01139
 PZ  C  39   0.01307    -0.00937    -0.01091    -0.01150    -0.01271    -0.01329
  
  S  H  40  -0.01896     0.03063    -0.13048    -0.00344     0.04045    -0.10862
  
  S  H  41   0.10819    -0.03711    -0.03478    -0.03630    -0.04424     0.06746
  
  S  H  42   0.08757    -0.03028    -0.03105    -0.03350    -0.04229     0.07348
  
  S  H  43   0.10588    -0.03638    -0.03553    -0.03758    -0.04636     0.07134
  
  S  H  44   0.12244    -0.04114    -0.04113    -0.04332    -0.05282     0.07014
  
  S  H  45   0.13031    -0.04387    -0.04060    -0.04172    -0.04964     0.06247
  
  S  H  46   0.12805    -0.04199    -0.03332    -0.03143    -0.03312    -0.00027
  
  S  H  47   0.10704    -0.03006    -0.02809    -0.02608    -0.02554    -0.02466
  
  S  H  48   0.08529    -0.02650     0.00245     0.01155     0.02389    -0.04659
  
  S  H  49   0.10143    -0.03299    -0.01145    -0.00496     0.00227    -0.04233
  
  S  H  50  -0.00364     0.00782     0.02991     0.03604     0.04625    -0.05869
  
  S  H  51   0.01100    -0.00902     0.01107     0.01514     0.02162    -0.07243
  
  S  H  52  -0.06790     0.00915     0.02538     0.02790     0.03528    -0.03645
  
  S  H  53   0.01827     0.08667     0.04459     0.04610     0.05060     0.02014
  
  S  H  54   0.03672     0.05615     0.02113     0.02335     0.02869    -0.00311
  
  S  H  55   0.05465     0.02450     0.00617     0.01075     0.01952    -0.02958
  
  S  H  56  -0.02015     0.04156    -0.02208    -0.02743    -0.02904    -0.05562
  
  S  H  57  -0.01027     0.07214    -0.01922    -0.02988    -0.04157    -0.00458
  
  S  H  58  -0.00954     0.07296    -0.01025    -0.02163    -0.03743     0.03074
  
  S  H  59  -0.00034     0.04488     0.02575     0.01282    -0.01469     0.07494
  
  S  H  60   0.04475    -0.07003     0.02646     0.04284     0.06266    -0.01323
  
  S  H  61  -0.00282     0.00280     0.04152     0.01654    -0.03544     0.04783
  
  S  H  62  -0.01555     0.02287    -0.00869    -0.01743    -0.04173    -0.03877
  
  S  H  63   0.01327    -0.02269     0.17987    -0.08093    -0.04793    -0.02511
  
  S  H  64  -0.03336    -0.03334    -0.00764    -0.00823    -0.01032     0.00801
  
  S  H  65  -0.03961    -0.04170    -0.01061    -0.01163    -0.01475     0.01016
  
  S  H  66  -0.03402    -0.03596    -0.00880    -0.00944    -0.01166     0.00701
  
  S  H  67  -0.04070     0.02122     0.05477     0.06649     0.08762     0.00477
  
  S  H  68  -0.05672     0.04410     0.06242     0.07058     0.08604     0.03179
  
  S  H  69  -0.04055     0.01955     0.03715     0.04412     0.05731     0.04224
  
  S  H  70  -0.05354     0.02404     0.03842     0.04311     0.05255     0.05181
  
  S  H  71  -0.05156     0.01858     0.03855     0.04513     0.05789     0.04074




    ROOT NO.   13          14          15          16          17          18

           -36.09689   -35.01159   -34.83319   -32.74763   -32.20851   -31.78084
  
  
  S  C   1   0.26312     0.01889     0.10105     0.06549     0.02994     0.26053
 PX  C   1   0.04460     0.00199     0.01168     0.00082    -0.00095    -0.01304
 PY  C   1   0.01599     0.00089     0.00603     0.00264     0.00050    -0.00845
 PZ  C   1   0.02866     0.00041     0.01512     0.01601     0.00618     0.02877
  
  S  C   2   0.24032     0.00802     0.08696     0.05281     0.01765     0.06685
 PX  C   2  -0.06756    -0.00892    -0.03004    -0.02235    -0.01248    -0.12654
 PY  C   2  -0.01337    -0.00256    -0.00297    -0.00141    -0.00177    -0.05467
 PZ  C   2  -0.01011    -0.00170     0.00535     0.01601     0.00773     0.03380
  
  S  C   3  -0.02323    -0.00498    -0.02056    -0.03089    -0.02144    -0.21990
 PX  C   3  -0.09618    -0.01135    -0.02713    -0.00201    -0.00372    -0.04655
 PY  C   3  -0.01842    -0.00268     0.00953     0.02000     0.00950     0.00146
 PZ  C   3   0.10346    -0.00799     0.05236     0.05358     0.02090     0.03793
  
  S  C   4  -0.22477     0.01284    -0.14207    -0.14635    -0.04833    -0.14669
 PX  C   4  -0.08120    -0.00284    -0.02882     0.00122     0.00141     0.03995
 PY  C   4  -0.05515     0.01045    -0.00376    -0.00256    -0.00359    -0.03918
 PZ  C   4   0.05517    -0.01386     0.02208     0.02129    -0.00626    -0.06910
  
  S  C   5  -0.30383     0.07606    -0.08064    -0.05015     0.00740     0.13074
 PX  C   5   0.03950     0.02453     0.06514     0.08525     0.02681     0.13057
 PY  C   5   0.00149     0.01245     0.04037     0.03390    -0.00121    -0.01401
 PZ  C   5  -0.04941    -0.02142    -0.01904     0.01198    -0.02455    -0.04709
  
  S  C   6  -0.04434     0.02909     0.05403     0.15177     0.00075     0.22471
 PX  C   6   0.13070     0.01030     0.07876     0.06767    -0.00751    -0.00581
 PY  C   6  -0.10991     0.08256     0.10779     0.08355    -0.00252     0.04292
 PZ  C   6   0.00670    -0.08396    -0.00357     0.03307    -0.04364    -0.09472
  
  S  N   7  -0.01213     0.19484     0.12232     0.10855    -0.01419     0.06829
 PX  N   7   0.02796    -0.02387    -0.08122    -0.09163    -0.02831    -0.15491
 PY  N   7  -0.04950    -0.03090    -0.01319    -0.02881    -0.05463    -0.10783
 PZ  N   7  -0.00967    -0.07504     0.09846     0.11807    -0.07207     0.02253
  
  S  C   8   0.01322     0.14408    -0.00422    -0.11444     0.08384    -0.05930
 PX  C   8  -0.01081    -0.08228    -0.08856     0.02388    -0.07490    -0.05798
 PY  C   8  -0.03538    -0.03510    -0.10936     0.03142    -0.07444    -0.03674
 PZ  C   8   0.00983     0.04862    -0.07540     0.01935    -0.02040     0.00661
  
  S  C   9   0.03504     0.12648     0.22778    -0.21766     0.22503    -0.05950
 PX  C   9  -0.00638    -0.00770     0.03198     0.00478    -0.02070    -0.03390
 PY  C   9  -0.01541     0.01604     0.00493     0.01397    -0.01925    -0.00274
 PZ  C   9   0.01715     0.03098    -0.05766     0.01215     0.00077     0.04148
  
  S  C  10   0.00224     0.05057     0.24427    -0.13157     0.11199    -0.08720
 PX  C  10  -0.00885    -0.02452    -0.02327     0.06620    -0.07398     0.01961
 PY  C  10  -0.01060    -0.01361     0.00526     0.04861    -0.05570     0.01525
 PZ  C  10   0.00286     0.01630     0.04993    -0.03470     0.03439    -0.01579
  
  S  C  11  -0.02105    -0.04332     0.06513     0.13511    -0.14584     0.05891
 PX  C  11   0.00128    -0.02024    -0.08266     0.06082    -0.04834     0.05001
 PY  C  11  -0.00887    -0.03895    -0.06551     0.10630    -0.09267     0.06790
 PZ  C  11  -0.01501    -0.03521     0.00725     0.06707    -0.05727     0.02044
  
  S  C  12  -0.04056    -0.15290    -0.13844     0.30017    -0.23405     0.16780
 PX  C  12   0.00895     0.00832    -0.00913    -0.00883     0.02550     0.01542
 PY  C  12   0.00364    -0.00918    -0.04613    -0.00631     0.03383     0.01491
 PZ  C  12  -0.00452    -0.03232    -0.08053    -0.00921     0.03661    -0.00737
  
  S  C  13  -0.03374    -0.12248    -0.26912     0.08366    -0.07844     0.01147
 PX  C  13  -0.00180    -0.07380    -0.03296     0.09607    -0.02119     0.09064
 PY  C  13  -0.00273    -0.05545    -0.06492     0.02435     0.02373     0.04950
 PZ  C  13   0.01257     0.01689    -0.07566    -0.12702     0.09093    -0.07148
  
  S  C  14   0.00592    -0.17853    -0.19962    -0.08864     0.12421     0.04142
 PX  C  14   0.00737    -0.02576    -0.02618     0.06795     0.09447     0.09783
 PY  C  14   0.01184    -0.02194     0.05559     0.01801     0.08711     0.08585
 PZ  C  14   0.02073     0.00031     0.14444    -0.07881     0.01846    -0.00195
  
  S  C  15  -0.01057    -0.10880     0.16367    -0.06276    -0.10466    -0.08921
 PX  C  15   0.02780    -0.05116    -0.08855    -0.11430     0.05269     0.01099
 PY  C  15   0.01044    -0.08137     0.03103    -0.07906     0.01527     0.02702
 PZ  C  15   0.00667    -0.06727     0.18660     0.04315    -0.05968     0.02738
  
  S  C  16   0.00437    -0.17456     0.30589    -0.03316    -0.16932    -0.05733
 PX  C  16   0.03099     0.04727    -0.02446    -0.13113    -0.05809     0.05696
 PY  C  16   0.01910     0.04369    -0.05504    -0.07912    -0.02371     0.03823
 PZ  C  16  -0.00045     0.02057    -0.06636     0.03782     0.02362    -0.00602
  
  S  C  17  -0.04384    -0.20111     0.15622     0.21513     0.13774    -0.14555
 PX  C  17   0.01637    -0.01486     0.03996    -0.04806    -0.07670     0.01778
 PY  C  17   0.01370    -0.00033    -0.04294    -0.03407     0.03201     0.01206
 PZ  C  17   0.00845     0.01432    -0.12110     0.00754     0.14657     0.00318
  
  S  C  18  -0.01264    -0.09944    -0.11474     0.12558     0.34453    -0.04349
 PX  C  18   0.01054     0.01892    -0.05079    -0.04607    -0.01481     0.04076
 PY  C  18   0.01141     0.04080    -0.06605    -0.05772    -0.00451     0.05358
 PZ  C  18   0.00841     0.04931    -0.05519    -0.04525     0.00907     0.04740
  
  S  C  19   0.01636     0.07500    -0.26146    -0.07056     0.14018     0.11602
 PX  C  19   0.00645     0.06698    -0.02043    -0.06049    -0.13548     0.03462
 PY  C  19   0.00134     0.03860    -0.00155    -0.02954    -0.07134     0.02001
 PZ  C  19  -0.00597    -0.01649     0.02681     0.02450     0.03982    -0.00942
  
  S  C  20   0.02442     0.23596    -0.20534    -0.13669    -0.21252     0.09870
 PX  C  20  -0.00740     0.04163     0.04670     0.03051    -0.06882    -0.04161
 PY  C  20  -0.00721     0.00814     0.00017     0.02247     0.01263    -0.00827
 PZ  C  20  -0.00461    -0.04126    -0.05933     0.00278     0.10896     0.03458
  
  S  C  21   0.04051     0.15050     0.05557    -0.14287    -0.26988     0.03664
 PX  C  21  -0.00361     0.10873    -0.03823     0.05054     0.01387    -0.01292
 PY  C  21  -0.00523     0.11706    -0.08800     0.03252    -0.02133     0.00002
 PZ  C  21  -0.00586     0.06531    -0.10810    -0.00649    -0.07026     0.00805
  
  S  C  22   0.01217     0.20610     0.01193     0.12147     0.08219    -0.01406
 PX  C  22  -0.02645     0.03179    -0.04377     0.13668     0.09365    -0.06233
 PY  C  22  -0.02014     0.06969    -0.03221     0.08524    -0.01801    -0.06292
 PZ  C  22  -0.00556     0.09919     0.00219    -0.02932    -0.20178    -0.05949
  
  S  C  23   0.01836    -0.06156    -0.08924     0.08825     0.32491     0.13497
 PX  C  23  -0.01238     0.05758    -0.00473     0.08337     0.00826    -0.03051
 PY  C  23  -0.00544     0.08143     0.03586     0.06587     0.01149    -0.03413
 PZ  C  23   0.00980     0.07154     0.07565     0.00027     0.01065    -0.02695
  
  S  C  24  -0.06169     0.13041    -0.01939     0.21756     0.04610    -0.16892
 PX  C  24  -0.02260    -0.12164     0.01929    -0.03603     0.00413    -0.01616
 PY  C  24  -0.00681    -0.10059     0.01500    -0.05673    -0.00047     0.02170
 PZ  C  24  -0.01328    -0.01030     0.00021    -0.03812    -0.09025    -0.02989
  
  S  C  25  -0.07006    -0.04126     0.00950     0.05249    -0.04551    -0.12751
 PX  C  25   0.00742    -0.08535     0.01878    -0.07539     0.00928     0.05797
 PY  C  25  -0.01345    -0.08442     0.01753    -0.04930     0.00185     0.02383
 PZ  C  25   0.01401    -0.00937    -0.00059    -0.05019    -0.02618     0.03709
  
  S  C  26  -0.01134    -0.17718     0.04078    -0.15894    -0.02887     0.10607
 PX  C  26   0.02602     0.03343    -0.00623    -0.01608     0.00350     0.04357
 PY  C  26   0.03922    -0.00142     0.00201    -0.06038     0.01151     0.09996
 PZ  C  26   0.00198     0.03341    -0.00810     0.01445    -0.01115    -0.01446
  
  S  C  27   0.07228    -0.09072     0.02376    -0.15432     0.00837     0.17960
 PX  C  27   0.03602     0.01448    -0.00183    -0.04741    -0.01032     0.06631
 PY  C  27   0.06571     0.10142    -0.02135     0.01458    -0.00058     0.02834
 PZ  C  27  -0.00344    -0.03785     0.00872    -0.04932    -0.01318     0.04120
  
  S  S  28  -0.01873    -0.02437     0.00654     0.05117     0.06316    -0.01892
 PX  S  28   0.00964    -0.04733     0.01057    -0.04235     0.00096     0.03200
 PY  S  28   0.02559    -0.01272     0.00288    -0.07295    -0.03464     0.05884
 PZ  S  28  -0.00443    -0.02607     0.00644    -0.00783    -0.00299    -0.00490
  
  S  C  29   0.17461     0.13250    -0.02566    -0.03017    -0.00311     0.08479
 PX  C  29  -0.01867    -0.00655     0.00095     0.00894    -0.00317    -0.01631
 PY  C  29   0.01019     0.08751    -0.02079     0.11244    -0.00203    -0.13619
 PZ  C  29  -0.02127    -0.05082     0.01151    -0.05121    -0.00245     0.05699
  
  S  C  30   0.12909     0.21075    -0.04630     0.15292    -0.00442    -0.16920
 PX  C  30   0.01729     0.01599    -0.00338     0.00911    -0.00143    -0.01041
 PY  C  30  -0.03913    -0.01781     0.00277     0.03406    -0.00221    -0.06495
 PZ  C  30   0.03515     0.02308    -0.00437    -0.01014    -0.00043     0.02501
  
  S  C  31   0.00337     0.03793    -0.00913     0.05867    -0.00205    -0.08181
 PX  C  31  -0.07475    -0.09383     0.02028    -0.06620     0.00299     0.07923
 PY  C  31  -0.03805    -0.08456     0.01904    -0.07677     0.00303     0.09210
 PZ  C  31  -0.04424    -0.03601     0.00737    -0.01634     0.00089     0.01935
  
  S  O  32  -0.12230    -0.11365     0.02354    -0.04695     0.00293     0.04520
 PX  O  32   0.02130     0.01491    -0.00291     0.00054    -0.00015     0.00249
 PY  O  32  -0.00637    -0.01945     0.00446    -0.01981     0.00102     0.02447
 PZ  O  32   0.02167     0.02308    -0.00485     0.01095    -0.00066    -0.01081
  
  S  O  33   0.04341    -0.00546     0.00245    -0.03788     0.00077     0.05313
 PX  O  33  -0.00639    -0.02418     0.00560    -0.02856     0.00115     0.03811
 PY  O  33  -0.00956    -0.02951     0.00690    -0.04248     0.00162     0.06244
 PZ  O  33  -0.00046    -0.00520     0.00117    -0.00207     0.00013    -0.00029
  
  S  C  34  -0.12408    -0.03789     0.00592     0.02743    -0.00167    -0.04356
 PX  C  34   0.12722     0.13098    -0.02779     0.08045    -0.00073    -0.09050
 PY  C  34  -0.01520    -0.00661     0.00108     0.01001    -0.00172    -0.01993
 PZ  C  34   0.11658     0.11537    -0.02430     0.06334     0.00004    -0.06685
  
  S  N  35  -0.24927    -0.18798     0.03825    -0.07534    -0.00101     0.07397
 PX  N  35  -0.07062    -0.04711     0.00937    -0.01255    -0.00055     0.00888
 PY  N  35   0.00343     0.00425    -0.00094     0.00579    -0.00058    -0.00899
 PZ  N  35  -0.06210    -0.04244     0.00849    -0.01380    -0.00024     0.01229
  
  S  O  36   0.01067     0.01882    -0.04434    -0.02404     0.01583     0.00121
 PX  O  36   0.00406     0.00670    -0.02790    -0.03523     0.04409    -0.01960
 PY  O  36  -0.00601    -0.01829     0.00044     0.06109    -0.06000     0.03825
 PZ  O  36  -0.00434    -0.01475     0.00374     0.06700    -0.07257     0.04342
  
  S  C  37   0.01197     0.02965    -0.03235    -0.11359     0.12385    -0.07062
 PX  C  37  -0.00303    -0.00815     0.00005     0.01701    -0.01253     0.00769
 PY  C  37   0.00336     0.00539    -0.01938    -0.00989     0.00926    -0.00038
 PZ  C  37  -0.00051    -0.00253     0.00122     0.01495    -0.01731     0.01029
  
  S  C  38   0.25941    -0.16390    -0.13133    -0.04555    -0.01833    -0.01558
 PX  C  38   0.11636    -0.04456    -0.00144     0.00662    -0.01811    -0.07434
 PY  C  38  -0.04755     0.05145     0.03363     0.04653     0.02270     0.11103
 PZ  C  38   0.02806    -0.05411    -0.02642     0.02892    -0.04456    -0.04162
  
  S  C  39   0.34967    -0.22966    -0.13736    -0.04203    -0.08469    -0.21860
 PX  C  39  -0.05504     0.03785     0.02541     0.00320     0.00503    -0.00273
 PY  C  39   0.02191    -0.00063     0.00722     0.01839     0.00227     0.02291
 PZ  C  39  -0.02843     0.00209     0.00540     0.01433    -0.01113    -0.00332
  
  S  H  40   0.06596     0.04200    -0.00774    -0.02776    -0.00430     0.05160
  
  S  H  41   0.10530     0.00861     0.03702     0.02002     0.01030     0.11144
  
  S  H  42   0.11674     0.00826     0.04824     0.03632     0.01682     0.14140
  
  S  H  43   0.11125     0.00879     0.04300     0.02719     0.01283     0.11361
  
  S  H  44   0.10912     0.00259     0.04482     0.03421     0.01276     0.03929
  
  S  H  45   0.09728     0.00160     0.03376     0.02171     0.00679     0.02758
  
  S  H  46  -0.01105     0.00121    -0.00582    -0.01273    -0.00752    -0.09455
  
  S  H  47  -0.04031    -0.02101     0.00250     0.02364     0.00479    -0.12243
  
  S  H  48  -0.06747    -0.00938    -0.07042    -0.06534    -0.02263    -0.05082
  
  S  H  49  -0.07870     0.01169    -0.05862    -0.07569    -0.02039    -0.05700
  
  S  H  50  -0.11499     0.04753    -0.03390    -0.04751     0.02373     0.08338
  
  S  H  51  -0.14485     0.04056    -0.01457    -0.00556     0.00113     0.04219
  
  S  H  52  -0.02852    -0.04530     0.04844     0.11562    -0.02188     0.02932
  
  S  H  53   0.03145     0.05845     0.08650    -0.11687     0.12785    -0.00403
  
  S  H  54   0.00470     0.02600     0.09927    -0.07729     0.07137    -0.04537
  
  S  H  55  -0.01437    -0.07272    -0.08264     0.14258    -0.08913     0.09627
  
  S  H  56  -0.04859    -0.09497     0.09459     0.14955     0.06241    -0.08867
  
  S  H  57  -0.00871    -0.04347    -0.04685     0.07072     0.17763    -0.02811
  
  S  H  58   0.00527     0.03543    -0.11346    -0.02798     0.07429     0.05582
  
  S  H  59   0.00283     0.12926    -0.09117    -0.03983    -0.11098     0.02621
  
  S  H  60  -0.00078    -0.02537    -0.06880     0.09021     0.15713     0.06112
  
  S  H  61  -0.02385     0.01162    -0.00286     0.02883    -0.03204    -0.05946
  
  S  H  62   0.00644    -0.06084     0.01441    -0.07989    -0.01653     0.06631
  
  S  H  63   0.00649    -0.02532     0.00625    -0.04232     0.00143     0.05952
  
  S  H  64   0.00478     0.01409    -0.00135    -0.05551     0.05921    -0.03709
  
  S  H  65   0.00542     0.01372    -0.01697    -0.05778     0.06483    -0.03677
  
  S  H  66   0.00371     0.00808    -0.01490    -0.03714     0.04359    -0.02428
  
  S  H  67   0.08566    -0.08581    -0.08276    -0.03655    -0.02023    -0.02316
  
  S  H  68   0.10976    -0.04311    -0.04165    -0.06011     0.03110     0.00438
  
  S  H  69   0.15074    -0.10530    -0.06685    -0.03056    -0.04043    -0.11681
  
  S  H  70   0.15433    -0.08819    -0.05156    -0.01969    -0.03195    -0.09876
  
  S  H  71   0.14789    -0.10642    -0.05775    -0.00662    -0.04665    -0.10285




    ROOT NO.   19          20          21          22          23          24

           -30.52734   -30.13383   -29.32001   -28.85557   -28.44721   -27.59933
  
  
  S  C   1   0.24572     0.00003     0.25698     0.04598    -0.14782     0.07620
 PX  C   1  -0.03369    -0.00018    -0.06012    -0.01228     0.04660    -0.03035
 PY  C   1  -0.02093     0.00103    -0.03604    -0.00564     0.02252    -0.01243
 PZ  C   1   0.01294     0.00379    -0.01404     0.00343     0.00770    -0.04463
  
  S  C   2  -0.01749     0.00904    -0.11983    -0.01100     0.08187    -0.12342
 PX  C   2  -0.13283     0.00143    -0.14737    -0.02406     0.08167    -0.04732
 PY  C   2  -0.07085     0.00326    -0.09026    -0.01349     0.04633    -0.02267
 PZ  C   2   0.02596     0.00514     0.00169     0.00679    -0.00380    -0.05273
  
  S  C   3  -0.23953     0.00148    -0.24546    -0.03548     0.11766    -0.01273
 PX  C   3  -0.02047     0.00411     0.00333     0.01302    -0.02909    -0.01649
 PY  C   3  -0.00987     0.00792    -0.02212     0.00224    -0.00563    -0.01024
 PZ  C   3  -0.02104     0.01511    -0.10263    -0.00677     0.05353    -0.12563
  
  S  C   4  -0.01297    -0.02903     0.13493    -0.01822    -0.03862     0.15668
 PX  C   4   0.05411     0.00428     0.03391     0.02171    -0.02853    -0.08086
 PY  C   4  -0.04550     0.00029    -0.03896     0.00337     0.00095     0.04568
 PZ  C   4  -0.10171     0.00325    -0.12560    -0.00020     0.04871    -0.04273
  
  S  C   5   0.14823    -0.00479     0.13840     0.00765    -0.05539     0.05290
 PX  C   5   0.02079     0.01441    -0.09804     0.01418     0.03785    -0.11122
 PY  C   5  -0.04704    -0.00048    -0.04501     0.01740    -0.00987     0.06654
 PZ  C   5  -0.03494    -0.00577    -0.01954     0.04432    -0.03236    -0.03489
  
  S  C   6   0.03866    -0.00181    -0.13284     0.08927     0.00300    -0.14623
 PX  C   6  -0.09852    -0.01204    -0.10621     0.00557     0.03290     0.08991
 PY  C   6  -0.05272    -0.01303    -0.05903     0.05731    -0.03548     0.13113
 PZ  C   6  -0.03384    -0.00918     0.00684     0.09981    -0.08573    -0.06416
  
  S  N   7  -0.13183    -0.05425    -0.07452    -0.00067     0.00153     0.13976
 PX  N   7  -0.01629    -0.02197     0.12646    -0.01940    -0.04853    -0.02865
 PY  N   7  -0.00067    -0.05447     0.10517     0.09647    -0.10142    -0.02542
 PZ  N   7  -0.02621    -0.07301    -0.07342     0.22467    -0.09484    -0.00627
  
  S  C   8   0.00647     0.16608     0.03678    -0.22383     0.10181     0.09888
 PX  C   8   0.01801     0.02970     0.04737     0.08158    -0.08151    -0.06700
 PY  C   8   0.00067    -0.00333     0.06983     0.04691    -0.07713    -0.07509
 PZ  C   8  -0.05130    -0.05772     0.03633    -0.05479    -0.00115    -0.02104
  
  S  C   9   0.04766     0.03391    -0.04847    -0.05434     0.08571     0.00749
 PX  C   9  -0.01592     0.00070     0.00465     0.06124    -0.05532     0.01765
 PY  C   9  -0.00675     0.05086     0.00413    -0.03197     0.00506     0.06915
 PZ  C   9   0.01192     0.11692    -0.01217    -0.18098     0.12103     0.11360
  
  S  C  10  -0.03656    -0.23737     0.02481     0.20921    -0.14766    -0.18071
 PX  C  10  -0.03496    -0.04320     0.02596     0.00083    -0.02664     0.02349
 PY  C  10  -0.02536    -0.01985     0.01689    -0.01595    -0.00586     0.04864
 PZ  C  10   0.02727     0.08474    -0.03512    -0.00258     0.02630     0.07364
  
  S  C  11  -0.11149    -0.24471     0.06964    -0.02809    -0.02214     0.02101
 PX  C  11   0.00086     0.04788    -0.00519    -0.11533     0.08570     0.06919
 PY  C  11  -0.01429     0.03308    -0.00775    -0.10184     0.07712     0.10231
 PZ  C  11   0.02537     0.13191    -0.07443     0.11248    -0.04049     0.13200
  
  S  C  12  -0.01365     0.08030    -0.08305    -0.00243     0.05086     0.14778
 PX  C  12  -0.00195    -0.02307    -0.01131    -0.02652     0.03089    -0.00694
 PY  C  12   0.02429     0.02513    -0.02445    -0.00496     0.02318    -0.05117
 PZ  C  12   0.06734     0.13436    -0.04879     0.06819    -0.02105    -0.07930
  
  S  C  13   0.08226     0.18229    -0.00127     0.01551    -0.01546    -0.12060
 PX  C  13   0.01556    -0.00079    -0.08789     0.05943     0.01860    -0.01228
 PY  C  13   0.02564    -0.04160    -0.03903     0.03986     0.00924    -0.09800
 PZ  C  13   0.02046    -0.07305     0.06919    -0.02295    -0.01737    -0.16767
  
  S  C  14   0.09859    -0.09520    -0.04351     0.05292     0.01758    -0.18800
 PX  C  14  -0.00368     0.02402    -0.10656    -0.01047     0.03851    -0.00118
 PY  C  14  -0.00865    -0.03132    -0.08976    -0.00748     0.04773     0.06809
 PZ  C  14  -0.01684    -0.10673    -0.00507    -0.00064     0.01714     0.13626
  
  S  C  15   0.02386    -0.15332     0.04299     0.17222    -0.04781     0.06742
 PX  C  15   0.05832    -0.02551     0.00942    -0.06408     0.04551    -0.05268
 PY  C  15   0.07933     0.00469    -0.01286    -0.03894     0.07302     0.00750
 PZ  C  15   0.02899     0.03855    -0.05881     0.03599     0.05320     0.10624
  
  S  C  16   0.10595     0.07569     0.03656     0.00463     0.10316     0.06154
 PX  C  16   0.01894    -0.04069    -0.02873    -0.04038     0.05533     0.05688
 PY  C  16   0.01869     0.03738     0.00681    -0.09698     0.06095    -0.01703
 PZ  C  16   0.00317     0.10966     0.03607    -0.10434     0.02285    -0.09899
  
  S  C  17   0.00163     0.15815     0.09883    -0.10403    -0.07909    -0.13006
 PX  C  17   0.05409     0.01877     0.01796     0.00401     0.07953     0.03669
 PY  C  17   0.02305     0.00475     0.03544    -0.06161     0.03858     0.02016
 PZ  C  17  -0.02474    -0.01695     0.03673    -0.10214    -0.03552    -0.01138
  
  S  C  18  -0.04284    -0.04438     0.08044    -0.12128    -0.09568     0.06044
 PX  C  18   0.01915    -0.03552    -0.01675     0.03702     0.05667     0.03986
 PY  C  18   0.00220    -0.08117    -0.03637     0.06489     0.03683     0.08678
 PZ  C  18  -0.01843    -0.10372    -0.04593     0.07460    -0.00565     0.10788
  
  S  C  19  -0.03529    -0.23834    -0.09871     0.18204     0.01850     0.17696
 PX  C  19   0.00744    -0.00393    -0.05861     0.08851     0.03239    -0.06164
 PY  C  19  -0.00508    -0.02497    -0.04570     0.07808     0.00491    -0.00764
 PZ  C  19  -0.01588    -0.03960    -0.01033     0.02802    -0.03550     0.06314
  
  S  C  20  -0.02665    -0.05637    -0.10701     0.15495     0.00313    -0.09967
 PX  C  20  -0.01343     0.05733     0.01546    -0.02972    -0.07073    -0.07160
 PY  C  20  -0.01701    -0.02905    -0.01631     0.04849    -0.03655     0.00380
 PZ  C  20  -0.00319    -0.13221    -0.05979     0.12112     0.01180     0.09779
  
  S  C  21   0.00679     0.12291     0.00591    -0.11371     0.03534    -0.05286
 PX  C  21  -0.07597     0.00108    -0.00220    -0.00543    -0.12549    -0.01754
 PY  C  21  -0.06241     0.01491     0.00120     0.02577    -0.07656    -0.07253
 PZ  C  21   0.00620     0.01749    -0.01219     0.04743     0.00230    -0.11578
  
  S  C  22  -0.15897     0.07363     0.05719    -0.07479    -0.12686     0.06610
 PX  C  22  -0.03063     0.00405     0.04592     0.04565    -0.05408    -0.01202
 PY  C  22  -0.03631     0.04814     0.08130     0.04914    -0.01934    -0.05109
 PZ  C  22   0.02324     0.06956     0.03862    -0.02672    -0.06561    -0.10357
  
  S  C  23  -0.06070    -0.06261    -0.11976     0.00153     0.02043     0.03820
 PX  C  23  -0.04686     0.04312     0.03299     0.00657    -0.03358     0.01451
 PY  C  23  -0.07426     0.03967     0.05827    -0.01018    -0.03021     0.07024
 PZ  C  23  -0.06255     0.00137     0.04625    -0.04733    -0.04271     0.11166
  
  S  C  24  -0.00766     0.03878     0.14946     0.07918     0.01906    -0.03145
 PX  C  24   0.13175    -0.07316    -0.05976    -0.00014     0.07403     0.01385
 PY  C  24   0.03739    -0.02230     0.04477     0.09784     0.22463     0.00996
 PZ  C  24   0.10016    -0.03184    -0.07403    -0.04723    -0.06998    -0.05181
  
  S  C  25   0.23861    -0.10441    -0.16369    -0.13084    -0.17689    -0.01599
 PX  C  25   0.03705    -0.03936    -0.09557    -0.06858    -0.02389     0.05066
 PY  C  25   0.03878    -0.02744    -0.01616     0.01778     0.10322     0.02875
 PZ  C  25   0.01105    -0.01486    -0.07628    -0.05937    -0.08200     0.00372
  
  S  C  26   0.06378    -0.06068    -0.21291    -0.18118    -0.17876     0.06458
 PX  C  26  -0.07496     0.03095    -0.01379    -0.04313    -0.10591     0.00521
 PY  C  26  -0.16935     0.07656     0.07886     0.04235     0.01774    -0.00422
 PZ  C  26   0.02357    -0.01225    -0.05298    -0.05547    -0.10041    -0.00026
  
  S  C  27  -0.21379     0.08909     0.08582     0.05670     0.06276    -0.00533
 PX  C  27  -0.07391     0.02678    -0.06313    -0.09606    -0.20003     0.00176
 PY  C  27  -0.12166     0.06510     0.05898     0.01227    -0.08941    -0.04423
 PZ  C  27   0.00048    -0.01035    -0.08377    -0.08593    -0.12351     0.02035
  
  S  S  28  -0.08928     0.05465     0.24421     0.23943     0.37462    -0.00623
 PX  S  28  -0.01212     0.00286     0.02692     0.04151     0.09480    -0.00050
 PY  S  28  -0.02566     0.00805    -0.03913    -0.03339    -0.05040    -0.01690
 PZ  S  28   0.00630     0.00116     0.04222     0.05271     0.10108    -0.00575
  
  S  C  29  -0.18169     0.08777     0.04234    -0.02327    -0.17513    -0.04663
 PX  C  29   0.03778    -0.01993    -0.04772    -0.04642    -0.06738     0.01210
 PY  C  29   0.17153    -0.07218    -0.03982    -0.00453     0.03940     0.00684
 PZ  C  29  -0.05722     0.02077    -0.01967    -0.03660    -0.07771     0.00586
  
  S  C  30   0.20578    -0.08736    -0.05507    -0.00996     0.05564     0.01820
 PX  C  30   0.01786    -0.00922    -0.02609    -0.02844    -0.04838     0.00615
 PY  C  30   0.13778    -0.06903    -0.07259    -0.03169     0.04691     0.04700
 PZ  C  30  -0.05675     0.02829     0.01578    -0.00751    -0.06569    -0.01974
  
  S  C  31   0.13604    -0.06444    -0.05857    -0.02204     0.04483     0.03630
 PX  C  31  -0.11531     0.05295     0.05042     0.02338    -0.01805    -0.02464
 PY  C  31  -0.12727     0.05685     0.05057     0.02362    -0.01038    -0.01856
 PZ  C  31  -0.03169     0.01540     0.01658     0.00767    -0.00979    -0.01139
  
  S  O  32  -0.05183     0.02252     0.02947     0.02316     0.02699    -0.00702
 PX  O  32  -0.00773     0.00399     0.00392     0.00167    -0.00267    -0.00288
 PY  O  32  -0.03555     0.01623     0.01781     0.01122     0.00572    -0.00612
 PZ  O  32   0.01220    -0.00518    -0.00605    -0.00446    -0.00519     0.00079
  
  S  O  33  -0.08462     0.03924     0.02819     0.00383    -0.04486    -0.01985
 PX  O  33  -0.06151     0.02899     0.02671     0.01042    -0.01888    -0.01596
 PY  O  33  -0.11381     0.05566     0.05247     0.01797    -0.05427    -0.04006
 PZ  O  33   0.00739    -0.00456    -0.00482    -0.00054     0.01255     0.00749
  
  S  C  34   0.07037    -0.03195    -0.01835     0.00352     0.04709     0.01071
 PX  C  34   0.11653    -0.05072    -0.02449     0.00729     0.07025     0.01700
 PY  C  34   0.04580    -0.02367    -0.03513    -0.02438    -0.01033     0.01742
 PZ  C  34   0.07554    -0.03087    -0.00248     0.01907     0.06544     0.00516
  
  S  N  35  -0.08010     0.03281     0.00271    -0.01987    -0.07055    -0.00829
 PX  N  35  -0.00327     0.00027    -0.00515    -0.00539    -0.00670     0.00202
 PY  N  35   0.01789    -0.00902    -0.01275    -0.00879    -0.00361     0.00642
 PZ  N  35  -0.01215     0.00497     0.00230     0.00004    -0.00381    -0.00170
  
  S  O  36  -0.01376    -0.04838     0.06120    -0.17183     0.08889    -0.05590
 PX  O  36   0.07086     0.20150    -0.07909     0.07625    -0.00913     0.07867
 PY  O  36  -0.04333    -0.08953     0.03316    -0.08287     0.04210     0.01925
 PZ  O  36  -0.07486    -0.18152     0.07221    -0.11979     0.04473    -0.01760
  
  S  C  37   0.14546     0.37884    -0.16363     0.26822    -0.10253     0.11347
 PX  C  37   0.00957     0.04376    -0.02980     0.04332    -0.01426     0.05457
 PY  C  37   0.00584     0.01600     0.01154    -0.06472     0.04095    -0.00821
 PZ  C  37  -0.02229    -0.05781     0.02504    -0.04046     0.01479    -0.01397
  
  S  C  38   0.05657     0.00285     0.02943    -0.03116     0.04472    -0.18294
 PX  C  38  -0.07225    -0.00603    -0.02567     0.00440    -0.01316     0.13603
 PY  C  38   0.02240     0.01074    -0.06421    -0.00342     0.03440    -0.06212
 PZ  C  38  -0.02740    -0.01515     0.00734     0.06797    -0.06375    -0.00537
  
  S  C  39  -0.09548    -0.02679     0.05792     0.04233    -0.08700     0.21588
 PX  C  39  -0.01634    -0.00029     0.00077     0.00217    -0.01566     0.09281
 PY  C  39  -0.00453     0.00254    -0.03187     0.00061     0.01550    -0.03108
 PZ  C  39  -0.00669    -0.00596     0.00320     0.03087    -0.03034     0.01189
  
  S  H  40  -0.08544     0.03785    -0.01383    -0.05015    -0.14850    -0.01331
  
  S  H  41   0.11874    -0.00285     0.14534     0.02148    -0.08231     0.06499
  
  S  H  42   0.13869     0.00135     0.14663     0.02906    -0.08951     0.03184
  
  S  H  43   0.11093    -0.00054     0.12457     0.02133    -0.07438     0.05313
  
  S  H  44  -0.00934     0.00791    -0.07553    -0.00462     0.04634    -0.09031
  
  S  H  45  -0.00657     0.00401    -0.05397    -0.00400     0.03873    -0.07411
  
  S  H  46  -0.10685     0.00093    -0.10814    -0.01789     0.05014     0.01882
  
  S  H  47  -0.13532     0.01597    -0.14867    -0.00838     0.03991    -0.07042
  
  S  H  48   0.01738    -0.01268     0.07492    -0.00695    -0.01446     0.00995
  
  S  H  49   0.01173    -0.01699     0.10160    -0.01876    -0.02578     0.13252
  
  S  H  50   0.09979     0.00294     0.08978    -0.03496    -0.00001     0.04057
  
  S  H  51   0.03647    -0.00286     0.03987     0.01463    -0.03470     0.07236
  
  S  H  52  -0.01916     0.00263    -0.06894     0.11113    -0.06457    -0.10809
  
  S  H  53   0.04295     0.00812    -0.02459    -0.06235     0.08126    -0.03041
  
  S  H  54  -0.01338    -0.13442     0.01599     0.11401    -0.08046    -0.14400
  
  S  H  55  -0.00361     0.03006    -0.05450    -0.01879     0.05030     0.05808
  
  S  H  56  -0.04356     0.07007    -0.00312     0.00137    -0.08752    -0.10368
  
  S  H  57  -0.03709    -0.03438     0.03269    -0.05662    -0.07773     0.04168
  
  S  H  58  -0.02631    -0.14328    -0.06372     0.12162    -0.00859     0.12181
  
  S  H  59  -0.01917    -0.03694    -0.06182     0.10101    -0.04509    -0.06598
  
  S  H  60  -0.03513    -0.00552    -0.05479     0.02167     0.01340    -0.00502
  
  S  H  61   0.10536    -0.04552    -0.10295    -0.09557    -0.16513    -0.01879
  
  S  H  62   0.00569    -0.02004    -0.12997    -0.12903    -0.17407     0.03415
  
  S  H  63  -0.10117     0.04836     0.04280     0.01355    -0.04508    -0.03051
  
  S  H  64   0.06236     0.15333    -0.07501     0.15654    -0.07158     0.03738
  
  S  H  65   0.08265     0.21983    -0.09644     0.15330    -0.05653     0.07352
  
  S  H  66   0.06390     0.17675    -0.08270     0.13325    -0.05011     0.07709
  
  S  H  67   0.04656    -0.00372     0.05474     0.00092    -0.00218    -0.13049
  
  S  H  68   0.04919     0.01233     0.01849    -0.06791     0.06797    -0.07965
  
  S  H  69  -0.04390    -0.01404     0.04607     0.01828    -0.05016     0.12839
  
  S  H  70  -0.05346    -0.00862     0.01774     0.00801    -0.03319     0.13996
  
  S  H  71  -0.05140    -0.01600     0.02392     0.04213    -0.06064     0.10925




    ROOT NO.   25          26          27          28          29          30

           -26.99435   -26.25059   -26.06041   -25.48820   -25.16804   -24.71585
  
  
  S  C   1   0.07593    -0.02118    -0.03607    -0.02628    -0.16591    -0.03553
 PX  C   1  -0.03778     0.00556     0.01104     0.02215     0.11689     0.02557
 PY  C   1  -0.00502     0.01818     0.02707     0.00446     0.02696     0.01022
 PZ  C   1  -0.02377     0.04835     0.07207    -0.03502     0.10042     0.01444
  
  S  C   2  -0.08842     0.08500     0.12774    -0.02565     0.26542     0.04679
 PX  C   2  -0.04488    -0.00168    -0.00213     0.01491     0.04733     0.00528
 PY  C   2  -0.00213     0.03038     0.04407     0.00183    -0.00398     0.00783
 PZ  C   2  -0.02444     0.06499     0.09808    -0.05434     0.12169     0.01995
  
  S  C   3   0.00817     0.00780     0.00476     0.03004    -0.09405    -0.01697
 PX  C   3   0.00731     0.01015     0.01088    -0.05495    -0.06512    -0.03130
 PY  C   3   0.03583     0.06411     0.09355    -0.03861    -0.04645     0.00467
 PZ  C   3  -0.07164     0.07274     0.10907    -0.04892     0.12832     0.02277
  
  S  C   4   0.02816    -0.15321    -0.21330     0.09059    -0.05301    -0.00231
 PX  C   4  -0.04045     0.07114     0.09709    -0.09501     0.06304    -0.02454
 PY  C   4   0.08163     0.07586     0.10301    -0.01583    -0.04360    -0.00059
 PZ  C   4  -0.03103    -0.03451    -0.06515     0.00840    -0.09359    -0.05121
  
  S  C   5   0.08916     0.18585     0.25623    -0.05053     0.17675     0.04832
 PX  C   5  -0.04974     0.06276     0.05157    -0.02292     0.00085    -0.04755
 PY  C   5   0.10373     0.07822     0.10404    -0.00589    -0.02004     0.01144
 PZ  C   5  -0.02507    -0.02170    -0.06634    -0.04702    -0.10154    -0.09352
  
  S  C   6  -0.07462     0.06932    -0.03000    -0.01593    -0.08926    -0.15287
 PX  C   6   0.05273    -0.06287    -0.12805     0.11834    -0.09608     0.00238
 PY  C   6   0.16407     0.08246     0.10098     0.01656    -0.01767     0.02351
 PZ  C   6  -0.02524    -0.03257    -0.02838    -0.12083    -0.09606    -0.07510
  
  S  N   7   0.06974     0.02002    -0.14176     0.15937     0.01593     0.03768
 PX  N   7  -0.06891    -0.05207    -0.05621    -0.04734     0.05285     0.04084
 PY  N   7  -0.04265    -0.03132     0.03624    -0.09442     0.07756     0.10733
 PZ  N   7  -0.00107    -0.04809    -0.00517    -0.02414    -0.07112     0.06407
  
  S  C   8  -0.01863    -0.03389     0.02919    -0.13107    -0.00473    -0.19630
 PX  C   8  -0.05945     0.03656    -0.00294    -0.09236     0.01265    -0.09577
 PY  C   8  -0.03630     0.07682    -0.02675    -0.02478     0.06785    -0.04569
 PZ  C   8   0.03113     0.06245    -0.10431     0.15335     0.07204     0.06621
  
  S  C   9   0.08415    -0.16472     0.11447    -0.06331    -0.12719     0.17731
 PX  C   9  -0.03456     0.05310    -0.03113    -0.04818     0.01064    -0.16250
 PY  C   9  -0.04081     0.02953     0.00763    -0.08327     0.00869    -0.19328
 PZ  C   9  -0.03253    -0.05998     0.04668    -0.06571    -0.01780    -0.09016
  
  S  C  10   0.08651     0.11495    -0.10020     0.13720     0.05401     0.03301
 PX  C  10  -0.05536     0.08601    -0.06110     0.02005     0.07505    -0.16629
 PY  C  10  -0.05638     0.03800    -0.01476    -0.03834     0.03187    -0.14534
 PZ  C  10  -0.02820    -0.07742     0.06650    -0.09944    -0.06973     0.00965
  
  S  C  11  -0.06078     0.08750    -0.07880     0.08866     0.09079    -0.05759
 PX  C  11  -0.01289    -0.08869     0.05733    -0.02199    -0.04587     0.12298
 PY  C  11  -0.04375    -0.07821     0.05016    -0.02286    -0.03784     0.10943
 PZ  C  11  -0.10143     0.02339    -0.03082     0.02789     0.02122     0.00490
  
  S  C  12  -0.05362    -0.04747    -0.00535     0.11852    -0.01347     0.23249
 PX  C  12   0.04593    -0.04053     0.00358     0.06650    -0.01753     0.14832
 PY  C  12   0.07954    -0.04064     0.01867     0.03758    -0.03459     0.11753
 PZ  C  12   0.07185    -0.00410     0.01976    -0.03270    -0.03727    -0.03497
  
  S  C  13   0.03275     0.01753     0.03839    -0.06745    -0.02273    -0.05151
 PX  C  13   0.07752    -0.03183    -0.00311     0.11358    -0.04320     0.15065
 PY  C  13   0.10156    -0.01310     0.00898     0.09798    -0.03044     0.14465
 PZ  C  13   0.06855     0.02540     0.00585     0.00757     0.00468     0.00747
  
  S  C  14   0.08729     0.02195     0.07217     0.05837    -0.08465     0.03602
 PX  C  14   0.15555    -0.02678    -0.03840     0.05094    -0.03376    -0.04675
 PY  C  14   0.05723    -0.01469    -0.01063     0.03038    -0.03148    -0.04254
 PZ  C  14  -0.14626     0.00962     0.02973    -0.00611    -0.01642    -0.02350
  
  S  C  15  -0.15695    -0.11235     0.08392    -0.05540     0.00966     0.14520
 PX  C  15  -0.06691     0.07377     0.05122     0.03133    -0.04896    -0.04418
 PY  C  15  -0.06331     0.00525     0.10052    -0.01949    -0.02611    -0.03618
[...]
    Config     823   0.05708759  0.00325899
    Config     858  -0.09650518  0.00931325
    Config     883  -0.04813231  0.00231672
    Config     884  -0.05867377  0.00344261
    Config     887   0.05934871  0.00352227
    Config     928  -0.04550672  0.00207086
    Config     939  -0.04055097  0.00164438
    Config     940   0.04549977  0.00207023
    Config     944   0.05077146  0.00257774
    Config     951  -0.07383647  0.00545182
    Config    1040   0.07230056  0.00522737
    Config    1222  -0.06700700  0.00448994
    Config    1242  -0.06364768  0.00405103
    Config    1253  -0.05326679  0.00283735
    Config    1292  -0.05836535  0.00340651
    Config    1346   0.04356602  0.00189800
 Total coeff printed             0.72668719
  
State  498 11.2164     CI coeff  CI percent
    Config     177   0.10395316  0.01080626
    Config     211   0.05408167  0.00292483
    Config     230   0.06051105  0.00366159
    Config     237   0.04819866  0.00232311
    Config     243   0.04147155  0.00171989
    Config     246  -0.04230866  0.00179002
    Config     273  -0.06734642  0.00453554
    Config     325  -0.06399822  0.00409577
    Config     329   0.07550972  0.00570172
    Config     331  -0.06285112  0.00395026
    Config     332  -0.21747436  0.04729510
    Config     333   0.05660463  0.00320408
    Config     335  -0.08011025  0.00641765
    Config     336  -0.04080087  0.00166471
    Config     345   0.09523891  0.00907045
    Config     348   0.04964516  0.00246464
    Config     353   0.08642985  0.00747012
    Config     363  -0.04012699  0.00161017
    Config     367   0.04219268  0.00178022
    Config     371  -0.06700569  0.00448976
    Config     374  -0.06068277  0.00368240
    Config     375   0.18898187  0.03571415
    Config     379  -0.05294963  0.00280366
    Config     381   0.06543162  0.00428130
    Config     389   0.04038150  0.00163067
    Config     391  -0.05301459  0.00281055
    Config     395   0.05581243  0.00311503
    Config     397   0.15067149  0.02270190
    Config     400  -0.07420419  0.00550626
    Config     401  -0.04040429  0.00163251
    Config     402   0.07448647  0.00554823
    Config     403   0.06765155  0.00457673
    Config     408  -0.08944135  0.00799976
    Config     414   0.04377810  0.00191652
    Config     416   0.14665865  0.02150876
    Config     426  -0.04448615  0.00197902
    Config     432   0.04056116  0.00164521
    Config     434   0.09468877  0.00896596
    Config     437   0.04238525  0.00179651
    Config     440   0.16926135  0.02864940
    Config     450   0.04721505  0.00222926
    Config     452  -0.05391811  0.00290716
    Config     453   0.13474242  0.01815552
    Config     454  -0.14379871  0.02067807
    Config     455   0.06750968  0.00455756
    Config     457  -0.07258707  0.00526888
    Config     458   0.09243982  0.00854512
    Config     459  -0.19434761  0.03777100
    Config     462   0.07539948  0.00568508
    Config     463  -0.09593690  0.00920389
    Config     464  -0.17344463  0.03008304
    Config     466  -0.04367108  0.00190716
    Config     473  -0.07820831  0.00611654
    Config     483   0.05370477  0.00288420
    Config     485   0.04491595  0.00201744
    Config     498  -0.04850542  0.00235278
    Config     501   0.04035782  0.00162875
    Config     509   0.12188914  0.01485696
    Config     511  -0.08257384  0.00681844
    Config     512  -0.05005926  0.00250593
    Config     514  -0.04476641  0.00200403
    Config     518   0.08618199  0.00742734
    Config     519   0.05488925  0.00301283
    Config     520   0.13220072  0.01747703
    Config     527   0.05386029  0.00290093
    Config     528   0.05721453  0.00327350
    Config     531  -0.04299451  0.00184853
    Config     536   0.04290315  0.00184068
    Config     538  -0.04281755  0.00183334
    Config     541  -0.13514490  0.01826414
    Config     543   0.05111907  0.00261316
    Config     546   0.04062346  0.00165027
    Config     550   0.09262105  0.00857866
    Config     551  -0.04259895  0.00181467
    Config     563  -0.04458567  0.00198788
    Config     572   0.04519436  0.00204253
    Config     573   0.06429004  0.00413321
    Config     578  -0.07336876  0.00538298
    Config     585   0.04933601  0.00243404
    Config     596  -0.05649249  0.00319140
    Config     611  -0.05247559  0.00275369
    Config     625   0.04666658  0.00217777
    Config     627  -0.04872535  0.00237416
    Config     645   0.07248072  0.00525345
    Config     649   0.05711504  0.00326213
    Config     651   0.08913009  0.00794417
    Config     667   0.05276345  0.00278398
    Config     687  -0.04184335  0.00175087
    Config     693   0.04957497  0.00245768
    Config     695   0.05900017  0.00348102
    Config     719   0.04787052  0.00229159
    Config     720   0.04416549  0.00195059
    Config     740  -0.04215760  0.00177726
    Config     762   0.10718648  0.01148894
    Config     777   0.10911034  0.01190507
    Config     787  -0.07114416  0.00506149
    Config     793  -0.06324460  0.00399988
    Config     794   0.05344646  0.00285652
    Config     797   0.06607165  0.00436546
    Config     808  -0.04916818  0.00241751
    Config     842   0.06481096  0.00420046
    Config     858  -0.04779738  0.00228459
    Config     881  -0.04024145  0.00161937
    Config     900   0.05267746  0.00277491
    Config     920  -0.04014039  0.00161125
    Config     928   0.05425647  0.00294376
    Config     978   0.04252315  0.00180822
    Config     987  -0.04229278  0.00178868
    Config    1222   0.10044506  0.01008921
    Config    1242   0.10911548  0.01190619
    Config    1253   0.07753513  0.00601170
    Config    1287   0.04682495  0.00219258
    Config    1292   0.09099583  0.00828024
    Config    1346  -0.08386099  0.00703267
    Config    1374  -0.04435337  0.00196722
 Total coeff printed             0.72418864
  
State  499 11.2173     CI coeff  CI percent
    Config     177   0.06099390  0.00372026
    Config     188   0.04212809  0.00177478
    Config     196   0.04998392  0.00249839
    Config     200  -0.07957779  0.00633263
    Config     235  -0.04309573  0.00185724
    Config     246   0.07097391  0.00503730
    Config     260  -0.05902378  0.00348381
    Config     273  -0.09442614  0.00891630
    Config     282  -0.04882280  0.00238367
    Config     285   0.11307033  0.01278490
    Config     296   0.06805938  0.00463208
    Config     301   0.04979815  0.00247986
    Config     314   0.05634322  0.00317456
    Config     325   0.05479241  0.00300221
    Config     326   0.04906658  0.00240753
    Config     327  -0.09525599  0.00907370
    Config     330   0.07203109  0.00518848
    Config     331  -0.05641213  0.00318233
    Config     332  -0.14374128  0.02066156
    Config     335  -0.04543891  0.00206469
    Config     336  -0.04400221  0.00193619
    Config     344  -0.07532446  0.00567377
    Config     348  -0.11738650  0.01377959
    Config     352   0.05699754  0.00324872
    Config     357   0.05835189  0.00340494
    Config     359  -0.05968112  0.00356184
    Config     364  -0.10196525  0.01039691
    Config     371  -0.05197357  0.00270125
    Config     375  -0.11852312  0.01404773
    Config     377   0.13502600  0.01823202
    Config     379   0.05142397  0.00264443
    Config     383   0.04822727  0.00232587
    Config     386   0.11631229  0.01352855
    Config     390  -0.05794872  0.00335805
    Config     397   0.12315088  0.01516614
    Config     398   0.05545044  0.00307475
    Config     402   0.05571579  0.00310425
    Config     405   0.04922169  0.00242278
    Config     408   0.04466531  0.00199499
    Config     410   0.05094191  0.00259508
    Config     411   0.07582283  0.00574910
    Config     412   0.04329716  0.00187464
    Config     416   0.16788082  0.02818397
    Config     423   0.04926549  0.00242709
    Config     424  -0.05772821  0.00333255
    Config     426  -0.05249414  0.00275563
    Config     427  -0.04309648  0.00185731
    Config     432   0.07329058  0.00537151
    Config     433   0.11045509  0.01220033
    Config     437   0.04682143  0.00219225
    Config     441   0.12831601  0.01646500
    Config     444   0.04016454  0.00161319
    Config     447  -0.08086157  0.00653859
    Config     448  -0.12420974  0.01542806
    Config     450  -0.06859945  0.00470588
    Config     452  -0.07506530  0.00563480
    Config     453   0.05558714  0.00308993
    Config     454   0.11686460  0.01365734
    Config     455   0.11538346  0.01331334
    Config     458   0.08834049  0.00780404
    Config     459   0.04750129  0.00225637
    Config     461   0.05248930  0.00275513
    Config     462  -0.11634334  0.01353577
    Config     464   0.06161542  0.00379646
    Config     467   0.07121617  0.00507174
    Config     475  -0.04688818  0.00219850
    Config     476   0.09584541  0.00918634
    Config     480  -0.09693152  0.00939572
    Config     485  -0.06206622  0.00385222
    Config     490   0.04719182  0.00222707
    Config     495   0.04311834  0.00185919
    Config     497   0.10038646  0.01007744
    Config     503  -0.05987682  0.00358523
    Config     507   0.04929092  0.00242959
    Config     508  -0.04649318  0.00216162
    Config     509  -0.09299677  0.00864840
    Config     518  -0.04485327  0.00201182
    Config     520   0.08126548  0.00660408
    Config     522   0.08418894  0.00708778
    Config     530  -0.04105356  0.00168540
    Config     531  -0.06033013  0.00363972
    Config     533   0.05575713  0.00310886
    Config     534  -0.07375927  0.00544043
    Config     536   0.04135878  0.00171055
    Config     541   0.04070348  0.00165677
    Config     542  -0.04208867  0.00177146
    Config     549   0.06537327  0.00427366
    Config     550  -0.06942688  0.00482009
    Config     553  -0.04809286  0.00231292
    Config     554  -0.05858049  0.00343167
    Config     569   0.07873446  0.00619911
    Config     572   0.14984987  0.02245498
    Config     574   0.06436742  0.00414316
    Config     577  -0.08966390  0.00803961
    Config     582  -0.04892081  0.00239325
    Config     585   0.06927736  0.00479935
    Config     593  -0.05493384  0.00301773
    Config     594  -0.04941792  0.00244213
    Config     599   0.04270256  0.00182351
    Config     603  -0.05452760  0.00297326
    Config     606  -0.05523958  0.00305141
    Config     607  -0.04663393  0.00217472
    Config     608   0.06150652  0.00378305
    Config     609  -0.12824163  0.01644591
    Config     610  -0.04648049  0.00216044
    Config     620   0.05619477  0.00315785
    Config     631   0.10104298  0.01020968
    Config     642   0.04610269  0.00212546
    Config     654  -0.06040164  0.00364836
    Config     655   0.05129640  0.00263132
    Config     665  -0.06246248  0.00390156
    Config     673   0.06238888  0.00389237
    Config     679  -0.04548374  0.00206877
    Config     686   0.04074363  0.00166004
    Config     687  -0.04499933  0.00202494
    Config     707  -0.05182961  0.00268631
    Config     709   0.06131486  0.00375951
    Config     720   0.06677486  0.00445888
    Config     733  -0.04467757  0.00199609
    Config     738   0.04899786  0.00240079
    Config     740  -0.04620051  0.00213449
    Config     743  -0.06960818  0.00484530
    Config     756  -0.05428140  0.00294647
    Config     775  -0.04965698  0.00246582
    Config     777  -0.04728832  0.00223618
    Config     778   0.04713261  0.00222148
    Config     781  -0.04142330  0.00171589
    Config     793  -0.06004281  0.00360514
    Config     794  -0.04010116  0.00160810
    Config     809   0.05332462  0.00284351
    Config     838   0.04083407  0.00166742
    Config     842  -0.04500686  0.00202562
    Config     901   0.04580816  0.00209839
    Config     919   0.04310421  0.00185797
    Config     934   0.04992456  0.00249246
    Config     946  -0.05282250  0.00279022
    Config     958  -0.04107732  0.00168735
    Config     971   0.04493716  0.00201935
    Config     983  -0.05254629  0.00276111
    Config    1019  -0.04520020  0.00204306
    Config    1022  -0.04242181  0.00179961
    Config    1222  -0.05792377  0.00335516
    Config    1242  -0.05594784  0.00313016
    Config    1253  -0.04767246  0.00227266
    Config    1292  -0.04788950  0.00229340
    Config    1346   0.04575991  0.00209397
 Total coeff printed             0.71817453
  
State  500 11.2216     CI coeff  CI percent
    Config     177   0.11715548  0.01372541
    Config     200   0.07866479  0.00618815
    Config     205   0.05082678  0.00258336
    Config     207   0.04081995  0.00166627
    Config     243   0.05047603  0.00254783
    Config     246   0.05727219  0.00328010
    Config     251   0.04580390  0.00209800
    Config     280  -0.07396498  0.00547082
    Config     285   0.07737114  0.00598629
    Config     296   0.07755259  0.00601440
    Config     312   0.04334181  0.00187851
    Config     314   0.04415533  0.00194969
    Config     318  -0.07793185  0.00607337
    Config     323  -0.05571479  0.00310414
    Config     326  -0.07938645  0.00630221
    Config     327   0.04256097  0.00181144
    Config     330  -0.05177774  0.00268093
    Config     331  -0.06013304  0.00361598
    Config     332  -0.22908332  0.05247917
    Config     338  -0.07412453  0.00549445
    Config     340  -0.07309153  0.00534237
    Config     344   0.06001199  0.00360144
    Config     348   0.06107477  0.00373013
    Config     349   0.04825543  0.00232859
    Config     353  -0.09918716  0.00983809
    Config     357  -0.08433695  0.00711272
    Config     362   0.07227140  0.00522316
    Config     364   0.06654801  0.00442864
    Config     371   0.04912226  0.00241300
    Config     372   0.06704477  0.00449500
    Config     373   0.04652759  0.00216482
    Config     374   0.09694477  0.00939829
    Config     375  -0.10522693  0.01107271
    Config     376   0.04927750  0.00242827
    Config     377   0.09403158  0.00884194
    Config     390   0.07834520  0.00613797
    Config     395  -0.07934872  0.00629622
    Config     396   0.06034633  0.00364168
    Config     397   0.13183944  0.01738164
    Config     400   0.05778744  0.00333939
    Config     405  -0.05947287  0.00353702
    Config     408  -0.06067109  0.00368098
    Config     411  -0.07148160  0.00510962
    Config     416  -0.10144270  0.01029062
    Config     423   0.04203376  0.00176684
    Config     424   0.05666121  0.00321049
    Config     427  -0.04465626  0.00199418
    Config     431  -0.06649274  0.00442128
    Config     442   0.04624377  0.00213849
    Config     443  -0.04779095  0.00228397
    Config     448   0.04483437  0.00201012
    Config     450   0.05231569  0.00273693
    Config     453  -0.04626780  0.00214071
    Config     454   0.10920574  0.01192589
    Config     456   0.04116631  0.00169467
    Config     457   0.04519737  0.00204280
    Config     458  -0.04061800  0.00164982
    Config     459  -0.12729264  0.01620342
    Config     462  -0.11698509  0.01368551
    Config     463  -0.07950094  0.00632040
    Config     464  -0.15688242  0.02461209
    Config     465   0.04190117  0.00175571
    Config     473  -0.05179199  0.00268241
    Config     474  -0.05711361  0.00326196
    Config     475   0.04861990  0.00236389
    Config     480   0.07722872  0.00596428
    Config     483   0.04584447  0.00210172
    Config     497   0.07495985  0.00561898
    Config     500  -0.05259548  0.00276628
    Config     501   0.04073767  0.00165956
    Config     502   0.04023161  0.00161858
    Config     504   0.05380275  0.00289474
    Config     506  -0.10252419  0.01051121
    Config     507  -0.04892816  0.00239396
    Config     509  -0.08241129  0.00679162
    Config     510   0.04809533  0.00231316
    Config     515  -0.07137434  0.00509430
    Config     516   0.06988276  0.00488360
    Config     520   0.10625900  0.01129098
    Config     523  -0.08365843  0.00699873
    Config     527  -0.05166536  0.00266931
    Config     529  -0.04718988  0.00222689
    Config     530   0.04377130  0.00191593
    Config     531   0.04972514  0.00247259
    Config     533  -0.08171673  0.00667762
    Config     541  -0.12460335  0.01552600
    Config     542   0.04153701  0.00172532
    Config     550  -0.04780152  0.00228499
    Config     552  -0.05318668  0.00282882
    Config     554   0.06180569  0.00381994
    Config     555   0.09889497  0.00978021
    Config     561   0.04744773  0.00225129
    Config     563  -0.05180083  0.00268333
    Config     571   0.05372124  0.00288597
    Config     574   0.09736014  0.00947900
    Config     578  -0.05854204  0.00342717
    Config     579  -0.05035915  0.00253604
    Config     583   0.04230597  0.00178980
    Config     590   0.04553709  0.00207363
    Config     596  -0.04483073  0.00200979
    Config     600   0.06804924  0.00463070
    Config     603   0.05198099  0.00270202
    Config     607   0.04384938  0.00192277
    Config     609   0.06436858  0.00414331
    Config     611  -0.05617026  0.00315510
    Config     620  -0.04098222  0.00167954
    Config     632  -0.04206851  0.00176976
    Config     634  -0.11169637  0.01247608
    Config     641   0.04948142  0.00244841
    Config     645  -0.04518812  0.00204197
    Config     651   0.05996071  0.00359529
    Config     655  -0.05193520  0.00269727
    Config     658   0.04029750  0.00162389
    Config     665  -0.05233744  0.00273921
    Config     666  -0.04360995  0.00190183
    Config     674   0.04118598  0.00169629
    Config     677   0.05372845  0.00288675
    Config     695   0.04493790  0.00201942
    Config     700   0.04201357  0.00176514
    Config     708  -0.05628981  0.00316854
    Config     709   0.05670778  0.00321577
    Config     710  -0.05916374  0.00350035
    Config     713   0.05359866  0.00287282
    Config     716  -0.04223535  0.00178382
    Config     717   0.05256203  0.00276277
    Config     720  -0.04687644  0.00219740
    Config     738   0.05373794  0.00288777
    Config     740   0.04694948  0.00220425
    Config     747   0.05622755  0.00316154
    Config     758   0.05584420  0.00311857
    Config     761  -0.06427796  0.00413166
    Config     794  -0.06478739  0.00419741
    Config     858   0.13448971  0.01808748
    Config     860  -0.04019763  0.00161585
    Config     879   0.04068869  0.00165557
    Config     911  -0.06468595  0.00418427
    Config     913   0.04671672  0.00218245
    Config     919  -0.04697368  0.00220653
    Config     940  -0.06715771  0.00451016
    Config     944  -0.06688969  0.00447423
    Config     951   0.09370845  0.00878127
    Config     955   0.05193117  0.00269685
    Config     962  -0.06305951  0.00397650
    Config     987   0.04797213  0.00230133
    Config    1007   0.04149323  0.00172169
    Config    1011   0.04899933  0.00240093
    Config    1025   0.04207108  0.00176998
    Config    1032   0.04786195  0.00229077
    Config    1043  -0.04444645  0.00197549
    Config    1063   0.04946305  0.00244659
    Config    1222  -0.05800682  0.00336479
    Config    1242  -0.07187476  0.00516598
    Config    1292  -0.05112868  0.00261414
    Config    1346   0.04865975  0.00236777
    Config    1370  -0.05122927  0.00262444
 Total coeff printed             0.72416418
  

 **********************
 *                    *
 * JOB ENDED NORMALLY *
 *                    *
 **********************



 TOTAL JOB TIME:           179.11 SECONDS

 == MOPAC DONE ==
