 *******************************************************************************
 ** Site#: 37966        For non-commercial use only           Version 21.186W **
 *******************************************************************************
 ** Cite this program as: MOPAC2016, Version: 21.186W, James J. P. Stewart,   **
 ** Stewart Computational Chemistry, web: HTTP://OpenMOPAC.net. Days left: 254**
 *******************************************************************************
 **                                                                           **
 **                                MOPAC2016                                  **
 **                                                                           **
 *******************************************************************************

                              INDO CALCULATION RESULTS

 *******************************************************************************
 *  CALCULATION DONE:                                Sun Oct 24 23:01:45 2021  *
 *  INDO       - The INDO Hamiltonian to be used
 *  CIS        - C.I. USES 1 ELECTRON EXCITATIONS ONLY
 *  EPS=7.58   - USE ANDREAS KLAMT'S COSMO IMPLICIT SOLVATION MODEL
 *  N**2=1.40  - USED IN COSMO-CI
 *  T=         - A TIME OF 172800.0 SECONDS REQUESTED
 *  DUMP=N     - RESTART FILE WRITTEN EVERY 7200.0 SECONDS REQUESTED
 *******************************************************************************
INDO CIS EPS=7.58 N**2=1.40
 DyeE8
 Calculo de Estados Excitados
   ATOM   CHEMICAL          X               Y               Z
  NUMBER   SYMBOL      (ANGSTROMS)     (ANGSTROMS)     (ANGSTROMS)
 
     1       N          0.00000000  *   0.00000000  *   0.00000000  *
     2       C          1.15647186  *   0.00000000  *   0.00000000  *
     3       C          2.57333752  *   0.02197806  *   0.00000000  *
     4       C          3.32536873  *  -1.07816724  *  -0.20044698  *
     5       C          2.77392771  *  -2.38927661  *  -0.37727260  *
     6       C          1.67038083  *  -2.91365865  *   0.24165299  *
     7       C          1.42641946  *  -4.26444205  *  -0.15707554  *
     8       C          2.35412617  *  -4.70790756  *  -1.06043426  *
     9       S          3.52251095  *  -3.51391138  *  -1.42733511  *
    10       C          2.39941538  *  -5.99617428  *  -1.67338381  *
    11       C          3.51112869  *  -6.76928065  *  -1.86430235  *
    12       C          3.19954186  *  -8.00577190  *  -2.51318354  *
    13       C          1.86522415  *  -8.11852237  *  -2.78716762  *
    14       S          0.97853866  *  -6.74698546  *  -2.26719122  *
    15       C          1.21323915  *  -9.21752185  *  -3.42354743  *
    16       C          0.29310646  *  -9.15217140  *  -4.43052579  *
    17       C         -0.15803247  * -10.45176088  *  -4.83083798  *
    18       C          0.43706296  * -11.44648173  *  -4.11083013  *
    19       S          1.54354423  * -10.83584587  *  -2.95354295  *
    20       C          0.21065086  * -12.86217158  *  -4.28057618  *
    21       C          0.06672537  * -13.69271308  *  -3.16230910  *
    22       C         -0.16049488  * -15.05410002  *  -3.29430551  *
    23       C         -0.23614928  * -15.58158176  *  -4.57863144  *
    24       C         -0.09929615  * -14.73543726  *  -5.72095304  *
    25       C          0.12300499  * -13.37995447  *  -5.57175695  *
    26       C         -0.24314252  * -15.55890353  *  -6.89758191  *
    27       C         -0.17933011  * -15.33359032  *  -8.26259110  *
    28       C         -0.34058133  * -16.42240593  *  -9.11051031  *
    29       C         -0.57865684  * -17.71510498  *  -8.62653159  *
    30       C         -0.67481046  * -17.96560754  *  -7.26388450  *
    31       C         -0.48486373  * -16.87003419  *  -6.43396787  *
    32       N         -0.49685925  * -16.89835829  *  -5.02410978  *
    33       C         -0.44917027  * -18.14764546  *  -4.37662120  *
    34       C         -0.20886511  * -18.24039678  *  -3.00309751  *
    35       C         -0.18094787  * -19.48531678  *  -2.39261262  *
    36       C         -0.38439180  * -20.63537958  *  -3.14123158  *
    37       C         -0.61900131  * -20.53768130  *  -4.50651037  *
    38       C         -0.65367037  * -19.30612433  *  -5.15311556  *
    39       C         -0.98504586  * -19.28590140  *  -6.63238314  *
    40       C         -0.19782627  * -20.39516784  *  -7.34939276  *
    41       C          1.29998881  * -20.17245281  *  -7.23049874  *
    42       C         -2.50664854  * -19.54369411  *  -6.70839267  *
    43       C         -3.09308986  * -19.43253056  *  -8.10316048  *
    44       C          3.23046552  *   1.32092606  *   0.19988944  *
    45       O          4.43376364  *   1.53783654  *   0.17911357  *
    46       O          2.37528057  *   2.33756817  *   0.42751645  *
    47       H          4.42330439  *  -0.99988486  *  -0.24157894  *
    48       H          1.04999146  *  -2.40206862  *   0.97556073  *
    49       H          0.59741184  *  -4.85233642  *   0.23058337  *
    50       H          4.52127884  *  -6.50314237  *  -1.56199454  *
    51       H          3.95443795  *  -8.74989820  *  -2.75568707  *
    52       H         -0.06627833  *  -8.23689254  *  -4.89473632  *
    53       H         -0.89786648  * -10.60159807  *  -5.61337692  *
    54       H          0.12411120  * -13.26011601  *  -2.15788469  *
    55       H         -0.28121768  * -15.68447129  *  -2.40772802  *
    56       H          0.23181129  * -12.74039051  *  -6.45180784  *
    57       H         -0.00061035  * -14.32923894  *  -8.65322890  *
    58       H         -0.28045098  * -16.26871722  * -10.19211098  *
    59       H         -0.68505631  * -18.52832897  *  -9.35108351  *
    60       H         -0.03997500  * -17.34817981  *  -2.39149626  *
    61       H          0.00411433  * -19.55668715  *  -1.31636520  *
    62       H         -0.36173697  * -21.61639147  *  -2.65915168  *
    63       H         -0.77435516  * -21.45910579  *  -5.08311543  *
    64       H         -0.47032314  * -21.39215827  *  -6.93509659  *
    65       H         -0.48865566  * -20.46710115  *  -8.41756075  *
    66       H          1.86953677  * -20.96806757  *  -7.73330179  *
    67       H          1.62044540  * -19.22298289  *  -7.68349816  *
    68       H          1.64051231  * -20.15541366  *  -6.18501658  *
    69       H         -2.73768813  * -20.54607061  *  -6.28787184  *
    70       H         -3.03030945  * -18.83136443  *  -6.03414659  *
    71       H         -4.15621594  * -19.72053204  *  -8.10908267  *
    72       H         -3.05774208  * -18.40797846  *  -8.50024778  *
    73       H         -2.59835655  * -20.08495527  *  -8.83566314  *
    74       H          2.85108802  *   3.17195652  *   0.55034309  *
 


          CARTESIAN COORDINATES 

    NO.       ATOM           X           Y           Z

     1         N          0.0000      0.0000      0.0000
     2         C          1.1565      0.0000      0.0000
     3         C          2.5733      0.0220      0.0000
     4         C          3.3254     -1.0782     -0.2004
     5         C          2.7739     -2.3893     -0.3773
     6         C          1.6704     -2.9137      0.2417
     7         C          1.4264     -4.2644     -0.1571
     8         C          2.3541     -4.7079     -1.0604
     9         S          3.5225     -3.5139     -1.4273
    10         C          2.3994     -5.9962     -1.6734
    11         C          3.5111     -6.7693     -1.8643
    12         C          3.1995     -8.0058     -2.5132
    13         C          1.8652     -8.1185     -2.7872
    14         S          0.9785     -6.7470     -2.2672
    15         C          1.2132     -9.2175     -3.4235
    16         C          0.2931     -9.1522     -4.4305
    17         C         -0.1580    -10.4518     -4.8308
    18         C          0.4371    -11.4465     -4.1108
    19         S          1.5435    -10.8358     -2.9535
    20         C          0.2107    -12.8622     -4.2806
    21         C          0.0667    -13.6927     -3.1623
    22         C         -0.1605    -15.0541     -3.2943
    23         C         -0.2361    -15.5816     -4.5786
    24         C         -0.0993    -14.7354     -5.7210
    25         C          0.1230    -13.3800     -5.5718
    26         C         -0.2431    -15.5589     -6.8976
    27         C         -0.1793    -15.3336     -8.2626
    28         C         -0.3406    -16.4224     -9.1105
    29         C         -0.5787    -17.7151     -8.6265
    30         C         -0.6748    -17.9656     -7.2639
    31         C         -0.4849    -16.8700     -6.4340
    32         N         -0.4969    -16.8984     -5.0241
    33         C         -0.4492    -18.1476     -4.3766
    34         C         -0.2089    -18.2404     -3.0031
    35         C         -0.1809    -19.4853     -2.3926
    36         C         -0.3844    -20.6354     -3.1412
    37         C         -0.6190    -20.5377     -4.5065
    38         C         -0.6537    -19.3061     -5.1531
    39         C         -0.9850    -19.2859     -6.6324
    40         C         -0.1978    -20.3952     -7.3494
    41         C          1.3000    -20.1725     -7.2305
    42         C         -2.5066    -19.5437     -6.7084
    43         C         -3.0931    -19.4325     -8.1032
    44         C          3.2305      1.3209      0.1999
    45         O          4.4338      1.5378      0.1791
    46         O          2.3753      2.3376      0.4275
    47         H          4.4233     -0.9999     -0.2416
    48         H          1.0500     -2.4021      0.9756
    49         H          0.5974     -4.8523      0.2306
    50         H          4.5213     -6.5031     -1.5620
    51         H          3.9544     -8.7499     -2.7557
    52         H         -0.0663     -8.2369     -4.8947
    53         H         -0.8979    -10.6016     -5.6134
    54         H          0.1241    -13.2601     -2.1579
    55         H         -0.2812    -15.6845     -2.4077
    56         H          0.2318    -12.7404     -6.4518
    57         H         -0.0006    -14.3292     -8.6532
    58         H         -0.2805    -16.2687    -10.1921
    59         H         -0.6851    -18.5283     -9.3511
    60         H         -0.0400    -17.3482     -2.3915
    61         H          0.0041    -19.5567     -1.3164
    62         H         -0.3617    -21.6164     -2.6592
    63         H         -0.7744    -21.4591     -5.0831
    64         H         -0.4703    -21.3922     -6.9351
    65         H         -0.4887    -20.4671     -8.4176
    66         H          1.8695    -20.9681     -7.7333
    67         H          1.6204    -19.2230     -7.6835
    68         H          1.6405    -20.1554     -6.1850
    69         H         -2.7377    -20.5461     -6.2879
    70         H         -3.0303    -18.8314     -6.0341
    71         H         -4.1562    -19.7205     -8.1091
    72         H         -3.0577    -18.4080     -8.5002
    73         H         -2.5984    -20.0850     -8.8357
    74         H          2.8511      3.1720      0.5503

           Empirical Formula: C39 H28 N2 O2 S3  =    74 atoms



      MOLECULAR POINT GROUP   :   C1  


      RHF CALCULATION, NO. OF DOUBLY OCCUPIED LEVELS = 112

 WARNING: INDO only performs single-point calculations

 Summary of symmetry occupancy in each shell:

 SHELL     
    1  112
    v  100
 TOTAL 212




    ROOT NO.    1           2           3           4           5           6

           -49.52483   -46.78848   -45.85287   -43.72928   -43.53480   -43.27568
  
  
  S  N   1   0.00000     0.04032    -0.00004     0.02551    -0.02095    -0.04168
 PX  N   1   0.00000     0.02485    -0.00002     0.01351    -0.01107    -0.02194
 PY  N   1  -0.00000     0.00377     0.00001    -0.00401     0.00315     0.00590
 PZ  N   1   0.00000     0.00081    -0.00000     0.00008    -0.00006    -0.00010
  
  S  C   2   0.00000     0.11473    -0.00006     0.04494    -0.03671    -0.07240
 PX  C   2   0.00000     0.04972    -0.00000     0.00753    -0.00606    -0.01168
 PY  C   2  -0.00000     0.02164     0.00004    -0.01371     0.01076     0.02012
 PZ  C   2  -0.00000     0.00386     0.00000    -0.00085     0.00067     0.00127
  
  S  C   3   0.00000     0.22979    -0.00004     0.05271    -0.04324    -0.08564
 PX  C   3  -0.00000     0.03177     0.00002    -0.00321     0.00242     0.00429
 PY  C   3  -0.00000     0.07627     0.00010    -0.03091     0.02435     0.04586
 PZ  C   3  -0.00000     0.01180     0.00001    -0.00419     0.00331     0.00628
  
  S  C   4   0.00000     0.11715    -0.00018     0.09032    -0.07197    -0.13742
 PX  C   4  -0.00000    -0.01852     0.00006    -0.02617     0.02074     0.03934
 PY  C   4  -0.00000     0.04626     0.00009    -0.02357     0.01775     0.03124
 PZ  C   4  -0.00000     0.00863     0.00001    -0.00085     0.00055     0.00073
  
  S  C   5   0.00001     0.05451    -0.00057     0.18210    -0.13998    -0.25427
 PX  C   5  -0.00000    -0.00357     0.00011    -0.03261     0.02479     0.04428
 PY  C   5  -0.00000     0.01451     0.00020    -0.04143     0.02992     0.04934
 PZ  C   5  -0.00000     0.00521     0.00000     0.00481    -0.00416    -0.00874
  
  S  C   6   0.00001     0.03648    -0.00062     0.18384    -0.14008    -0.25122
 PX  C   6   0.00000     0.00977    -0.00014     0.04425    -0.03386    -0.06109
 PY  C   6  -0.00000     0.00649     0.00015    -0.03006     0.02146     0.03477
 PZ  C   6  -0.00000    -0.00651     0.00018    -0.04823     0.03634     0.06411
  
  S  C   7   0.00002     0.01990    -0.00092     0.19145    -0.13991    -0.23631
 PX  C   7   0.00001     0.00624    -0.00028     0.05974    -0.04382    -0.07439
 PY  C   7  -0.00000     0.00667     0.00003     0.02927    -0.02492    -0.05092
 PZ  C   7  -0.00000    -0.00212     0.00022    -0.03318     0.02289     0.03523
  
  S  C   8   0.00004     0.01724    -0.00163     0.22509    -0.15436    -0.23595
 PX  C   8   0.00000    -0.00112     0.00000    -0.01084     0.00875     0.01679
 PY  C   8  -0.00002     0.00632     0.00041     0.01661    -0.02091    -0.05661
 PZ  C   8  -0.00001     0.00355     0.00014     0.01747    -0.01680    -0.03815
  
  S  S   9   0.00001     0.01951    -0.00069     0.14249    -0.10414    -0.17605
 PX  S   9  -0.00001    -0.00803     0.00031    -0.07113     0.05248     0.08987
 PY  S   9  -0.00001     0.00444     0.00022    -0.01308     0.00631     0.00248
 PZ  S   9   0.00000     0.00781    -0.00016     0.04921    -0.03754    -0.06735
  
  S  C  10   0.00015     0.00617    -0.00385     0.23850    -0.13147    -0.12106
 PX  C  10   0.00001     0.00002    -0.00024     0.01515    -0.00751    -0.00379
 PY  C  10  -0.00006     0.00191     0.00133    -0.03260     0.00732    -0.02534
 PZ  C  10  -0.00003     0.00105     0.00060    -0.01149     0.00096    -0.01519
  
  S  C  11   0.00017     0.00309    -0.00411     0.21127    -0.10709    -0.07021
 PX  C  11  -0.00007    -0.00109     0.00164    -0.08078     0.04032     0.02466
 PY  C  11  -0.00004     0.00064     0.00064    -0.01084     0.00101    -0.01331
 PZ  C  11  -0.00003     0.00014     0.00059    -0.01852     0.00707    -0.00253
  
  S  C  12   0.00038     0.00179    -0.00631     0.21258    -0.09431    -0.02555
 PX  C  12  -0.00016    -0.00048     0.00244    -0.06624     0.02711     0.00114
 PY  C  12  -0.00003     0.00064    -0.00030     0.04947    -0.02759    -0.02325
 PZ  C  12  -0.00005     0.00024     0.00029     0.01296    -0.00893    -0.01127
  
  S  C  13   0.00093     0.00164    -0.01140     0.24410    -0.09157     0.01911
 PX  C  13  -0.00019     0.00037     0.00116     0.02730    -0.01962    -0.02460
 PY  C  13  -0.00033     0.00049     0.00249     0.01841    -0.02034    -0.03769
 PZ  C  13  -0.00022     0.00030     0.00165     0.01129    -0.01289    -0.02422
  
  S  S  14   0.00029     0.00235    -0.00476     0.16901    -0.07912    -0.03692
 PX  S  14   0.00009     0.00126    -0.00201     0.09608    -0.04756    -0.02800
 PY  S  14  -0.00015     0.00047     0.00188    -0.02675     0.00520    -0.01913
 PZ  S  14  -0.00007     0.00049     0.00068     0.00259    -0.00573    -0.01563
  
  S  C  15   0.00340     0.00059    -0.02791     0.24309    -0.03871     0.16325
 PX  C  15  -0.00080     0.00010     0.00570    -0.02007    -0.00663    -0.03963
 PY  C  15  -0.00120     0.00016     0.00744    -0.01489    -0.01199    -0.04669
 PZ  C  15  -0.00079     0.00007     0.00577    -0.02374    -0.00511    -0.03979
  
  S  C  16   0.00406     0.00029    -0.03043     0.21248    -0.01839     0.18349
 PX  C  16   0.00032     0.00008    -0.00347     0.03490    -0.00601     0.02270
 PY  C  16  -0.00196    -0.00002     0.01271    -0.06325    -0.00125    -0.07037
 PZ  C  16   0.00045     0.00009    -0.00454     0.04214    -0.00637     0.02951
  
  S  C  17   0.00940     0.00018    -0.04861     0.21441    -0.00062     0.21805
 PX  C  17   0.00145     0.00005    -0.00989     0.05656    -0.00212     0.05458
 PY  C  17  -0.00367     0.00002     0.01176    -0.00284    -0.00771    -0.01255
 PZ  C  17   0.00148     0.00006    -0.01050     0.06036    -0.00183     0.05842
  
  S  C  18   0.01974     0.00017    -0.07989     0.23871     0.01617     0.25688
 PX  C  18  -0.00202     0.00000     0.00633    -0.00616    -0.00321    -0.01023
 PY  C  18  -0.00815     0.00006     0.01793     0.03864    -0.01639     0.02471
 PZ  C  18  -0.00199    -0.00000     0.00681    -0.01119    -0.00187    -0.01528
  
  S  S  19   0.00606     0.00022    -0.03295     0.16710    -0.00773     0.14964
 PX  S  19  -0.00258    -0.00003     0.01382    -0.05898    -0.00141    -0.06229
 PY  S  19  -0.00141     0.00012     0.00149     0.04301    -0.01235     0.02221
 PZ  S  19  -0.00250    -0.00005     0.01424    -0.06728     0.00034    -0.06797
  
  S  C  20   0.06316     0.00008    -0.16586     0.19562     0.06071     0.24122
 PX  C  20  -0.00466     0.00000     0.00920    -0.00212    -0.00349    -0.00361
 PY  C  20  -0.02632     0.00001     0.04881     0.00480    -0.01978    -0.00165
 PZ  C  20  -0.00612    -0.00000     0.01116    -0.00255     0.00173    -0.00673
  
  S  C  21   0.06268     0.00004    -0.14753     0.13644     0.06851     0.16447
 PX  C  21  -0.00244     0.00000     0.00340     0.00114    -0.00203     0.00192
 PY  C  21  -0.01524     0.00001     0.02076     0.00685    -0.01366     0.01209
 PZ  C  21  -0.02695    -0.00002     0.06080    -0.04680    -0.02131    -0.05997
  
  S  C  22   0.10709     0.00003    -0.16209     0.08999     0.09145     0.08177
 PX  C  22  -0.00130     0.00000    -0.00396     0.00629     0.00098     0.00971
 PY  C  22  -0.01214     0.00001    -0.02313     0.03540    -0.00222     0.06140
 PZ  C  22  -0.05051    -0.00001     0.06976    -0.02019    -0.02132    -0.02093
  
  S  C  23   0.28344     0.00003    -0.27832     0.02256     0.08457    -0.01284
 PX  C  23  -0.01242     0.00000     0.00024     0.00997    -0.00008     0.01668
 PY  C  23  -0.06737     0.00001    -0.01515     0.05694    -0.00953     0.10506
 PZ  C  23  -0.08939    -0.00000     0.06323     0.04327     0.03214     0.03760
  
  S  C  24   0.22599     0.00003    -0.26749     0.02328    -0.00022     0.06138
 PX  C  24  -0.01592     0.00000     0.00867     0.01019     0.00417     0.01206
 PY  C  24  -0.09216     0.00001     0.04642     0.06129     0.02283     0.07451
 PZ  C  24   0.01668     0.00001    -0.04765     0.04658     0.05253     0.03425
  
  S  C  25   0.08634     0.00005    -0.17393     0.12334     0.03568     0.16994
 PX  C  25  -0.00659    -0.00000     0.00896     0.00066    -0.00034    -0.00047
 PY  C  25  -0.03902     0.00000     0.05129     0.01175    -0.00184     0.00603
 PZ  C  25   0.01560     0.00002    -0.04717     0.05484     0.02818     0.06326
  
  S  C  26   0.24798     0.00001    -0.16176    -0.10466    -0.18006     0.00286
 PX  C  26  -0.01057     0.00000    -0.00033     0.00670     0.00964     0.00244
 PY  C  26  -0.06368     0.00000    -0.00251     0.04069     0.05865     0.01477
 PZ  C  26   0.07442     0.00001    -0.08820     0.00890     0.06883    -0.03893
  
  S  C  27   0.10685    -0.00000    -0.03609    -0.08492    -0.20300     0.04455
 PX  C  27  -0.00705     0.00000    -0.00065     0.00628     0.01473    -0.00282
 PY  C  27  -0.03857     0.00000    -0.00516     0.03543     0.08290    -0.01554
 PZ  C  27   0.03858     0.00000    -0.02951    -0.01666    -0.02826     0.00044
  
  S  C  28   0.08959    -0.00001     0.01450    -0.08281    -0.21854     0.05839
 PX  C  28  -0.00296     0.00000    -0.00361     0.00166     0.00641    -0.00284
 PY  C  28  -0.00943     0.00000    -0.01823     0.00339     0.01935    -0.01089
 PZ  C  28   0.04466    -0.00000     0.00083    -0.03602    -0.08813     0.01965
  
  S  C  29   0.12700    -0.00001     0.09509    -0.07345    -0.24504     0.09426
 PX  C  29   0.00017     0.00000    -0.00916    -0.00464    -0.00458    -0.00323
 PY  C  29   0.01349     0.00000    -0.03673    -0.03210    -0.05251    -0.00455
 PZ  C  29   0.05271    -0.00001     0.03746    -0.01968    -0.06611     0.02516
  
  S  C  30   0.24768    -0.00003     0.17837    -0.06460    -0.22963     0.09117
 PX  C  30   0.00285     0.00000    -0.01930    -0.00887    -0.00679    -0.00773
 PY  C  30   0.01920     0.00001    -0.09282    -0.04938    -0.05225    -0.03031
 PZ  C  30   0.05647    -0.00000     0.00825     0.01103     0.05982    -0.03615
  
  S  C  31   0.36913    -0.00001    -0.07964    -0.11723    -0.15262    -0.04849
 PX  C  31   0.00655     0.00000    -0.02289    -0.00503    -0.00063    -0.00606
 PY  C  31   0.01548     0.00001    -0.12506    -0.02535    -0.01274    -0.02088
 PZ  C  31   0.08629     0.00000    -0.07563     0.01266     0.12404    -0.08478
  
  S  N  32   0.44269    -0.00000    -0.17459    -0.06357     0.10805    -0.18817
 PX  N  32   0.02290     0.00000    -0.02275    -0.00421     0.00696    -0.01134
 PY  N  32   0.02000     0.00001    -0.11315    -0.02140    -0.03168     0.00360
 PZ  N  32  -0.06531     0.00000     0.02021     0.03362     0.05738     0.00172
  
  S  C  33   0.25881    -0.00002     0.09173     0.05947     0.25969    -0.14480
 PX  C  33  -0.00498     0.00000    -0.01120     0.00022     0.00579    -0.00422
 PY  C  33   0.04809     0.00001    -0.10217    -0.04827    -0.05107    -0.02571
 PZ  C  33  -0.07075     0.00000    -0.01122     0.02708     0.05427    -0.00456
  
  S  C  34   0.11161    -0.00001     0.06894     0.08136     0.25985    -0.10782
 PX  C  34  -0.00815     0.00000    -0.00712    -0.00488    -0.01554     0.00667
 PY  C  34   0.00056     0.00000    -0.05336    -0.03242    -0.06987     0.01451
 PZ  C  34  -0.04950     0.00000    -0.01861    -0.01380    -0.06066     0.03394
  
  S  C  35   0.06099    -0.00001     0.09459     0.08829     0.24021    -0.08063
 PX  C  35  -0.00465     0.00000    -0.00838    -0.00639    -0.01648     0.00510
 PY  C  35   0.00724     0.00000    -0.00393     0.00154     0.01137    -0.00758
 PZ  C  35  -0.02959     0.00000    -0.04610    -0.03671    -0.09769     0.03194
  
  S  C  36   0.06074    -0.00001     0.11829     0.09215     0.22953    -0.06565
 PX  C  36  -0.00154     0.00000    -0.00373    -0.00132    -0.00138    -0.00073
 PY  C  36   0.02479    -0.00000     0.03994     0.03332     0.08977    -0.02996
 PZ  C  36  -0.01814     0.00000    -0.03655    -0.01946    -0.03909     0.00572
  
  S  C  37   0.10450    -0.00002     0.20069     0.10539     0.21118    -0.03066
 PX  C  37   0.00073    -0.00000     0.00015     0.00423     0.01540    -0.00728
 PY  C  37   0.04175    -0.00001     0.06111     0.03234     0.07600    -0.01999
 PZ  C  37  -0.01383     0.00000    -0.02775     0.01123     0.06294    -0.03839
  
  S  C  38   0.21946    -0.00003     0.27084     0.09540     0.18517    -0.02723
 PX  C  38  -0.00177     0.00000    -0.01200     0.00204     0.01945    -0.01399
 PY  C  38   0.04880     0.00000    -0.03357    -0.02245    -0.00083    -0.03506
 PZ  C  38  -0.02307     0.00000    -0.03707     0.02736     0.12173    -0.06529
  
  S  C  39   0.23026    -0.00004     0.34201     0.04169    -0.07614     0.12115
 PX  C  39   0.01178    -0.00000     0.00339    -0.00046     0.00476    -0.00553
 PY  C  39   0.03734    -0.00000    -0.02129    -0.02505    -0.02494    -0.01859
 PZ  C  39   0.02097    -0.00000     0.00199     0.01640     0.07045    -0.03771
  
  S  C  40   0.12116    -0.00002     0.25094     0.04100    -0.06720     0.11781
 PX  C  40  -0.01198     0.00000    -0.02464    -0.00338     0.00742    -0.01114
 PY  C  40   0.03817    -0.00001     0.05973     0.00271    -0.02844     0.02732
 PZ  C  40   0.02458    -0.00000     0.04499     0.01389     0.01363     0.00828
  
  S  C  41   0.07184    -0.00001     0.14620     0.02406    -0.03909     0.06898
 PX  C  41  -0.03140     0.00001    -0.06162    -0.00968     0.01584    -0.02761
 PY  C  41   0.01097    -0.00000     0.01005    -0.00219    -0.00910     0.00400
 PZ  C  41   0.00708    -0.00000     0.01083     0.00518     0.01067    -0.00178
  
  S  C  42   0.12468    -0.00002     0.22909     0.03215    -0.06573     0.10256
 PX  C  42   0.04713    -0.00001     0.07438     0.01084    -0.01161     0.02469
 PY  C  42   0.01695    -0.00000     0.00845    -0.00533    -0.01245     0.00184
 PZ  C  42   0.00163     0.00000    -0.00961     0.00538     0.03248    -0.02059
  
  S  C  43   0.06289    -0.00001     0.13111     0.01046    -0.07420     0.07940
 PX  C  43   0.02213    -0.00000     0.04113     0.00243    -0.02239     0.02247
 PY  C  43   0.00423    -0.00000     0.00047    -0.00345    -0.00746     0.00089
 PZ  C  43   0.01881    -0.00000     0.03723     0.00545    -0.01148     0.01785
  
  S  C  44   0.00000     0.51315     0.00020    -0.02003     0.01435     0.02370
 PX  C  44  -0.00000     0.01694     0.00001    -0.00216     0.00155     0.00248
 PY  C  44  -0.00000     0.13550     0.00009    -0.02743     0.02193     0.04225
 PZ  C  44  -0.00000     0.02376     0.00002    -0.00470     0.00377     0.00729
  
  S  O  45   0.00000     0.41061     0.00018    -0.02215     0.01629     0.02794
 PX  O  45  -0.00000    -0.17530    -0.00008     0.01025    -0.00763    -0.01333
 PY  O  45  -0.00000    -0.00670     0.00000    -0.00425     0.00354     0.00717
 PZ  O  45   0.00000     0.00758     0.00000    -0.00124     0.00099     0.00190
  
  S  O  46   0.00000     0.57208     0.00027    -0.05027     0.03907     0.07277
 PX  O  46   0.00000     0.15827     0.00008    -0.01463     0.01138     0.02119
 PY  O  46  -0.00000    -0.06174    -0.00002     0.00106    -0.00059    -0.00053
 PZ  O  46  -0.00000    -0.01964    -0.00001     0.00099    -0.00073    -0.00125
  
  S  H  47   0.00000     0.05138    -0.00005     0.02794    -0.02236    -0.04295
  
  S  H  48   0.00000     0.01623    -0.00016     0.05388    -0.04156    -0.07587
  
  S  H  49   0.00001     0.00510    -0.00032     0.05681    -0.04058    -0.06623
  
  S  H  50   0.00004     0.00115    -0.00106     0.06137    -0.03243    -0.02530
  
  S  H  51   0.00016     0.00045    -0.00225     0.06225    -0.02585    -0.00209
  
  S  H  52   0.00098     0.00011    -0.00786     0.06224    -0.00740     0.04910
  
  S  H  53   0.00430     0.00005    -0.01840     0.06407     0.00183     0.06835
  
  S  H  54   0.01480     0.00002    -0.03920     0.04702     0.02033     0.05543
  
  S  H  55   0.03848     0.00001    -0.04269     0.02655     0.04336     0.00912
  
  S  H  56   0.02417     0.00002    -0.05020     0.04277     0.00407     0.06096
  
  S  H  57   0.02686     0.00000    -0.01530    -0.02044    -0.05346     0.01514
  
  S  H  58   0.02047    -0.00000     0.00526    -0.02175    -0.06002     0.01752
  
  S  H  59   0.04160    -0.00001     0.05402    -0.01586    -0.07942     0.04283
  
  S  H  60   0.04466    -0.00000    -0.00021     0.02429     0.08310    -0.03526
  
  S  H  61   0.01421    -0.00000     0.02241     0.02385     0.06563    -0.02226
  
  S  H  62   0.01418    -0.00000     0.03119     0.02514     0.06154    -0.01682
  
  S  H  63   0.03990    -0.00001     0.08707     0.03566     0.04995     0.00876
  
  S  H  64   0.04749    -0.00001     0.10712     0.02357    -0.01286     0.04599
  
  S  H  65   0.04738    -0.00001     0.10091     0.01200    -0.04365     0.05521
  
  S  H  66   0.02032    -0.00000     0.04638     0.00830    -0.01325     0.02391
  
  S  H  67   0.03755    -0.00001     0.06431     0.00543    -0.02916     0.03257
  
  S  H  68   0.03678    -0.00001     0.06987     0.01505    -0.00426     0.02554
  
  S  H  69   0.04723    -0.00001     0.09733     0.01935    -0.01436     0.04072
  
  S  H  70   0.05744    -0.00001     0.08874     0.01219    -0.01920     0.03343
  
  S  H  71   0.01828    -0.00000     0.04133     0.00410    -0.02295     0.02608
  
  S  H  72   0.03285    -0.00001     0.05841    -0.00016    -0.04431     0.03746
  
  S  H  73   0.02913    -0.00001     0.06310     0.00509    -0.03652     0.03906
  
  S  H  74   0.00000     0.24084     0.00012    -0.02268     0.01770     0.03313




    ROOT NO.    7           8           9          10          11          12

           -42.37918   -41.37089   -40.93379   -39.68799   -39.14981   -37.03291
  
  
  S  N   1  -0.05415     0.04039     0.01661    -0.03882     0.39786    -0.02333
 PX  N   1  -0.02808     0.02048     0.00832    -0.01838     0.18695    -0.00958
 PY  N   1   0.00613    -0.00341    -0.00121     0.00882    -0.00184    -0.00031
 PZ  N   1  -0.00005    -0.00003    -0.00003     0.00157     0.00038     0.00001
  
  S  C   2  -0.09055     0.06375     0.02545    -0.07651     0.47733    -0.01777
 PX  C   2  -0.01281     0.00683     0.00225    -0.02247    -0.05369     0.01125
 PY  C   2   0.02095    -0.01178    -0.00425     0.03629    -0.00505    -0.00096
 PZ  C   2   0.00145    -0.00097    -0.00039     0.00674     0.00042    -0.00003
  
  S  C   3  -0.10753     0.07523     0.03001    -0.22745     0.31825    -0.00141
 PX  C   3   0.00353    -0.00087     0.00009    -0.09870    -0.10609     0.00302
 PY  C   3   0.04913    -0.02880    -0.01058     0.06912    -0.05280    -0.00257
 PZ  C   3   0.00694    -0.00431    -0.00164     0.01582    -0.00672    -0.00029
  
  S  C   4  -0.15310     0.09360     0.03512    -0.25176     0.21138     0.00705
 PX  C   4   0.04275    -0.02514    -0.00917     0.02639    -0.08982    -0.00109
 PY  C   4   0.02390    -0.00546    -0.00017    -0.08767     0.03074    -0.00380
 PZ  C   4  -0.00052     0.00144     0.00076    -0.01490     0.00993    -0.00037
  
  S  C   5  -0.23280     0.10522     0.03279    -0.01826     0.03383     0.01324
 PX  C   5   0.03726    -0.01369    -0.00348    -0.03135     0.01417    -0.00127
 PY  C   5   0.02531     0.00505     0.00533    -0.11258     0.14009    -0.00111
 PZ  C   5  -0.01238     0.00881     0.00340    -0.01562     0.02727     0.00090
  
  S  C   6  -0.21710     0.08713     0.02458     0.07365    -0.05553     0.01084
 PX  C   6  -0.05411     0.02278     0.00671     0.00647    -0.01056     0.00356
 PY  C   6   0.01570     0.00549     0.00445    -0.06992     0.10847    -0.00050
 PZ  C   6   0.05132    -0.01737    -0.00415    -0.03057     0.03957    -0.00244
  
  S  C   7  -0.15633     0.03328     0.00349     0.14422    -0.18227     0.00182
 PX  C   7  -0.05029     0.01137     0.00143     0.04274    -0.05650     0.00080
 PY  C   7  -0.06249     0.03375     0.01077     0.02000    -0.01468     0.00637
 PZ  C   7   0.01192     0.00559     0.00344    -0.02346     0.03474     0.00221
  
  S  C   8  -0.08010    -0.03188    -0.01994     0.13747    -0.18983    -0.01157
 PX  C   8   0.01692    -0.00692    -0.00176    -0.01608     0.02003    -0.00106
 PY  C   8  -0.10159     0.06181     0.01999     0.03954    -0.04436     0.01094
 PZ  C   8  -0.05439     0.02948     0.00904     0.02924    -0.03496     0.00495
  
  S  S   9  -0.11841     0.02882     0.00478     0.06942    -0.09822     0.00209
 PX  S   9   0.06338    -0.01634    -0.00276    -0.04890     0.06190    -0.00143
 PY  S   9  -0.02565     0.02576     0.01007    -0.02800     0.03634     0.00575
 PZ  S   9  -0.05765     0.02202     0.00587     0.02551    -0.03362     0.00335
  
  S  C  10   0.20140    -0.20065    -0.07230     0.01072    -0.03172    -0.02925
 PX  C  10   0.02568    -0.02363    -0.00851    -0.00736     0.00834    -0.00472
 PY  C  10  -0.11205     0.06834     0.02066     0.05101    -0.06725     0.00255
 PZ  C  10  -0.05126     0.02906     0.00844     0.02551    -0.03403     0.00035
  
  S  C  11   0.25498    -0.21680    -0.07478    -0.04062     0.04084    -0.02602
 PX  C  11  -0.09889     0.08044     0.02721     0.01590    -0.01628     0.00759
 PY  C  11  -0.04075     0.01846     0.00436     0.02269    -0.03190    -0.00331
 PZ  C  11  -0.03609     0.02210     0.00655     0.01367    -0.01823    -0.00038
  
  S  C  12   0.28531    -0.18184    -0.05511    -0.06663     0.08195    -0.00218
 PX  C  12  -0.08535     0.04071     0.00999     0.01865    -0.02347    -0.00563
 PY  C  12   0.06995    -0.07410    -0.02737    -0.01469     0.01533    -0.01278
 PZ  C  12   0.01974    -0.02936    -0.01170    -0.00401     0.00351    -0.00721
  
  S  C  13   0.29572    -0.09908    -0.01579    -0.06112     0.07859     0.02860
 PX  C  13   0.05387    -0.07400    -0.02857    -0.01739     0.02037    -0.01228
 PY  C  13   0.04454    -0.08978    -0.03673    -0.01316     0.01297    -0.01917
 PZ  C  13   0.02896    -0.05876    -0.02408    -0.00931     0.00962    -0.01280
  
  S  S  14   0.19102    -0.12573    -0.03864    -0.02591     0.02676    -0.00258
 PX  S  14   0.11863    -0.09464    -0.03176    -0.01994     0.02105    -0.00814
 PY  S  14  -0.05021     0.00545    -0.00271     0.02013    -0.02839    -0.01013
 PZ  S  14  -0.00622    -0.01412    -0.00722     0.00739    -0.01162    -0.00690
  
  S  C  15   0.16862     0.20995     0.10862    -0.00412     0.01311     0.06615
 PX  C  15   0.01448    -0.07501    -0.03115    -0.01356     0.01633    -0.00736
 PY  C  15   0.03290    -0.08557    -0.03268    -0.01821     0.02248     0.00309
 PZ  C  15   0.00913    -0.07334    -0.03097    -0.01217     0.01442    -0.00877
  
  S  C  16   0.10070     0.27083     0.12738     0.01868    -0.01689     0.05911
 PX  C  16   0.02681     0.03043     0.01642    -0.00140     0.00318     0.01180
 PY  C  16  -0.00627    -0.10400    -0.04360    -0.01378     0.01603    -0.00484
 PZ  C  16   0.02962     0.04067     0.02119    -0.00050     0.00226     0.01297
  
  S  C  17   0.02887     0.26770     0.10762     0.03023    -0.03408     0.00720
 PX  C  17   0.01666     0.07657     0.03363     0.00738    -0.00779     0.00759
 PY  C  17   0.03488     0.03149     0.02465     0.00015     0.00122     0.03322
 PZ  C  17   0.01705     0.08149     0.03612     0.00801    -0.00852     0.00487
  
  S  C  18  -0.03726     0.20578     0.06163     0.02760    -0.03276    -0.06425
 PX  C  18   0.01319     0.00509     0.00629    -0.00092     0.00162     0.00919
 PY  C  18   0.07362     0.13560     0.07529     0.01056    -0.01012     0.05743
 PZ  C  18   0.00987    -0.00541     0.00250    -0.00192     0.00271    -0.00035
  
  S  S  19   0.05059     0.17288     0.07446     0.01194    -0.01097     0.00290
 PX  S  19  -0.00388    -0.07560    -0.03032    -0.00914     0.01040     0.00483
 PY  S  19   0.05235     0.05361     0.03192    -0.00184     0.00470     0.03458
 PZ  S  19  -0.01104    -0.08583    -0.03556    -0.00927     0.01023    -0.00029
  
  S  C  20  -0.21017    -0.09560    -0.10002     0.00132    -0.00514    -0.12901
 PX  C  20   0.01135     0.01648     0.00845     0.00148    -0.00164    -0.00011
 PY  C  20   0.06366     0.11548     0.05533     0.01168    -0.01341    -0.00355
 PZ  C  20   0.00754     0.00496     0.00858     0.00034    -0.00027    -0.03909
  
  S  C  21  -0.19301    -0.15782    -0.10479    -0.00852     0.00751    -0.15567
 PX  C  21   0.00264     0.00765     0.00216     0.00091    -0.00112    -0.00028
 PY  C  21   0.01693     0.04752     0.01435     0.00561    -0.00692     0.00087
 PZ  C  21   0.07178     0.06079     0.03896     0.00335    -0.00301     0.01720
  
  S  C  22  -0.14582    -0.16769    -0.06360    -0.01199     0.01301    -0.12653
 PX  C  22  -0.01082    -0.00853    -0.00891    -0.00062     0.00058    -0.00495
 PY  C  22  -0.06518    -0.05140    -0.05081    -0.00363     0.00342    -0.01863
 PZ  C  22   0.04140     0.05428     0.00688     0.00360    -0.00406    -0.01721
  
  S  C  23  -0.06012    -0.12924     0.05341    -0.00788     0.00978     0.05984
 PX  C  23  -0.01799    -0.01302    -0.02096    -0.00131     0.00133    -0.00104
 PY  C  23  -0.11301    -0.08736    -0.12100    -0.00846     0.00874     0.01802
 PZ  C  23  -0.04396    -0.02899    -0.04341    -0.00222     0.00182    -0.14800
  
  S  C  24  -0.10061    -0.11621    -0.07802    -0.01069     0.01231     0.23388
 PX  C  24  -0.01243    -0.00768    -0.01118    -0.00048     0.00034    -0.01479
 PY  C  24  -0.07576    -0.04691    -0.06509    -0.00276     0.00194    -0.08300
 PZ  C  24  -0.06364    -0.08128     0.01101    -0.00383     0.00402    -0.05779
  
  S  C  25  -0.17921    -0.12388    -0.12007    -0.00631     0.00495     0.03436
 PX  C  25   0.00430     0.00782     0.00412     0.00089    -0.00109    -0.01161
 PY  C  25   0.02474     0.05594     0.02844     0.00683    -0.00836    -0.07158
 PZ  C  25  -0.07013    -0.05371    -0.02585    -0.00172     0.00096    -0.06141
  
  S  C  26   0.04414     0.09605    -0.18092    -0.00287     0.00355     0.21149
 PX  C  26  -0.00629    -0.00807     0.00100    -0.00043     0.00049     0.00958
 PY  C  26  -0.03853    -0.05258     0.01603    -0.00244     0.00284     0.04521
 PZ  C  26   0.00083    -0.05871     0.12921     0.00005     0.00088     0.10311
  
  S  C  27   0.02840     0.13235    -0.28444    -0.00278     0.00234     0.03765
 PX  C  27  -0.00275    -0.00941     0.01650     0.00003     0.00003     0.00709
 PY  C  27  -0.01619    -0.05493     0.09565     0.00013     0.00026     0.03840
 PZ  C  27   0.00617     0.01243    -0.02529    -0.00060     0.00081     0.06306
  
  S  C  28   0.02446     0.13547    -0.28608    -0.00202     0.00111    -0.08600
 PX  C  28   0.00050    -0.00114     0.00319     0.00001     0.00003     0.01190
 PY  C  28   0.00377     0.00083     0.00238    -0.00006     0.00018     0.03677
 PZ  C  28   0.01314     0.05358    -0.10252    -0.00048     0.00016    -0.01441
  
  S  C  29  -0.00363     0.08664    -0.21379    -0.00171     0.00081    -0.13758
 PX  C  29   0.00546     0.01221    -0.01890    -0.00001    -0.00004     0.02061
 PY  C  29   0.02588     0.06629    -0.10798    -0.00008    -0.00031    -0.02355
 PZ  C  29  -0.00079     0.01490    -0.02728     0.00026    -0.00055    -0.03126
  
  S  C  30  -0.00459     0.04089    -0.05641     0.00203    -0.00325    -0.16975
 PX  C  30   0.01081     0.02016    -0.02630     0.00012    -0.00020     0.04414
 PY  C  30   0.05053     0.09195    -0.11141     0.00103    -0.00152    -0.03107
 PZ  C  30   0.01669    -0.01903     0.11321     0.00317    -0.00336    -0.00963
  
  S  C  31   0.09615     0.10419     0.00943     0.00566    -0.00621    -0.01017
 PX  C  31   0.00446     0.00503    -0.00947    -0.00037     0.00053     0.03966
 PY  C  31   0.01321     0.01395    -0.04981    -0.00276     0.00383     0.17259
 PZ  C  31   0.03455    -0.04248     0.20230     0.00392    -0.00347     0.03252
  
  S  N  32   0.14035     0.03962     0.28665     0.01087    -0.01101    -0.10119
 PX  N  32   0.00667     0.00043     0.01035     0.00008     0.00007     0.01510
 PY  N  32  -0.01070    -0.02675    -0.01069    -0.00378     0.00515     0.17032
 PZ  N  32  -0.01826    -0.01247    -0.02794    -0.00152     0.00149    -0.07493
  
  S  C  33   0.08318     0.08767     0.00870     0.00589    -0.00719    -0.20767
 PX  C  33   0.00190     0.00416    -0.01152    -0.00033     0.00041     0.01140
 PY  C  33   0.03082    -0.01687     0.14431     0.00391    -0.00395    -0.07894
 PZ  C  33  -0.01056     0.02212    -0.12445    -0.00377     0.00414     0.02524
  
  S  C  34   0.04451     0.09566    -0.17129    -0.00102     0.00059    -0.11409
 PX  C  34  -0.00324    -0.00573     0.00657    -0.00013     0.00019     0.00812
 PY  C  34  -0.00212    -0.03794     0.10886     0.00176    -0.00171    -0.04494
 PZ  C  34  -0.01959    -0.02028    -0.00412    -0.00148     0.00181     0.04489
  
  S  C  35   0.02613     0.10315    -0.25348    -0.00376     0.00369     0.01322
 PX  C  35  -0.00147    -0.00651     0.01609     0.00022    -0.00021    -0.00310
 PY  C  35   0.00418     0.00251     0.00528     0.00039    -0.00050    -0.04510
 PZ  C  35  -0.01013    -0.03826     0.08980     0.00112    -0.00102    -0.00954
  
  S  C  36   0.01433     0.09024    -0.25122    -0.00447     0.00462     0.10814
 PX  C  36   0.00105     0.00125    -0.00050     0.00005    -0.00006    -0.00331
 PY  C  36   0.01007     0.03763    -0.08773    -0.00108     0.00096    -0.00335
 PZ  C  36   0.00303    -0.00564     0.02874     0.00073    -0.00077    -0.03975
  
  S  C  37  -0.01600     0.03719    -0.17707    -0.00448     0.00480     0.17879
 PX  C  37   0.00382     0.00999    -0.01999    -0.00020     0.00019     0.01448
 PY  C  37   0.00394     0.02057    -0.04767    -0.00035     0.00014    -0.00615
 PZ  C  37   0.02389     0.05269    -0.09316    -0.00061     0.00046    -0.02430
  
  S  C  38  -0.00875     0.00835    -0.02822     0.00047    -0.00102     0.02288
 PX  C  38   0.00927     0.01620    -0.02245     0.00003    -0.00007     0.02796
 PY  C  38   0.03707     0.02386     0.06410     0.00423    -0.00501    -0.15258
 PZ  C  38   0.03510     0.07454    -0.13226    -0.00091     0.00071    -0.01598
  
  S  C  39  -0.09024    -0.12294     0.13658    -0.00065     0.00078    -0.00278
 PX  C  39   0.00557     0.00932    -0.00780     0.00029    -0.00035     0.11198
 PY  C  39   0.03041     0.03730     0.00598     0.00297    -0.00377    -0.14360
 PZ  C  39   0.01930     0.01749     0.00832     0.00143    -0.00171     0.00215
  
  S  C  40  -0.09801    -0.12725     0.08522    -0.00408     0.00525     0.30289
 PX  C  40   0.00861     0.01164    -0.01183     0.00007    -0.00004     0.08945
 PY  C  40  -0.01716    -0.02095     0.02110    -0.00009     0.00004    -0.01033
 PZ  C  40  -0.01137    -0.01594     0.01416    -0.00031     0.00040     0.04212
  
  S  C  41  -0.05775    -0.07415     0.04459    -0.00275     0.00361     0.32537
 PX  C  41   0.02260     0.02920    -0.02062     0.00085    -0.00109    -0.07301
 PY  C  41  -0.00027     0.00124     0.00046     0.00023    -0.00034    -0.01893
 PZ  C  41  -0.00083    -0.00132     0.00166     0.00002    -0.00002     0.00928
  
  S  C  42  -0.08221    -0.11452     0.10684    -0.00209     0.00266    -0.16843
 PX  C  42  -0.01921    -0.02570     0.02816    -0.00010     0.00009     0.02719
 PY  C  42   0.00330     0.00375     0.00759     0.00074    -0.00096    -0.05113
 PZ  C  42   0.01235     0.01492    -0.00595     0.00071    -0.00088     0.04386
  
  S  C  43  -0.05890    -0.07842     0.05946    -0.00219     0.00276    -0.19210
 PX  C  43  -0.01534    -0.01852     0.01302    -0.00044     0.00052    -0.01598
 PY  C  43   0.00217     0.00526    -0.00560     0.00019    -0.00030    -0.01715
 PZ  C  43  -0.01473    -0.02188     0.02240    -0.00035     0.00047    -0.03770
  
  S  C  44   0.01461    -0.00141     0.00095    -0.13423    -0.05530    -0.00161
 PX  C  44   0.00010     0.00421     0.00312    -0.33147    -0.25504    -0.00318
 PY  C  44   0.05056    -0.03581    -0.01471     0.20266    -0.08031     0.00195
 PZ  C  44   0.00890    -0.00656    -0.00277     0.05270    -0.00233     0.00057
  
  S  O  45   0.01992    -0.00223     0.00195    -0.47536    -0.36957    -0.00552
 PX  O  45  -0.01075     0.00340     0.00046     0.12633     0.11017     0.00128
 PY  O  45   0.00999    -0.00828    -0.00368     0.08940     0.01129     0.00076
 PZ  O  45   0.00228    -0.00163    -0.00067     0.00968    -0.00353     0.00009
  
  S  O  46   0.07967    -0.05437    -0.02269     0.51681     0.09633     0.00621
 PX  O  46   0.02294    -0.01496    -0.00599     0.08102    -0.02788     0.00123
 PY  O  46   0.00152    -0.00235    -0.00111    -0.00579    -0.04506     0.00088
 PZ  O  46  -0.00096     0.00037     0.00012    -0.00564    -0.00722     0.00012
  
  S  H  47  -0.04885     0.03080     0.01179    -0.11526     0.04780     0.00253
  
  S  H  48  -0.07074     0.03273     0.01030     0.00391     0.02848     0.00269
  
  S  H  49  -0.03664     0.00296    -0.00139     0.04366    -0.05604    -0.00086
  
  S  H  50   0.06684    -0.06206    -0.02208    -0.00706     0.00501    -0.00952
  
  S  H  51   0.08272    -0.04435    -0.01211    -0.02025     0.02583     0.00239
  
  S  H  52   0.03630     0.07302     0.03587     0.00336    -0.00216     0.02189
  
  S  H  53  -0.00169     0.07132     0.02488     0.00921    -0.01086    -0.00297
  
  S  H  54  -0.05584    -0.03595    -0.02857    -0.00117     0.00054    -0.06664
  
  S  H  55  -0.03246    -0.04106    -0.01552    -0.00320     0.00355    -0.06986
  
  S  H  56  -0.05011    -0.01692    -0.03953     0.00011    -0.00100     0.02057
  
  S  H  57   0.00384     0.03478    -0.08769    -0.00120     0.00112     0.02591
  
  S  H  58   0.00553     0.03847    -0.08609    -0.00073     0.00047    -0.03110
  
  S  H  59  -0.01457     0.00709    -0.04956    -0.00103     0.00089    -0.04428
  
  S  H  60   0.01120     0.01891    -0.03876    -0.00059     0.00056    -0.06778
  
  S  H  61   0.00720     0.02989    -0.07615    -0.00125     0.00127     0.00280
  
  S  H  62   0.00299     0.02514    -0.07483    -0.00150     0.00162     0.04483
  
  S  H  63  -0.01998    -0.01103    -0.03503    -0.00203     0.00237     0.10623
  
  S  H  64  -0.04262    -0.05525     0.03180    -0.00210     0.00271     0.14968
  
  S  H  65  -0.04267    -0.05370     0.03230    -0.00187     0.00238     0.10048
  
  S  H  66  -0.02070    -0.02707     0.01501    -0.00114     0.00152     0.13772
  
  S  H  67  -0.02326    -0.02708     0.01348    -0.00103     0.00131     0.12553
  
  S  H  68  -0.02371    -0.02954     0.01538    -0.00117     0.00153     0.14869
  
  S  H  69  -0.03656    -0.05023     0.04007    -0.00131     0.00167    -0.03987
  
  S  H  70  -0.02661    -0.03887     0.04385    -0.00032     0.00042    -0.09316
  
  S  H  71  -0.02029    -0.02814     0.02187    -0.00083     0.00108    -0.07958
  
  S  H  72  -0.02396    -0.02761     0.01511    -0.00089     0.00105    -0.09820
  
  S  H  73  -0.02899    -0.03764     0.02565    -0.00118     0.00149    -0.06979
  
  S  H  74   0.03677    -0.02516    -0.01041     0.19929     0.00087     0.00282




    ROOT NO.   13          14          15          16          17          18

           -36.63566   -36.32602   -35.43817   -34.29875   -33.24393   -32.71857
  
  
  S  N   1  -0.05129     0.54296     0.06455     0.06048    -0.05505     0.01259
 PX  N   1  -0.02032     0.20844     0.02224     0.01726    -0.01267     0.00261
 PY  N   1  -0.00062     0.00483    -0.00085    -0.00454     0.00868    -0.00244
 PZ  N   1  -0.00002     0.00057     0.00025     0.00048    -0.00049     0.00008
  
  S  C   2  -0.03316     0.29844     0.01538    -0.01313     0.03378    -0.00948
 PX  C   2   0.02953    -0.35536    -0.05862    -0.07717     0.08729    -0.02122
 PY  C   2  -0.00208     0.01839    -0.00141    -0.01160     0.02376    -0.00688
 PZ  C   2  -0.00015     0.00239     0.00053     0.00055     0.00006    -0.00016
  
  S  C   3   0.00975    -0.21901    -0.07089    -0.12757     0.16106    -0.03965
 PX  C   3   0.00696    -0.07750    -0.01099    -0.01241     0.01072    -0.00193
 PY  C   3  -0.00731     0.08561     0.00853    -0.00714     0.03370    -0.01153
 PZ  C   3  -0.00101     0.01353     0.00218     0.00133     0.00159    -0.00089
  
  S  C   4   0.02478    -0.33303    -0.05812    -0.05704     0.02527    -0.00012
 PX  C   4  -0.00450     0.06241     0.01054     0.00858    -0.00236    -0.00012
 PY  C   4  -0.00418    -0.00204    -0.02351    -0.06513     0.10204    -0.02731
 PZ  C   4  -0.00018    -0.00429    -0.00320    -0.00726     0.01077    -0.00295
  
  S  C   5   0.02400    -0.18380     0.01817     0.09257    -0.15293     0.04045
 PX  C   5   0.00029    -0.03467    -0.01786    -0.03438     0.03528    -0.00640
 PY  C   5   0.00510    -0.11972    -0.03604    -0.04824     0.03132    -0.00325
 PZ  C   5   0.00225    -0.02235     0.00066     0.01106    -0.02128     0.00553
  
  S  C   6   0.01271    -0.01250     0.05549     0.13620    -0.16880     0.03719
 PX  C   6   0.00622    -0.04648     0.00432     0.02094    -0.03451     0.00939
 PY  C   6   0.00347    -0.07304    -0.01794    -0.01304    -0.01363     0.00767
 PZ  C   6  -0.00242    -0.00251    -0.01095    -0.02036     0.01836    -0.00330
  
  S  C   7  -0.00499     0.12381     0.03231     0.02271     0.02598    -0.01415
 PX  C   7  -0.00063     0.02422     0.00610     0.00081     0.01004    -0.00331
 PY  C   7   0.00812    -0.01671     0.03278     0.08584    -0.11055     0.02498
 PZ  C   7   0.00413    -0.02705     0.00936     0.03658    -0.05655     0.01377
  
  S  C   8  -0.02194     0.15353    -0.03891    -0.15307     0.22555    -0.05368
 PX  C   8  -0.00014    -0.02011    -0.01032    -0.01322    -0.00248     0.00410
 PY  C   8   0.01278    -0.01202     0.05354     0.11811    -0.12389     0.02417
 PZ  C   8   0.00495     0.01022     0.02775     0.05512    -0.04944     0.00780
  
  S  S   9   0.00146     0.00484     0.00246    -0.00607     0.00996    -0.00063
 PX  S   9  -0.00002    -0.02511    -0.00969    -0.00904    -0.00026     0.00119
 PY  S   9   0.01018    -0.06894     0.01603     0.06074    -0.08822     0.02115
 PZ  S   9   0.00414    -0.01042     0.01311     0.03094    -0.03721     0.00845
  
  S  C  10  -0.03653     0.08398    -0.11880    -0.24881     0.23421    -0.04197
 PX  C  10  -0.00512    -0.00254    -0.02324    -0.03699     0.00792     0.00437
 PY  C  10  -0.00112     0.05420     0.00443    -0.04692     0.11085    -0.02999
 PZ  C  10  -0.00169     0.02925    -0.00138    -0.02932     0.05758    -0.01485
  
  S  C  11  -0.02794     0.00565    -0.10231    -0.14626     0.03698     0.01061
 PX  C  11   0.00785    -0.00104     0.02605     0.03444    -0.01506     0.00087
 PY  C  11  -0.00638     0.03729    -0.02213    -0.08110     0.11542    -0.02572
 PZ  C  11  -0.00183     0.01809    -0.00634    -0.03318     0.05283    -0.01227
  
  S  C  12   0.00326    -0.06416     0.01484     0.10829    -0.18054     0.04191
 PX  C  12  -0.00811     0.02160    -0.03268    -0.07078     0.04725    -0.00341
 PY  C  12  -0.01387     0.00263    -0.05183    -0.07280     0.01531     0.00643
 PZ  C  12  -0.00816     0.00488    -0.03071    -0.04676     0.01414     0.00269
  
  S  C  13   0.03753    -0.07933     0.13786     0.26352    -0.16406     0.01334
 PX  C  13  -0.01201    -0.01113    -0.03908    -0.01835    -0.06244     0.02152
 PY  C  13  -0.02060     0.00599    -0.07046    -0.08538     0.00443     0.01041
 PZ  C  13  -0.01355     0.00143    -0.04505    -0.04749    -0.01330     0.00982
  
  S  S  14  -0.00165    -0.00228     0.00102     0.00428     0.02451    -0.01074
 PX  S  14  -0.00813    -0.00183    -0.02635    -0.02978     0.00582     0.00134
 PY  S  14  -0.01364     0.03572    -0.04743    -0.09966     0.07982    -0.01178
 PZ  S  14  -0.00874     0.01870    -0.02931    -0.05564     0.03983    -0.00553
  
  S  C  15   0.07088    -0.03954     0.21525     0.22671     0.02023    -0.03178
 PX  C  15  -0.00518    -0.01643     0.00058     0.05457    -0.07711     0.01131
 PY  C  15   0.00702    -0.02442     0.04017     0.10206    -0.05952     0.00408
 PZ  C  15  -0.00683    -0.01384    -0.00337     0.04522    -0.06761     0.00881
  
  S  C  16   0.05803     0.00154     0.13295     0.04437     0.14020    -0.02958
 PX  C  16   0.01318    -0.00924     0.04653     0.05615    -0.00079    -0.00898
 PY  C  16  -0.00120    -0.01730     0.02603     0.07979    -0.04277    -0.00286
 PZ  C  16   0.01428    -0.00883     0.05044     0.05544     0.00563    -0.01130
  
  S  C  17  -0.00141     0.03569    -0.08380    -0.16100     0.04153     0.02500
 PX  C  17   0.00625     0.00525     0.00794    -0.01602     0.02411    -0.00456
 PY  C  17   0.03543    -0.00717     0.10725     0.05338     0.10209    -0.02916
 PZ  C  17   0.00367     0.00544     0.00896    -0.01999     0.02848    -0.00900
  
  S  C  18  -0.07194     0.03518    -0.20904    -0.18483    -0.10237     0.03002
 PX  C  18   0.01011    -0.00447     0.03809     0.02689     0.02314    -0.01253
 PY  C  18   0.05476     0.00638     0.09687    -0.01102     0.12221    -0.01165
 PZ  C  18   0.00222    -0.00780     0.05292     0.03408     0.03900    -0.02834
  
  S  S  19   0.00200    -0.00064     0.02692     0.01118     0.00161    -0.01741
 PX  S  19   0.00648    -0.00886     0.01580     0.03993    -0.01955     0.00603
 PY  S  19   0.03589    -0.01237     0.08649     0.07900     0.02197    -0.00706
 PZ  S  19   0.00168    -0.00833     0.01207     0.03523    -0.01522     0.00282
  
  S  C  20  -0.12366     0.00622    -0.22320    -0.03599    -0.17611     0.00869
 PX  C  20  -0.00137     0.00214    -0.01148    -0.01243    -0.01066     0.00397
 PY  C  20  -0.01267     0.01977    -0.10788    -0.11273    -0.08278     0.04087
 PZ  C  20  -0.03215    -0.01040     0.06705     0.00505     0.07779    -0.05385
  
  S  C  21  -0.12701    -0.03269     0.08974     0.07368     0.11328    -0.08572
 PX  C  21  -0.00227     0.00263    -0.02374    -0.00800    -0.02064     0.00247
 PY  C  21  -0.01141     0.01681    -0.14750    -0.05085    -0.12398     0.01529
 PZ  C  21   0.01503     0.00235     0.02763    -0.02386     0.02854     0.01046
  
  S  C  22  -0.07900    -0.04889     0.32543     0.05345     0.24656    -0.02317
 PX  C  22  -0.00497    -0.00116    -0.00247     0.01059     0.00391    -0.00899
 PY  C  22  -0.02161    -0.00452    -0.02951     0.07079     0.02843    -0.07014
 PZ  C  22  -0.01795     0.00329    -0.03893    -0.01314    -0.01860     0.01099
  
  S  C  23   0.06759    -0.01308     0.22747    -0.04249     0.11416    -0.02474
 PX  C  23  -0.00208    -0.00154     0.00022     0.01765     0.00628    -0.00447
 PY  C  23   0.01782    -0.00520    -0.00138     0.10906     0.05256    -0.06484
 PZ  C  23  -0.10985    -0.03039     0.13096     0.02419     0.09163     0.06041
  
  S  C  24   0.19555     0.02718    -0.05765     0.04725    -0.03604     0.01120
 PX  C  24  -0.01321    -0.00203    -0.00693     0.01029    -0.00754     0.01434
 PY  C  24  -0.06597    -0.00970    -0.04850     0.05885    -0.04541     0.07336
 PZ  C  24  -0.04101    -0.01672     0.08445     0.01989     0.04055    -0.07506
  
  S  C  25   0.02263     0.01747    -0.20595     0.03867    -0.18378     0.09952
 PX  C  25  -0.01090    -0.00011    -0.00791    -0.00799    -0.00896     0.00181
 PY  C  25  -0.06683     0.00274    -0.06524    -0.06691    -0.06165     0.01446
 PZ  C  25  -0.05292    -0.00739    -0.01430     0.00741    -0.01810    -0.04332
  
  S  C  26   0.16040     0.03224    -0.09540     0.01514     0.01309     0.09272
 PX  C  26   0.00314     0.00050    -0.00077     0.00136    -0.00122     0.02552
 PY  C  26   0.04487     0.00555    -0.01003     0.00878    -0.00835     0.12032
 PZ  C  26   0.08637     0.01537    -0.02084    -0.03051    -0.05244    -0.15295
  
  S  C  27   0.01980     0.00382    -0.01739     0.03612     0.10084     0.36181
 PX  C  27   0.00313     0.00091    -0.00380    -0.00023    -0.00415     0.00264
 PY  C  27   0.03514     0.00727    -0.02805    -0.00005    -0.02697     0.00423
 PZ  C  27   0.04954     0.01088    -0.04349     0.00909    -0.01927    -0.02636
  
  S  C  28  -0.07292    -0.01831     0.08944    -0.01022     0.08596     0.21624
 PX  C  28  -0.00164     0.00082    -0.00659     0.00460     0.00634     0.02367
 PY  C  28   0.02521     0.00678    -0.03879     0.02720     0.03954     0.13743
 PZ  C  28  -0.01595    -0.00259     0.00106     0.01193     0.01674     0.00987
  
  S  C  29  -0.09713    -0.02641     0.14201    -0.06795    -0.04675    -0.14329
 PX  C  29  -0.03378    -0.00251     0.00021     0.00569     0.01107     0.01965
 PY  C  29  -0.02071    -0.00286    -0.00883     0.03209     0.06059     0.08870
 PZ  C  29  -0.02948    -0.00405    -0.00885     0.01570    -0.02669    -0.12395
  
  S  C  30  -0.13802    -0.02159    -0.00924     0.05205    -0.06986    -0.32705
 PX  C  30  -0.06875    -0.00511     0.00633    -0.00363    -0.00291    -0.00338
 PY  C  30  -0.01661    -0.00075    -0.02422     0.02082     0.01958    -0.02334
 PZ  C  30  -0.02470     0.00566    -0.11887     0.09303     0.02668     0.00616
  
  S  C  31  -0.03238     0.00800    -0.12343     0.04918    -0.03690    -0.22600
 PX  C  31   0.00531     0.00206     0.00714    -0.01457    -0.00011     0.01759
 PY  C  31   0.14778     0.02163     0.02482    -0.07049     0.01444     0.06826
 PZ  C  31   0.02080     0.00878    -0.03397    -0.02988    -0.02681     0.02855
  
  S  N  32  -0.09070    -0.00786     0.01883    -0.08729    -0.04899     0.07368
 PX  N  32   0.00399     0.00012     0.01958    -0.02160    -0.00326     0.00798
 PY  N  32   0.14696     0.01668     0.07893    -0.08332     0.02303    -0.09456
 PZ  N  32  -0.04200    -0.01767     0.13179    -0.05749     0.02300     0.17774
  
  S  C  33  -0.15248    -0.02206    -0.00476     0.01164    -0.03394     0.24374
 PX  C  33  -0.00423    -0.00162     0.02948    -0.03143    -0.01831     0.00358
 PY  C  33  -0.06056    -0.01205     0.07617    -0.08208    -0.04040     0.06343
 PZ  C  33   0.06627    -0.00133     0.12976    -0.11907    -0.05025     0.04004
  
  S  C  34  -0.01167    -0.01687     0.17752    -0.17257    -0.13854     0.12594
 PX  C  34   0.00144     0.00019     0.00470    -0.00492    -0.00252    -0.01371
 PY  C  34  -0.05556    -0.00985     0.03422     0.00515     0.04568     0.10134
 PZ  C  34   0.04158     0.00479     0.01600    -0.02317    -0.01925    -0.10336
  
  S  C  35   0.09776     0.00474     0.09972    -0.15464    -0.16739    -0.18253
 PX  C  35  -0.00701    -0.00102     0.00374    -0.00233    -0.00155     0.00740
 PY  C  35  -0.02680    -0.00764     0.04694    -0.03459    -0.02675     0.10421
 PZ  C  35  -0.02247    -0.00261     0.00242     0.00331     0.00577     0.00755
  
  S  C  36   0.12673     0.01790    -0.00956    -0.03392    -0.02675    -0.26160
 PX  C  36  -0.00403    -0.00102     0.00996    -0.01402    -0.01785    -0.00769
 PY  C  36   0.02343     0.00119     0.01604    -0.02948    -0.04337    -0.01950
 PZ  C  36  -0.00710    -0.00437     0.04184    -0.05790    -0.07568    -0.03495
  
  S  C  37   0.08171     0.02091    -0.10990     0.12712     0.17259    -0.04163
 PX  C  37  -0.01334    -0.00116     0.01013    -0.01585    -0.01862    -0.02063
 PY  C  37  -0.00402     0.00101    -0.03709     0.04614     0.02479     0.04619
 PZ  C  37   0.04368     0.00227     0.02683    -0.05488    -0.06954    -0.12463
  
  S  C  38  -0.06048     0.00496    -0.19090     0.23422     0.17389     0.11282
 PX  C  38  -0.04885    -0.00460     0.02157    -0.02852    -0.03117    -0.00690
 PY  C  38  -0.08276    -0.01265    -0.01357    -0.00092    -0.07931     0.01109
 PZ  C  38   0.03789     0.00199     0.02366    -0.04014    -0.02931     0.01745
  
  S  C  39  -0.00425     0.00153    -0.06768     0.10704     0.06359    -0.03754
 PX  C  39  -0.18035    -0.01383     0.01510    -0.00671    -0.02422    -0.03219
 PY  C  39  -0.05256    -0.00850    -0.04361     0.04680    -0.04684    -0.13604
 PZ  C  39  -0.02361     0.00467    -0.11770     0.13511     0.11204     0.08721
  
  S  C  40  -0.14362    -0.00954     0.13543    -0.14620    -0.06185     0.07592
 PX  C  40  -0.11781    -0.00933     0.03655    -0.04970    -0.04985     0.01045
 PY  C  40  -0.02592    -0.00387     0.00478     0.00704    -0.01498    -0.05290
 PZ  C  40  -0.01070     0.00283    -0.04329     0.05896     0.06351     0.03275
  
  S  C  41  -0.25207    -0.01900     0.14912    -0.18131    -0.12541     0.07420
 PX  C  41   0.04773     0.00327    -0.02493     0.02184     0.00753    -0.00626
 PY  C  41  -0.01146    -0.00187    -0.00504     0.01129    -0.00399    -0.03043
 PZ  C  41  -0.00227     0.00132    -0.02196     0.02791     0.02663     0.01158
  
  S  C  42   0.37577     0.02967    -0.00474    -0.02066     0.02986     0.10186
 PX  C  42  -0.04750    -0.00244    -0.03365     0.06098     0.04345    -0.02649
 PY  C  42  -0.00464    -0.00204    -0.01174     0.01407    -0.01647    -0.04558
 PZ  C  42  -0.08344    -0.00298    -0.06506     0.09211     0.07294     0.01408
  
  S  C  43   0.39127     0.02544     0.09991    -0.17312    -0.10564     0.07371
 PX  C  43   0.02691     0.00085     0.01373    -0.01073    -0.00764    -0.01823
 PY  C  43  -0.01014    -0.00184    -0.00075     0.00510    -0.00616    -0.02619
 PZ  C  43   0.08227     0.00668    -0.00405    -0.00167     0.00832     0.02243
  
  S  C  44  -0.00203     0.00289    -0.01010    -0.03168     0.05492    -0.01551
 PX  C  44  -0.01131     0.15741     0.03332     0.05269    -0.06649     0.01673
 PY  C  44  -0.00127     0.06651     0.03037     0.06382    -0.08951     0.02310
 PZ  C  44   0.00046     0.00301     0.00380     0.00917    -0.01348     0.00352
  
  S  O  45  -0.01772     0.23338     0.04346     0.05901    -0.06401     0.01480
 PX  O  45   0.00435    -0.05804    -0.01067    -0.01343     0.01289    -0.00273
 PY  O  45   0.00055     0.00573     0.00606     0.01505    -0.02281     0.00605
 PZ  O  45  -0.00009     0.00362     0.00160     0.00341    -0.00486     0.00126
  
  S  O  46   0.01156    -0.10026    -0.00177     0.01586    -0.03238     0.00930
 PX  O  46   0.00113     0.00296     0.00657     0.01582    -0.02300     0.00599
 PY  O  46   0.00033     0.01329     0.00990     0.02612    -0.04413     0.01252
 PZ  O  46   0.00004     0.00195     0.00146     0.00402    -0.00701     0.00202
  
  S  H  47   0.00890    -0.12088    -0.02213    -0.02412     0.01388    -0.00100
  
  S  H  48   0.00325    -0.00056     0.01830     0.04989    -0.06868     0.01602
  
  S  H  49  -0.00377     0.05071     0.00567    -0.00708     0.03002    -0.01027
  
  S  H  50  -0.01094     0.00983    -0.04109    -0.07015     0.03373     0.00042
  
  S  H  51   0.00465    -0.02510     0.01785     0.05917    -0.07844     0.01660
  
  S  H  52   0.02244    -0.00339     0.05730     0.03519     0.04844    -0.01164
  
  S  H  53  -0.00658     0.01435    -0.05773    -0.06953    -0.00940     0.02153
  
  S  H  54  -0.05651    -0.01089     0.02487     0.01208     0.04223    -0.03354
  
  S  H  55  -0.04170    -0.02215     0.16177    -0.01158     0.09717     0.02630
  
  S  H  56   0.01251     0.01308    -0.11665    -0.00827    -0.10044     0.07782
  
  S  H  57   0.01786     0.00361    -0.01633     0.01605     0.03698     0.18540
  
  S  H  58  -0.02513    -0.00699     0.03985    -0.00935     0.03594     0.11102
  
  S  H  59  -0.02233    -0.00992     0.08261    -0.06133    -0.04419    -0.05978
  
  S  H  60  -0.02129    -0.01370     0.12815    -0.09102    -0.03875     0.07753
  
  S  H  61   0.03600     0.00110     0.04830    -0.07206    -0.07720    -0.08778
  
  S  H  62   0.04864     0.00709    -0.00242    -0.01616    -0.01025    -0.12627
  
  S  H  63   0.03031     0.00935    -0.04034     0.05218     0.09438     0.00445
  
  S  H  64  -0.03493     0.00031     0.04340    -0.04799     0.00829     0.07078
  
  S  H  65  -0.03507    -0.00437     0.08840    -0.10156    -0.06138     0.01513
  
  S  H  66  -0.10082    -0.00767     0.07044    -0.09061    -0.06232     0.04243
  
  S  H  67  -0.12088    -0.01049     0.07116    -0.08356    -0.06911     0.00724
  
  S  H  68  -0.11263    -0.00738     0.04914    -0.06047    -0.03767     0.04183
  
  S  H  69   0.16695     0.01502    -0.00759    -0.00220     0.03847     0.08002
  
  S  H  70   0.15604     0.01262    -0.02295     0.01389     0.02197     0.04330
  
  S  H  71   0.17093     0.01171     0.04030    -0.07691    -0.04518     0.04785
  
  S  H  72   0.16013     0.00886     0.05148    -0.08030    -0.05736     0.00798
  
  S  H  73   0.16145     0.00995     0.05800    -0.09142    -0.05636     0.03027
  
  S  H  74   0.00416    -0.02329     0.00677     0.02356    -0.04014     0.01124




    ROOT NO.   19          20          21          22          23          24

           -32.24673   -31.28158   -30.77178   -30.17797   -29.58316   -29.08863
  
  
  S  N   1  -0.03776     0.08101    -0.00784    -0.09137    -0.03500     0.00192
 PX  N   1  -0.00728     0.01460    -0.00146    -0.01662    -0.00646    -0.00276
 PY  N   1   0.00801    -0.01500     0.00085     0.00420    -0.00264    -0.01579
 PZ  N   1  -0.00004    -0.00133     0.00024     0.00383     0.00193     0.00067
  
  S  C   2   0.03085    -0.06246     0.00490     0.04984     0.01403    -0.02384
 PX  C   2   0.06498    -0.13253     0.01166     0.12693     0.04331    -0.02109
 PY  C   2   0.02324    -0.04832     0.00335     0.02646    -0.00000    -0.03966
 PZ  C   2   0.00104    -0.00538     0.00069     0.00992     0.00433    -0.00047
  
  S  C   3   0.11982    -0.21930     0.01670     0.15309     0.03701    -0.05414
 PX  C   3   0.00325     0.01064    -0.00223    -0.04132    -0.02192     0.00186
 PY  C   3   0.04415    -0.11884     0.01052     0.11410     0.02901    -0.07892
 PZ  C   3   0.00434    -0.01661     0.00185     0.02434     0.00929    -0.00669
  
  S  C   4  -0.01799     0.11843    -0.01420    -0.19285    -0.07454     0.05190
 PX  C   4   0.00125     0.00381    -0.00171    -0.03566    -0.02408    -0.02793
 PY  C   4   0.08830    -0.18269     0.01496     0.14501     0.03845    -0.03595
 PZ  C   4   0.01013    -0.02738     0.00302     0.03859     0.01681     0.00799
  
  S  C   5  -0.12779     0.24516    -0.01921    -0.17277    -0.04373     0.01671
 PX  C   5   0.00968     0.04532    -0.00909    -0.14659    -0.07347    -0.03830
 PY  C   5  -0.00355     0.06311    -0.00700    -0.09250    -0.02594     0.08395
 PZ  C   5  -0.01547     0.00669     0.00261     0.05835     0.03991     0.06281
  
  S  C   6  -0.09125     0.02278     0.01121     0.24030     0.13935     0.11698
 PX  C   6  -0.03137     0.07451    -0.00767    -0.08425    -0.03328    -0.03758
 PY  C   6  -0.03594     0.11529    -0.01108    -0.11047    -0.02621     0.02941
 PZ  C   6   0.00664    -0.00395     0.00080     0.01587     0.01430     0.03851
  
  S  C   7   0.06655    -0.21770     0.02340     0.23311     0.07413     0.08044
 PX  C   7   0.01033    -0.00580    -0.00208    -0.03995    -0.02770    -0.06223
 PY  C   7  -0.06423     0.03823     0.00307     0.10890     0.06360    -0.01003
 PZ  C   7  -0.03768     0.02571     0.00232     0.07907     0.05107     0.03319
  
  S  C   8   0.14504    -0.12720    -0.00241    -0.14362    -0.09746    -0.07838
 PX  C   8  -0.02481     0.09316    -0.01161    -0.08747    -0.02323    -0.10219
 PY  C   8  -0.05118    -0.00502     0.00472     0.08120     0.02267    -0.07906
 PZ  C   8  -0.00838    -0.05564     0.00854     0.10477     0.03556     0.01021
  
  S  S   9  -0.00989     0.10487    -0.01840    -0.23624    -0.11586    -0.19545
 PX  S   9  -0.00524     0.00446     0.00153     0.02831     0.02136     0.05942
 PY  S   9  -0.05842     0.07205    -0.00225    -0.01660    -0.00036     0.04876
 PZ  S   9  -0.02331     0.03540    -0.00309    -0.03130    -0.01521    -0.03284
  
  S  C  10   0.07855     0.04614    -0.01039    -0.15021    -0.03853     0.09379
 PX  C  10  -0.03427     0.10159    -0.01260     0.00930     0.03617    -0.15526
 PY  C  10   0.08787    -0.08279    -0.00268    -0.11209    -0.07353    -0.06122
 PZ  C  10   0.04139    -0.03942    -0.00169    -0.03536    -0.02454    -0.03826
  
  S  C  11  -0.08595     0.22073    -0.02094     0.09029     0.11283    -0.18551
 PX  C  11   0.00115    -0.00917    -0.00226     0.01877     0.00754    -0.10520
 PY  C  11   0.06370    -0.00498    -0.00462    -0.12874    -0.04648     0.03491
 PZ  C  11   0.03107    -0.00766    -0.00243    -0.05368    -0.02006     0.00314
  
  S  C  12  -0.11367     0.03133    -0.00279     0.18975     0.05773    -0.20852
 PX  C  12  -0.01531     0.08240    -0.00903     0.03657     0.05169    -0.09861
 PY  C  12  -0.04143     0.10701    -0.00299     0.04746     0.06513     0.03566
 PZ  C  12  -0.02400     0.06235    -0.00414     0.03085     0.03666    -0.00500
  
  S  C  13   0.03724    -0.20911     0.02143    -0.05775    -0.09902     0.07472
 PX  C  13  -0.07944     0.05717    -0.00792     0.12410     0.03984    -0.12123
 PY  C  13  -0.04674     0.09162     0.00565     0.05719     0.05968     0.13957
 PZ  C  13  -0.04472     0.04728    -0.00362     0.05445     0.02320     0.02319
  
  S  S  14   0.05713    -0.09035     0.02001    -0.09510    -0.05371     0.33708
 PX  S  14  -0.00662     0.00916     0.00311    -0.00302     0.00016     0.10478
 PY  S  14   0.00840     0.03455    -0.00899    -0.00020     0.00727    -0.02849
 PZ  S  14   0.00185     0.01228    -0.00473     0.00612     0.00155     0.00104
  
  S  C  15   0.13206    -0.16070    -0.00355    -0.15606    -0.08459    -0.07363
 PX  C  15  -0.02207    -0.09032    -0.00552    -0.00096    -0.07096    -0.06873
 PY  C  15   0.05195    -0.09141     0.03418    -0.06254    -0.02097     0.13320
 PZ  C  15  -0.02179    -0.09206    -0.00902    -0.01449    -0.07726    -0.04217
  
  S  C  16   0.13390     0.12675     0.04488    -0.03168     0.15621     0.14662
 PX  C  16   0.02569    -0.06478    -0.01174    -0.05634    -0.04952    -0.05090
 PY  C  16   0.03227    -0.10016     0.00518    -0.07787    -0.04278     0.04499
 PZ  C  16   0.02507    -0.06531    -0.01556    -0.06126    -0.05148    -0.04723
  
  S  C  17  -0.02241     0.20610     0.06168     0.15253     0.12715     0.13807
 PX  C  17  -0.00547     0.01516    -0.01235     0.00288    -0.00610    -0.04729
 PY  C  17   0.07457     0.07499    -0.00009    -0.02204     0.10286     0.02799
 PZ  C  17  -0.02270     0.00857    -0.02574     0.00194    -0.01132    -0.05460
  
  S  C  18  -0.19604    -0.05554    -0.04577     0.06589    -0.11405    -0.04412
 PX  C  18   0.00177    -0.02520    -0.03132    -0.02965    -0.02448    -0.07809
 PY  C  18   0.05990     0.15525     0.01212     0.06484     0.08829    -0.03909
 PZ  C  18  -0.03968    -0.05261    -0.07551    -0.04586    -0.02692    -0.09059
  
  S  S  19  -0.08128    -0.11132    -0.09791    -0.03819    -0.13410    -0.25551
 PX  S  19   0.04362    -0.00435     0.03346    -0.00577     0.01413     0.03655
 PY  S  19   0.07761    -0.01001     0.02196    -0.02692    -0.00617    -0.06082
 PZ  S  19   0.03262    -0.00903     0.02264    -0.01245     0.01666     0.05320
  
  S  C  20  -0.09231    -0.17426     0.00389    -0.07294    -0.08068     0.03653
 PX  C  20  -0.01937    -0.01777    -0.01181    -0.00199    -0.02431    -0.01624
 PY  C  20  -0.11054    -0.04838    -0.01900     0.04705    -0.10153     0.00992
 PZ  C  20  -0.17070    -0.07214    -0.16025    -0.02995     0.00091    -0.03992
  
  S  C  21  -0.20388    -0.11088    -0.22655    -0.07916     0.08226     0.00950
 PX  C  21  -0.00872    -0.02081    -0.00261    -0.00927    -0.01720    -0.00811
 PY  C  21  -0.04923    -0.10965    -0.00088    -0.04275    -0.08638    -0.01675
 PZ  C  21  -0.04210     0.00873    -0.06412     0.02299     0.00131     0.00194
  
  S  C  22  -0.10513     0.09453    -0.09875     0.06884     0.07525     0.04217
 PX  C  22  -0.00143    -0.00585    -0.01475    -0.01023     0.01328    -0.00330
 PY  C  22  -0.02218    -0.03648    -0.07849    -0.06320     0.08999    -0.01068
 PZ  C  22  -0.03753    -0.03852    -0.10737    -0.01310     0.01237     0.01505
  
  S  C  23  -0.06137     0.08759     0.14273     0.09213    -0.08883    -0.01261
 PX  C  23   0.02537     0.01153    -0.00859    -0.00366     0.01916    -0.00978
 PY  C  23   0.11894     0.07181    -0.03850    -0.01054     0.10062    -0.04883
 PZ  C  23  -0.01393     0.03860    -0.02336     0.02452     0.04567     0.05273
  
  S  C  24   0.23952     0.10491     0.04945     0.02132     0.00237    -0.09890
 PX  C  24   0.03103     0.00447     0.01278    -0.00745     0.01086     0.00285
 PY  C  24   0.17758     0.03158     0.08018    -0.03588     0.06288     0.02684
 PZ  C  24  -0.01564     0.02661     0.12925     0.00462    -0.00402    -0.00006
  
  S  C  25   0.30652     0.03582     0.18263    -0.03022     0.00740     0.02552
 PX  C  25  -0.01808    -0.01538    -0.00220    -0.00324    -0.01095     0.00453
 PY  C  25  -0.11608    -0.07194     0.00380     0.00644    -0.05318     0.06738
 PZ  C  25  -0.04893    -0.04430     0.03515    -0.02571    -0.00948     0.01544
  
  S  C  26   0.01977    -0.00712    -0.27044     0.00843     0.04102    -0.02620
 PX  C  26   0.02059     0.00597     0.00390     0.00072    -0.00209    -0.00026
 PY  C  26   0.11314     0.03807     0.02285     0.01040    -0.01883    -0.00219
 PZ  C  26   0.00888     0.01781     0.06480     0.01600    -0.04794    -0.07820
  
  S  C  27  -0.02476    -0.04165    -0.14855    -0.01570     0.01574     0.12785
 PX  C  27   0.00936     0.00224    -0.00379     0.00025    -0.00024     0.00173
 PY  C  27   0.05829     0.01556    -0.04015     0.00295     0.00631     0.00478
 PZ  C  27   0.04432     0.01471    -0.14966     0.00671     0.05183    -0.03719
  
  S  C  28  -0.09874    -0.03833     0.24682    -0.00938    -0.10249     0.04238
 PX  C  28  -0.00072    -0.00378    -0.02363    -0.00158     0.00332     0.01644
 PY  C  28  -0.00951    -0.02420    -0.14237    -0.01208     0.03053     0.09352
 PZ  C  28  -0.01026    -0.00242    -0.06986    -0.00049     0.03675     0.00438
  
  S  C  29   0.01075     0.04356     0.32144     0.03165    -0.10460    -0.11713
 PX  C  29  -0.01001    -0.00449     0.00511    -0.00135    -0.00370     0.00572
 PY  C  29  -0.06291    -0.02736     0.02801    -0.01547     0.00691     0.02173
 PZ  C  29   0.04760     0.03199    -0.10432     0.01505     0.04780    -0.00589
  
  S  C  30   0.13088     0.09052    -0.02680     0.03779     0.02440    -0.02238
 PX  C  30  -0.00826    -0.00880     0.00383    -0.01281     0.02515    -0.01017
 PY  C  30  -0.06361    -0.03922    -0.01613    -0.04684     0.10309    -0.01945
 PZ  C  30   0.02337    -0.01024    -0.14707    -0.02632     0.07222     0.07917
  
  S  C  31  -0.04576    -0.03826    -0.15680    -0.04405     0.11312     0.01626
 PX  C  31  -0.01376    -0.00725    -0.00494     0.00052    -0.00664    -0.01022
 PY  C  31  -0.09367    -0.03086    -0.04468     0.02527    -0.07186    -0.04241
 PZ  C  31  -0.04932    -0.05092     0.08602    -0.03300    -0.03343     0.04094
  
  S  N  32  -0.10835    -0.09148     0.15402    -0.04996    -0.02781     0.09191
 PX  N  32  -0.01432    -0.00262     0.01505     0.00716    -0.01954    -0.00484
 PY  N  32  -0.12776     0.01344     0.03225     0.08401    -0.15279    -0.02379
 PZ  N  32   0.02939     0.03188     0.08670     0.04285    -0.06385    -0.00514
  
  S  C  33   0.14136    -0.00784     0.02733    -0.06138     0.10198    -0.09912
 PX  C  33   0.00362    -0.00064    -0.00514     0.00540    -0.01177    -0.00594
 PY  C  33  -0.02773    -0.03104     0.05504    -0.00036    -0.05171     0.11320
 PZ  C  33   0.03117     0.02715    -0.05200     0.06281    -0.10089    -0.05572
  
  S  C  34   0.18329     0.05359    -0.19382     0.08583    -0.14158    -0.05352
 PX  C  34  -0.00341     0.00179    -0.01214     0.00717    -0.01289     0.01444
 PY  C  34  -0.02390     0.00368     0.04761     0.01330    -0.01186     0.00680
 PZ  C  34  -0.01121     0.01533    -0.08953     0.04590    -0.08222     0.08416
  
  S  C  35   0.08313     0.01631    -0.18395     0.05005    -0.11995     0.13891
 PX  C  35   0.00586     0.00271    -0.01167     0.00595    -0.01108     0.00456
 PY  C  35   0.09177     0.03538    -0.10513     0.04939    -0.07113    -0.08273
 PZ  C  35  -0.00023     0.00541    -0.02934     0.02079    -0.04524     0.05761
  
  S  C  36  -0.14428    -0.05364     0.12508    -0.05396     0.06391     0.16024
 PX  C  36   0.01635     0.00225    -0.02297     0.00310    -0.00795     0.01204
 PY  C  36   0.05191     0.01217    -0.06408     0.00919    -0.01353    -0.03134
 PZ  C  36   0.07281     0.01421    -0.10952     0.02531    -0.06110     0.08498
  
  S  C  37  -0.22647    -0.03738     0.21917    -0.02601     0.04926    -0.03474
 PX  C  37   0.00240    -0.00725     0.00781    -0.01610     0.02959    -0.00207
 PY  C  37   0.04200     0.01979    -0.02856     0.00287     0.01715    -0.09031
 PZ  C  37  -0.00723    -0.02480     0.04420    -0.04919     0.08152     0.04032
  
  S  C  38  -0.00133     0.03292     0.02992     0.00019     0.04325    -0.10978
 PX  C  38   0.01134    -0.01356     0.01610    -0.03075     0.05627    -0.02708
 PY  C  38   0.13444     0.00386    -0.06303    -0.04839     0.09264     0.00736
 PZ  C  38  -0.01213    -0.03399     0.07847    -0.06517     0.11586    -0.10428
  
  S  C  39   0.07313     0.09765    -0.09688     0.13153    -0.21281     0.06693
 PX  C  39   0.02610     0.00266     0.01270    -0.01650     0.03855    -0.02029
 PY  C  39   0.09656     0.02865    -0.02185    -0.03205     0.10789    -0.00270
 PZ  C  39  -0.03678    -0.00339    -0.01543    -0.00934     0.03216    -0.00318
  
  S  C  40  -0.01882    -0.02433    -0.03190     0.02462    -0.09879     0.03593
 PX  C  40   0.00807    -0.04198    -0.00783    -0.08208     0.16323    -0.02094
 PY  C  40   0.05005     0.03752    -0.01063     0.03350    -0.04498    -0.00101
 PZ  C  40  -0.02824     0.01216    -0.01636     0.02936    -0.04510     0.01384
  
  S  C  41   0.00178    -0.09311    -0.04550    -0.14114     0.26109    -0.01652
 PX  C  41  -0.00169    -0.00737     0.00442    -0.02605     0.06323    -0.01121
 PY  C  41   0.02237     0.01688     0.00159     0.01063    -0.00883    -0.00585
 PZ  C  41  -0.01128     0.00356    -0.00338     0.00657    -0.00616     0.00094
  
  S  C  42  -0.04463    -0.01987    -0.06865     0.01352    -0.03737     0.04956
 PX  C  42   0.02617     0.05822    -0.02532     0.08939    -0.16010     0.03282
 PY  C  42   0.03928     0.01525    -0.01156    -0.00506     0.02896    -0.00141
 PZ  C  42  -0.00517     0.03175    -0.02302     0.04946    -0.08063     0.02386
  
  S  C  43  -0.04738    -0.10965     0.03935    -0.15455     0.26450    -0.06043
 PX  C  43   0.01284     0.01821     0.00063     0.03214    -0.06580     0.01025
 PY  C  43   0.01496     0.00943     0.01012     0.00104     0.00623    -0.00850
 PZ  C  43  -0.00832    -0.00188    -0.03352     0.01020    -0.01995     0.02569
  
  S  C  44   0.05266    -0.12097     0.01028     0.10676     0.02774    -0.05956
 PX  C  44  -0.05193     0.10178    -0.00793    -0.07522    -0.01674     0.04526
 PY  C  44  -0.07259     0.14183    -0.01089    -0.09928    -0.02064     0.05105
 PZ  C  44  -0.01111     0.02149    -0.00160    -0.01386    -0.00231     0.00859
  
[...]
    Config     559   0.05695860  0.00324428
    Config     566   0.04873644  0.00237524
    Config     580   0.04527296  0.00204964
    Config     589  -0.04443001  0.00197403
    Config     590   0.05701531  0.00325075
    Config     598   0.06335564  0.00401394
    Config     600  -0.04663862  0.00217516
    Config     606   0.10298548  0.01060601
    Config     607   0.04828439  0.00233138
    Config     610   0.07896752  0.00623587
    Config     613  -0.05387956  0.00290301
    Config     616   0.04630467  0.00214412
    Config     634  -0.05679207  0.00322534
    Config     647  -0.04249745  0.00180603
    Config     656  -0.05262632  0.00276953
    Config     668   0.04973015  0.00247309
    Config     674   0.06142677  0.00377325
    Config     675   0.07479737  0.00559465
    Config     681   0.06682294  0.00446531
    Config     689   0.08260829  0.00682413
    Config     690   0.08474777  0.00718218
    Config     695   0.04308533  0.00185635
    Config     701  -0.04313197  0.00186037
    Config     716   0.04039486  0.00163174
    Config     719   0.04856604  0.00235866
    Config     724   0.05111345  0.00261259
    Config     726   0.04939926  0.00244029
    Config     752   0.05976285  0.00357160
    Config     760  -0.04739920  0.00224668
    Config     769   0.06383956  0.00407549
    Config     783   0.05059816  0.00256017
    Config     787  -0.05073350  0.00257389
    Config     820  -0.04591603  0.00210828
    Config     821   0.04670147  0.00218103
    Config     845  -0.08817686  0.00777516
    Config     856   0.04488684  0.00201483
    Config     869  -0.04730706  0.00223796
    Config     874  -0.04118774  0.00169643
    Config     886   0.04091320  0.00167389
    Config     889   0.05281167  0.00278907
    Config     899  -0.07860669  0.00617901
    Config     927   0.05068303  0.00256877
    Config     953   0.04320482  0.00186666
    Config     962   0.04781138  0.00228593
    Config     968  -0.05180050  0.00268329
    Config     980   0.04511896  0.00203572
    Config    1017   0.05467480  0.00298933
    Config    1071   0.04712392  0.00222066
    Config    1094  -0.05748911  0.00330500
    Config    1189   0.05923444  0.00350872
    Config    1234  -0.04129732  0.00170547
 Total coeff printed             0.69017232
  
State  498 10.1298     CI coeff  CI percent
    Config     160  -0.04746269  0.00225271
    Config     170   0.04459291  0.00198853
    Config     171   0.05956406  0.00354788
    Config     172  -0.05652113  0.00319464
    Config     198  -0.04757850  0.00226371
    Config     200   0.06969428  0.00485729
    Config     203   0.15364843  0.02360784
    Config     210  -0.06594327  0.00434851
    Config     211  -0.08079596  0.00652799
    Config     214  -0.05670122  0.00321503
    Config     216  -0.13328332  0.01776444
    Config     219  -0.07308665  0.00534166
    Config     220  -0.11220618  0.01259023
    Config     224   0.08407769  0.00706906
    Config     226   0.15938356  0.02540312
    Config     227  -0.08106128  0.00657093
    Config     228  -0.10191809  0.01038730
    Config     230   0.05332685  0.00284375
    Config     231  -0.04279818  0.00183168
    Config     233  -0.09866049  0.00973389
    Config     235  -0.11045747  0.01220085
    Config     246  -0.13512708  0.01825933
    Config     252  -0.26324303  0.06929689
    Config     259  -0.24567339  0.06035542
    Config     268   0.05359444  0.00287236
    Config     277  -0.04145499  0.00171852
    Config     279  -0.04359843  0.00190082
    Config     299   0.05657229  0.00320042
    Config     301  -0.05752750  0.00330941
    Config     306  -0.06529404  0.00426331
    Config     308   0.21563322  0.04649769
    Config     314   0.05504456  0.00302990
    Config     318   0.18615116  0.03465225
    Config     333  -0.04761241  0.00226694
    Config     342   0.09303430  0.00865538
    Config     344  -0.11750000  0.01380625
    Config     347   0.05871291  0.00344721
    Config     360  -0.06833615  0.00466983
    Config     364   0.07198894  0.00518241
    Config     367   0.04443957  0.00197488
    Config     369  -0.05800753  0.00336487
    Config     372  -0.04987395  0.00248741
    Config     375   0.15689945  0.02461744
    Config     378   0.07027639  0.00493877
    Config     379   0.04863998  0.00236585
    Config     381   0.05021834  0.00252188
    Config     384   0.16448639  0.02705577
    Config     386   0.04102707  0.00168322
    Config     402  -0.05256689  0.00276328
    Config     415  -0.04746533  0.00225296
    Config     426   0.06950646  0.00483115
    Config     429  -0.06066527  0.00368028
    Config     434   0.06343992  0.00402462
    Config     440   0.04755371  0.00226136
    Config     448  -0.05234992  0.00274051
    Config     450  -0.06837934  0.00467573
    Config     455   0.05211199  0.00271566
    Config     460   0.05320968  0.00283127
    Config     467  -0.04522982  0.00204574
    Config     469   0.04289496  0.00183998
    Config     470  -0.06453464  0.00416472
    Config     473  -0.04518670  0.00204184
    Config     474   0.04526099  0.00204856
    Config     478   0.04918051  0.00241872
    Config     486  -0.05784553  0.00334610
    Config     489  -0.07117663  0.00506611
    Config     490   0.04473507  0.00200123
    Config     492   0.04858564  0.00236056
    Config     493  -0.12013823  0.01443319
    Config     495   0.04140649  0.00171450
    Config     498   0.04448204  0.00197865
    Config     505   0.07396481  0.00547079
    Config     514  -0.07760701  0.00602285
    Config     515   0.07250023  0.00525628
    Config     517   0.04300147  0.00184913
    Config     525   0.04435585  0.00196744
    Config     526  -0.05894611  0.00347464
    Config     541  -0.08587784  0.00737500
    Config     544  -0.07230998  0.00522873
    Config     547   0.04835632  0.00233833
    Config     554  -0.05466294  0.00298804
    Config     559  -0.04044608  0.00163589
    Config     572   0.07689997  0.00591361
    Config     578  -0.04983413  0.00248344
    Config     592   0.09001017  0.00810183
    Config     639  -0.09073190  0.00823228
    Config     651   0.07698856  0.00592724
    Config     659  -0.05238634  0.00274433
    Config     673  -0.04725296  0.00223284
    Config     678   0.04258407  0.00181340
    Config     686  -0.07089619  0.00502627
    Config     711   0.08583809  0.00736818
    Config     726   0.04289629  0.00184009
    Config     734   0.07276509  0.00529476
    Config     775   0.04016418  0.00161316
    Config     787   0.05097577  0.00259853
    Config     828  -0.06168785  0.00380539
    Config     858  -0.04981455  0.00248149
    Config     893   0.04838207  0.00234083
    Config     895  -0.04290668  0.00184098
    Config     968  -0.06098701  0.00371942
    Config    1017   0.06379427  0.00406971
    Config    1094  -0.08466416  0.00716802
    Config    1193  -0.06394566  0.00408905
    Config    1195  -0.05871377  0.00344731
    Config    1206  -0.05948494  0.00353846
    Config    1234  -0.05204341  0.00270852
 Total coeff printed             0.74817845
  
State  499 10.1327     CI coeff  CI percent
    Config     176  -0.05115656  0.00261699
    Config     196  -0.04592119  0.00210876
    Config     198  -0.07779525  0.00605210
    Config     202   0.04331405  0.00187611
    Config     203  -0.04783982  0.00228865
    Config     210   0.10275333  0.01055825
    Config     211   0.13792362  0.01902293
    Config     217   0.06605570  0.00436336
    Config     219  -0.21579297  0.04656661
    Config     226  -0.06259924  0.00391866
    Config     228   0.05721623  0.00327370
    Config     232  -0.04640032  0.00215299
    Config     233   0.04236725  0.00179498
    Config     252   0.04737933  0.00224480
    Config     259   0.07201007  0.00518545
    Config     269  -0.05181593  0.00268489
    Config     284  -0.04419133  0.00195287
    Config     290   0.06477528  0.00419584
    Config     292   0.04529708  0.00205183
    Config     301  -0.11285688  0.01273667
    Config     302  -0.05659341  0.00320281
    Config     308  -0.05503632  0.00302900
    Config     325  -0.05066009  0.00256644
    Config     329   0.04336054  0.00188014
    Config     331  -0.04812975  0.00231647
    Config     332  -0.05327667  0.00283840
    Config     358  -0.08082625  0.00653288
    Config     359   0.04889932  0.00239114
    Config     363  -0.04620117  0.00213455
    Config     365   0.04256957  0.00181217
    Config     375  -0.05664941  0.00320916
    Config     376  -0.09168184  0.00840556
    Config     378  -0.05083479  0.00258418
    Config     387  -0.06249079  0.00390510
    Config     396   0.09123452  0.00832374
    Config     418   0.04435265  0.00196716
    Config     419   0.04171820  0.00174041
    Config     420  -0.06266055  0.00392634
    Config     421  -0.17178975  0.02951172
    Config     430  -0.04356792  0.00189816
    Config     437  -0.14954565  0.02236390
    Config     439  -0.07800577  0.00608490
    Config     443  -0.20350494  0.04141426
    Config     444  -0.04295167  0.00184485
    Config     461  -0.05671096  0.00321613
    Config     470  -0.08288322  0.00686963
    Config     478   0.08400654  0.00705710
    Config     479   0.06210559  0.00385710
    Config     483   0.04482888  0.00200963
    Config     487  -0.04798533  0.00230259
    Config     488   0.05578272  0.00311171
    Config     491  -0.05889348  0.00346844
    Config     493   0.11607449  0.01347329
    Config     495   0.08514716  0.00725004
    Config     497   0.04748375  0.00225471
    Config     498   0.05392807  0.00290824
    Config     499   0.04967132  0.00246724
    Config     504   0.09310307  0.00866818
    Config     516  -0.07407214  0.00548668
    Config     517   0.06373326  0.00406193
    Config     533  -0.10301963  0.01061304
    Config     541  -0.04607095  0.00212253
    Config     554  -0.07521906  0.00565791
    Config     559  -0.05835716  0.00340556
    Config     574   0.05052932  0.00255321
    Config     575  -0.04800466  0.00230445
    Config     578  -0.04671644  0.00218243
    Config     579   0.04449930  0.00198019
    Config     600   0.06083686  0.00370112
    Config     612   0.05430004  0.00294849
    Config     616  -0.07985571  0.00637694
    Config     617  -0.06167068  0.00380327
    Config     625   0.04996357  0.00249636
    Config     627  -0.04085993  0.00166953
    Config     634   0.13152502  0.01729883
    Config     641  -0.04348601  0.00189103
    Config     644  -0.04896215  0.00239729
    Config     646   0.05779949  0.00334078
    Config     657  -0.05409559  0.00292633
    Config     661   0.04565029  0.00208395
    Config     664  -0.04046395  0.00163733
    Config     667  -0.06176342  0.00381472
    Config     673   0.07386871  0.00545659
    Config     675  -0.04579777  0.00209744
    Config     680  -0.04402509  0.00193821
    Config     687  -0.09210070  0.00848254
    Config     699  -0.04865370  0.00236718
    Config     704  -0.12021497  0.01445164
    Config     708   0.05931294  0.00351803
    Config     715   0.04252050  0.00180799
    Config     724  -0.08479211  0.00718970
    Config     725  -0.04077475  0.00166258
    Config     726   0.04578687  0.00209644
    Config     727   0.04021380  0.00161715
    Config     729  -0.04084930  0.00166867
    Config     733  -0.05734357  0.00328828
    Config     748  -0.04078439  0.00166337
    Config     749  -0.05439387  0.00295869
    Config     770   0.07822562  0.00611925
    Config     781   0.09674547  0.00935969
    Config     782  -0.04272296  0.00182525
    Config     784   0.05784956  0.00334657
    Config     789   0.04285306  0.00183638
    Config     804  -0.07456462  0.00555988
    Config     810  -0.05196158  0.00270001
    Config     841  -0.06639790  0.00440868
    Config     842  -0.06789810  0.00461015
    Config     849  -0.05756674  0.00331393
    Config     884  -0.06462168  0.00417596
    Config     907  -0.04069854  0.00165637
    Config     917   0.09089315  0.00826156
    Config     922   0.07230547  0.00522808
    Config     934  -0.04389774  0.00192701
    Config     957  -0.09490951  0.00900781
    Config     961  -0.05084558  0.00258527
    Config     973   0.05459944  0.00298110
    Config     977  -0.04916762  0.00241746
    Config     995  -0.06296120  0.00396411
    Config     996  -0.08153383  0.00664777
    Config    1006  -0.05153167  0.00265551
    Config    1032   0.08144593  0.00663344
    Config    1034   0.09102219  0.00828504
    Config    1044   0.04718214  0.00222615
    Config    1055  -0.04946971  0.00244725
    Config    1074  -0.05463414  0.00298489
    Config    1080   0.05460938  0.00298218
    Config    1088  -0.05229066  0.00273431
    Config    1103  -0.04610559  0.00212573
    Config    1134   0.07614460  0.00579800
    Config    1150   0.04852149  0.00235433
    Config    1180   0.05168826  0.00267168
    Config    1187   0.05073416  0.00257396
    Config    1193  -0.07341252  0.00538940
    Config    1195  -0.05198162  0.00270209
    Config    1201   0.07731508  0.00597762
    Config    1206  -0.10158355  0.01031922
    Config    1214  -0.04332745  0.00187727
    Config    1223  -0.04338086  0.00188190
    Config    1321  -0.06236674  0.00388961
    Config    1425  -0.04790668  0.00229505
    Config    1532   0.04510400  0.00203437
    Config    1615  -0.04699496  0.00220853
 Total coeff printed             0.70844213
  
State  500 10.1334     CI coeff  CI percent
    Config     159  -0.04137292  0.00171172
    Config     160  -0.04727230  0.00223467
    Config     199   0.07881237  0.00621139
    Config     208   0.06539534  0.00427655
    Config     210  -0.09856941  0.00971593
    Config     214  -0.04823797  0.00232690
    Config     217  -0.04881427  0.00238283
    Config     226  -0.07732572  0.00597927
    Config     227  -0.07609981  0.00579118
    Config     228   0.07095265  0.00503428
    Config     232  -0.04522545  0.00204534
    Config     234  -0.10723687  0.01149975
    Config     256  -0.07384396  0.00545293
    Config     257   0.04861713  0.00236363
    Config     259   0.06232398  0.00388428
    Config     264   0.06487168  0.00420833
    Config     275  -0.04030784  0.00162472
    Config     276   0.04484407  0.00201099
    Config     281  -0.11461862  0.01313743
    Config     284   0.04177257  0.00174495
    Config     287   0.12670942  0.01605528
    Config     288  -0.09956026  0.00991225
    Config     306  -0.09273653  0.00860006
    Config     307   0.08212871  0.00674512
    Config     310   0.15089840  0.02277033
    Config     315   0.04974946  0.00247501
    Config     316  -0.04318513  0.00186496
    Config     318  -0.04684157  0.00219413
    Config     323  -0.18572545  0.03449394
    Config     334  -0.04361177  0.00190199
    Config     346   0.09676261  0.00936300
    Config     350  -0.06097142  0.00371751
    Config     361   0.13148112  0.01728729
    Config     364  -0.07291301  0.00531631
    Config     368  -0.06908534  0.00477278
    Config     369   0.04174935  0.00174301
    Config     372   0.05020848  0.00252089
    Config     373  -0.04092783  0.00167509
    Config     375  -0.05256519  0.00276310
    Config     378  -0.10562184  0.01115597
    Config     386   0.06767454  0.00457984
    Config     391  -0.05326102  0.00283674
    Config     400  -0.04674271  0.00218488
    Config     401  -0.05141784  0.00264379
    Config     402   0.06014325  0.00361721
    Config     406   0.04668803  0.00217977
    Config     409  -0.07049617  0.00496971
    Config     410   0.10158065  0.01031863
    Config     417  -0.12509915  0.01564980
    Config     419   0.08346294  0.00696606
    Config     423   0.06628053  0.00439311
    Config     432  -0.05343106  0.00285488
    Config     438  -0.04954253  0.00245446
    Config     439  -0.05262259  0.00276914
    Config     448   0.04177213  0.00174491
    Config     450  -0.12821914  0.01644015
    Config     454  -0.05956592  0.00354810
    Config     460  -0.07072088  0.00500144
    Config     463  -0.04181709  0.00174867
    Config     467   0.05322926  0.00283335
    Config     472   0.04907862  0.00240871
    Config     474  -0.04662641  0.00217402
    Config     481  -0.04039285  0.00163158
    Config     487   0.04907381  0.00240824
    Config     492   0.09046864  0.00818457
    Config     493  -0.23577416  0.05558945
    Config     497   0.04387427  0.00192495
    Config     502   0.18967241  0.03597562
    Config     503  -0.04386529  0.00192416
    Config     506   0.04911781  0.00241256
    Config     508  -0.04601051  0.00211697
    Config     512   0.06836155  0.00467330
    Config     521  -0.05846457  0.00341811
    Config     525   0.08135794  0.00661911
    Config     531   0.04061052  0.00164921
    Config     534   0.08047343  0.00647597
    Config     536   0.04129663  0.00170541
    Config     537  -0.06663616  0.00444038
    Config     539  -0.07063750  0.00498966
    Config     544  -0.08992032  0.00808566
    Config     552   0.04799671  0.00230368
    Config     555   0.08838546  0.00781199
    Config     556   0.06246250  0.00390156
    Config     566  -0.08295717  0.00688189
    Config     571   0.06895066  0.00475419
    Config     579  -0.04873755  0.00237535
    Config     580  -0.09659361  0.00933032
    Config     583   0.04082347  0.00166656
    Config     590  -0.09782494  0.00956972
    Config     597  -0.04901136  0.00240211
    Config     602  -0.06427020  0.00413066
    Config     606  -0.13721460  0.01882785
    Config     607  -0.04976329  0.00247638
    Config     609   0.04151105  0.00172317
    Config     610  -0.15041239  0.02262389
    Config     615  -0.04159951  0.00173052
    Config     624  -0.04117005  0.00169497
    Config     628  -0.04419825  0.00195349
    Config     641  -0.08787107  0.00772132
    Config     648  -0.04554565  0.00207441
    Config     651   0.07369124  0.00543040
    Config     652  -0.05009576  0.00250959
    Config     659  -0.04934951  0.00243537
    Config     678   0.04734018  0.00224109
    Config     679   0.05346769  0.00285879
    Config     681  -0.08188020  0.00670437
    Config     682   0.07896205  0.00623500
    Config     690  -0.07434857  0.00552771
    Config     692  -0.04439172  0.00197063
    Config     701   0.05343385  0.00285518
    Config     713  -0.04334840  0.00187908
    Config     718  -0.06559398  0.00430257
    Config     728   0.05356316  0.00286901
    Config     734   0.07759814  0.00602147
    Config     752  -0.04866365  0.00236815
    Config     760   0.06741457  0.00454472
    Config     766   0.05796786  0.00336027
    Config     769  -0.04044624  0.00163590
    Config     771  -0.04935072  0.00243549
    Config     792  -0.05868265  0.00344365
    Config     811   0.05305053  0.00281436
    Config     820   0.05054649  0.00255495
    Config     845   0.07305235  0.00533665
    Config     849  -0.04662042  0.00217346
    Config     872  -0.04877510  0.00237901
    Config     874   0.05837657  0.00340782
    Config     881  -0.04938959  0.00243933
    Config     886  -0.05275051  0.00278262
    Config     899   0.09301937  0.00865260
    Config     958   0.04022974  0.00161843
    Config     963   0.04551116  0.00207127
    Config     991   0.04521921  0.00204478
 Total coeff printed             0.74536516
  

 **********************
 *                    *
 * JOB ENDED NORMALLY *
 *                    *
 **********************



 TOTAL JOB TIME:           326.38 SECONDS

 == MOPAC DONE ==
