 *******************************************************************************
 ** Site#: 37966        For non-commercial use only           Version 21.186W **
 *******************************************************************************
 ** Cite this program as: MOPAC2016, Version: 21.186W, James J. P. Stewart,   **
 ** Stewart Computational Chemistry, web: HTTP://OpenMOPAC.net. Days left: 257**
 *******************************************************************************
 **                                                                           **
 **                                MOPAC2016                                  **
 **                                                                           **
 *******************************************************************************

                              INDO CALCULATION RESULTS

 *******************************************************************************
 *  CALCULATION DONE:                                Thu Oct 21 13:39:45 2021  *
 *  INDO       - The INDO Hamiltonian to be used
 *  CIS        - C.I. USES 1 ELECTRON EXCITATIONS ONLY
 *  EPS=8.93   - USE ANDREAS KLAMT'S COSMO IMPLICIT SOLVATION MODEL
 *  N**2=1.42  - USED IN COSMO-CI
 *  T=         - A TIME OF 172800.0 SECONDS REQUESTED
 *  DUMP=N     - RESTART FILE WRITTEN EVERY 7200.0 SECONDS REQUESTED
 *******************************************************************************
INDO CIS EPS=8.93 N**2=1.42
 Dye52
 Calculo de Estados Excitados
   ATOM   CHEMICAL          X               Y               Z
  NUMBER   SYMBOL      (ANGSTROMS)     (ANGSTROMS)     (ANGSTROMS)
 
     1       C          0.00000000  *   0.00000000  *   0.00000000  *
     2       C          1.52000018  *   0.00000000  *   0.00000000  *
     3       C          2.06145261  *   1.42742088  *   0.00000000  *
     4       C          3.58833132  *   1.42831456  *   0.00233984  *
     5       C          4.12851002  *   2.85665154  *   0.00144003  *
     6       C          5.65560825  *   2.85726361  *   0.00621313  *
     7       C          6.19588185  *   4.28562054  *   0.00423977  *
     8       C          7.72300980  *   4.28569665  *   0.01300294  *
     9       C          8.26410516  *   5.71437226  *   0.00582172  *
    10       C          9.79071600  *   5.71087531  *   0.02665077  *
    11       C         10.36679873  *   7.12259560  *  -0.03969198  *
    12       C         10.20922562  *   7.85027103  *   1.30177098  *
    13       N         10.70702009  *   9.24226262  *   1.26696666  *
    14       C         12.13231876  *   9.32613477  *   1.09495924  *
    15       C         12.70858814  *   9.68875961  *  -0.12562302  *
    16       C         14.08792231  *   9.76408052  *  -0.24435600  *
    17       C         14.89014276  *   9.47937393  *   0.86500957  *
    18       C         14.31737805  *   9.11918733  *   2.08834635  *
    19       C         12.93722578  *   9.03981346  *   2.20080095  *
    20       N         16.29569990  *   9.55742509  *   0.74800393  *
    21       C         17.02312066  *  10.63160949  *   0.19501505  *
    22       C         16.57691878  *  11.84431740  *  -0.31863413  *
    23       C         17.53707407  *  12.72503420  *  -0.78945841  *
    24       C         18.91129590  *  12.43451627  *  -0.75398374  *
    25       C         19.34635478  *  11.22861844  *  -0.21887326  *
    26       C         18.40685371  *  10.32748055  *   0.25867296  *
    27       C         18.53016297  *   9.02732616  *   0.87181252  *
    28       C         17.21759911  *   8.57456417  *   1.16224940  *
    29       C         16.99867831  *   7.32544972  *   1.73253161  *
    30       C         18.11429827  *   6.55922470  *   2.02883707  *
    31       C         19.42313577  *   6.99749685  *   1.76752431  *
    32       C         19.62858421  *   8.23882062  *   1.17823404  *
    33       C         20.55902519  *   6.08033302  *   2.13961943  *
    34       C         21.93577169  *   6.66831522  *   1.82365069  *
    35       C         20.50191479  *   5.80306946  *   3.64469795  *
    36       C         20.41595418  *   4.77093969  *   1.35869883  *
    37       C         19.86203341  *  13.46717772  *  -1.30148523  *
    38       C         19.52417416  *  13.72370122  *  -2.77299559  *
    39       C         21.32801057  *  13.03576356  *  -1.22563841  *
    40       C         19.70909583  *  14.75956881  *  -0.49460192  *
    41       C          9.93014195  *  10.24955067  *   0.64578091  *
    42       C         10.44528908  *  11.55831775  *   0.58820316  *
    43       C          9.67400193  *  12.58788919  *   0.08266218  *
    44       C          8.37558008  *  12.34445059  *  -0.36988315  *
    45       C          7.85773952  *  11.05350695  *  -0.30163380  *
    46       C          8.62440456  *  10.01025489  *   0.19506161  *
    47       C          7.56368192  *  13.41437850  *  -0.89455885  *
    48       C          6.21901015  *  13.57813199  *  -0.67016545  *
    49       C          5.71078914  *  14.72300331  *  -1.34102661  *
    50       C          6.68947047  *  15.39052314  *  -2.04932006  *
    51       S          8.20152187  *  14.62188501  *  -1.90137693  *
    52       C          6.41933279  *  16.57388455  *  -2.80326500  *
    53       C          7.33185626  *  17.32856265  *  -3.45342838  *
    54       C          6.88520027  *  18.51838530  *  -4.18705434  *
    55       O          5.73605935  *  18.92592726  *  -4.28923817  *
    56       O          7.88235191  *  19.19558266  *  -4.79220937  *
    57       C          8.71849338  *  17.04553989  *  -3.47211823  *
    58       N          9.85628112  *  16.83795385  *  -3.50432958  *
    59       H          5.35812391  *  16.87473066  *  -2.83766876  *
    60       H         -0.41704276  *   0.50659021  *  -0.88232638  *
    61       H         -0.40927415  *  -1.02065394  *  -0.00030269  *
    62       H         -0.41707651  *   0.50608770  *   0.88259657  *
    63       H          1.90215924  *  -0.56137484  *   0.87881566  *
    64       H          1.90229917  *  -0.56145103  *  -0.87868881  *
    65       H          1.67513037  *   1.98426744  *  -0.87977030  *
    66       H          1.67259016  *   1.98530781  *   0.87799436  *
    67       H          3.97275165  *   0.87090974  *   0.88263743  *
    68       H          3.97557925  *   0.86874838  *  -0.87532677  *
    69       H          3.74513370  *   3.41333600  *  -0.87975072  *
    70       H          3.73969462  *   3.41648882  *   0.87824492  *
    71       H          6.03869681  *   2.30107594  *   0.88785843  *
    72       H          6.04427622  *   2.29660265  *  -0.87013211  *
    73       H          5.81508195  *   4.84073581  *  -0.87905963  *
    74       H          5.80458338  *   4.84689558  *   0.87902841  *
    75       H          8.10368251  *   3.73346350  *   0.89816541  *
    76       H          8.11312948  *   3.72055671  *  -0.85984689  *
    77       H          7.89117895  *   6.26238670  *  -0.88544580  *
    78       H          7.85884017  *   6.27897958  *   0.87138388  *
    79       H         10.16839547  *   5.17813960  *   0.92502947  *
    80       H         10.17770482  *   5.11529371  *  -0.82843267  *
    81       H         11.44261607  *   7.07789364  *  -0.31752288  *
    82       H          9.89963665  *   7.69877554  *  -0.86579807  *
    83       H          9.15276411  *   7.85389630  *   1.65410079  *
    84       H         10.76661856  *   7.30930434  *   2.10280629  *
    85       H         12.08049279  *   9.90999779  *  -0.99534103  *
    86       H         14.53764740  *  10.02800432  *  -1.20760767  *
    87       H         14.94605098  *   8.91866642  *   2.96256463  *
    88       H         12.48787023  *   8.76979819  *   3.16251368  *
    89       H         15.51636145  *  12.10322039  *  -0.33926083  *
    90       H         17.18649219  *  13.67889933  *  -1.19779566  *
    91       H         20.39948866  *  10.94779116  *  -0.15000567  *
    92       H         15.99107548  *   6.95303438  *   1.92746468  *
    93       H         17.94303284  *   5.57678602  *   2.48124254  *
    94       H         20.61850990  *   8.63242095  *   0.93761537  *
    95       H         22.07383106  *   6.86635470  *   0.75111959  *
    96       H         22.12743113  *   7.60586098  *   2.36481527  *
    97       H         22.74833146  *   5.98308561  *   2.10983411  *
    98       H         19.59042780  *   5.27337979  *   3.95391412  *
    99       H         21.34231065  *   5.17812453  *   3.98086312  *
   100       H         20.54037182  *   6.73215264  *   4.23107200  *
   101       H         20.39651431  *   4.94462674  *   0.27333420  *
   102       H         21.24857188  *   4.08008376  *   1.55681694  *
   103       H         19.49936379  *   4.21751308  *   1.60478067  *
   104       H         19.56560634  *  12.79961079  *  -3.36698386  *
   105       H         18.52141647  *  14.14776340  *  -2.92032678  *
   106       H         20.22296285  *  14.43427243  *  -3.23841264  *
   107       H         21.52766923  *  12.12000712  *  -1.80017857  *
   108       H         22.00150061  *  13.80309693  *  -1.63710983  *
   109       H         21.66426543  *  12.86363940  *  -0.19321495  *
   110       H         20.41653419  *  15.53556440  *  -0.82192908  *
   111       H         18.70946869  *  15.20748209  *  -0.57915118  *
   112       H         19.88991427  *  14.59410339  *   0.57706243  *
   113       H         11.44926744  *  11.78584951  *   0.96133761  *
   114       H         10.08608542  *  13.60228470  *   0.05042079  *
   115       H          6.84157499  *  10.84995413  *  -0.65547860  *
   116       H          8.17741274  *   9.01234966  *   0.22689353  *
   117       H          5.60617782  *  12.93148140  *  -0.04726938  *
   118       H          4.66647970  *  15.02566104  *  -1.28602100  *
   119       H          7.54089365  *  19.97022204  *  -5.26187113  *
 


          CARTESIAN COORDINATES 

    NO.       ATOM           X           Y           Z

     1         C          0.0000      0.0000      0.0000
     2         C          1.5200      0.0000      0.0000
     3         C          2.0615      1.4274      0.0000
     4         C          3.5883      1.4283      0.0023
     5         C          4.1285      2.8567      0.0014
     6         C          5.6556      2.8573      0.0062
     7         C          6.1959      4.2856      0.0042
     8         C          7.7230      4.2857      0.0130
     9         C          8.2641      5.7144      0.0058
    10         C          9.7907      5.7109      0.0267
    11         C         10.3668      7.1226     -0.0397
    12         C         10.2092      7.8503      1.3018
    13         N         10.7070      9.2423      1.2670
    14         C         12.1323      9.3261      1.0950
    15         C         12.7086      9.6888     -0.1256
    16         C         14.0879      9.7641     -0.2444
    17         C         14.8901      9.4794      0.8650
    18         C         14.3174      9.1192      2.0883
    19         C         12.9372      9.0398      2.2008
    20         N         16.2957      9.5574      0.7480
    21         C         17.0231     10.6316      0.1950
    22         C         16.5769     11.8443     -0.3186
    23         C         17.5371     12.7250     -0.7895
    24         C         18.9113     12.4345     -0.7540
    25         C         19.3464     11.2286     -0.2189
    26         C         18.4069     10.3275      0.2587
    27         C         18.5302      9.0273      0.8718
    28         C         17.2176      8.5746      1.1622
    29         C         16.9987      7.3254      1.7325
    30         C         18.1143      6.5592      2.0288
    31         C         19.4231      6.9975      1.7675
    32         C         19.6286      8.2388      1.1782
    33         C         20.5590      6.0803      2.1396
    34         C         21.9358      6.6683      1.8237
    35         C         20.5019      5.8031      3.6447
    36         C         20.4160      4.7709      1.3587
    37         C         19.8620     13.4672     -1.3015
    38         C         19.5242     13.7237     -2.7730
    39         C         21.3280     13.0358     -1.2256
    40         C         19.7091     14.7596     -0.4946
    41         C          9.9301     10.2496      0.6458
    42         C         10.4453     11.5583      0.5882
    43         C          9.6740     12.5879      0.0827
    44         C          8.3756     12.3445     -0.3699
    45         C          7.8577     11.0535     -0.3016
    46         C          8.6244     10.0103      0.1951
    47         C          7.5637     13.4144     -0.8946
    48         C          6.2190     13.5781     -0.6702
    49         C          5.7108     14.7230     -1.3410
    50         C          6.6895     15.3905     -2.0493
    51         S          8.2015     14.6219     -1.9014
    52         C          6.4193     16.5739     -2.8033
    53         C          7.3319     17.3286     -3.4534
    54         C          6.8852     18.5184     -4.1871
    55         O          5.7361     18.9259     -4.2892
    56         O          7.8824     19.1956     -4.7922
    57         C          8.7185     17.0455     -3.4721
    58         N          9.8563     16.8380     -3.5043
    59         H          5.3581     16.8747     -2.8377
    60         H         -0.4170      0.5066     -0.8823
    61         H         -0.4093     -1.0207     -0.0003
    62         H         -0.4171      0.5061      0.8826
    63         H          1.9022     -0.5614      0.8788
    64         H          1.9023     -0.5615     -0.8787
    65         H          1.6751      1.9843     -0.8798
    66         H          1.6726      1.9853      0.8780
    67         H          3.9728      0.8709      0.8826
    68         H          3.9756      0.8687     -0.8753
    69         H          3.7451      3.4133     -0.8798
    70         H          3.7397      3.4165      0.8782
    71         H          6.0387      2.3011      0.8879
    72         H          6.0443      2.2966     -0.8701
    73         H          5.8151      4.8407     -0.8791
    74         H          5.8046      4.8469      0.8790
    75         H          8.1037      3.7335      0.8982
    76         H          8.1131      3.7206     -0.8598
    77         H          7.8912      6.2624     -0.8854
    78         H          7.8588      6.2790      0.8714
    79         H         10.1684      5.1781      0.9250
    80         H         10.1777      5.1153     -0.8284
    81         H         11.4426      7.0779     -0.3175
    82         H          9.8996      7.6988     -0.8658
    83         H          9.1528      7.8539      1.6541
    84         H         10.7666      7.3093      2.1028
    85         H         12.0805      9.9100     -0.9953
    86         H         14.5376     10.0280     -1.2076
    87         H         14.9461      8.9187      2.9626
    88         H         12.4879      8.7698      3.1625
    89         H         15.5164     12.1032     -0.3393
    90         H         17.1865     13.6789     -1.1978
    91         H         20.3995     10.9478     -0.1500
    92         H         15.9911      6.9530      1.9275
    93         H         17.9430      5.5768      2.4812
    94         H         20.6185      8.6324      0.9376
    95         H         22.0738      6.8664      0.7511
    96         H         22.1274      7.6059      2.3648
    97         H         22.7483      5.9831      2.1098
    98         H         19.5904      5.2734      3.9539
    99         H         21.3423      5.1781      3.9809
   100         H         20.5404      6.7322      4.2311
   101         H         20.3965      4.9446      0.2733
   102         H         21.2486      4.0801      1.5568
   103         H         19.4994      4.2175      1.6048
   104         H         19.5656     12.7996     -3.3670
   105         H         18.5214     14.1478     -2.9203
   106         H         20.2230     14.4343     -3.2384
   107         H         21.5277     12.1200     -1.8002
   108         H         22.0015     13.8031     -1.6371
   109         H         21.6643     12.8636     -0.1932
   110         H         20.4165     15.5356     -0.8219
   111         H         18.7095     15.2075     -0.5792
   112         H         19.8899     14.5941      0.5771
   113         H         11.4493     11.7858      0.9613
   114         H         10.0861     13.6023      0.0504
   115         H          6.8416     10.8500     -0.6555
   116         H          8.1774      9.0123      0.2269
   117         H          5.6062     12.9315     -0.0473
   118         H          4.6665     15.0257     -1.2860
   119         H          7.5409     19.9702     -5.2619

           Empirical Formula: C52 H61 N3 O2 S  =   119 atoms



      MOLECULAR POINT GROUP   :   C1  


      RHF CALCULATION, NO. OF DOUBLY OCCUPIED LEVELS = 151

 WARNING: INDO only performs single-point calculations

 Summary of symmetry occupancy in each shell:

 SHELL     
    1  151
    v  142
 TOTAL 293




    ROOT NO.    1           2           3           4           5           6

           -48.66506   -47.22164   -46.75177   -45.19936   -44.80598   -44.02045
  
  
  S  C   1   0.00002     0.00041    -0.00001     0.00001     0.00077    -0.00676
 PX  C   1   0.00001     0.00018    -0.00000     0.00000     0.00031    -0.00261
 PY  C   1   0.00000     0.00006    -0.00000     0.00000     0.00009    -0.00077
 PZ  C   1   0.00000     0.00000    -0.00000     0.00000     0.00000    -0.00000
  
  S  C   2   0.00005     0.00091    -0.00003     0.00001     0.00148    -0.01235
 PX  C   2   0.00001     0.00017    -0.00000     0.00000     0.00018    -0.00123
 PY  C   2   0.00002     0.00029    -0.00001     0.00000     0.00042    -0.00331
 PZ  C   2   0.00000     0.00000    -0.00000     0.00000     0.00000    -0.00000
  
  S  C   3   0.00010     0.00177    -0.00005     0.00002     0.00240    -0.01851
 PX  C   3   0.00004     0.00058    -0.00001     0.00001     0.00060    -0.00407
 PY  C   3   0.00001     0.00007    -0.00000    -0.00000    -0.00004     0.00077
 PZ  C   3   0.00000     0.00000    -0.00000     0.00000     0.00000    -0.00001
  
  S  C   4   0.00020     0.00330    -0.00008     0.00004     0.00355    -0.02487
 PX  C   4   0.00004     0.00048    -0.00001     0.00000     0.00019    -0.00028
 PY  C   4   0.00006     0.00094    -0.00002     0.00001     0.00081    -0.00502
 PZ  C   4   0.00000     0.00000    -0.00000     0.00000     0.00000     0.00000
  
  S  C   5   0.00042     0.00611    -0.00015     0.00006     0.00511    -0.03166
 PX  C   5   0.00015     0.00192    -0.00005     0.00001     0.00115    -0.00560
 PY  C   5   0.00003     0.00023    -0.00000    -0.00000    -0.00018     0.00228
 PZ  C   5   0.00000     0.00001    -0.00000     0.00000     0.00001    -0.00003
  
  S  C   6   0.00085     0.01114    -0.00026     0.00008     0.00719    -0.03899
 PX  C   6   0.00015     0.00155    -0.00003     0.00001     0.00028     0.00059
 PY  C   6   0.00026     0.00319    -0.00007     0.00002     0.00159    -0.00717
 PZ  C   6   0.00000     0.00003    -0.00000     0.00000     0.00000     0.00000
  
  S  C   7   0.00178     0.02083    -0.00047     0.00012     0.01016    -0.04703
 PX  C   7   0.00062     0.00650    -0.00014     0.00003     0.00220    -0.00752
 PY  C   7   0.00015     0.00104    -0.00002    -0.00000    -0.00033     0.00390
 PZ  C   7   0.00002     0.00019    -0.00000     0.00000     0.00004    -0.00012
  
  S  C   8   0.00346     0.03663    -0.00080     0.00018     0.01384    -0.05578
 PX  C   8   0.00053     0.00435    -0.00009     0.00001     0.00030     0.00155
 PY  C   8   0.00114     0.01103    -0.00023     0.00004     0.00314    -0.00992
 PZ  C   8   0.00007     0.00055    -0.00001     0.00000     0.00009    -0.00017
  
  S  C   9   0.00754     0.07098    -0.00148     0.00027     0.01991    -0.06623
 PX  C   9   0.00229     0.01939    -0.00040     0.00006     0.00367    -0.01009
 PY  C   9   0.00099     0.00673    -0.00011     0.00000     0.00007     0.00537
 PZ  C   9   0.00042     0.00345    -0.00007     0.00001     0.00061    -0.00140
  
  S  C  10   0.01157     0.09921    -0.00205     0.00033     0.02185    -0.07262
 PX  C  10   0.00026    -0.00182     0.00004    -0.00002    -0.00262     0.00667
 PY  C  10   0.00412     0.03193    -0.00063     0.00008     0.00504    -0.01329
 PZ  C  10   0.00091     0.00692    -0.00014     0.00002     0.00093    -0.00302
  
  S  C  11   0.02497     0.18659    -0.00372     0.00046     0.02801    -0.08639
 PX  C  11   0.00089    -0.00315     0.00005    -0.00004    -0.00480     0.00164
 PY  C  11   0.00666     0.04297    -0.00079     0.00005     0.00311    -0.00258
 PZ  C  11   0.00646     0.04698    -0.00093     0.00012     0.00580    -0.01863
  
  S  C  12   0.04040     0.29052    -0.00567     0.00068     0.03699    -0.09990
 PX  C  12   0.00799     0.04340    -0.00091     0.00009    -0.00140    -0.02300
 PY  C  12   0.01363     0.09381    -0.00174     0.00015     0.00985    -0.01252
 PZ  C  12  -0.00538    -0.04201     0.00081    -0.00007    -0.00721     0.01404
  
  S  N  13   0.07108     0.47791    -0.00904     0.00079     0.04905    -0.10969
 PX  N  13   0.00723     0.01598    -0.00049    -0.00003    -0.01427    -0.03352
 PY  N  13  -0.00107    -0.00865     0.00037    -0.00014     0.00148     0.03370
 PZ  N  13  -0.00982    -0.07012     0.00126    -0.00006    -0.00991     0.00609
  
  S  C  14   0.08543     0.33640    -0.00674     0.00009    -0.04165    -0.15051
 PX  C  14   0.00844    -0.08819     0.00153    -0.00034    -0.05021    -0.00978
 PY  C  14   0.00037    -0.00572     0.00018    -0.00034    -0.00173     0.01248
 PZ  C  14  -0.00265    -0.00820     0.00012     0.00055     0.00070    -0.00323
  
  S  C  15   0.07425     0.19376    -0.00396    -0.00227    -0.06407    -0.10511
 PX  C  15   0.01504    -0.03705     0.00058    -0.00150    -0.03437    -0.01326
 PY  C  15  -0.00559    -0.01888     0.00043    -0.00050     0.00540     0.01614
 PZ  C  15   0.02389     0.07014    -0.00145     0.00031    -0.02092    -0.04081
  
  S  C  16   0.11976     0.09234    -0.00213    -0.00759    -0.11402    -0.08259
 PX  C  16   0.02978    -0.03941     0.00076    -0.00300    -0.01402     0.02418
 PY  C  16  -0.00806    -0.01086     0.00025    -0.00213     0.01099     0.01095
 PZ  C  16   0.04050     0.03414    -0.00079     0.00017    -0.04238    -0.03253
  
  S  C  17   0.23329     0.05943    -0.00162    -0.00129    -0.18516    -0.06690
 PX  C  17   0.07823    -0.05948     0.00117     0.00054    -0.02427     0.05263
 PY  C  17   0.00437    -0.00308     0.00006    -0.00670    -0.00122     0.00338
 PZ  C  17  -0.00662     0.00423    -0.00009     0.00600     0.00176    -0.00492
  
  S  C  18   0.11908     0.08693    -0.00205     0.00620    -0.11572    -0.08675
 PX  C  18   0.02213    -0.04163     0.00085     0.00295    -0.00463     0.03265
 PY  C  18   0.01096     0.00642    -0.00015    -0.00194    -0.01185    -0.00615
 PZ  C  18  -0.04489    -0.02820     0.00067     0.00020     0.04370     0.02754
  
  S  C  19   0.07129     0.17107    -0.00364     0.00180    -0.06975    -0.11835
 PX  C  19   0.01171    -0.03763     0.00067     0.00112    -0.02678     0.00068
 PY  C  19   0.00704     0.01380    -0.00029    -0.00039    -0.00843    -0.00889
 PZ  C  19  -0.02620    -0.06478     0.00137     0.00024     0.02584     0.04262
  
  S  N  20   0.46776    -0.06723     0.00085    -0.00197    -0.22640     0.05064
 PX  N  20   0.08132    -0.03535     0.00070     0.00212     0.00648     0.03468
 PY  N  20   0.00440    -0.00188     0.00004    -0.02286     0.00063     0.00202
 PZ  N  20  -0.00688     0.00289    -0.00006     0.01120    -0.00063    -0.00299
  
  S  C  21   0.35427    -0.07373     0.00120    -0.11271    -0.05316     0.04492
 PX  C  21   0.01425    -0.01474     0.00033    -0.03214     0.05345     0.00706
 PY  C  21  -0.10924     0.01885    -0.00026    -0.04907     0.08248    -0.02517
 PZ  C  21   0.05149    -0.00860     0.00011     0.02414    -0.04116     0.01188
  
  S  C  22   0.14856    -0.03254     0.00056    -0.14084     0.04915     0.00170
 PX  C  22   0.03843    -0.01501     0.00030    -0.06463     0.04933     0.00041
 PY  C  22  -0.05415     0.00869    -0.00012     0.00227     0.02983    -0.00899
 PZ  C  22   0.02141    -0.00324     0.00004     0.00362    -0.01635     0.00446
  
  S  C  23   0.10174    -0.03177     0.00063    -0.21262     0.16204    -0.02289
 PX  C  23   0.01384    -0.00684     0.00015    -0.06174     0.06253    -0.01222
 PY  C  23  -0.03918     0.01044    -0.00019     0.03529    -0.01151    -0.00505
 PZ  C  23   0.01694    -0.00437     0.00008    -0.01176     0.00091     0.00327
  
  S  C  24   0.10926    -0.03854     0.00080    -0.29591     0.26024    -0.04573
 PX  C  24  -0.02118     0.00508    -0.00008     0.00028     0.01821    -0.01028
 PY  C  24  -0.02332     0.00575    -0.00010    -0.01384     0.02850    -0.01474
 PZ  C  24   0.01239    -0.00307     0.00005     0.00617    -0.01427     0.00754
  
  S  C  25   0.12903    -0.04083     0.00080    -0.18663     0.15456    -0.01093
 PX  C  25  -0.05495     0.01535    -0.00028     0.04648    -0.01924    -0.00680
 PY  C  25  -0.01000     0.00092     0.00000    -0.05800     0.05230    -0.01622
 PZ  C  25   0.00820    -0.00143     0.00002     0.02413    -0.02317     0.00803
  
  S  C  26   0.28977    -0.07470     0.00133    -0.10143     0.03649     0.04028
 PX  C  26  -0.09783     0.02000    -0.00031     0.00958     0.04360    -0.01961
 PY  C  26  -0.04078     0.00735    -0.00010    -0.07527     0.05132    -0.01643
 PZ  C  26   0.02557    -0.00484     0.00007     0.03450    -0.02651     0.00900
  
  S  C  27   0.28986    -0.07485     0.00133     0.10142     0.03473     0.04047
 PX  C  27  -0.10458     0.02122    -0.00033     0.00556     0.05270    -0.02246
 PY  C  27   0.02956    -0.00498     0.00006    -0.07631    -0.04469     0.01396
 PZ  C  27  -0.00850     0.00131    -0.00001     0.03524     0.01782    -0.00540
  
  S  C  28   0.35446    -0.07405     0.00120     0.11134    -0.05528     0.04487
 PX  C  28  -0.00653    -0.01093     0.00028     0.04183     0.06758     0.00244
 PY  C  28   0.10965    -0.02018     0.00029    -0.04637    -0.07496     0.02565
 PZ  C  28  -0.05215     0.01068    -0.00017     0.01858     0.03063    -0.01268
  
  S  C  29   0.14872    -0.03296     0.00057     0.14143     0.04661     0.00162
 PX  C  29   0.02823    -0.01321     0.00028     0.06445     0.05328    -0.00102
 PY  C  29   0.05784    -0.01031     0.00015     0.00889    -0.02433     0.00887
 PZ  C  29  -0.02707     0.00562    -0.00009    -0.00704     0.00777    -0.00439
  
  S  C  30   0.10192    -0.03207     0.00064     0.21509     0.15852    -0.02247
 PX  C  30   0.00649    -0.00484     0.00012     0.05566     0.05907    -0.01283
 PY  C  30   0.04033    -0.01117     0.00021     0.04190     0.01749     0.00370
 PZ  C  30  -0.01868     0.00539    -0.00010    -0.02170    -0.01083    -0.00118
  
  S  C  31   0.10946    -0.03884     0.00081     0.29993     0.25549    -0.04493
 PX  C  31  -0.02539     0.00616    -0.00010     0.00273     0.02342    -0.01286
 PY  C  31   0.02075    -0.00514     0.00009    -0.01424    -0.02607     0.01337
 PZ  C  31  -0.00848     0.00213    -0.00004     0.00623     0.01073    -0.00556
  
  S  C  32   0.12918    -0.04104     0.00081     0.18879     0.15145    -0.01044
 PX  C  32  -0.05635     0.01545    -0.00028    -0.03521    -0.00862    -0.00982
 PY  C  32   0.00383     0.00083    -0.00004    -0.06339    -0.05287     0.01513
 PZ  C  32   0.00117    -0.00119     0.00003     0.03143     0.02508    -0.00655
  
  S  C  33   0.05478    -0.02456     0.00056     0.30347     0.29789    -0.07286
 PX  C  33  -0.00986     0.00339    -0.00007    -0.02209    -0.01561     0.00141
 PY  C  33   0.00694    -0.00236     0.00005     0.01100     0.00762     0.00028
 PZ  C  33  -0.00277     0.00095    -0.00002    -0.00413    -0.00287    -0.00019
  
  S  C  34   0.02894    -0.01357     0.00031     0.17605     0.17762    -0.04462
 PX  C  34  -0.01201     0.00545    -0.00012    -0.06668    -0.06586     0.01595
 PY  C  34  -0.00166     0.00110    -0.00003    -0.02278    -0.02350     0.00681
 PZ  C  34   0.00117    -0.00069     0.00002     0.01269     0.01297    -0.00365
  
  S  C  35   0.02918    -0.01360     0.00031     0.18121     0.17999    -0.04560
 PX  C  35  -0.00265     0.00087    -0.00002    -0.00499    -0.00289    -0.00004
 PY  C  35   0.00369    -0.00152     0.00003     0.01544     0.01448    -0.00311
 PZ  C  35  -0.01223     0.00564    -0.00013    -0.07297    -0.07208     0.01794
  
  S  C  36   0.02916    -0.01360     0.00031     0.18105     0.17988    -0.04555
 PX  C  36  -0.00196     0.00056    -0.00001    -0.00079     0.00126    -0.00109
 PY  C  36   0.01169    -0.00527     0.00012     0.06506     0.06371    -0.01551
 PZ  C  36   0.00547    -0.00263     0.00006     0.03686     0.03685    -0.00950
  
  S  C  37   0.05461    -0.02433     0.00055    -0.29851     0.30238    -0.07378
 PX  C  37  -0.00843     0.00288    -0.00006     0.01956    -0.01433     0.00149
 PY  C  37  -0.00794     0.00269    -0.00005     0.01320    -0.00951    -0.00009
 PZ  C  37   0.00430    -0.00147     0.00003    -0.00759     0.00550    -0.00007
  
  S  C  38   0.02908    -0.01346     0.00031    -0.17818     0.18262    -0.04615
 PX  C  38  -0.00016    -0.00025     0.00001    -0.00880     0.01091    -0.00341
 PY  C  38  -0.00384     0.00155    -0.00003     0.01504    -0.01433     0.00298
 PZ  C  38   0.01243    -0.00564     0.00013    -0.07143     0.07247    -0.01787
  
  S  C  39   0.02884    -0.01344     0.00031    -0.17310     0.18020    -0.04517
 PX  C  39  -0.01210     0.00552    -0.00013     0.06880    -0.07030     0.01720
 PY  C  39   0.00032    -0.00048     0.00001    -0.01496     0.01626    -0.00504
 PZ  C  39   0.00087    -0.00025     0.00000     0.00112    -0.00157     0.00088
  
  S  C  40   0.02906    -0.01346     0.00031    -0.17801     0.18249    -0.04610
 PX  C  40  -0.00156     0.00041    -0.00001    -0.00014     0.00203    -0.00118
 PY  C  40  -0.01185     0.00527    -0.00012     0.06402    -0.06447     0.01557
 PZ  C  40  -0.00516     0.00253    -0.00006     0.03624    -0.03772     0.00981
  
  S  C  41   0.04503     0.34162    -0.00478     0.00046     0.07367     0.12612
 PX  C  41   0.01017     0.05086    -0.00154    -0.00003    -0.00953    -0.07568
 PY  C  41  -0.00893    -0.05829     0.00185    -0.00015     0.00421     0.09605
 PZ  C  41   0.00404     0.02441    -0.00080     0.00005    -0.00323    -0.04278
  
  S  C  42   0.02624     0.19834    -0.00171     0.00012     0.05511     0.18088
 PX  C  42  -0.00107    -0.02999    -0.00041    -0.00014    -0.02321    -0.09598
 PY  C  42  -0.01047    -0.07081     0.00144    -0.00006    -0.00771     0.01333
 PZ  C  42   0.00025    -0.00340    -0.00032    -0.00000    -0.00670    -0.03688
  
  S  C  43   0.01282     0.11977     0.00140     0.00015     0.05799     0.26266
 PX  C  43  -0.00048    -0.01270    -0.00105    -0.00007    -0.01278    -0.06916
 PY  C  43  -0.00591    -0.05190     0.00051    -0.00006    -0.01992    -0.07185
 PZ  C  43   0.00079     0.00465    -0.00047    -0.00000    -0.00076    -0.01148
  
  S  C  44   0.01109     0.11603     0.00461     0.00022     0.06945     0.35196
 PX  C  44   0.00254     0.02233    -0.00152     0.00002     0.00702     0.01184
 PY  C  44  -0.00332    -0.03146     0.00156    -0.00005    -0.01193    -0.02968
 PZ  C  44   0.00165     0.01533    -0.00075     0.00002     0.00568     0.01440
  
  S  C  45   0.01191     0.12034     0.00175     0.00024     0.06236     0.27455
 PX  C  45   0.00521     0.04941    -0.00035     0.00008     0.02118     0.07793
 PY  C  45  -0.00008     0.00255     0.00136     0.00000     0.00751     0.05944
 PZ  C  45   0.00192     0.01790    -0.00034     0.00003     0.00668     0.01918
  
  S  C  46   0.02220     0.19514    -0.00157     0.00036     0.06533     0.18621
 PX  C  46   0.00894     0.06902    -0.00122     0.00010     0.01335     0.00895
 PY  C  46   0.00105     0.01759     0.00073     0.00002     0.01782     0.10232
 PZ  C  46   0.00282     0.02081    -0.00056     0.00004     0.00167    -0.01515
  
  S  C  47   0.00384     0.04754     0.01448     0.00013     0.04552     0.32228
 PX  C  47   0.00070     0.00626    -0.00403     0.00000    -0.00022    -0.02839
 PY  C  47  -0.00121    -0.01241     0.00416    -0.00002    -0.00474    -0.00094
 PZ  C  47   0.00063     0.00662    -0.00191     0.00001     0.00297     0.00565
  
  S  C  48   0.00188     0.02593     0.01548     0.00009     0.03215     0.26080
 PX  C  48   0.00078     0.01017     0.00336     0.00003     0.01056     0.07692
 PY  C  48  -0.00021    -0.00143     0.00479     0.00000     0.00243     0.03670
 PZ  C  48  -0.00010    -0.00211    -0.00419    -0.00001    -0.00474    -0.04698
  
  S  C  49   0.00092     0.01482     0.02441     0.00006     0.02440     0.22494
 PX  C  49   0.00040     0.00634     0.00802     0.00003     0.01007     0.09081
 PY  C  49  -0.00021    -0.00287     0.00318    -0.00001    -0.00360    -0.02779
 PZ  C  49   0.00004     0.00036    -0.00417     0.00000    -0.00005    -0.00351
  
  S  C  50   0.00080     0.01335     0.04707     0.00006     0.02269     0.21610
 PX  C  50   0.00001     0.00003    -0.00000    -0.00000    -0.00055    -0.00718
 PY  C  50  -0.00030    -0.00441     0.01102    -0.00002    -0.00681    -0.05769
 PZ  C  50   0.00021     0.00308    -0.00724     0.00001     0.00488     0.04199
  
  S  S  51   0.00132     0.01825     0.02201     0.00006     0.02291     0.19038
 PX  S  51  -0.00032    -0.00563    -0.01099    -0.00003    -0.01010    -0.09487
 PY  S  51  -0.00055    -0.00669     0.00559    -0.00002    -0.00588    -0.03675
 PZ  S  51   0.00051     0.00654    -0.00081     0.00002     0.00698     0.05163
  
  S  C  52   0.00025     0.00562     0.11240     0.00002     0.00877     0.09459
 PX  C  52   0.00002     0.00066     0.02159     0.00000     0.00087     0.01032
 PY  C  52  -0.00009    -0.00116     0.03513    -0.00001    -0.00333    -0.03124
 PZ  C  52   0.00006     0.00071    -0.02695     0.00001     0.00215     0.01984
  
  S  C  53   0.00013     0.00468     0.22520     0.00001     0.00314     0.04130
 PX  C  53  -0.00001    -0.00047    -0.01946    -0.00000    -0.00041    -0.00496
 PY  C  53  -0.00002     0.00024     0.07105    -0.00001    -0.00221    -0.02205
 PZ  C  53   0.00002    -0.00008    -0.04474     0.00000     0.00156     0.01568
  
  S  C  54   0.00010     0.00683     0.51338    -0.00001    -0.00316    -0.02109
 PX  C  54  -0.00000     0.00000     0.00446    -0.00000    -0.00029    -0.00384
 PY  C  54   0.00000     0.00112     0.11610    -0.00001    -0.00203    -0.02032
 PZ  C  54  -0.00000    -0.00076    -0.07877     0.00000     0.00141     0.01426
  
  S  O  55   0.00007     0.00533     0.41157    -0.00001    -0.00286    -0.02007
 PX  O  55   0.00003     0.00218     0.17166    -0.00000    -0.00133    -0.01008
 PY  O  55  -0.00001    -0.00059    -0.03866     0.00000    -0.00001    -0.00153
 PZ  O  55   0.00000     0.00007     0.00033     0.00000     0.00021     0.00255
  
  S  O  56   0.00008     0.00702     0.57438    -0.00002    -0.00564    -0.04925
 PX  O  56  -0.00002    -0.00202    -0.16582     0.00000     0.00162     0.01397
 PY  O  56  -0.00001    -0.00032    -0.02122     0.00000    -0.00002    -0.00104
 PZ  O  56   0.00001     0.00052     0.03915    -0.00000    -0.00023    -0.00139
  
  S  C  57   0.00008     0.00254     0.11205     0.00000     0.00223     0.02871
 PX  C  57  -0.00003    -0.00099    -0.04453    -0.00000    -0.00072    -0.00876
 PY  C  57  -0.00000     0.00022     0.02894    -0.00000    -0.00064    -0.00625
 PZ  C  57   0.00001     0.00001    -0.01276     0.00000     0.00054     0.00556
  
  S  N  58   0.00003     0.00094     0.03916     0.00000     0.00105     0.01381
 PX  N  58  -0.00002    -0.00054    -0.02319    -0.00000    -0.00058    -0.00765
 PY  N  58   0.00000     0.00012     0.00813    -0.00000    -0.00003    -0.00008
 PZ  N  58   0.00000     0.00001    -0.00198     0.00000     0.00011     0.00125
  
  S  H  59   0.00009     0.00221     0.05226     0.00001     0.00319     0.03479
  
  S  H  60   0.00001     0.00018    -0.00001     0.00000     0.00033    -0.00291
  
  S  H  61   0.00001     0.00013    -0.00000     0.00000     0.00026    -0.00229
  
  S  H  62   0.00001     0.00018    -0.00001     0.00000     0.00033    -0.00291
  
  S  H  63   0.00002     0.00040    -0.00001     0.00001     0.00063    -0.00521
  
  S  H  64   0.00002     0.00039    -0.00001     0.00001     0.00063    -0.00521
  
  S  H  65   0.00004     0.00077    -0.00002     0.00001     0.00102    -0.00785
  
  S  H  66   0.00004     0.00077    -0.00002     0.00001     0.00102    -0.00785
  
  S  H  67   0.00009     0.00144    -0.00004     0.00002     0.00152    -0.01055
  
  S  H  68   0.00009     0.00143    -0.00004     0.00002     0.00152    -0.01055
  
  S  H  69   0.00019     0.00266    -0.00007     0.00002     0.00218    -0.01343
  
  S  H  70   0.00019     0.00267    -0.00007     0.00002     0.00218    -0.01344
  
  S  H  71   0.00037     0.00484    -0.00011     0.00004     0.00307    -0.01655
  
  S  H  72   0.00037     0.00480    -0.00011     0.00004     0.00306    -0.01653
  
  S  H  73   0.00079     0.00913    -0.00021     0.00005     0.00436    -0.01992
  
  S  H  74   0.00082     0.00937    -0.00021     0.00005     0.00440    -0.02001
  
  S  H  75   0.00151     0.01579    -0.00035     0.00008     0.00586    -0.02374
  
  S  H  76   0.00142     0.01511    -0.00033     0.00007     0.00574    -0.02345
  
  S  H  77   0.00339     0.03158    -0.00065     0.00012     0.00875    -0.02734
  
  S  H  78   0.00414     0.03758    -0.00077     0.00013     0.00979    -0.02931
  
  S  H  79   0.00503     0.04243    -0.00088     0.00015     0.00901    -0.03151
  
  S  H  80   0.00395     0.03436    -0.00072     0.00012     0.00795    -0.02792
  
  S  H  81   0.01296     0.08410    -0.00169     0.00018     0.00836    -0.04015
  
  S  H  82   0.01153     0.08716    -0.00168     0.00020     0.01413    -0.03209
  
  S  H  83   0.01438     0.11079    -0.00210     0.00027     0.01811    -0.03129
  
  S  H  84   0.01612     0.10812    -0.00216     0.00030     0.01060    -0.04568
  
  S  H  85   0.02217     0.08043    -0.00153    -0.00084    -0.01054    -0.02604
  
  S  H  86   0.04899     0.01937    -0.00048    -0.00643    -0.03817    -0.01866
  
  S  H  87   0.04875     0.01732    -0.00045     0.00590    -0.03893    -0.02035
  
  S  H  88   0.01987     0.06236    -0.00130     0.00081    -0.01531    -0.03804
  
  S  H  89   0.04965    -0.00576     0.00007    -0.03677     0.00073    -0.00199
  
  S  H  90   0.02738    -0.00921     0.00019    -0.08017     0.06826    -0.01329
  
  S  H  91   0.03886    -0.01309     0.00026    -0.06235     0.06386    -0.00751
  
  S  H  92   0.04970    -0.00608     0.00007     0.03676    -0.00002    -0.00233
  
  S  H  93   0.02745    -0.00932     0.00019     0.08127     0.06699    -0.01312
  
  S  H  94   0.03890    -0.01315     0.00027     0.06328     0.06285    -0.00733
  
  S  H  95   0.01311    -0.00594     0.00014     0.07203     0.07253    -0.01775
  
  S  H  96   0.01310    -0.00594     0.00014     0.07203     0.07250    -0.01775
  
  S  H  97   0.00984    -0.00482     0.00011     0.06753     0.06893    -0.01791
  
  S  H  98   0.01333    -0.00598     0.00014     0.07660     0.07488    -0.01865
  
  S  H  99   0.00981    -0.00479     0.00011     0.06833     0.06904    -0.01803
  
  S  H 100   0.01262    -0.00572     0.00013     0.07312     0.07213    -0.01798
  
  S  H 101   0.01260    -0.00572     0.00013     0.07302     0.07207    -0.01795
  
  S  H 102   0.00981    -0.00479     0.00011     0.06828     0.06900    -0.01801
  
  S  H 103   0.01331    -0.00598     0.00014     0.07648     0.07479    -0.01862
  
  S  H 104   0.01258    -0.00567     0.00013    -0.07190     0.07319    -0.01820
  
  S  H 105   0.01329    -0.00592     0.00014    -0.07534     0.07601    -0.01888
  
  S  H 106   0.00978    -0.00474     0.00011    -0.06715     0.07002    -0.01824
  
  S  H 107   0.01307    -0.00588     0.00013    -0.07084     0.07356    -0.01797
  
  S  H 108   0.00980    -0.00477     0.00011    -0.06637     0.06991    -0.01813
  
  S  H 109   0.01307    -0.00589     0.00013    -0.07083     0.07359    -0.01798
  
  S  H 110   0.00977    -0.00474     0.00011    -0.06710     0.06997    -0.01822
  
  S  H 111   0.01326    -0.00592     0.00014    -0.07521     0.07590    -0.01884
  
  S  H 112   0.01256    -0.00566     0.00013    -0.07180     0.07313    -0.01817
  
  S  H 113   0.01359     0.08100    -0.00106    -0.00009     0.01191     0.03407
  
  S  H 114   0.00336     0.03132     0.00087     0.00003     0.01643     0.08179
  
  S  H 115   0.00304     0.03220     0.00110     0.00007     0.01876     0.09032
  
  S  H 116   0.00957     0.08129    -0.00103     0.00017     0.02224     0.03704
  
  S  H 117   0.00080     0.01032     0.00392     0.00003     0.01099     0.08252
  
  S  H 118   0.00022     0.00372     0.00872     0.00002     0.00645     0.06113
  
  S  H 119   0.00003     0.00293     0.24223    -0.00001    -0.00246    -0.02178




    ROOT NO.    7           8           9          10          11          12

           -43.40132   -42.81333   -42.26777   -41.44692   -41.02201   -39.88397
  
  
  S  C   1   0.08663     0.05333    -0.11264     0.15704    -0.00014     0.12575
 PX  C   1   0.03256     0.01952    -0.04011     0.05342    -0.00005     0.03843
 PY  C   1   0.00927     0.00536    -0.01060     0.01322    -0.00001     0.00799
 PZ  C   1   0.00001     0.00000    -0.00001     0.00001    -0.00000     0.00000
  
  S  C   2   0.15168     0.08951    -0.18131     0.23632    -0.00021     0.16337
 PX  C   2   0.01197     0.00517    -0.00664     0.00031     0.00000    -0.01318
 PY  C   2   0.03892     0.02189    -0.04214     0.05007    -0.00004     0.02668
 PZ  C   2   0.00002     0.00001    -0.00002     0.00002    -0.00000     0.00001
  
  S  C   3   0.21287     0.11725    -0.22123     0.25502    -0.00021     0.12838
 PX  C   3   0.04058     0.01856    -0.02729     0.01492    -0.00000    -0.01797
 PY  C   3  -0.01363    -0.01034     0.02523    -0.04113     0.00004    -0.03881
 PZ  C   3   0.00008     0.00004    -0.00007     0.00006    -0.00000     0.00001
  
  S  C   4   0.26046     0.12904    -0.21602     0.19503    -0.00013     0.02701
 PX  C   4  -0.00812    -0.01053     0.03080    -0.05538     0.00005    -0.04976
 PY  C   4   0.04555     0.01833    -0.02199     0.00140     0.00001    -0.02864
 PZ  C   4  -0.00004    -0.00003     0.00007    -0.00009     0.00000    -0.00006
  
  S  C   5   0.29340     0.12443    -0.16902     0.07765    -0.00001    -0.08732
 PX  C   5   0.03659     0.00654     0.00990    -0.04622     0.00005    -0.04906
 PY  C   5  -0.03228    -0.02016     0.04065    -0.04766     0.00004    -0.01570
 PZ  C   5   0.00020     0.00006    -0.00005    -0.00003     0.00000    -0.00010
  
  S  C   6   0.30975     0.10404    -0.08927    -0.06280     0.00011    -0.15867
 PX  C   6  -0.02543    -0.02038     0.04415    -0.04856     0.00003     0.00135
 PY  C   6   0.04321     0.00646     0.01271    -0.04623     0.00005    -0.03193
 PZ  C   6  -0.00015    -0.00010     0.00015    -0.00004     0.00000     0.00011
  
  S  C   7   0.30878     0.07013     0.00799    -0.18442     0.00020    -0.15123
 PX  C   7   0.02453    -0.00868     0.03977    -0.05678     0.00004     0.00470
 PY  C   7  -0.04354    -0.02018     0.02610    -0.00167    -0.00001     0.03503
 PZ  C   7   0.00038    -0.00006     0.00026    -0.00021     0.00000     0.00004
  
  S  C   8   0.29000     0.02847     0.10286    -0.25218     0.00022    -0.07029
 PX  C   8  -0.03735    -0.01960     0.02453     0.01099    -0.00003     0.04937
 PY  C   8   0.03146    -0.00876     0.03823    -0.04296     0.00002     0.02046
 PZ  C   8  -0.00020    -0.00040     0.00048     0.00060     0.00000     0.00070
  
  S  C   9   0.25570    -0.01945     0.18005    -0.24312     0.00015     0.04817
 PX  C   9   0.00602    -0.01816     0.03947    -0.00532    -0.00003     0.04908
 PY  C   9  -0.04434    -0.01255    -0.00591     0.04791    -0.00005     0.02770
 PZ  C   9   0.00191    -0.00179     0.00332     0.00056     0.00001     0.00268
  
  S  C  10   0.19721    -0.04780     0.20553    -0.17126     0.00005     0.12575
 PX  C  10  -0.04680    -0.00031    -0.02406     0.05335    -0.00004     0.00148
 PY  C  10   0.01074    -0.01745     0.03393     0.00774    -0.00004     0.03636
 PZ  C  10   0.00159    -0.00289     0.00548     0.00379     0.00002     0.00429
  
  S  C  11   0.12392    -0.07482     0.19528    -0.03320    -0.00021     0.14181
 PX  C  11  -0.03206     0.01254    -0.02588     0.03122    -0.00003    -0.02272
 PY  C  11  -0.03354    -0.00866    -0.01943     0.06303    -0.00014    -0.01600
 PZ  C  11   0.01029    -0.01610     0.03058     0.01999     0.00004     0.01950
  
  S  C  12   0.06559    -0.09794     0.16823     0.09930    -0.00005     0.10772
 PX  C  12  -0.01706     0.00611     0.00796     0.03818     0.00010    -0.01246
 PY  C  12  -0.03050    -0.02400    -0.00956     0.08530    -0.00018    -0.01767
 PZ  C  12  -0.02305     0.01961    -0.03573     0.00280     0.00024    -0.02957
  
  S  N  13  -0.02506    -0.11331     0.09188     0.24979    -0.00088     0.01213
 PX  N  13  -0.02589     0.04608    -0.00140     0.01157     0.00009    -0.04203
 PY  N  13  -0.01702     0.00139    -0.05374    -0.01488    -0.00039    -0.03010
 PZ  N  13   0.00114     0.02382    -0.00609    -0.02941     0.00056    -0.00461
  
  S  C  14  -0.11400     0.14487    -0.01276     0.06688     0.00002    -0.13386
 PX  C  14  -0.04062     0.13661    -0.06183    -0.12273     0.00095    -0.05963
 PY  C  14  -0.00875     0.00674    -0.02427    -0.01136    -0.00127    -0.01482
 PZ  C  14   0.00276    -0.00261     0.00875     0.00786     0.00288     0.00334
  
  S  C  15  -0.11012     0.19060    -0.06291    -0.04260    -0.00845    -0.13061
 PX  C  15  -0.02472     0.08137    -0.03048    -0.06790    -0.00430    -0.02041
 PY  C  15   0.00706    -0.01606    -0.00474    -0.00161    -0.00171     0.00721
 PZ  C  15  -0.03817     0.06374    -0.01611    -0.00496     0.00159    -0.04507
  
  S  C  16  -0.10475     0.23188    -0.08527    -0.12742    -0.02340    -0.05247
 PX  C  16   0.02161    -0.03151     0.00819    -0.00681    -0.00816     0.07709
 PY  C  16   0.01121    -0.02565     0.00708     0.01237    -0.00645     0.00676
 PZ  C  16  -0.03959     0.08809    -0.03055    -0.04649     0.00141    -0.01881
  
  S  C  17  -0.09926     0.24582    -0.09420    -0.17243     0.00072     0.08095
 PX  C  17   0.04988    -0.09244     0.02606     0.01698     0.00252     0.15119
 PY  C  17   0.00253    -0.00525     0.00057     0.00070    -0.02090     0.00792
 PZ  C  17  -0.00410     0.00830    -0.00133    -0.00116     0.02072    -0.01238
  
  S  C  18  -0.10421     0.23593    -0.07949    -0.12620     0.02482    -0.05105
 PX  C  18   0.02862    -0.05060     0.01080     0.00201     0.00864     0.07885
 PY  C  18  -0.00933     0.02103    -0.00884    -0.01323    -0.00537     0.00020
 PZ  C  18   0.03524    -0.08066     0.02913     0.04700    -0.00050     0.00562
  
  S  C  19  -0.10805     0.20393    -0.04610    -0.04156     0.00935    -0.12717
 PX  C  19  -0.01786     0.06095    -0.03339    -0.06433     0.00529    -0.01237
 PY  C  19  -0.01391     0.02448    -0.01203    -0.00884    -0.00105    -0.01693
 PZ  C  19   0.04059    -0.07507     0.01938     0.01635     0.00049     0.04609
  
  S  N  20   0.01987     0.00437    -0.01664    -0.07757    -0.00027     0.31142
 PX  N  20   0.04059    -0.09373     0.03500     0.06233     0.00584    -0.00495
 PY  N  20   0.00216    -0.00522     0.00156     0.00321    -0.06381    -0.00054
 PZ  N  20  -0.00337     0.00791    -0.00270    -0.00505     0.03225     0.00046
  
  S  C  21   0.04015    -0.07753     0.02417     0.03414    -0.22623     0.01130
 PX  C  21   0.01654    -0.04882     0.02189     0.05183    -0.04383    -0.10376
 PY  C  21  -0.01623     0.02101    -0.00301     0.01225    -0.09100    -0.13699
 PZ  C  21   0.00730    -0.00857     0.00076    -0.00763     0.04399     0.06959
  
  S  C  22   0.00645    -0.02014     0.00852     0.02556    -0.25669    -0.12526
 PX  C  22   0.00701    -0.02338     0.01101     0.02813    -0.09293    -0.08127
 PY  C  22  -0.00561     0.00742    -0.00106     0.00244     0.02948    -0.02622
 PZ  C  22   0.00264    -0.00315     0.00029    -0.00205    -0.00654     0.01741
  
  S  C  23  -0.00708    -0.00288     0.00583     0.02754    -0.18747    -0.15206
 PX  C  23  -0.00668     0.00917    -0.00202    -0.00165     0.02032    -0.00149
 PY  C  23  -0.00753     0.02046    -0.00877    -0.02261     0.10833     0.07537
 PZ  C  23   0.00404    -0.01032     0.00428     0.01072    -0.05122    -0.03465
  
  S  C  24  -0.02206     0.02315    -0.00226     0.01198    -0.07937    -0.10292
 PX  C  24  -0.01024     0.02407    -0.00962    -0.02354     0.11328     0.07874
 PY  C  24  -0.01449     0.03364    -0.01340    -0.03155     0.11229     0.08880
 PZ  C  24   0.00745    -0.01735     0.00692     0.01637    -0.06019    -0.04696
  
  S  C  25   0.00662    -0.03559     0.01902     0.05452    -0.15316    -0.17319
 PX  C  25  -0.01045     0.02798    -0.01182    -0.02853     0.10831     0.07828
 PY  C  25  -0.01272     0.02467    -0.00843    -0.01477     0.00581     0.00904
 PZ  C  25   0.00663    -0.01336     0.00471     0.00877    -0.00969    -0.00933
  
  S  C  26   0.04966    -0.11862     0.04610     0.09425    -0.16475    -0.13873
 PX  C  26  -0.01540     0.02634    -0.00699    -0.00390     0.03625    -0.05361
 PY  C  26  -0.01178     0.01878    -0.00478    -0.00014    -0.11761    -0.06888
 PZ  C  26   0.00662    -0.01080     0.00283     0.00064     0.05264     0.03510
  
  S  C  27   0.04980    -0.11875     0.04672     0.09526     0.16397    -0.13860
 PX  C  27  -0.01750     0.02963    -0.00798    -0.00404    -0.01353    -0.06601
 PY  C  27   0.00987    -0.01560     0.00352    -0.00102    -0.12073     0.06219
 PZ  C  27  -0.00380     0.00604    -0.00135     0.00039     0.05704    -0.02503
  
  S  C  28   0.04043    -0.07753     0.02551     0.03560     0.22563     0.01193
 PX  C  28   0.01321    -0.04427     0.02091     0.05370     0.06008    -0.12842
 PY  C  28   0.01778    -0.02610     0.00496    -0.00698    -0.08583     0.12408
 PZ  C  28  -0.00976     0.01639    -0.00413    -0.00095     0.03558    -0.05007
  
  S  C  29   0.00678    -0.02014     0.01011     0.02727     0.25708    -0.12471
 PX  C  29   0.00583    -0.02174     0.01066     0.02865     0.08683    -0.08554
 PY  C  29   0.00637    -0.00987     0.00257     0.00095     0.03926     0.01720
 PZ  C  29  -0.00374     0.00695    -0.00220    -0.00281    -0.02164    -0.00344
  
  S  C  30  -0.00689    -0.00311     0.00655     0.02873     0.18809    -0.15206
 PX  C  30  -0.00808     0.01284    -0.00400    -0.00614    -0.04018     0.01235
 PY  C  30   0.00680    -0.01929     0.00891     0.02285     0.10503    -0.07465
 PZ  C  30  -0.00284     0.00850    -0.00399    -0.01037    -0.04618     0.03370
  
  S  C  31  -0.02197     0.02278    -0.00226     0.01247     0.07999    -0.10318
 PX  C  31  -0.01296     0.03016    -0.01264    -0.03007    -0.13337     0.09457
 PY  C  31   0.01327    -0.03064     0.01262     0.02923     0.09858    -0.07912
 PZ  C  31  -0.00553     0.01279    -0.00526    -0.01217    -0.03942     0.03233
  
  S  C  32   0.00676    -0.03586     0.01942     0.05546     0.15329    -0.17327
 PX  C  32  -0.01282     0.03240    -0.01372    -0.03170    -0.10833     0.07916
 PY  C  32   0.01143    -0.02126     0.00709     0.01145    -0.00641    -0.00028
 PZ  C  32  -0.00467     0.00826    -0.00260    -0.00371     0.00866    -0.00395
  
  S  C  33  -0.05170     0.09463    -0.03312    -0.06350    -0.22488     0.14236
 PX  C  33  -0.00048     0.00369    -0.00231    -0.00776    -0.04012     0.03689
 PY  C  33   0.00153    -0.00532     0.00273     0.00800     0.02976    -0.03081
 PZ  C  33  -0.00069     0.00230    -0.00117    -0.00337    -0.01196     0.01263
  
  S  C  34  -0.03240     0.06072    -0.02181    -0.04374    -0.16915     0.11211
 PX  C  34   0.01119    -0.02021     0.00698     0.01303     0.04756    -0.02774
 PY  C  34   0.00549    -0.01131     0.00439     0.00981     0.03500    -0.02863
 PZ  C  34  -0.00289     0.00586    -0.00225    -0.00494    -0.01758     0.01403
  
  S  C  35  -0.03334     0.06291    -0.02267    -0.04556    -0.16156     0.11188
 PX  C  35  -0.00050     0.00183    -0.00098    -0.00303    -0.01576     0.01402
 PY  C  35  -0.00194     0.00302    -0.00087    -0.00106    -0.00320    -0.00066
 PZ  C  35   0.01291    -0.02395     0.00848     0.01654     0.05822    -0.03794
  
  S  C  36  -0.03330     0.06281    -0.02263    -0.04547    -0.16153     0.11174
 PX  C  36  -0.00126     0.00325    -0.00149    -0.00403    -0.01919     0.01630
 PY  C  36  -0.01094     0.01988    -0.00690    -0.01299    -0.04529     0.02754
 PZ  C  36  -0.00703     0.01342    -0.00488    -0.00993    -0.03500     0.02465
  
  S  C  37  -0.05158     0.09492    -0.03186    -0.06212     0.22530     0.14275
 PX  C  37  -0.00016     0.00262    -0.00166    -0.00595     0.03394     0.03063
 PY  C  37  -0.00154     0.00563    -0.00285    -0.00856     0.03377     0.03449
 PZ  C  37   0.00073    -0.00282     0.00145     0.00442    -0.01815    -0.01829
  
  S  C  38  -0.03325     0.06306    -0.02181    -0.04456     0.16176     0.11207
 PX  C  38  -0.00284     0.00612    -0.00236    -0.00569     0.02550     0.02001
 PY  C  38   0.00176    -0.00262     0.00066     0.00058    -0.00100     0.00249
 PZ  C  38  -0.01260     0.02334    -0.00788    -0.01545     0.05484     0.03516
  
  S  C  39  -0.03230     0.06089    -0.02093    -0.04270     0.16933     0.11234
 PX  C  39   0.01202    -0.02209     0.00739     0.01434    -0.05345    -0.03274
 PY  C  39  -0.00419     0.00898    -0.00345    -0.00811     0.02944     0.02531
 PZ  C  39   0.00092    -0.00229     0.00097     0.00254    -0.00904    -0.00892
  
  S  C  40  -0.03320     0.06295    -0.02177    -0.04446     0.16170     0.11191
 PX  C  40  -0.00124     0.00311    -0.00132    -0.00360     0.01787     0.01486
 PY  C  40   0.01077    -0.01958     0.00648     0.01229    -0.04332    -0.02589
 PZ  C  40   0.00723    -0.01400     0.00493     0.01036    -0.03820    -0.02735
  
  S  C  41  -0.00964    -0.15396    -0.11171     0.03495    -0.00014     0.00751
 PX  C  41  -0.01849     0.01856     0.04621     0.07717    -0.00097    -0.02126
 PY  C  41  -0.00580     0.00678    -0.09597    -0.09747     0.00060    -0.02423
 PZ  C  41  -0.00411     0.00119     0.03480     0.04837    -0.00028    -0.00002
  
  S  C  42  -0.01745    -0.09259    -0.17351    -0.06932     0.00019    -0.02912
 PX  C  42  -0.00725     0.04042     0.06972     0.05606    -0.00090    -0.00709
 PY  C  42   0.00769     0.02192    -0.00050    -0.03746     0.00042     0.00332
 PZ  C  42  -0.00222     0.00843     0.02740     0.02817    -0.00022    -0.00033
  
  S  C  43   0.00032    -0.05977    -0.17987    -0.13827     0.00134    -0.01650
 PX  C  43  -0.00503    -0.00033     0.02329     0.03207    -0.00054    -0.00305
 PY  C  43   0.00182     0.04198     0.07432     0.04319    -0.00038     0.00391
 PZ  C  43  -0.00195    -0.00899    -0.00593     0.00348    -0.00009    -0.00142
  
  S  C  44   0.01114    -0.01232    -0.15013    -0.15311     0.00186    -0.00760
 PX  C  44  -0.00304    -0.04408    -0.05941    -0.03011     0.00023    -0.00326
 PY  C  44   0.00051     0.05363     0.07081     0.04084    -0.00043    -0.00249
 PZ  C  44  -0.00099    -0.02584    -0.03598    -0.01989     0.00019    -0.00067
  
  S  C  45   0.01216    -0.06390    -0.16101    -0.14007     0.00172     0.00722
 PX  C  45   0.00133    -0.04292    -0.07251    -0.04744     0.00052     0.00098
 PY  C  45  -0.00072     0.01960    -0.01321    -0.02211     0.00027    -0.00821
 PZ  C  45   0.00064    -0.01919    -0.02424    -0.01322     0.00015     0.00195
  
  S  C  46   0.01737    -0.12697    -0.13154    -0.07434     0.00107     0.03197
 PX  C  46  -0.00126    -0.03488    -0.01141     0.02091    -0.00017     0.00511
 PY  C  46  -0.00589    -0.02036    -0.08821    -0.06451     0.00066    -0.01298
 PZ  C  46   0.00011    -0.00957     0.01153     0.02118    -0.00015     0.00419
  
  S  C  47   0.01887     0.18512     0.11137     0.00276     0.00026    -0.00503
 PX  C  47  -0.00397    -0.06616    -0.07763    -0.04342     0.00043    -0.00142
 PY  C  47   0.00225     0.06000     0.08111     0.05307    -0.00059     0.00099
 PZ  C  47  -0.00084    -0.02559    -0.03711    -0.02544     0.00029    -0.00081
  
  S  C  48   0.01806     0.21323     0.17702     0.05879    -0.00040    -0.00185
 PX  C  48   0.00466     0.04658     0.02920     0.00149     0.00006    -0.00117
 PY  C  48   0.00356     0.06003     0.06632     0.03688    -0.00039     0.00033
 PZ  C  48  -0.00378    -0.05352    -0.05279    -0.02506     0.00024    -0.00005
  
  S  C  49   0.01737     0.23521     0.22575     0.10413    -0.00098     0.00095
 PX  C  49   0.00684     0.09061     0.08447     0.03675    -0.00033    -0.00006
 PY  C  49  -0.00180    -0.01824    -0.01144     0.00077    -0.00006     0.00113
 PZ  C  49  -0.00047    -0.00983    -0.01293    -0.00951     0.00012    -0.00079
  
  S  C  50   0.01713     0.24121     0.24123     0.12244    -0.00126     0.00401
 PX  C  50  -0.00071    -0.01145    -0.01298    -0.00749     0.00008    -0.00025
 PY  C  50  -0.00405    -0.04865    -0.03914    -0.00980     0.00002     0.00214
 PZ  C  50   0.00300     0.03688     0.03071     0.00893    -0.00004    -0.00141
  
  S  S  51   0.01318     0.16578     0.14424     0.05688    -0.00050    -0.00061
 PX  S  51  -0.00744    -0.10113    -0.09767    -0.04528     0.00043    -0.00053
 PY  S  51  -0.00162    -0.00862     0.00636     0.01487    -0.00022     0.00217
 PZ  S  51   0.00306     0.03213     0.02005     0.00066     0.00005    -0.00153
  
  S  C  52   0.00830     0.13003     0.14556     0.09135    -0.00109     0.00836
 PX  C  52   0.00097     0.01632     0.01956     0.01377    -0.00018     0.00152
 PY  C  52  -0.00244    -0.03353    -0.03219    -0.01417     0.00012     0.00081
 PZ  C  52   0.00152     0.02049     0.01909     0.00763    -0.00006    -0.00078
  
  S  C  53   0.00405     0.06985     0.08517     0.06114    -0.00078     0.00748
 PX  C  53  -0.00047    -0.00780    -0.00930    -0.00662     0.00009    -0.00169
 PY  C  53  -0.00187    -0.02874    -0.03171    -0.01951     0.00023    -0.00155
 PZ  C  53   0.00134     0.02063     0.02286     0.01420    -0.00017     0.00130
  
  S  C  54  -0.00130    -0.01418    -0.01018    -0.00098    -0.00003     0.00217
 PX  C  54  -0.00041    -0.00810    -0.01157    -0.01139     0.00018    -0.00550
 PY  C  54  -0.00179    -0.02895    -0.03416    -0.02405     0.00031    -0.00315
 PZ  C  54   0.00127     0.02072     0.02475     0.01790    -0.00024     0.00294
  
  S  O  55  -0.00128    -0.01408    -0.00945     0.00177    -0.00009     0.00671
 PX  O  55  -0.00071    -0.00907    -0.00824    -0.00309     0.00002     0.00135
 PY  O  55  -0.00021    -0.00455    -0.00654    -0.00595     0.00009    -0.00178
 PZ  O  55   0.00025     0.00443     0.00565     0.00448    -0.00006     0.00100
  
  S  O  56  -0.00400    -0.06137    -0.07020    -0.04928     0.00065    -0.01012
 PX  O  56   0.00112     0.01687     0.01885     0.01256    -0.00016     0.00189
 PY  O  56  -0.00014    -0.00290    -0.00409    -0.00352     0.00005    -0.00050
 PZ  O  56  -0.00007    -0.00057    -0.00007     0.00049    -0.00001     0.00006
  
  S  C  57   0.00282     0.04916     0.06085     0.04501    -0.00059     0.00496
 PX  C  57  -0.00081    -0.01284    -0.01435    -0.00852     0.00009    -0.00055
 PY  C  57  -0.00053    -0.00816    -0.00909    -0.00579     0.00007    -0.00070
 PZ  C  57   0.00048     0.00741     0.00824     0.00514    -0.00006     0.00055
  
  S  N  58   0.00140     0.02549     0.03291     0.02622    -0.00036     0.00330
 PX  N  58  -0.00077    -0.01382    -0.01759    -0.01362     0.00018    -0.00160
 PY  N  58   0.00001     0.00029     0.00059     0.00072    -0.00001     0.00008
 PZ  N  58   0.00011     0.00190     0.00225     0.00155    -0.00002     0.00018
  
  S  H  59   0.00308     0.04837     0.05437     0.03435    -0.00041     0.00342
  
  S  H  60   0.03718     0.02285    -0.04819     0.06707    -0.00006     0.05361
  
  S  H  61   0.02978     0.01860    -0.03984     0.05678    -0.00005     0.04757
  
  S  H  62   0.03718     0.02285    -0.04820     0.06708    -0.00006     0.05361
  
  S  H  63   0.06369     0.03739    -0.07538     0.09754    -0.00009     0.06648
  
  S  H  64   0.06366     0.03738    -0.07535     0.09751    -0.00009     0.06647
  
  S  H  65   0.08982     0.04924    -0.09252     0.10599    -0.00009     0.05279
  
  S  H  66   0.08983     0.04925    -0.09254     0.10602    -0.00009     0.05281
  
  S  H  67   0.10992     0.05419    -0.09029     0.08094    -0.00006     0.01101
  
  S  H  68   0.10989     0.05418    -0.09028     0.08094    -0.00006     0.01102
  
  S  H  69   0.12383     0.05226    -0.07068     0.03226    -0.00000    -0.03582
  
  S  H  70   0.12387     0.05227    -0.07069     0.03229    -0.00000    -0.03579
  
  S  H  71   0.13078     0.04373    -0.03733    -0.02612     0.00005    -0.06514
  
  S  H  72   0.13073     0.04375    -0.03738    -0.02611     0.00005    -0.06517
  
  S  H  73   0.13033     0.02940     0.00334    -0.07661     0.00008    -0.06201
  
  S  H  74   0.13046     0.02928     0.00351    -0.07646     0.00008    -0.06182
  
  S  H  75   0.12238     0.01210     0.04307    -0.10483     0.00009    -0.02890
  
  S  H  76   0.12216     0.01250     0.04237    -0.10513     0.00009    -0.02956
  
  S  H  77   0.10775    -0.00879     0.07458    -0.10090     0.00006     0.01990
  
  S  H  78   0.11021    -0.01172     0.07897    -0.09901     0.00007     0.02344
  
  S  H  79   0.08304    -0.01927     0.08655    -0.07110     0.00004     0.05150
  
  S  H  80   0.08118    -0.01594     0.07992    -0.07523     0.00002     0.04616
  
  S  H  81   0.03785    -0.02166     0.07319    -0.00314    -0.00015     0.04863
  
  S  H  82   0.05343    -0.03669     0.07872    -0.01441    -0.00016     0.05995
  
  S  H  83   0.04077    -0.04811     0.07033     0.02127    -0.00001     0.05380
  
  S  H  84   0.02430    -0.02715     0.06903     0.03349     0.00031     0.03818
  
  S  H  85  -0.02959     0.03796    -0.01749     0.00074    -0.00366    -0.03739
  
  S  H  86  -0.02674     0.06231    -0.02476    -0.04035    -0.01848    -0.00013
  
  S  H  87  -0.02654     0.06395    -0.02239    -0.03975     0.01883     0.00052
  
  S  H  88  -0.02827     0.04848    -0.00386     0.00285     0.00377    -0.03513
  
  S  H  89  -0.00316     0.00757    -0.00341    -0.00435    -0.07550    -0.02364
  
  S  H  90  -0.00742     0.01004    -0.00222     0.00010    -0.03077    -0.02928
  
  S  H  91  -0.00082    -0.00591     0.00430     0.01402    -0.01671    -0.04548
  
  S  H  92  -0.00296     0.00773    -0.00246    -0.00375     0.07573    -0.02322
  
  S  H  93  -0.00738     0.00996    -0.00211     0.00031     0.03105    -0.02933
  
  S  H  94  -0.00080    -0.00600     0.00428     0.01412     0.01674    -0.04555
  
  S  H  95  -0.01262     0.02317    -0.00817    -0.01596    -0.06368     0.03975
  
  S  H  96  -0.01262     0.02317    -0.00817    -0.01596    -0.06360     0.03973
  
  S  H  97  -0.01338     0.02578    -0.00951    -0.01985    -0.07675     0.05459
  
  S  H  98  -0.01345     0.02503    -0.00889    -0.01743    -0.05846     0.03976
  
  S  H  99  -0.01352     0.02613    -0.00965    -0.02013    -0.07377     0.05374
  
  S  H 100  -0.01298     0.02419    -0.00863    -0.01706    -0.06040     0.04083
  
  S  H 101  -0.01295     0.02414    -0.00860    -0.01701    -0.06044     0.04078
  
  S  H 102  -0.01350     0.02610    -0.00963    -0.02010    -0.07372     0.05367
  
  S  H 103  -0.01342     0.02497    -0.00886    -0.01738    -0.05843     0.03970
  
  S  H 104  -0.01294     0.02426    -0.00830    -0.01669     0.06048     0.04091
  
  S  H 105  -0.01342     0.02510    -0.00857    -0.01707     0.05855     0.03983
  
  S  H 106  -0.01347     0.02619    -0.00927    -0.01967     0.07381     0.05380
  
  S  H 107  -0.01258     0.02324    -0.00783    -0.01557     0.06368     0.03983
  
  S  H 108  -0.01334     0.02584    -0.00912    -0.01939     0.07680     0.05468
  
  S  H 109  -0.01258     0.02324    -0.00783    -0.01557     0.06376     0.03985
  
  S  H 110  -0.01345     0.02615    -0.00926    -0.01964     0.07376     0.05372
  
  S  H 111  -0.01339     0.02503    -0.00854    -0.01702     0.05852     0.03977
  
  S  H 112  -0.01292     0.02420    -0.00827    -0.01663     0.06049     0.04084
  
  S  H 113  -0.01523    -0.01598    -0.04855    -0.00682    -0.00055    -0.02200
  
  S  H 114   0.00017    -0.00746    -0.04597    -0.03980     0.00036    -0.00672
  
  S  H 115   0.00551    -0.00673    -0.03606    -0.04030     0.00053     0.00348
  
  S  H 116   0.01826    -0.04898    -0.01112    -0.01199     0.00024     0.02678
  
  S  H 117   0.00541     0.05658     0.04143     0.00868    -0.00001    -0.00061
  
  S  H 118   0.00485     0.06741     0.06668     0.03262    -0.00032     0.00066
  
  S  H 119  -0.00178    -0.02759    -0.03172    -0.02228     0.00029    -0.00418




    ROOT NO.   13          14          15          16          17          18

           -39.65522   -39.33763   -39.05975   -36.81627   -36.37175   -36.16202
  
  
  S  C   1   0.05558    -0.19703     0.07043     0.26841    -0.01887     0.10683
 PX  C   1   0.01667    -0.05754     0.02006     0.05827    -0.00380     0.02069
 PY  C   1   0.00335    -0.01100     0.00365     0.00438    -0.00016     0.00054
 PZ  C   1   0.00000    -0.00000     0.00000    -0.00000     0.00000    -0.00000
  
  S  C   2   0.07049    -0.24145     0.08365     0.23441    -0.01527     0.08319
 PX  C   2  -0.00668     0.02784    -0.01124    -0.08056     0.00615    -0.03609
 PY  C   2   0.01092    -0.03442     0.01096     0.00090     0.00049    -0.00425
 PZ  C   2   0.00000    -0.00001     0.00000    -0.00002     0.00000    -0.00001
  
  S  C   3   0.05213    -0.16263     0.05136     0.01092     0.00143    -0.01370
 PX  C   3  -0.00960     0.04174    -0.01718    -0.11416     0.00838    -0.04817
 PY  C   3  -0.01737     0.06242    -0.02249    -0.08010     0.00539    -0.02976
 PZ  C   3   0.00000     0.00000    -0.00000    -0.00009     0.00001    -0.00004
  
  S  C   4   0.00515     0.01285    -0.01355    -0.23061     0.01737    -0.10060
 PX  C   4  -0.02174     0.07506    -0.02594    -0.04338     0.00198    -0.00817
 PY  C   4  -0.01389     0.05435    -0.02069    -0.07944     0.00510    -0.02734
 PZ  C   4  -0.00002     0.00008    -0.00002     0.00001    -0.00000     0.00002
  
  S  C   5  -0.04436     0.18044    -0.07008    -0.26367     0.01653    -0.08761
 PX  C   5  -0.02103     0.06964    -0.02285     0.01454    -0.00261     0.01891
 PY  C   5  -0.00526     0.01026    -0.00103     0.06725    -0.00544     0.03227
 PZ  C   5  -0.00005     0.00018    -0.00007    -0.00011     0.00000    -0.00000
  
  S  C   6  -0.07068     0.24625    -0.08453    -0.05990    -0.00003     0.01163
 PX  C   6   0.00346    -0.02581     0.01324     0.11833    -0.00814     0.04538
 PY  C   6  -0.01234     0.03373    -0.00863     0.06863    -0.00572     0.03396
 PZ  C   6   0.00005    -0.00017     0.00006     0.00016    -0.00002     0.00008
  
  S  C   7  -0.05994     0.17290    -0.04819     0.19709    -0.01685     0.09959
 PX  C   7   0.00576    -0.03735     0.01807     0.10213    -0.00590     0.02942
 PY  C   7   0.01652    -0.06207     0.02261     0.02713    -0.00069    -0.00126
 PZ  C   7   0.00001    -0.00000    -0.00001     0.00004    -0.00004     0.00016
  
  S  C   8  -0.01792     0.00194     0.01718     0.27918    -0.01658     0.08880
 PX  C   8   0.02229    -0.07655     0.02540    -0.04851     0.00613    -0.03648
 PY  C   8   0.01176    -0.05244     0.02105     0.02494    -0.00013    -0.00542
 PZ  C   8   0.00023    -0.00035    -0.00002    -0.00163     0.00002    -0.00017
  
  S  C   9   0.03381    -0.16988     0.07176     0.10484    -0.00205    -0.00874
 PX  C   9   0.02207    -0.07181     0.02200    -0.09345     0.00927    -0.04829
 PY  C   9   0.00845    -0.01372    -0.00029    -0.09423     0.00399    -0.02997
 PZ  C   9   0.00086    -0.00155     0.00005    -0.00496    -0.00016    -0.00007
  
  S  C  10   0.06527    -0.24347     0.08431    -0.13619     0.02185    -0.10086
 PX  C  10  -0.00160     0.02367    -0.01364    -0.06113     0.00596    -0.01107
 PY  C  10   0.01442    -0.03634     0.00738    -0.08958     0.00589    -0.02851
 PZ  C  10   0.00149    -0.00098    -0.00106    -0.01010     0.00078     0.00025
  
  S  C  11   0.06174    -0.16892     0.04044    -0.25469     0.02433    -0.08822
 PX  C  11  -0.00762     0.03665    -0.01540     0.01875     0.00700     0.01163
 PY  C  11  -0.01331     0.06822    -0.02870     0.02354    -0.00917     0.03856
 PZ  C  11   0.00667    -0.00239    -0.00580    -0.03519     0.00320     0.00335
  
  S  C  12   0.03337    -0.01789    -0.02428    -0.17032     0.00494     0.01348
 PX  C  12   0.00078     0.02504    -0.01735     0.01075     0.02104     0.00893
 PY  C  12  -0.01874     0.09473    -0.03889     0.06480    -0.01867     0.06241
 PZ  C  12  -0.01015     0.02886    -0.00766     0.05009     0.00172     0.01623
  
  S  N  13  -0.02098     0.18997    -0.09448     0.08874    -0.02277     0.12063
 PX  N  13   0.00623     0.00133    -0.00929     0.04003     0.05686    -0.01872
 PY  N  13  -0.02035     0.02595     0.00730     0.08642    -0.02707     0.00298
 PZ  N  13   0.00663    -0.02642     0.00838    -0.01756     0.01740    -0.01438
  
  S  C  14   0.00880     0.02048    -0.02493     0.10313     0.11125    -0.04477
 PX  C  14   0.01623    -0.10971     0.04945    -0.03251     0.04023    -0.08479
 PY  C  14  -0.00772     0.00586     0.00534     0.03525    -0.01120    -0.00257
 PZ  C  14   0.00278     0.00323    -0.00573    -0.01008     0.01247     0.00648
  
  S  C  15   0.01056    -0.05480     0.02128     0.06496     0.07075    -0.08263
 PX  C  15   0.00942    -0.05755     0.02507    -0.03448     0.00044    -0.02599
 PY  C  15  -0.00440     0.00696     0.00089     0.00666    -0.01435     0.00765
 PZ  C  15   0.00439    -0.01182     0.00170     0.02318     0.03391    -0.02318
  
  S  C  16   0.01076    -0.08216     0.03879    -0.02609    -0.02496    -0.01900
 PX  C  16  -0.00779     0.03043    -0.00964    -0.03673    -0.06900     0.07057
 PY  C  16  -0.00225     0.01016    -0.00364     0.00379    -0.00691     0.00885
 PZ  C  16   0.00472    -0.02971     0.01283    -0.01172     0.00021    -0.00935
  
  S  C  17  -0.00150    -0.03830     0.02565    -0.08815    -0.12469     0.08751
 PX  C  17  -0.02025     0.08768    -0.03086    -0.02225    -0.08906     0.10324
 PY  C  17  -0.00156     0.00541    -0.00149     0.00157    -0.00689     0.00560
 PZ  C  17   0.00240    -0.00799     0.00201    -0.00322     0.01237    -0.00794
  
  S  C  18   0.01499    -0.08662     0.03595    -0.04998    -0.00292    -0.01663
 PX  C  18  -0.01079     0.03820    -0.01073    -0.02501    -0.07613     0.07121
 PY  C  18   0.00004    -0.00467     0.00286    -0.00140    -0.00336    -0.00077
 PZ  C  18  -0.00288     0.02392    -0.01152     0.01515     0.01424    -0.00191
  
  S  C  19   0.02163    -0.06808     0.01558     0.02012     0.10946    -0.08095
 PX  C  19   0.00436    -0.04789     0.02512    -0.02880    -0.01281    -0.01897
 PY  C  19   0.00010    -0.00585     0.00338     0.01238     0.00732    -0.00922
 PZ  C  19  -0.00639     0.02284    -0.00637    -0.01443    -0.03238     0.02860
  
  S  N  20  -0.03712     0.14049    -0.04490    -0.02406    -0.09021     0.10127
 PX  N  20  -0.00323     0.03455    -0.01841     0.07550     0.13441    -0.11360
 PY  N  20  -0.00025     0.00197    -0.00092     0.00560     0.00626    -0.00645
 PZ  N  20   0.00038    -0.00300     0.00143    -0.00768    -0.00992     0.00970
  
  S  C  21  -0.00281     0.01949    -0.00868     0.00533    -0.01228     0.02143
 PX  C  21   0.01114    -0.03323     0.00767     0.04041     0.09966    -0.09723
 PY  C  21   0.01829    -0.08046     0.02975    -0.05314    -0.09441     0.08278
 PZ  C  21  -0.00917     0.03980    -0.01456     0.02269     0.03883    -0.03291
  
  S  C  22   0.01654    -0.07266     0.02737    -0.08143    -0.17947     0.17361
 PX  C  22   0.00988    -0.03694     0.01192    -0.01227    -0.01980     0.01934
 PY  C  22   0.00342    -0.01437     0.00507    -0.00701    -0.01121     0.01071
 PZ  C  22  -0.00226     0.00956    -0.00341     0.00470     0.00783    -0.00706
  
  S  C  23   0.01997    -0.08563     0.03138    -0.07960    -0.16723     0.16246
 PX  C  23   0.00021    -0.00042    -0.00008     0.00596     0.01783    -0.01824
 PY  C  23  -0.00936     0.03705    -0.01266     0.01665     0.02821    -0.02464
 PZ  C  23   0.00430    -0.01695     0.00578    -0.00793    -0.01390     0.01237
  
  S  C  24   0.01362    -0.05795     0.02088    -0.03481    -0.05615     0.04859
 PX  C  24  -0.00989     0.03997    -0.01399     0.03081     0.06625    -0.06567
 PY  C  24  -0.01068     0.03999    -0.01286    -0.00054    -0.01808     0.02394
 PZ  C  24   0.00568    -0.02146     0.00698    -0.00192     0.00378    -0.00654
  
  S  C  25   0.02083    -0.07754     0.02455     0.01814     0.08174    -0.09545
 PX  C  25  -0.00939     0.03493    -0.01122     0.00770     0.01039    -0.00918
 PY  C  25  -0.00031    -0.00335     0.00263    -0.02644    -0.05935     0.05866
 PZ  C  25   0.00076    -0.00071    -0.00050     0.01184     0.02703    -0.02677
  
  S  C  26   0.01372    -0.03344     0.00474     0.08349     0.19752    -0.19546
 PX  C  26   0.00742    -0.03406     0.01277    -0.00596     0.01169    -0.02296
 PY  C  26   0.00983    -0.04555     0.01757    -0.04447    -0.08281     0.07534
 PZ  C  26  -0.00501     0.02333    -0.00901     0.02142     0.03871    -0.03443
  
  S  C  27   0.01313    -0.03275     0.00493     0.08539     0.19631    -0.19585
 PX  C  27   0.00915    -0.04222     0.01598    -0.01350    -0.00469    -0.00869
 PY  C  27  -0.00848     0.04082    -0.01614     0.04189     0.08421    -0.07681
 PZ  C  27   0.00343    -0.01669     0.00666    -0.01917    -0.03966     0.03697
  
  S  C  28  -0.00322     0.02003    -0.00872     0.00379    -0.01058     0.02158
 PX  C  28   0.01399    -0.04747     0.01343     0.03283     0.07872    -0.08116
 PY  C  28  -0.01665     0.07572    -0.02866     0.05684     0.10442    -0.09255
 PZ  C  28   0.00699    -0.03295     0.01278    -0.02913    -0.05345     0.04796
  
  S  C  29   0.01612    -0.07217     0.02735    -0.08334    -0.17760     0.17389
 PX  C  29   0.00993    -0.03880     0.01303    -0.01123    -0.02369     0.02102
 PY  C  29  -0.00231     0.01021    -0.00377     0.00479     0.00975    -0.00844
 PZ  C  29   0.00062    -0.00322     0.00131    -0.00257    -0.00430     0.00366
  
  S  C  30   0.01936    -0.08498     0.03161    -0.07829    -0.16829     0.16246
 PX  C  30  -0.00153     0.00644    -0.00236     0.00999     0.02194    -0.02275
 PY  C  30   0.00896    -0.03632     0.01261    -0.01503    -0.02640     0.02222
 PZ  C  30  -0.00403     0.01627    -0.00563     0.00621     0.01079    -0.00885
  
  S  C  31   0.01316    -0.05747     0.02112    -0.03218    -0.05834     0.04826
 PX  C  31  -0.01139     0.04664    -0.01641     0.02955     0.06297    -0.06060
 PY  C  31   0.00914    -0.03477     0.01130     0.00520     0.02432    -0.03119
 PZ  C  31  -0.00371     0.01397    -0.00448    -0.00381    -0.01423     0.01732
  
  S  C  32   0.02015    -0.07677     0.02484     0.02154     0.07926    -0.09613
 PX  C  32  -0.00898     0.03354    -0.01074     0.00161    -0.00009     0.00202
 PY  C  32  -0.00066     0.00710    -0.00388     0.02653     0.06033    -0.05902
 PZ  C  32   0.00077    -0.00504     0.00236    -0.01245    -0.02808     0.02737
  
  S  C  33  -0.01634     0.06233    -0.02056     0.01563     0.02460    -0.01907
 PX  C  33  -0.00467     0.02041    -0.00759     0.01921     0.04281    -0.04169
 PY  C  33   0.00375    -0.01538     0.00536    -0.00122     0.00470    -0.00936
 PZ  C  33  -0.00153     0.00621    -0.00214    -0.00032    -0.00415     0.00627
  
  S  C  34  -0.01324     0.05289    -0.01828     0.03290     0.07292    -0.07179
 PX  C  34   0.00317    -0.01202     0.00396    -0.00462    -0.00955     0.00923
 PY  C  34   0.00340    -0.01356     0.00464    -0.00294    -0.00244    -0.00008
 PZ  C  34  -0.00166     0.00660    -0.00225     0.00143     0.00126    -0.00008
  
  S  C  35  -0.01300     0.05036    -0.01681     0.00919     0.00727     0.00046
 PX  C  35  -0.00178     0.00781    -0.00291     0.00795     0.01796    -0.01767
 PY  C  35   0.00013    -0.00078     0.00034     0.00017     0.00167    -0.00256
 PZ  C  35   0.00436    -0.01664     0.00548    -0.00323    -0.00389     0.00212
  
  S  C  36  -0.01299     0.05034    -0.01681     0.00954     0.00820    -0.00058
 PX  C  36  -0.00204     0.00880    -0.00324     0.00805     0.01795    -0.01753
 PY  C  36  -0.00313     0.01171    -0.00380     0.00237     0.00368    -0.00297
 PZ  C  36  -0.00286     0.01107    -0.00368     0.00145     0.00006     0.00177
  
  S  C  37  -0.01694     0.06305    -0.02042     0.01678     0.02387    -0.01924
 PX  C  37  -0.00404     0.01742    -0.00643     0.01929     0.04260    -0.04290
 PY  C  37  -0.00436     0.01761    -0.00607     0.00416    -0.00062     0.00452
 PZ  C  37   0.00233    -0.00946     0.00329    -0.00331    -0.00272     0.00093
  
  S  C  38  -0.01346     0.05090    -0.01667     0.01056     0.00627     0.00022
 PX  C  38  -0.00254     0.01044    -0.00370     0.00862     0.01818    -0.01795
 PY  C  38  -0.00037     0.00178    -0.00069     0.00089     0.00020     0.00055
 PZ  C  38  -0.00415     0.01528    -0.00488     0.00215     0.00064     0.00083
  
  S  C  39  -0.01372     0.05346    -0.01815     0.03395     0.07204    -0.07178
 PX  C  39   0.00389    -0.01452     0.00473    -0.00528    -0.00972     0.00907
 PY  C  39  -0.00312     0.01223    -0.00412     0.00285     0.00103     0.00100
 PZ  C  39   0.00111    -0.00441     0.00150    -0.00080     0.00054    -0.00143
  
[...]
    Config     352   0.04593254  0.00210980
    Config     362   0.04397861  0.00193412
    Config     372  -0.04241491  0.00179902
    Config     386  -0.05639552  0.00318046
    Config     395   0.06166775  0.00380291
    Config     404   0.06170444  0.00380744
    Config     406  -0.05150837  0.00265311
    Config     410  -0.06886781  0.00474278
    Config     419   0.05388518  0.00290361
    Config     423   0.10178797  0.01036079
    Config     426   0.05765405  0.00332399
    Config     432  -0.07222114  0.00521589
    Config     442  -0.06113623  0.00373764
    Config     454  -0.10315045  0.01064002
    Config     456  -0.18512907  0.03427277
    Config     463  -0.04449608  0.00197990
    Config     464  -0.19759081  0.03904213
    Config     466  -0.06219490  0.00386821
    Config     470  -0.05413373  0.00293046
    Config     476   0.36301894  0.13178275
    Config     477  -0.16323455  0.02664552
    Config     486  -0.04195148  0.00175993
    Config     488   0.06492738  0.00421557
    Config     495   0.07521829  0.00565779
    Config     505  -0.08589193  0.00737742
    Config     508  -0.04546186  0.00206678
    Config     510  -0.04161201  0.00173156
    Config     511  -0.05541797  0.00307115
    Config     512  -0.05312936  0.00282273
    Config     526  -0.05111037  0.00261227
    Config     531   0.11247632  0.01265092
    Config     539   0.09663916  0.00933913
    Config     550  -0.04553214  0.00207318
    Config     557   0.07809495  0.00609882
    Config     565  -0.04432800  0.00196497
    Config     575   0.04887085  0.00238836
    Config     577   0.05357473  0.00287025
    Config     581   0.04081601  0.00166595
    Config     590  -0.06751310  0.00455802
    Config     605   0.07939578  0.00630369
    Config     607   0.04371140  0.00191069
    Config     611   0.04955504  0.00245570
    Config     613   0.04094259  0.00167630
    Config     615   0.10632558  0.01130513
    Config     625  -0.04476193  0.00200363
    Config     628   0.04735870  0.00224285
    Config     630   0.05059391  0.00255974
    Config     633   0.08210616  0.00674142
    Config     640  -0.12394038  0.01536122
    Config     642   0.05465606  0.00298728
    Config     643   0.04237849  0.00179594
    Config     653  -0.12835712  0.01647555
    Config     665   0.06347658  0.00402928
    Config     676  -0.07700199  0.00592931
    Config     682  -0.06168314  0.00380481
    Config     710   0.04653199  0.00216523
    Config     717   0.04525378  0.00204790
    Config     741  -0.05013381  0.00251340
    Config     750   0.04726505  0.00223399
    Config     815   0.06630244  0.00439601
    Config     830   0.04335729  0.00187985
    Config     889   0.05666927  0.00321141
    Config     916  -0.05861248  0.00343542
    Config     917  -0.05282657  0.00279065
    Config     924  -0.04904227  0.00240514
    Config     968  -0.09193007  0.00845114
    Config     999  -0.05114702  0.00261602
    Config    1006   0.06742143  0.00454565
    Config    1114  -0.04053850  0.00164337
    Config    1156   0.04534966  0.00205659
    Config    1307   0.04467496  0.00199585
    Config    1336   0.04571357  0.00208973
    Config    1515   0.06879735  0.00473308
    Config    1926   0.04096624  0.00167823
 Total coeff printed             0.77622202
  
State  498 10.2039     CI coeff  CI percent
    Config     122  -0.04062040  0.00165002
    Config     162  -0.06033827  0.00364071
    Config     164  -0.04438756  0.00197026
    Config     174  -0.04758195  0.00226404
    Config     175  -0.06923502  0.00479349
    Config     176  -0.04637467  0.00215061
    Config     193  -0.04796554  0.00230069
    Config     195  -0.07659552  0.00586687
    Config     215  -0.05247427  0.00275355
    Config     217   0.15336803  0.02352175
    Config     225  -0.05018102  0.00251813
    Config     232   0.08179380  0.00669023
    Config     235   0.05585501  0.00311978
    Config     238   0.04129230  0.00170505
    Config     242   0.10373918  0.01076182
    Config     245  -0.05030448  0.00253054
    Config     251  -0.04503667  0.00202830
    Config     260   0.04133953  0.00170896
    Config     263   0.10248706  0.01050360
    Config     272   0.12574931  0.01581289
    Config     275   0.07708028  0.00594137
    Config     277  -0.13967285  0.01950851
    Config     293  -0.11146169  0.01242371
    Config     297   0.05817642  0.00338450
    Config     299   0.08600405  0.00739670
    Config     301   0.11317717  0.01280907
    Config     304   0.04713277  0.00222150
    Config     307  -0.04940706  0.00244106
    Config     319   0.05699139  0.00324802
    Config     320   0.05001351  0.00250135
    Config     321   0.05617018  0.00315509
    Config     322   0.04887351  0.00238862
    Config     326  -0.11915347  0.01419755
    Config     327   0.05953185  0.00354404
    Config     332   0.06443797  0.00415225
    Config     334  -0.05129081  0.00263075
    Config     336  -0.06420165  0.00412185
    Config     339   0.04131337  0.00170679
    Config     342  -0.07131061  0.00508520
    Config     348  -0.08361471  0.00699142
    Config     351   0.06561053  0.00430474
    Config     360  -0.06844774  0.00468509
    Config     362  -0.08026071  0.00644178
    Config     364   0.06566945  0.00431248
    Config     365  -0.04466651  0.00199510
    Config     372   0.06434312  0.00414004
    Config     373   0.04088374  0.00167148
    Config     376  -0.04027382  0.00162198
    Config     384  -0.07020039  0.00492810
    Config     386   0.04420748  0.00195430
    Config     389   0.08410543  0.00707372
    Config     391   0.04434371  0.00196636
    Config     392   0.09142949  0.00835935
    Config     395  -0.05313375  0.00282320
    Config     396  -0.04353024  0.00189488
    Config     406  -0.09390093  0.00881738
    Config     418  -0.07505798  0.00563370
    Config     420   0.07237120  0.00523759
    Config     427  -0.12661223  0.01603066
    Config     438   0.06147120  0.00377871
    Config     442   0.11674084  0.01362842
    Config     445  -0.07822502  0.00611915
    Config     446  -0.06713525  0.00450714
    Config     454   0.07810355  0.00610017
    Config     455  -0.09872251  0.00974613
    Config     456  -0.08378580  0.00702006
    Config     460  -0.05595943  0.00313146
    Config     462   0.04497275  0.00202255
    Config     466   0.04502054  0.00202685
    Config     467   0.07797356  0.00607988
    Config     468  -0.08189767  0.00670723
    Config     469  -0.04308545  0.00185636
    Config     488   0.06651310  0.00442399
    Config     489  -0.09714701  0.00943754
    Config     490  -0.04017657  0.00161416
    Config     495  -0.04133083  0.00170824
    Config     505  -0.08506610  0.00723624
    Config     511  -0.06612116  0.00437201
    Config     512  -0.06790054  0.00461048
    Config     514  -0.05994485  0.00359339
    Config     516   0.04111051  0.00169007
    Config     519  -0.11722278  0.01374118
    Config     522  -0.05233893  0.00273936
    Config     531  -0.07821717  0.00611793
    Config     535   0.13845635  0.01917016
    Config     539   0.08527224  0.00727135
    Config     544  -0.04941330  0.00244167
    Config     546   0.05606276  0.00314303
    Config     548  -0.05003015  0.00250302
    Config     552   0.05580326  0.00311400
    Config     557   0.04202881  0.00176642
    Config     560  -0.04228233  0.00178780
    Config     568  -0.04002643  0.00160211
    Config     577  -0.08374529  0.00701327
    Config     584   0.06270012  0.00393131
    Config     586  -0.05742912  0.00329810
    Config     590  -0.06991236  0.00488774
    Config     595   0.05255050  0.00276156
    Config     598   0.04299229  0.00184834
    Config     599   0.04648844  0.00216118
    Config     601   0.09076931  0.00823907
    Config     613   0.04388229  0.00192566
    Config     618  -0.07597177  0.00577171
    Config     628   0.06952205  0.00483331
    Config     629   0.04344884  0.00188780
    Config     634   0.05488207  0.00301204
    Config     640   0.05809250  0.00337474
    Config     641  -0.06177285  0.00381588
    Config     643   0.06063003  0.00367600
    Config     651  -0.08198363  0.00672132
    Config     653  -0.04587327  0.00210436
    Config     668   0.10660472  0.01136457
    Config     674   0.06315742  0.00398886
    Config     679  -0.08311946  0.00690884
    Config     688   0.07567761  0.00572710
    Config     690   0.04863510  0.00236537
    Config     700  -0.07342714  0.00539154
    Config     706  -0.06002139  0.00360257
    Config     709  -0.07656749  0.00586258
    Config     716   0.04833111  0.00233590
    Config     717   0.09963161  0.00992646
    Config     724  -0.07211481  0.00520055
    Config     733   0.08060352  0.00649693
    Config     750  -0.04917233  0.00241792
    Config     759   0.06506898  0.00423397
    Config     762   0.04857882  0.00235990
    Config     768   0.05222067  0.00272700
    Config     776   0.07047692  0.00496700
    Config     778  -0.04308217  0.00185607
    Config     785   0.04562003  0.00208119
    Config     787   0.05175631  0.00267872
    Config     788   0.07661024  0.00586913
    Config     802   0.05105492  0.00260660
    Config     804   0.04787053  0.00229159
    Config     831   0.04691500  0.00220102
    Config     847  -0.04054844  0.00164418
    Config     869  -0.05657010  0.00320018
    Config     896  -0.06970122  0.00485826
    Config     900   0.04424417  0.00195755
    Config     912  -0.04198712  0.00176292
    Config     941  -0.06138575  0.00376821
    Config     944  -0.05698555  0.00324735
    Config     968  -0.04403777  0.00193933
    Config     983  -0.04564960  0.00208389
    Config     993  -0.04661819  0.00217326
    Config    1008   0.05143348  0.00264540
    Config    1009  -0.05557848  0.00308897
    Config    1010  -0.05358438  0.00287129
    Config    1068   0.05337291  0.00284867
    Config    1214   0.04452215  0.00198222
 Total coeff printed             0.71563722
  
State  499 10.2060     CI coeff  CI percent
    Config     164  -0.04548937  0.00206928
    Config     176  -0.04226961  0.00178672
    Config     209   0.04395472  0.00193202
    Config     216  -0.05846181  0.00341778
    Config     224  -0.06670232  0.00444920
    Config     242  -0.08623727  0.00743687
    Config     244  -0.06895468  0.00475475
    Config     251  -0.05466062  0.00298778
    Config     254   0.04181205  0.00174825
    Config     257   0.04687434  0.00219720
    Config     258  -0.06233309  0.00388541
    Config     262   0.04383873  0.00192183
    Config     268   0.05646171  0.00318792
    Config     273   0.04087900  0.00167109
    Config     275   0.05133759  0.00263555
    Config     277  -0.04382613  0.00192073
    Config     286  -0.04742244  0.00224889
    Config     287  -0.11521675  0.01327490
    Config     288  -0.06289563  0.00395586
    Config     291  -0.04267619  0.00182126
    Config     294  -0.07213617  0.00520363
    Config     299  -0.07210218  0.00519872
    Config     301   0.06734556  0.00453542
    Config     314  -0.04939122  0.00243949
    Config     316   0.04605573  0.00212113
    Config     320  -0.06010960  0.00361316
    Config     321   0.04384590  0.00192246
    Config     336   0.08644249  0.00747230
    Config     342  -0.09334383  0.00871307
    Config     346   0.13832320  0.01913331
    Config     352  -0.05576395  0.00310962
    Config     359  -0.05556289  0.00308723
    Config     362   0.04913136  0.00241389
    Config     375   0.05754303  0.00331120
    Config     384   0.05293883  0.00280252
    Config     386  -0.07395258  0.00546898
    Config     391   0.06535239  0.00427093
    Config     398   0.05321605  0.00283195
    Config     400  -0.05595775  0.00313127
    Config     403   0.04444970  0.00197578
    Config     404   0.07064064  0.00499010
    Config     408   0.06482184  0.00420187
    Config     415   0.04485601  0.00201206
    Config     417   0.04244442  0.00180153
    Config     426  -0.04178445  0.00174594
    Config     429   0.05471568  0.00299381
    Config     431   0.36868848  0.13593119
    Config     442  -0.04902685  0.00240363
    Config     446  -0.08615978  0.00742351
    Config     454   0.05168519  0.00267136
    Config     460   0.06103741  0.00372557
    Config     463   0.04596488  0.00211277
    Config     464   0.05870090  0.00344580
    Config     466   0.07547050  0.00569580
    Config     470  -0.46676576  0.21787028
    Config     476   0.05553936  0.00308462
    Config     477   0.07846314  0.00615646
    Config     485  -0.05697357  0.00324599
    Config     486   0.06629076  0.00439446
    Config     488  -0.05268104  0.00277529
    Config     498  -0.14949885  0.02234991
    Config     511   0.11559552  0.01336232
    Config     512   0.04475503  0.00200301
    Config     526  -0.04179715  0.00174700
    Config     560   0.08512179  0.00724572
    Config     574  -0.04983435  0.00248346
    Config     580   0.06833175  0.00466923
    Config     605  -0.07418303  0.00550312
    Config     607  -0.05959684  0.00355178
    Config     617   0.07428244  0.00551788
    Config     630  -0.04680977  0.00219115
    Config     633  -0.08697616  0.00756485
    Config     640  -0.20096173  0.04038562
    Config     644  -0.12137616  0.01473217
    Config     672   0.06111959  0.00373560
    Config     681  -0.05452586  0.00297307
    Config     713   0.04402612  0.00193830
    Config     722   0.06344844  0.00402570
    Config     806   0.05726067  0.00327878
    Config     830  -0.04945551  0.00244585
    Config     883   0.05581342  0.00311514
    Config     889   0.08325184  0.00693087
    Config     898  -0.06229996  0.00388128
    Config     959  -0.06167840  0.00380423
    Config     981  -0.05783812  0.00334525
    Config    1006   0.13592897  0.01847668
    Config    1016  -0.04830699  0.00233357
    Config    1033   0.05063354  0.00256376
    Config    1035  -0.05570513  0.00310306
    Config    1042  -0.05489555  0.00301352
    Config    1589   0.04109936  0.00168916
 Total coeff printed             0.78470247
  
State  500 10.2088     CI coeff  CI percent
    Config     115   0.04920930  0.00242156
    Config     158   0.04138629  0.00171282
    Config     160   0.04087208  0.00167053
    Config     164   0.04549482  0.00206978
    Config     166   0.04797840  0.00230193
    Config     194   0.04352249  0.00189421
    Config     195   0.04374198  0.00191336
    Config     199  -0.07207422  0.00519469
    Config     215   0.04617119  0.00213178
    Config     222  -0.11340660  0.01286106
    Config     224   0.04001575  0.00160126
    Config     235   0.08897374  0.00791633
    Config     237  -0.05022977  0.00252303
    Config     244   0.04444079  0.00197498
    Config     248  -0.11462609  0.01313914
    Config     257  -0.04497350  0.00202262
    Config     263   0.07885007  0.00621733
    Config     272   0.11757010  0.01382273
    Config     276  -0.06029879  0.00363594
    Config     287   0.07391835  0.00546392
    Config     292   0.04073144  0.00165905
    Config     299  -0.11835359  0.01400757
    Config     301   0.16543634  0.02736918
    Config     307  -0.08678469  0.00753158
    Config     319   0.05220317  0.00272517
    Config     320   0.14847686  0.02204538
    Config     321   0.05881168  0.00345881
    Config     322  -0.05613301  0.00315091
    Config     326   0.07266975  0.00528089
    Config     327   0.04324466  0.00187010
    Config     334   0.11043738  0.01219641
    Config     336  -0.04515835  0.00203928
    Config     342  -0.05549274  0.00307944
    Config     346  -0.04925381  0.00242594
    Config     348   0.07905431  0.00624958
    Config     351   0.16070423  0.02582585
    Config     352   0.07551538  0.00570257
    Config     364   0.06348027  0.00402975
    Config     367  -0.08234007  0.00677989
    Config     373   0.14243833  0.02028868
    Config     376   0.04069116  0.00165577
    Config     382  -0.08997422  0.00809536
    Config     388  -0.04695988  0.00220523
    Config     394   0.04383600  0.00192159
    Config     406   0.05473272  0.00299567
    Config     410   0.05137340  0.00263923
    Config     420  -0.04193323  0.00175840
    Config     421  -0.08420644  0.00709072
    Config     423   0.04943974  0.00244429
    Config     427   0.12021217  0.01445097
    Config     429  -0.06430565  0.00413522
    Config     430  -0.16467793  0.02711882
    Config     445   0.05061115  0.00256149
    Config     449   0.05045809  0.00254602
    Config     451  -0.07958899  0.00633441
    Config     452   0.06497176  0.00422133
    Config     455  -0.06023346  0.00362807
    Config     456  -0.06697925  0.00448622
    Config     462   0.06704916  0.00449559
    Config     463  -0.04363847  0.00190432
    Config     464  -0.05473659  0.00299609
    Config     466  -0.05152018  0.00265433
    Config     469   0.04956394  0.00245658
    Config     482  -0.05240125  0.00274589
    Config     486   0.14399493  0.02073454
    Config     488  -0.04174459  0.00174261
    Config     505   0.04700809  0.00220976
    Config     506   0.06921148  0.00479023
    Config     509   0.05996539  0.00359585
    Config     510   0.16940664  0.02869861
    Config     511   0.04605932  0.00212146
    Config     524  -0.04286951  0.00183779
    Config     531  -0.04385205  0.00192300
    Config     537   0.05540494  0.00306971
    Config     539  -0.04854190  0.00235632
    Config     549  -0.05043445  0.00254363
    Config     569   0.05317189  0.00282725
    Config     572   0.04088025  0.00167119
    Config     580  -0.07637023  0.00583241
    Config     588  -0.05215541  0.00272019
    Config     611  -0.04002730  0.00160218
    Config     628   0.06890218  0.00474751
    Config     630  -0.04244411  0.00180150
    Config     633   0.08851455  0.00783483
    Config     646   0.07054929  0.00497720
    Config     648  -0.04652775  0.00216483
    Config     660  -0.05121973  0.00262346
    Config     661   0.29005567  0.08413229
    Config     668  -0.07171553  0.00514312
    Config     674  -0.04220262  0.00178106
    Config     681   0.04976698  0.00247675
    Config     696  -0.28980278  0.08398565
    Config     702   0.05166703  0.00266948
    Config     714  -0.05091286  0.00259212
    Config     734  -0.04732696  0.00223984
    Config     748  -0.07130743  0.00508475
    Config     753   0.05025965  0.00252603
    Config     786  -0.05024357  0.00252442
    Config     792   0.05263509  0.00277045
    Config     804  -0.04560138  0.00207949
    Config     826  -0.04290161  0.00184055
    Config     865  -0.10685376  0.01141773
    Config     878   0.06019405  0.00362332
    Config     886  -0.08952694  0.00801507
    Config     888   0.04962129  0.00246227
    Config     913   0.04097025  0.00167856
    Config     919   0.06025722  0.00363093
    Config    1000   0.05064139  0.00256455
    Config    1043   0.07191919  0.00517237
    Config    1130  -0.06559266  0.00430240
    Config    1144   0.04307267  0.00185525
    Config    1237  -0.07727501  0.00597143
    Config    1273   0.04429405  0.00196196
    Config    1325   0.06056265  0.00366783
    Config    1460  -0.05219755  0.00272458
    Config    1480  -0.05330291  0.00284120
    Config    1583  -0.04087617  0.00167086
 Total coeff printed             0.76757905
  

 **********************
 *                    *
 * JOB ENDED NORMALLY *
 *                    *
 **********************



 TOTAL JOB TIME:           643.38 SECONDS

 == MOPAC DONE ==
