 *******************************************************************************
 ** Site#: 37966        For non-commercial use only           Version 21.186W **
 *******************************************************************************
 ** Cite this program as: MOPAC2016, Version: 21.186W, James J. P. Stewart,   **
 ** Stewart Computational Chemistry, web: HTTP://OpenMOPAC.net. Days left: 257**
 *******************************************************************************
 **                                                                           **
 **                                MOPAC2016                                  **
 **                                                                           **
 *******************************************************************************

                              INDO CALCULATION RESULTS

 *******************************************************************************
 *  CALCULATION DONE:                                Thu Oct 21 11:03:53 2021  *
 *  INDO       - The INDO Hamiltonian to be used
 *  CIS        - C.I. USES 1 ELECTRON EXCITATIONS ONLY
 *  EPS=8.93   - USE ANDREAS KLAMT'S COSMO IMPLICIT SOLVATION MODEL
 *  N**2=1.42  - USED IN COSMO-CI
 *  T=         - A TIME OF 172800.0 SECONDS REQUESTED
 *  DUMP=N     - RESTART FILE WRITTEN EVERY 7200.0 SECONDS REQUESTED
 *******************************************************************************
INDO CIS EPS=8.93 N**2=1.42
 Dye49
 Calculo de Estados Excitados
   ATOM   CHEMICAL          X               Y               Z
  NUMBER   SYMBOL      (ANGSTROMS)     (ANGSTROMS)     (ANGSTROMS)
 
     1       N         -0.01349120  *   0.00961746  *   0.10001459  *
     2       C          1.14125590  *   0.00560708  *   0.04257157  *
     3       C          2.55717919  *   0.01419667  *  -0.04294881  *
     4       C          3.28306362  *  -1.11141559  *  -0.16026852  *
     5       C          2.68498407  *  -2.43653349  *  -0.16105240  *
     6       C          3.08286208  *  -3.35780430  *  -1.13045119  *
     7       C          2.51718002  *  -4.62202316  *  -1.16553296  *
     8       C          1.56591885  *  -4.97255479  *  -0.19971862  *
     9       C          1.18519046  *  -4.06329107  *   0.79285361  *
    10       C          1.74277541  *  -2.79301081  *   0.80126127  *
    11       N          0.98704103  *  -6.25825207  *  -0.22543639  *
    12       C          1.68341351  *  -7.47993620  *  -0.35391655  *
    13       C          3.05091661  *  -7.71890929  *  -0.43586117  *
    14       C          3.45548023  *  -9.04209863  *  -0.54096478  *
    15       C          2.53486385  * -10.09333493  *  -0.55304898  *
    16       C          1.17162368  *  -9.85412273  *  -0.44847386  *
    17       C          0.74020842  *  -8.54268612  *  -0.34387766  *
    18       C         -0.56859739  *  -7.95342573  *  -0.20491908  *
    19       C         -0.39332083  *  -6.54552342  *  -0.13522941  *
    20       C         -1.47619212  *  -5.67827045  *  -0.03817396  *
    21       C         -2.73877990  *  -6.25058628  *   0.02134982  *
    22       C         -2.92119517  *  -7.63566426  *  -0.02497735  *
    23       C         -1.84048413  *  -8.49787715  *  -0.14500008  *
    24       C          3.23287362  *   1.32018492  *  -0.03123725  *
    25       O          4.43345154  *   1.51625971  *  -0.15157741  *
    26       O          2.39897648  *   2.36561273  *   0.13387193  *
    27       H          4.37712525  *  -1.06814805  *  -0.27068429  *
    28       H          3.83076350  *  -3.07761324  *  -1.87986700  *
    29       H          2.80164790  *  -5.32646048  *  -1.95432339  *
    30       H          0.46528328  *  -4.34730139  *   1.56813166  *
    31       H          1.45416254  *  -2.08556100  *   1.58627389  *
    32       H          3.78160302  *  -6.90868484  *  -0.40246861  *
    33       H          4.52414401  *  -9.26843026  *  -0.61295656  *
    34       H          2.89781841  * -11.12119310  *  -0.64073490  *
    35       H          0.44914398  * -10.67411183  *  -0.44566252  *
    36       H         -1.34946462  *  -4.59370568  *  -0.02606672  *
    37       H         -3.61527958  *  -5.59962258  *   0.10323308  *
    38       H         -3.93443969  *  -8.04362685  *   0.02875330  *
    39       H         -1.97958902  *  -9.58067168  *  -0.19424271  *
    40       H          2.88515740  *   3.20321465  *   0.13229958  *
 


          CARTESIAN COORDINATES 

    NO.       ATOM           X           Y           Z

     1         N         -0.0135      0.0096      0.1000
     2         C          1.1413      0.0056      0.0426
     3         C          2.5572      0.0142     -0.0429
     4         C          3.2831     -1.1114     -0.1603
     5         C          2.6850     -2.4365     -0.1611
     6         C          3.0829     -3.3578     -1.1305
     7         C          2.5172     -4.6220     -1.1655
     8         C          1.5659     -4.9726     -0.1997
     9         C          1.1852     -4.0633      0.7929
    10         C          1.7428     -2.7930      0.8013
    11         N          0.9870     -6.2583     -0.2254
    12         C          1.6834     -7.4799     -0.3539
    13         C          3.0509     -7.7189     -0.4359
    14         C          3.4555     -9.0421     -0.5410
    15         C          2.5349    -10.0933     -0.5530
    16         C          1.1716     -9.8541     -0.4485
    17         C          0.7402     -8.5427     -0.3439
    18         C         -0.5686     -7.9534     -0.2049
    19         C         -0.3933     -6.5455     -0.1352
    20         C         -1.4762     -5.6783     -0.0382
    21         C         -2.7388     -6.2506      0.0213
    22         C         -2.9212     -7.6357     -0.0250
    23         C         -1.8405     -8.4979     -0.1450
    24         C          3.2329      1.3202     -0.0312
    25         O          4.4335      1.5163     -0.1516
    26         O          2.3990      2.3656      0.1339
    27         H          4.3771     -1.0681     -0.2707
    28         H          3.8308     -3.0776     -1.8799
    29         H          2.8016     -5.3265     -1.9543
    30         H          0.4653     -4.3473      1.5681
    31         H          1.4542     -2.0856      1.5863
    32         H          3.7816     -6.9087     -0.4025
    33         H          4.5241     -9.2684     -0.6130
    34         H          2.8978    -11.1212     -0.6407
    35         H          0.4491    -10.6741     -0.4457
    36         H         -1.3495     -4.5937     -0.0261
    37         H         -3.6153     -5.5996      0.1032
    38         H         -3.9344     -8.0436      0.0288
    39         H         -1.9796     -9.5807     -0.1942
    40         H          2.8852      3.2032      0.1323

           Empirical Formula: C22 H14 N2 O2  =    40 atoms



      MOLECULAR POINT GROUP   :   C1  


      RHF CALCULATION, NO. OF DOUBLY OCCUPIED LEVELS = 62

 WARNING: INDO only performs single-point calculations


 ALL CONVERGERS ARE NOW FORCED ON
 SHIFT=10, PULAY ON, CAMP-KING ON
 AND ITERATION COUNTER RESET



 Summary of symmetry occupancy in each shell:

 SHELL     
    1   62
    v   56
 TOTAL 118




    ROOT NO.    1           2           3           4           5           6

           -48.64164   -46.82769   -44.47049   -42.92375   -41.60870   -39.79893
  
  
  S  N   1   0.00415     0.04103     0.04329     0.00079    -0.06980    -0.09600
 PX  N   1   0.00240     0.02532     0.02361     0.00036    -0.03601    -0.04602
 PY  N   1  -0.00076     0.00329    -0.00809    -0.00012     0.00625     0.00962
 PZ  N   1   0.00002    -0.00092    -0.00019     0.00002     0.00125     0.00262
  
  S  C   2   0.00960     0.11687     0.08082     0.00097    -0.11529    -0.14951
 PX  C   2   0.00298     0.05079     0.01612    -0.00011    -0.01596    -0.01751
 PY  C   2  -0.00242     0.01966    -0.02961    -0.00024     0.02284     0.03873
 PZ  C   2   0.00009    -0.00157     0.00058     0.00008     0.00037     0.00326
  
  S  C   3   0.01424     0.23349     0.09717     0.00055    -0.14261    -0.27261
 PX  C   3   0.00020     0.03271    -0.00724    -0.00023     0.00109    -0.07416
 PY  C   3  -0.00394     0.07317    -0.06988    -0.00021     0.05823     0.08274
 PZ  C   3  -0.00002     0.00114    -0.00138     0.00006     0.00210     0.01185
  
  S  C   4   0.02220     0.12631     0.19244     0.00007    -0.18666    -0.28711
 PX  C   4  -0.00588    -0.02009    -0.05290    -0.00034     0.04743     0.04340
 PY  C   4  -0.00688     0.04367    -0.05891     0.00029     0.01434    -0.08350
 PZ  C   4   0.00024     0.00423     0.00255     0.00023    -0.00458    -0.00933
  
  S  C   5   0.05930     0.07231     0.38684    -0.00047    -0.19844    -0.04637
 PX  C   5  -0.00963    -0.00250    -0.04308    -0.00133     0.00467    -0.03024
 PY  C   5  -0.02027     0.01190    -0.07742     0.00091    -0.02242    -0.12891
 PZ  C   5   0.00002     0.00247     0.00231     0.00149    -0.00556    -0.01116
  
  S  C   6   0.06263     0.03943     0.32634    -0.00707    -0.10508     0.08183
 PX  C   6  -0.02018    -0.00790    -0.08808     0.00052     0.01399    -0.03991
 PY  C   6  -0.01265     0.00689    -0.00967     0.00415    -0.03641    -0.06007
 PZ  C   6   0.01738     0.01208     0.09737     0.00026    -0.03411     0.01811
  
  S  C   7   0.12029     0.02310     0.29526    -0.02021     0.02403     0.13950
 PX  C   7  -0.03504    -0.00113    -0.03477    -0.00125    -0.03786    -0.01474
 PY  C   7  -0.01771     0.01074     0.08640     0.00886    -0.06581     0.03487
 PZ  C   7   0.03650     0.00711     0.09098    -0.00150     0.01008     0.03943
  
  S  C   8   0.24221     0.01712     0.30226    -0.00088     0.17427     0.12136
 PX  C   8  -0.03511     0.00606     0.04755    -0.02071    -0.05561     0.03548
 PY  C   8  -0.07761     0.01417     0.10740     0.00897    -0.12575     0.07423
 PZ  C   8  -0.00157     0.00048     0.00253     0.00970    -0.00322    -0.00039
  
  S  C   9   0.12073     0.02545     0.29915     0.01876     0.01733     0.12516
 PX  C   9   0.01024     0.00891     0.08785    -0.00784    -0.02398     0.03531
 PY  C   9  -0.03647     0.00831     0.03736    -0.00486    -0.07624     0.00557
 PZ  C   9  -0.03787    -0.00682    -0.08947    -0.00136    -0.01294    -0.03947
  
  S  C  10   0.06364     0.04900     0.33904     0.00596    -0.12623     0.04315
 PX  C  10   0.00409     0.01018     0.05113    -0.00287    -0.03501    -0.01545
 PY  C  10  -0.02226     0.00469    -0.06171    -0.00270    -0.02534    -0.08582
 PZ  C  10  -0.01830    -0.01337    -0.10148     0.00047     0.03603    -0.01642
  
  S  N  11   0.48761    -0.01537     0.02989    -0.00066     0.37190    -0.09350
 PX  N  11  -0.03434     0.00370     0.03937    -0.05729     0.00625     0.03087
 PY  N  11  -0.07539     0.00834     0.08796     0.02561     0.01398     0.06709
 PZ  N  11  -0.00230     0.00022     0.00199     0.00728    -0.00021     0.00135
  
  S  C  12   0.36365    -0.01745    -0.08957    -0.23105     0.02981    -0.04111
 PX  C  12  -0.11640     0.00624     0.03116    -0.06724    -0.09372     0.07286
 PY  C  12   0.05115     0.00072     0.05335     0.10102     0.18597    -0.03993
 PZ  C  12   0.01274    -0.00057    -0.00102     0.00891     0.01629    -0.00834
  
  S  C  13   0.14855    -0.00728    -0.05173    -0.27172    -0.13172     0.06119
 PX  C  13  -0.07134     0.00365     0.02204     0.07015     0.00841     0.00400
 PY  C  13  -0.00245     0.00189     0.03674     0.08953     0.10705    -0.02779
 PZ  C  13   0.00330    -0.00017    -0.00044     0.00182     0.00538    -0.00290
  
  S  C  14   0.09032    -0.00612    -0.06982    -0.28465    -0.22348     0.08603
 PX  C  14  -0.04302     0.00298     0.03276     0.11258     0.08578    -0.02565
 PY  C  14   0.01531    -0.00062    -0.00231    -0.02339    -0.00201     0.00300
 PZ  C  14   0.00343    -0.00023    -0.00231    -0.00805    -0.00531     0.00153
  
  S  C  15   0.08648    -0.00640    -0.07838    -0.27878    -0.24345     0.08317
 PX  C  15  -0.01740     0.00129     0.01476     0.03337     0.03196    -0.00397
 PY  C  15   0.04054    -0.00282    -0.03125    -0.10923    -0.08318     0.02581
 PZ  C  15   0.00372    -0.00027    -0.00302    -0.00924    -0.00754     0.00194
  
  S  C  16   0.11969    -0.00856    -0.09637    -0.24936    -0.23677     0.05648
 PX  C  16   0.01123    -0.00090    -0.01333    -0.08942    -0.06041     0.02849
 PY  C  16   0.05903    -0.00387    -0.03653    -0.07514    -0.05574     0.00257
 PZ  C  16   0.00285    -0.00018    -0.00138     0.00141     0.00058    -0.00175
  
  S  C  17   0.29332    -0.01776    -0.14602    -0.18656    -0.14102    -0.02843
 PX  C  17   0.00528    -0.00037    -0.00708    -0.14496    -0.05217     0.03017
 PY  C  17   0.11417    -0.00547    -0.01893     0.04769     0.10315    -0.06009
 PZ  C  17   0.00693    -0.00034    -0.00111     0.01258     0.00920    -0.00580
  
  S  C  18   0.29341    -0.01771    -0.14557     0.18736    -0.14022    -0.02774
 PX  C  18   0.08237    -0.00390    -0.00986    -0.13200     0.11149    -0.06575
 PY  C  18   0.07954    -0.00386    -0.01760     0.07693     0.02943    -0.01705
 PZ  C  18  -0.00222     0.00012     0.00023     0.01331    -0.00597     0.00393
  
  S  C  19   0.36383    -0.01729    -0.08863     0.23125     0.03031    -0.04125
 PX  C  19   0.11543    -0.00361     0.01926    -0.12110     0.20129    -0.07877
 PY  C  19  -0.05312     0.00520     0.05879    -0.01675     0.05254     0.02736
 PZ  C  19  -0.01274     0.00072     0.00367     0.00611    -0.01058     0.00781
  
  S  C  20   0.14875    -0.00706    -0.05055     0.27217    -0.13099     0.06095
 PX  C  20   0.04536    -0.00093     0.01326    -0.02127     0.07470    -0.02417
 PY  C  20  -0.05509     0.00400     0.04062    -0.11213     0.07645    -0.01610
 PZ  C  20  -0.00470     0.00032     0.00229    -0.00303    -0.00102     0.00172
  
  S  C  21   0.09042    -0.00602    -0.06904     0.28537    -0.22224     0.08688
 PX  C  21   0.04001    -0.00240    -0.02310     0.09226    -0.05792     0.01934
 PY  C  21  -0.02209     0.00182     0.02289    -0.06901     0.06247    -0.01770
 PZ  C  21  -0.00359     0.00026     0.00279    -0.00917     0.00673    -0.00193
  
  S  C  22   0.08655    -0.00633    -0.07775     0.27955    -0.24207     0.08445
 PX  C  22   0.04205    -0.00295    -0.03303     0.10458    -0.08326     0.02247
 PY  C  22   0.01379    -0.00088    -0.00949     0.04734    -0.03088     0.01419
 PZ  C  22  -0.00242     0.00018     0.00203    -0.00553     0.00480    -0.00103
  
  S  C  23   0.11974    -0.00850    -0.09582     0.25025    -0.23559     0.05770
 PX  C  23   0.03698    -0.00231    -0.01867    -0.00250    -0.00205    -0.01695
 PY  C  23   0.04748    -0.00320    -0.03387     0.11692    -0.08157     0.02350
 PZ  C  23  -0.00027     0.00001    -0.00032     0.00606    -0.00388     0.00239
  
  S  C  24   0.01017     0.51072    -0.06259    -0.00014     0.00523    -0.11477
 PX  C  24  -0.00002     0.01938    -0.00581    -0.00015    -0.00691    -0.26722
 PY  C  24   0.00015     0.13473    -0.06031    -0.00020     0.06912     0.21391
 PZ  C  24   0.00004     0.00714    -0.00317     0.00001     0.00523     0.04374
  
  S  O  25   0.00715     0.40873    -0.06210    -0.00030     0.00619    -0.38706
 PX  O  25  -0.00296    -0.17355     0.02776     0.00011    -0.00688     0.10155
 PY  O  25  -0.00053    -0.00370    -0.00860    -0.00001     0.01595     0.08165
 PZ  O  25   0.00030     0.01914    -0.00361    -0.00001     0.00177    -0.00598
  
  S  O  26   0.00844     0.56694    -0.12340    -0.00026     0.10462     0.47629
 PX  O  26   0.00220     0.15499    -0.03523    -0.00010     0.02864     0.08164
 PY  O  26  -0.00132    -0.06503     0.00619    -0.00003     0.00316    -0.00072
 PZ  O  26  -0.00034    -0.02225     0.00450     0.00001    -0.00308    -0.00962
  
  S  H  27   0.00742     0.05388     0.06184    -0.00019    -0.06303    -0.11967
  
  S  H  28   0.01570     0.01367     0.09238    -0.00280    -0.03924     0.00962
  
  S  H  29   0.05004     0.00478     0.07601    -0.01631     0.02414     0.03943
  
  S  H  30   0.05017     0.00568     0.07760     0.01579     0.02148     0.03350
  
  S  H  31   0.01652     0.02175     0.10184     0.00258    -0.05459    -0.01688
  
  S  H  32   0.05027    -0.00119     0.00215    -0.07493    -0.01871     0.02351
  
  S  H  33   0.02084    -0.00142    -0.01725    -0.07890    -0.06482     0.02824
  
  S  H  34   0.01966    -0.00154    -0.02048    -0.07676    -0.07205     0.02692
  
  S  H  35   0.03248    -0.00243    -0.02893    -0.06076    -0.07464     0.01712
  
  S  H  36   0.05038    -0.00100     0.00290     0.07491    -0.01890     0.02266
  
  S  H  37   0.02086    -0.00139    -0.01702     0.07907    -0.06446     0.02845
  
  S  H  38   0.01967    -0.00152    -0.02031     0.07696    -0.07163     0.02732
  
  S  H  39   0.03249    -0.00241    -0.02880     0.06104    -0.07433     0.01746
  
  S  H  40   0.00342     0.23844    -0.05461    -0.00014     0.04806     0.18927




    ROOT NO.    7           8           9          10          11          12

           -39.32233   -36.95157   -35.82547   -34.06219   -32.95020   -32.44370
  
  
  S  N   1  -0.35040     0.45077     0.35306    -0.06443    -0.11157    -0.02496
 PX  N   1  -0.16595     0.18200     0.12838    -0.02263    -0.02772    -0.00934
 PY  N   1   0.00122     0.00361     0.00095    -0.00718     0.00918    -0.01037
 PZ  N   1   0.00760    -0.00932    -0.00582     0.00434     0.00049     0.00437
  
  S  C   2  -0.42506     0.32036     0.13917    -0.02970     0.04568    -0.02498
 PX  C   2   0.04429    -0.23633    -0.27485     0.04327     0.15553     0.00361
 PY  C   2   0.00050     0.01653     0.00825    -0.01569     0.02879    -0.02491
 PZ  C   2  -0.00333     0.01138     0.01552     0.00500    -0.00964     0.00857
  
  S  C   3  -0.25599    -0.02677    -0.26173     0.01074     0.25513    -0.04692
 PX  C   3   0.12128    -0.05999    -0.05234    -0.00405     0.00947    -0.01381
 PY  C   3   0.04206     0.05838     0.05664    -0.00776     0.05949    -0.02349
 PZ  C   3  -0.00880     0.00536     0.00642     0.00958     0.00087     0.01202
  
  S  C   4  -0.16469    -0.18727    -0.26406    -0.03311    -0.00409    -0.04217
 PX  C   4   0.08527     0.02614     0.05232    -0.02730    -0.01686    -0.03125
 PY  C   4  -0.00303     0.06310    -0.06537     0.02749     0.18128    -0.01290
 PZ  C   4  -0.01185     0.00307    -0.00870     0.02999     0.01516     0.03226
  
  S  C   5  -0.05988    -0.22084    -0.00764    -0.02779    -0.22675     0.02625
 PX  C   5  -0.00600    -0.03047    -0.04455    -0.09847    -0.03296    -0.09859
 PY  C   5  -0.11034    -0.02889    -0.14088     0.02444     0.01180     0.01877
 PZ  C   5  -0.02038     0.01276    -0.00629     0.12740     0.02437     0.13193
  
  S  C   6   0.07410    -0.12580     0.10436    -0.30410    -0.15426    -0.24430
 PX  C   6  -0.02978    -0.00234    -0.04155     0.00145    -0.01521    -0.00392
 PY  C   6  -0.05473    -0.06843    -0.04754     0.06376    -0.09533     0.04693
 PZ  C   6   0.01120    -0.03481     0.02460     0.03068    -0.03761     0.03875
  
  S  C   7   0.13274     0.06562     0.06486    -0.32952     0.11428    -0.21706
 PX  C   7  -0.01484    -0.04990     0.02357    -0.04989    -0.07570    -0.02842
 PY  C   7   0.02487    -0.06923     0.08921    -0.01815    -0.08115    -0.06163
 PZ  C   7   0.03462     0.02663     0.01532     0.02834     0.04674     0.02671
  
  S  C   8   0.12322     0.21115    -0.07055     0.01879     0.26336    -0.05812
 PX  C   8   0.02852    -0.03246     0.06451    -0.14704     0.00483    -0.00269
 PY  C   8   0.05269    -0.05846     0.14229     0.07572    -0.02951     0.02811
 PZ  C   8  -0.00346     0.00537     0.00206     0.16575    -0.00419     0.08101
  
  S  C   9   0.10050     0.10156     0.06178     0.36499     0.12066     0.19493
 PX  C   9   0.02733    -0.01755     0.04983    -0.01298     0.00907     0.03595
 PY  C   9  -0.01008    -0.06917     0.07630     0.04529    -0.07675     0.11561
 PZ  C   9  -0.03652    -0.02612    -0.01177     0.01874    -0.04174     0.04458
  
  S  C  10  -0.00360    -0.06780     0.09213     0.29660    -0.07667     0.30232
 PX  C  10  -0.01352    -0.05915    -0.01276    -0.06187    -0.05520    -0.02711
 PY  C  10  -0.08752    -0.03847    -0.06821    -0.07290    -0.05489    -0.03002
 PZ  C  10  -0.00946     0.03679    -0.02143     0.03248     0.03508     0.02392
  
  S  N  11  -0.05843     0.08542    -0.15389    -0.01006     0.03574    -0.02703
 PX  N  11   0.03165     0.07055    -0.05091    -0.14522     0.11785     0.08950
 PY  N  11   0.06681     0.16310    -0.11332     0.07214     0.15888    -0.09887
 PZ  N  11   0.00084     0.00502    -0.00256     0.05238    -0.00173     0.00405
  
  S  C  12  -0.03452    -0.02350    -0.02830    -0.16387    -0.09220     0.20394
 PX  C  12   0.06568     0.14531    -0.13383    -0.07753     0.01214     0.09673
 PY  C  12  -0.02329     0.03847    -0.06931    -0.07440     0.03047     0.02137
 PZ  C  12  -0.00700    -0.00891     0.00514     0.01057    -0.00294     0.00267
  
  S  C  13   0.05436     0.15111    -0.18386    -0.20375    -0.12151     0.30849
 PX  C  13   0.00393     0.00532    -0.00075     0.02789    -0.00257    -0.02112
 PY  C  13  -0.01919    -0.01907     0.01622    -0.05839     0.04913     0.00086
 PZ  C  13  -0.00246    -0.00301     0.00163     0.00108     0.00064     0.00484
  
  S  C  14   0.07058     0.15112    -0.16331    -0.01512    -0.11519     0.10790
 PX  C  14  -0.01916    -0.02253     0.01404    -0.02595    -0.00199     0.03105
 PY  C  14   0.00349     0.01872    -0.03153    -0.08810    -0.04731     0.14753
 PZ  C  14   0.00116     0.00221    -0.00265    -0.00262    -0.00324     0.00792
  
  S  C  15   0.06459     0.09185    -0.06033     0.15590     0.04814    -0.22772
 PX  C  15  -0.00081     0.02868    -0.05209    -0.05066    -0.07699     0.10816
 PY  C  15   0.01971     0.03064    -0.03043    -0.00575    -0.03643     0.04524
 PZ  C  15   0.00134     0.00019     0.00132     0.00347     0.00262    -0.00416
  
  S  C  16   0.03666    -0.03332     0.10790     0.18105     0.19903    -0.30566
 PX  C  16   0.02446     0.06369    -0.07092     0.03285    -0.04352    -0.04137
 PY  C  16  -0.00206    -0.03684     0.04679    -0.00379    -0.00110     0.03277
 PZ  C  16  -0.00177    -0.00649     0.00758    -0.00186     0.00289     0.00508
  
  S  C  17  -0.04004    -0.20176     0.24034     0.05743     0.07824    -0.06214
 PX  C  17   0.02694     0.07975    -0.09257     0.00234    -0.06227     0.00240
 PY  C  17  -0.05044    -0.06614     0.01705    -0.07461    -0.13573     0.13518
 PZ  C  17  -0.00507    -0.01011     0.00820    -0.00208    -0.00364     0.00941
  
  S  C  18  -0.03843    -0.20364     0.24044    -0.02049     0.10436     0.04530
 PX  C  18  -0.05719    -0.10048     0.07392     0.05445    -0.09980    -0.05213
 PY  C  18  -0.01300     0.01629    -0.05803     0.02258    -0.16508    -0.02131
 PZ  C  18   0.00354     0.00888    -0.00916    -0.00032    -0.00182     0.00422
  
  S  C  19  -0.03532    -0.01978    -0.02868     0.14202    -0.19122    -0.13628
 PX  C  19  -0.06223    -0.06582     0.03633     0.00570     0.02700     0.02890
 PY  C  19   0.03181     0.13779    -0.14633     0.09162    -0.02817    -0.10371
 PZ  C  19   0.00675     0.01371    -0.01030     0.01463     0.00028    -0.00125
  
  S  C  20   0.05336     0.15536    -0.18430     0.16559    -0.25849    -0.22084
 PX  C  20  -0.01861    -0.01508     0.01251     0.06561     0.01382    -0.02864
 PY  C  20  -0.01140    -0.00688     0.01026     0.02178     0.02913     0.00027
 PZ  C  20   0.00146     0.00266    -0.00098     0.00317     0.00234     0.00454
  
  S  C  21   0.07254     0.14933    -0.16324    -0.01466    -0.14112    -0.05565
 PX  C  21   0.01547     0.02956    -0.03313     0.04105    -0.07239    -0.06162
 PY  C  21  -0.01326    -0.00231    -0.01052     0.07032    -0.08668    -0.08753
 PZ  C  21  -0.00149    -0.00173     0.00165     0.00164     0.00139     0.00084
  
  S  C  22   0.06774     0.08691    -0.05991    -0.15113     0.15379     0.16229
 PX  C  22   0.01636     0.00287     0.01161    -0.02332     0.03967     0.02454
 PY  C  22   0.01261     0.04190    -0.05916     0.02490    -0.11858    -0.06243
 PZ  C  22  -0.00065     0.00167    -0.00348     0.00343    -0.00853    -0.00468
  
  S  C  23   0.03963    -0.03800     0.10823    -0.13900     0.32025     0.18082
 PX  C  23  -0.01790    -0.06924     0.08200     0.03654     0.00299    -0.04554
 PY  C  23   0.01805     0.02195    -0.02204    -0.02698    -0.02201     0.02251
 PZ  C  23   0.00218     0.00609    -0.00698    -0.00342    -0.00141     0.00479
  
  S  C  24   0.08671     0.02687    -0.02531     0.00268     0.09334    -0.02066
 PX  C  24   0.31868     0.08400     0.13670     0.00183    -0.10376     0.02820
 PY  C  24   0.02437    -0.01689     0.10076    -0.00081    -0.14200     0.03402
 PZ  C  24  -0.03326    -0.01144    -0.00909     0.00152     0.00167     0.00145
  
  S  O  25   0.46517     0.13811     0.18629     0.00452    -0.09077     0.02923
 PX  O  25  -0.13514    -0.03355    -0.04550    -0.00153     0.01623    -0.00550
 PY  O  25  -0.02935    -0.01006     0.01903     0.00080    -0.03694     0.01075
 PZ  O  25   0.01315     0.00282     0.00611     0.00059    -0.00433     0.00180
  
  S  O  26  -0.21068    -0.11613    -0.03376    -0.00165    -0.05692     0.00914
 PX  O  26   0.00834    -0.01736     0.01884     0.00111    -0.03705     0.00977
 PY  O  26   0.04293    -0.00983     0.02937     0.00028    -0.07449     0.01817
 PZ  O  26   0.00255     0.00096    -0.00029     0.00033    -0.00105     0.00071
  
  S  H  27  -0.02567    -0.07196    -0.09537    -0.03358    -0.00966    -0.04103
  
  S  H  28   0.01397    -0.05875     0.01869    -0.14902    -0.07921    -0.12831
  
  S  H  29   0.04118     0.04026    -0.00481    -0.17755     0.05195    -0.08987
  
  S  H  30   0.02733     0.05701    -0.00545     0.18745     0.04315     0.07657
  
  S  H  31  -0.04272    -0.01646     0.01663     0.13872    -0.03249     0.14870
  
  S  H  32   0.02348     0.07096    -0.08324    -0.12147    -0.03483     0.13746
  
  S  H  33   0.02398     0.05912    -0.06785    -0.01095    -0.05172     0.05197
  
  S  H  34   0.02144     0.03431    -0.02335     0.06952     0.02777    -0.11453
  
  S  H  35   0.01052    -0.02426     0.05997     0.07629     0.11741    -0.14515
  
  S  H  36   0.02121     0.07517    -0.08335     0.10650    -0.10424    -0.10550
  
  S  H  37   0.02445     0.05869    -0.06781    -0.00230    -0.06504    -0.02827
  
  S  H  38   0.02245     0.03248    -0.02317    -0.06680     0.07849     0.07945
  
  S  H  39   0.01138    -0.02582     0.06009    -0.05347     0.17049     0.07493
  
  S  H  40  -0.04741    -0.04745     0.01095    -0.00017    -0.06733     0.01508




    ROOT NO.   13          14          15          16          17          18

           -30.93665   -30.51236   -28.96208   -27.14085   -26.18005   -25.37455
  
  
  S  N   1  -0.09277     0.00183    -0.04284    -0.06166     0.06357     0.09531
 PX  N   1  -0.01544     0.00124    -0.00392    -0.00363    -0.00245    -0.00974
 PY  N   1   0.01854     0.00474     0.01057    -0.02819    -0.01324    -0.01134
 PZ  N   1   0.00009    -0.00129     0.00093     0.00776    -0.00276    -0.00123
  
  S  C   2   0.07650     0.00833     0.04017     0.03447    -0.06410    -0.10846
 PX  C   2   0.15427     0.00543     0.07027     0.07422    -0.09499    -0.14515
 PY  C   2   0.06000     0.01247     0.03465    -0.06766    -0.04287    -0.03441
 PZ  C   2  -0.00871    -0.00299    -0.00154     0.01259    -0.00154     0.00264
  
  S  C   3   0.25137     0.02320     0.08460    -0.00244    -0.02335    -0.00360
 PX  C   3  -0.01653     0.00427    -0.03305    -0.08750     0.11752     0.21039
 PY  C   3   0.15935     0.02077     0.11055    -0.09328    -0.16113    -0.14964
 PZ  C   3   0.00595    -0.00356     0.00829     0.03032    -0.01907    -0.02705
  
  S  C   4  -0.16852    -0.00279    -0.14707    -0.07557     0.21580     0.24353
 PX  C   4   0.00080     0.01288    -0.00637    -0.13713     0.04045     0.10989
 PY  C   4   0.21711     0.01503     0.07076     0.00355     0.06210     0.15538
 PZ  C   4   0.01016    -0.01030     0.00570     0.07725     0.00167    -0.00614
  
  S  C   5  -0.23579    -0.01921    -0.04551     0.01759    -0.08685    -0.18584
 PX  C   5  -0.07682     0.02234    -0.06034    -0.16505     0.03860     0.04819
 PY  C   5  -0.13224    -0.01856    -0.11310     0.06565     0.10489     0.07002
 PZ  C   5   0.00031    -0.03802     0.00539     0.20158     0.01125    -0.00413
  
  S  C   6   0.02007     0.06428     0.06542    -0.21325    -0.13524    -0.05493
 PX  C   6  -0.05519     0.00108    -0.03581    -0.06070    -0.00997     0.01626
 PY  C   6  -0.17299    -0.01102    -0.06127    -0.12146    -0.04138    -0.10535
 PZ  C   6  -0.03382    -0.01058     0.00388     0.00214    -0.00940    -0.07079
  
  S  C   7   0.17562     0.02147     0.02474     0.19670     0.08452     0.11727
 PX  C   7   0.02458     0.01850     0.03562    -0.05858    -0.07792     0.00905
 PY  C   7   0.06531     0.04160     0.09037    -0.15413    -0.07361    -0.02145
 PZ  C   7   0.00979    -0.01152    -0.00514     0.00285     0.04931    -0.01831
  
  S  C   8  -0.03437     0.00132    -0.11243    -0.00983     0.17366     0.01177
 PX  C   8   0.10428    -0.03450     0.04200     0.17222     0.04206     0.06652
 PY  C   8   0.19054     0.03149     0.07598    -0.09178     0.05787     0.10897
 PZ  C   8  -0.01809     0.01084    -0.00870    -0.20465    -0.00768     0.00908
  
  S  C   9   0.09753     0.00050    -0.00461    -0.22173     0.07554     0.15621
 PX  C   9   0.03604    -0.01463     0.04708     0.06947     0.01011    -0.00744
 PY  C   9   0.06025    -0.03642     0.09184     0.15274    -0.07977     0.01869
 PZ  C   9  -0.01496    -0.01567     0.00618     0.01631    -0.04537     0.03923
  
  S  C  10  -0.00442    -0.06862     0.07174     0.23697    -0.10145    -0.03784
 PX  C  10  -0.07043    -0.00391    -0.01164     0.05951    -0.02484    -0.10651
 PY  C  10  -0.12004    -0.01384    -0.04933     0.15431    -0.03207    -0.10269
 PZ  C  10   0.01637    -0.00564    -0.00942     0.00162     0.01311     0.08564
  
  S  N  11  -0.24050    -0.01807     0.08888     0.01087    -0.07225    -0.11859
 PX  N  11  -0.03907    -0.15409    -0.09302     0.18116     0.04599     0.01931
 PY  N  11  -0.11504     0.06376    -0.21107    -0.07149     0.04176    -0.09934
 PZ  N  11  -0.00929     0.02008    -0.00826    -0.09512    -0.00533    -0.00547
  
  S  C  12   0.08666    -0.23465    -0.01763     0.01681    -0.13959     0.13748
 PX  C  12   0.00989     0.01779    -0.20359     0.01841    -0.13048     0.02137
 PY  C  12  -0.12068     0.02134     0.07761     0.17244    -0.01018    -0.06311
 PZ  C  12  -0.00908     0.00028     0.01833    -0.01597     0.00357    -0.00696
  
  S  C  13   0.12340     0.05786    -0.21327    -0.03038    -0.06487    -0.05898
 PX  C  13  -0.01277     0.16550     0.03428    -0.00533     0.15640    -0.16492
 PY  C  13  -0.01552    -0.11292    -0.05446     0.12106    -0.07315     0.03332
 PZ  C  13  -0.00192    -0.01539    -0.00419    -0.00378    -0.01507     0.00707
  
  S  C  14  -0.01028     0.35652     0.14081    -0.04223     0.23099    -0.15351
 PX  C  14   0.00770     0.05980     0.00572     0.02170     0.12425    -0.13556
 PY  C  14   0.10663    -0.04237    -0.19459    -0.09582    -0.05093    -0.06049
 PZ  C  14   0.00566    -0.00577    -0.01205    -0.01000    -0.01060     0.00269
  
  S  C  15  -0.19764     0.15676     0.28244     0.16248    -0.01565     0.10531
 PX  C  15   0.02497     0.18468     0.10510    -0.01222     0.18208    -0.06917
 PY  C  15   0.04223     0.01604    -0.03637    -0.10174     0.01156     0.00298
 PZ  C  15   0.00052    -0.01000    -0.00835    -0.00640    -0.01048     0.00380
  
  S  C  16  -0.12482    -0.19168    -0.09729     0.06271    -0.10797    -0.04345
 PX  C  16  -0.05582     0.04851     0.14776     0.04142    -0.11181     0.17618
 PY  C  16   0.08273    -0.08342    -0.10181    -0.12626     0.05057    -0.01983
 PZ  C  16   0.00833    -0.00752    -0.01582    -0.01197     0.01083    -0.01376
  
  S  C  17   0.12045    -0.20418    -0.12277    -0.10289     0.15429    -0.08299
 PX  C  17  -0.00301    -0.13611     0.02542    -0.06662    -0.20376     0.16884
 PY  C  17   0.08624     0.05386     0.16827    -0.00030     0.05084     0.10310
 PZ  C  17   0.00496     0.01361     0.00753    -0.00244     0.01758    -0.00710
  
  S  C  18   0.08719     0.22258    -0.11609     0.08880     0.17456    -0.03814
 PX  C  18   0.09156    -0.12154     0.10685    -0.06876     0.15912    -0.06869
 PY  C  18   0.05379     0.06984     0.13500     0.04371    -0.11261     0.19989
 PZ  C  18  -0.00442     0.01344    -0.00028     0.00023    -0.01873     0.01765
  
  S  C  19   0.06905     0.24361    -0.01057    -0.00752    -0.15353     0.08903
 PX  C  19  -0.10707    -0.02186     0.18574    -0.12589     0.05426    -0.10944
 PY  C  19  -0.06401    -0.03614    -0.10509    -0.10086    -0.13217    -0.08908
 PZ  C  19   0.00185    -0.00001    -0.02037    -0.02163    -0.00888     0.00638
  
  S  C  20   0.16143    -0.03703    -0.20675     0.04842    -0.06282    -0.06328
 PX  C  20  -0.03540     0.19245    -0.06407    -0.07665    -0.18254     0.07294
 PY  C  20  -0.01887    -0.05149    -0.01541    -0.07524     0.05526    -0.12408
 PZ  C  20   0.00120    -0.01363     0.00154    -0.00987     0.01471    -0.00502
  
  S  C  21   0.05537    -0.35642     0.13829     0.01593     0.24176    -0.12385
 PX  C  21   0.07667     0.08360    -0.14297     0.10111    -0.10304     0.07770
 PY  C  21   0.09092    -0.00377    -0.12052     0.05090     0.06904    -0.11946
 PZ  C  21  -0.00118    -0.00535     0.00387    -0.00744     0.00973    -0.00867
  
  S  C  22  -0.19908    -0.18809     0.26903    -0.17125    -0.04743     0.03922
 PX  C  22  -0.00145     0.11267    -0.09240     0.08115    -0.09471     0.08743
 PY  C  22   0.08149    -0.14121     0.05693     0.05682     0.15955    -0.01469
 PZ  C  22   0.00423    -0.01375     0.00856    -0.00391     0.01370    -0.00590
  
  S  C  23  -0.18131     0.17405    -0.10133    -0.03836    -0.11474    -0.04876
 PX  C  23   0.09397     0.11188    -0.16669     0.11979     0.13818    -0.07178
 PY  C  23   0.01116     0.01969     0.04564     0.04778    -0.03903     0.14220
 PZ  C  23  -0.00607    -0.00620     0.01394    -0.00772    -0.01231     0.01344
  
  S  C  24   0.15130     0.01683     0.08683    -0.06352    -0.11515    -0.10699
 PX  C  24  -0.12486    -0.01548    -0.06057     0.05499     0.07763     0.07581
 PY  C  24  -0.16806    -0.01934    -0.06473     0.06092     0.00362    -0.06031
 PZ  C  24   0.00121    -0.00049     0.00159     0.00398    -0.00649    -0.00967
  
  S  O  25  -0.07322    -0.01156    -0.01620     0.05899    -0.02098    -0.06310
 PX  O  25   0.00618     0.00116    -0.00257     0.00146     0.00796     0.00547
 PY  O  25  -0.04694    -0.00632    -0.01759     0.03342    -0.00917    -0.04383
 PZ  O  25  -0.00421    -0.00075    -0.00118     0.00355    -0.00068    -0.00221
  
  S  O  26  -0.09188    -0.00826    -0.05343     0.00713     0.08306     0.10352
 PX  O  26  -0.04625    -0.00545    -0.01911     0.01574     0.00400    -0.01246
 PY  O  26  -0.13339    -0.01511    -0.09185     0.05652     0.18896     0.23840
 PZ  O  26  -0.00430    -0.00065    -0.00432     0.00382     0.01290     0.01848
  
  S  H  27  -0.07633     0.00734    -0.07309    -0.12550     0.13011     0.19163
  
  S  H  28  -0.02326     0.03454     0.00606    -0.15414    -0.07025    -0.00105
  
  S  H  29   0.06453     0.00100    -0.01801     0.15188     0.03242     0.07566
  
  S  H  30   0.02256     0.00687    -0.03543    -0.15842     0.02093     0.09188
  
  S  H  31  -0.02564    -0.04014     0.01512     0.17245    -0.05198    -0.00330
  
  S  H  32   0.05231     0.04232    -0.11803     0.04560     0.00143    -0.07869
  
  S  H  33  -0.01282     0.21266     0.09640     0.00329     0.19761    -0.15202
  
  S  H  34  -0.11447     0.10313     0.18060     0.13616     0.02224     0.03802
  
  S  H  35  -0.07720    -0.07416    -0.06445     0.07056    -0.03337    -0.08866
  
  S  H  36   0.06699    -0.03307    -0.11876    -0.03565    -0.00815    -0.09854
  
  S  H  37   0.02345    -0.21365     0.09312    -0.02227     0.19810    -0.14525
  
  S  H  38  -0.11374    -0.12153     0.17109    -0.14320    -0.00687    -0.02641
  
  S  H  39  -0.10268     0.06371    -0.06827    -0.05480    -0.04535    -0.11030
  
  S  H  40  -0.11060    -0.01194    -0.06939     0.03734     0.12568     0.15327




    ROOT NO.   19          20          21          22          23          24

           -24.92757   -24.88556   -23.75202   -23.29710   -22.90538   -21.28657
  
  
  S  N   1   0.07312     0.02616     0.03522     0.15159    -0.05747     0.02838
 PX  N   1  -0.00592    -0.00753    -0.00692    -0.03515     0.01780    -0.01391
 PY  N   1   0.04150    -0.00050     0.00811     0.01832    -0.01189     0.00127
 PZ  N   1  -0.00565     0.00720     0.00125     0.00613    -0.01493     0.00594
  
  S  C   2  -0.07880    -0.05188    -0.04988    -0.21646     0.11747    -0.03888
 PX  C   2  -0.10727    -0.05426    -0.05675    -0.23814     0.11448    -0.03501
 PY  C   2   0.09865     0.00972     0.01989     0.04591    -0.04193     0.00864
 PZ  C   2  -0.00516     0.01399     0.00507     0.02294    -0.03265     0.01018
  
  S  C   3  -0.04605    -0.01512    -0.02048    -0.04984     0.13015     0.10026
 PX  C   3   0.11358     0.07935     0.07180     0.33328    -0.09530     0.13300
 PY  C   3   0.18912     0.03517     0.04209     0.10488    -0.13800     0.08463
 PZ  C   3  -0.01757    -0.00248    -0.00061     0.00121    -0.02758    -0.00265
  
  S  C   4   0.03131     0.02995     0.02598     0.10144    -0.05163    -0.14777
 PX  C   4   0.16207     0.09180     0.05620     0.18438    -0.11181     0.02329
 PY  C   4  -0.06714     0.04004     0.00513     0.11645     0.15000     0.20705
 PZ  C   4  -0.05418    -0.01994     0.00084     0.03721    -0.01911     0.00732
  
  S  C   5   0.10595    -0.14338     0.00759     0.02499    -0.02069    -0.01554
 PX  C   5   0.10007     0.07227     0.00459    -0.07719    -0.05645    -0.10183
 PY  C   5  -0.10784     0.03367    -0.01827    -0.11009    -0.11136    -0.22055
 PZ  C   5  -0.09562    -0.03779     0.01855     0.12648    -0.08554    -0.00189
  
  S  C   6  -0.00105     0.18618    -0.02502    -0.14590     0.04078     0.16429
 PX  C   6   0.00481     0.14539     0.00236    -0.10500    -0.08962     0.00823
 PY  C   6   0.19755    -0.05136     0.00801    -0.06887    -0.00770     0.01497
 PZ  C   6   0.14160    -0.18785     0.01891     0.11358     0.08456    -0.00883
  
  S  C   7  -0.23103     0.05176    -0.01573     0.06118    -0.10874    -0.12835
 PX  C   7  -0.07137     0.19444     0.00852    -0.06720     0.00741     0.05782
 PY  C   7  -0.00743     0.00382    -0.01906    -0.01320     0.14543     0.13435
 PZ  C   7   0.13851    -0.20346     0.00449     0.06528     0.10178    -0.00891
  
  S  C   8   0.06574    -0.23560    -0.00839    -0.05797    -0.04743    -0.05984
 PX  C   8   0.03368    -0.03824    -0.00261     0.08926     0.02770    -0.09585
 PY  C   8  -0.00021    -0.10851     0.00371     0.05928     0.17739    -0.19417
 PZ  C   8   0.09885     0.03691     0.00680    -0.14318     0.10651     0.00798
  
  S  C   9   0.06992     0.16590    -0.00123    -0.17502     0.04226    -0.11970
 PX  C   9   0.06823    -0.12198     0.03123     0.09414     0.05406     0.05578
 PY  C   9  -0.03178     0.14350     0.01692     0.13507    -0.04779     0.10813
 PZ  C   9  -0.04084     0.24391    -0.00447    -0.07378    -0.10614     0.00765
  
  S  C  10  -0.08927     0.14477     0.02901     0.11764    -0.14864     0.14708
 PX  C  10   0.03283    -0.17823     0.00912     0.08070     0.02551     0.01703
 PY  C  10  -0.13480    -0.03780    -0.01744    -0.01068    -0.11634     0.01984
 PZ  C  10  -0.06404     0.21824     0.00092    -0.07121    -0.14124    -0.00022
  
  S  N  11   0.01246     0.06157     0.00645     0.02537    -0.01613     0.21345
 PX  N  11   0.26626     0.05928    -0.12940    -0.11756    -0.04409     0.05549
 PY  N  11  -0.08400    -0.11550     0.04791    -0.08864    -0.20223     0.12617
 PZ  N  11   0.01186     0.00397     0.01309    -0.06588     0.04422     0.01001
  
  S  C  12   0.13420     0.01610    -0.18112    -0.01819     0.06850    -0.04132
 PX  C  12   0.04798     0.01713     0.06811    -0.03742     0.03223     0.01931
 PY  C  12   0.16062     0.17832     0.05513     0.02269     0.12112     0.03940
 PZ  C  12   0.02286     0.01037    -0.00068    -0.01640     0.03000     0.00944
  
  S  C  13   0.01277     0.07744     0.22165     0.01833     0.15243    -0.07358
 PX  C  13  -0.08000     0.07014     0.21835     0.05774     0.05529    -0.03780
 PY  C  13   0.12017     0.12201     0.05851    -0.00584     0.12041    -0.11839
 PZ  C  13   0.02157     0.00063    -0.00619    -0.00922     0.01930     0.00190
  
  S  C  14  -0.06687    -0.00742    -0.02596     0.02693    -0.07604     0.08245
 PX  C  14  -0.00193     0.09415     0.12513     0.04645     0.07493    -0.04086
 PY  C  14  -0.08741    -0.00787     0.22285     0.03268     0.07035    -0.00524
 PZ  C  14  -0.00272    -0.00648     0.00775    -0.00235     0.00473     0.00447
  
  S  C  15   0.13785     0.05349    -0.11271    -0.03555     0.04207    -0.07575
 PX  C  15   0.00842    -0.00519    -0.18015    -0.00904    -0.08389     0.02059
 PY  C  15  -0.10646    -0.12507    -0.09425    -0.01009    -0.16820     0.15516
 PZ  C  15  -0.00589    -0.00718     0.00603    -0.00116    -0.00295     0.00950
  
  S  C  16  -0.01273     0.07444     0.25770     0.03692     0.08603     0.02201
 PX  C  16   0.05328    -0.05982    -0.11088    -0.04528    -0.01405    -0.03417
 PY  C  16  -0.12062    -0.13212    -0.13733    -0.01617    -0.20044     0.11703
 PZ  C  16  -0.00893    -0.00315    -0.00041    -0.00034    -0.00786     0.01036
  
  S  C  17  -0.09610    -0.06298    -0.05056    -0.00261    -0.11187    -0.01155
 PX  C  17  -0.05063    -0.11801    -0.09638     0.00324    -0.05612     0.04812
 PY  C  17   0.05826    -0.02136    -0.13769    -0.02033     0.04520    -0.14252
 PZ  C  17   0.01210     0.00846    -0.00059    -0.00969     0.01485    -0.00925
  
  S  C  18   0.11101     0.01248     0.03966    -0.11659    -0.04108    -0.00297
 PX  C  18  -0.09514    -0.00159     0.04100     0.05508     0.01946    -0.14579
 PY  C  18  -0.00234    -0.10510     0.15188    -0.04516    -0.00719    -0.06093
 PZ  C  18   0.01073    -0.00328     0.00581    -0.01662     0.00442     0.00702
  
  S  C  19  -0.13810    -0.08554     0.18223     0.05729     0.00541    -0.04608
 PX  C  19  -0.11204     0.05004     0.01597     0.07193     0.06163     0.02379
 PY  C  19  -0.15001     0.02427    -0.07184     0.13890     0.01726     0.03490
 PZ  C  19   0.01076     0.00784    -0.00506    -0.02809     0.01019    -0.00281
  
  S  C  20  -0.01952     0.06620    -0.20431     0.15715     0.07564    -0.08222
 PX  C  20  -0.16093    -0.06667     0.10004     0.05792    -0.01704    -0.07071
 PY  C  20  -0.05513     0.10756    -0.18643     0.11944     0.09166    -0.10468
 PZ  C  20   0.01067     0.01663    -0.01288    -0.01587     0.00685    -0.00453
  
  S  C  21   0.08410     0.04786     0.02470    -0.07197    -0.01137     0.09151
 PX  C  21   0.08034    -0.01533    -0.08592     0.00445    -0.00487     0.01614
 PY  C  21   0.05607     0.10868    -0.22451     0.10172     0.09355    -0.03047
 PZ  C  21  -0.00229     0.00750    -0.00295    -0.00124     0.00485    -0.00404
  
  S  C  22  -0.16392    -0.05696     0.11033     0.03620    -0.01166    -0.08313
 PX  C  22   0.10443    -0.02080    -0.05402    -0.06259    -0.02957     0.10512
 PY  C  22   0.09181    -0.03079     0.18203    -0.16795    -0.08909     0.12585
 PZ  C  22  -0.00240     0.00054     0.01265    -0.00591    -0.00147    -0.00228
  
  S  C  23  -0.00094     0.08108    -0.24240     0.10184     0.06998     0.02565
 PX  C  23   0.15438     0.04251     0.02349    -0.12837    -0.04726     0.12289
 PY  C  23   0.05799    -0.09738     0.15379    -0.14525    -0.09497     0.05127
 PZ  C  23  -0.00660    -0.00744     0.00646    -0.00204     0.00016    -0.00640
  
  S  C  24   0.15355     0.02760     0.04402     0.13165    -0.18293    -0.02387
 PX  C  24  -0.10901    -0.01829    -0.02645    -0.06066     0.12713     0.06876
 PY  C  24  -0.05537    -0.03690    -0.02360    -0.13187    -0.07633    -0.27870
 PZ  C  24   0.00413     0.00093     0.00295     0.00850    -0.02835    -0.02417
  
  S  O  25  -0.07820    -0.04020    -0.03641    -0.15396     0.06973    -0.05172
 PX  O  25  -0.01985    -0.00548    -0.01082    -0.04617     0.04332    -0.00156
 PY  O  25  -0.04183    -0.02612    -0.02074    -0.10152    -0.00549    -0.13691
 PZ  O  25  -0.00177    -0.00047     0.00051     0.00270    -0.00881    -0.00798
  
  S  O  26  -0.04198     0.00933    -0.00234     0.02436     0.07210     0.08375
 PX  O  26  -0.00907    -0.00678    -0.00180    -0.01857    -0.05245    -0.12312
 PY  O  26  -0.19724    -0.00785    -0.04303    -0.05097     0.35587     0.33676
 PZ  O  26  -0.01370     0.00093    -0.00203     0.00300     0.02573     0.03751
  
  S  H  27   0.11750     0.07849     0.04850     0.16649    -0.09311    -0.04826
  
  S  H  28  -0.02368     0.23069    -0.01718    -0.17971    -0.05939     0.09223
  
  S  H  29  -0.18321     0.15596     0.00686    -0.00197    -0.15621    -0.11481
  
  S  H  30  -0.01194     0.22306    -0.02511    -0.17893    -0.03697    -0.10632
  
  S  H  31  -0.14159     0.18362     0.00405     0.00325    -0.19109     0.07942
  
  S  H  32   0.02102     0.12983     0.23737     0.03189     0.15255    -0.12267
  
  S  H  33  -0.02467     0.05467     0.03518     0.03925    -0.00161     0.01484
  
  S  H  34   0.13520     0.10011    -0.04077    -0.01394     0.10850    -0.13756
  
  S  H  35   0.02829     0.12827     0.23946     0.04995     0.15346    -0.03366
  
  S  H  36  -0.05544     0.10362    -0.21964     0.15150     0.09640    -0.12584
  
  S  H  37   0.02398     0.07303    -0.02907    -0.00099     0.03360     0.02505
  
  S  H  38  -0.16588    -0.01007     0.04670     0.09753     0.03426    -0.14466
  
  S  H  39  -0.04906     0.10173    -0.21762     0.15962     0.10561    -0.03277
  
  S  H  40  -0.12352    -0.00458    -0.02605    -0.03195     0.20661     0.17863




    ROOT NO.   25          26          27          28          29          30

           -20.30948   -19.35904   -18.96688   -17.98698   -17.77295   -17.18248
  
  
  S  N   1   0.03368     0.00664     0.11297    -0.01941    -0.02504     0.03191
 PX  N   1  -0.01504    -0.00157    -0.06239     0.01331     0.02001    -0.01937
 PY  N   1  -0.01239    -0.02500    -0.06696    -0.03811     0.05275     0.04464
 PZ  N   1   0.00606    -0.00515     0.01000    -0.03007     0.01395    -0.03426
  
  S  C   2  -0.05315    -0.00505    -0.15134     0.03818     0.02646    -0.02148
 PX  C   2  -0.04532    -0.00521    -0.11267     0.02361     0.01470    -0.01372
 PY  C   2  -0.02264    -0.05129    -0.12081    -0.07009     0.08106     0.05861
 PZ  C   2   0.01276    -0.00812     0.01961    -0.05076     0.02798    -0.04739
  
  S  C   3  -0.01587    -0.02484     0.01887     0.02091    -0.05480     0.00772
 PX  C   3   0.06540    -0.01279     0.20270    -0.04102    -0.05304     0.01707
 PY  C   3  -0.02676    -0.15788    -0.16724    -0.20291     0.00577     0.13347
 PZ  C   3   0.01550    -0.00783     0.02096    -0.07737     0.06150    -0.03264
  
  S  C   4   0.01463     0.10550    -0.00853     0.08423     0.09706    -0.05135
 PX  C   4  -0.02800    -0.03410    -0.21889    -0.00996     0.16846    -0.12096
 PY  C   4   0.02606     0.03625     0.16755     0.14112    -0.02588    -0.16501
 PZ  C   4   0.04085     0.00746     0.09406    -0.08811     0.07667    -0.00394
  
  S  C   5   0.00125    -0.07727    -0.00083    -0.09753    -0.03329     0.22848
 PX  C   5  -0.05984    -0.00860    -0.17740     0.01106    -0.02515     0.01424
 PY  C   5   0.02470     0.07236     0.02250    -0.05890     0.01404     0.06021
 PZ  C   5   0.07983     0.00868     0.13145    -0.17190     0.18256     0.01539
  
  S  C   6  -0.01176    -0.01526     0.07485     0.02567    -0.04488    -0.14303
 PX  C   6  -0.02144    -0.03587    -0.02365    -0.07625    -0.02901    -0.11697
 PY  C   6  -0.09200    -0.11418    -0.19562     0.04094    -0.22144     0.02791
 PZ  C   6  -0.03663    -0.04040    -0.10486     0.05312    -0.01138     0.14720
  
  S  C   7   0.03320     0.03871    -0.03981    -0.01874     0.04282     0.13556
 PX  C   7   0.04869     0.02240     0.17301    -0.08118     0.14979     0.07540
 PY  C   7   0.05512     0.09394     0.19712     0.04811     0.11873    -0.16555
 PZ  C   7  -0.05582     0.00557    -0.06445     0.08004    -0.05425    -0.19682
  
  S  C   8  -0.00138    -0.02076    -0.01092    -0.09266    -0.07297    -0.17199
 PX  C   8  -0.08598     0.02527    -0.10758     0.06410    -0.02515     0.01445
 PY  C   8   0.03595     0.09604     0.00399     0.02056     0.06637     0.04638
 PZ  C   8   0.03363     0.04186     0.23569    -0.14820     0.14937     0.01104
  
  S  C   9  -0.03472     0.05118    -0.01075     0.01203     0.00496     0.13613
 PX  C   9  -0.00711     0.03925    -0.01560     0.04150     0.05406    -0.15589
 PY  C   9  -0.06727    -0.00054    -0.21566     0.25418    -0.07954    -0.06194
 PZ  C   9  -0.05760    -0.02572    -0.08500     0.02607    -0.05352     0.17425
  
  S  C  10   0.01505    -0.04365    -0.02242    -0.00430     0.00478    -0.12801
 PX  C  10   0.05340    -0.03139     0.13532    -0.16882     0.11011     0.11847
 PY  C  10   0.07722    -0.05304     0.15815    -0.20964     0.00488    -0.07016
 PZ  C  10  -0.03449    -0.00546    -0.11670     0.01127    -0.05387    -0.17156
  
  S  N  11   0.00240     0.13431    -0.00887     0.05755     0.03203     0.00162
 PX  N  11  -0.26745    -0.05290     0.09973    -0.03892    -0.04673    -0.07201
 PY  N  11   0.12014    -0.17702     0.00270    -0.07630    -0.08556    -0.14362
 PZ  N  11   0.05209     0.02373     0.17306    -0.12705     0.12784     0.00218
  
  S  C  12  -0.07152    -0.03372     0.09100     0.05929     0.08251     0.02998
 PX  C  12   0.17451    -0.17437     0.03680     0.15877     0.08656     0.00698
 PY  C  12  -0.12670     0.07553     0.01504     0.12096     0.04956     0.07218
 PZ  C  12  -0.00845     0.02885     0.07602    -0.05217     0.05720    -0.01741
  
  S  C  13   0.14362    -0.06552    -0.00431    -0.01995    -0.02277    -0.05520
 PX  C  13  -0.07184     0.12198    -0.06006    -0.17303    -0.11627    -0.04399
 PY  C  13  -0.02324    -0.21109     0.09821     0.04137     0.07475     0.03809
 PZ  C  13   0.00468    -0.01252     0.04228    -0.00600     0.03431    -0.02153
  
  S  C  14  -0.15334     0.11401    -0.01040     0.03361     0.01329     0.03680
 PX  C  14  -0.25443     0.05215     0.07880    -0.04652     0.03135     0.01071
 PY  C  14   0.10615     0.16074    -0.09865    -0.14114    -0.13061    -0.09736
 PZ  C  14   0.02162     0.01086     0.00330    -0.01559     0.00164    -0.01820
  
  S  C  15   0.12974    -0.13166     0.00627    -0.01909    -0.02178    -0.03191
 PX  C  15  -0.12650    -0.18033     0.11740     0.14966     0.13712     0.04301
 PY  C  15  -0.00629     0.14470    -0.08738     0.08576     0.00608     0.09857
 PZ  C  15   0.00797     0.02285    -0.00289    -0.01171     0.00165    -0.00195
  
  S  C  16  -0.08839     0.14898    -0.02717     0.00309     0.00068     0.03894
 PX  C  16   0.23442     0.02980    -0.10520    -0.13900    -0.13692    -0.05408
 PY  C  16  -0.08345    -0.06074     0.02078     0.06503     0.04925     0.04822
 PZ  C  16  -0.01832    -0.00309     0.02428     0.00062     0.02808     0.00219
  
  S  C  17  -0.16519    -0.12330     0.07253    -0.05168    -0.00291    -0.04039
 PX  C  17  -0.04197     0.16824    -0.02471    -0.03761     0.02225     0.06075
 PY  C  17   0.09354    -0.03510    -0.01279    -0.15939    -0.09819    -0.08961
 PZ  C  17   0.01509    -0.00881     0.03973    -0.03623     0.02754    -0.01574
  
  S  C  18   0.16395    -0.14258    -0.01106    -0.00081    -0.06106    -0.05101
 PX  C  18  -0.10160    -0.13194     0.02296    -0.10702    -0.07262    -0.10281
 PY  C  18  -0.03136     0.09774    -0.06684    -0.10142    -0.08287    -0.01643
 PZ  C  18   0.01231     0.02180     0.03171    -0.03181     0.03474     0.01472
  
  S  C  19   0.07058    -0.06410    -0.05412     0.11080     0.03817     0.03129
 PX  C  19   0.21223     0.14995    -0.07261    -0.03465     0.01267     0.05541
 PY  C  19  -0.04669    -0.07895     0.05185     0.17118     0.13401     0.05975
 PZ  C  19  -0.00650    -0.00229     0.08092    -0.05158     0.06322     0.02367
  
  S  C  20  -0.14507    -0.05486     0.02805    -0.02176    -0.02468    -0.05676
 PX  C  20  -0.03238    -0.25066     0.04148     0.19809     0.07579     0.04886
 PY  C  20   0.06741    -0.05748    -0.02075    -0.06445    -0.08638    -0.02258
 PZ  C  20   0.00693     0.01726     0.02624    -0.04264     0.01611     0.02264
  
  S  C  21   0.15544     0.10324    -0.03288     0.01545     0.03986     0.04352
 PX  C  21  -0.24729     0.12726     0.05135    -0.15460    -0.03863    -0.07118
 PY  C  21   0.12054     0.12451    -0.09180    -0.10612    -0.08043    -0.05449
 PZ  C  21   0.02185    -0.00268     0.00606    -0.00677     0.01154     0.01423
  
  S  C  22  -0.13169    -0.11907     0.04709    -0.01955    -0.02672    -0.03567
 PX  C  22  -0.07578     0.25711     0.00955    -0.12761     0.01489     0.05789
 PY  C  22   0.10057    -0.04121     0.03634     0.15978     0.11713     0.09729
 PZ  C  22   0.01033    -0.01950     0.01071     0.00638     0.01390     0.00612
  
  S  C  23   0.08990     0.14091    -0.04479    -0.01102     0.02103     0.04364
 PX  C  23   0.21922    -0.08640     0.00363     0.18446     0.07790     0.06147
 PY  C  23  -0.11978     0.01024     0.05656    -0.09233    -0.04869    -0.01458
 PZ  C  23  -0.01939     0.00893     0.01796    -0.03349     0.00702    -0.00003
  
  S  C  24   0.03801    -0.00542     0.12643    -0.01383    -0.18257     0.09758
 PX  C  24  -0.00950    -0.01730     0.03488     0.02139    -0.15055     0.06638
 PY  C  24   0.02883     0.20216     0.11404     0.23439    -0.00137    -0.13455
 PZ  C  24   0.01282     0.01717     0.03072    -0.02320     0.04978    -0.04863
  
  S  O  25  -0.03889    -0.00751    -0.19413    -0.06278     0.33156    -0.12089
 PX  O  25  -0.03351    -0.02861    -0.21085    -0.10177     0.41703    -0.15873
 PY  O  25   0.00343     0.10573     0.03208     0.14289     0.02601    -0.09527
 PZ  O  25   0.00860     0.01123     0.04001    -0.00114    -0.02352    -0.01164
  
  S  O  26  -0.01426    -0.05623    -0.08573    -0.10451     0.15055    -0.01120
 PX  O  26   0.03540     0.13788     0.20110     0.24142    -0.24557    -0.04722
 PY  O  26  -0.06092    -0.17181    -0.10847    -0.09813    -0.13877     0.12981
 PZ  O  26  -0.00273    -0.02584    -0.01195    -0.06016     0.04219    -0.01503
  
  S  H  27  -0.01616     0.02542    -0.17335     0.04003     0.17823    -0.13456
  
  S  H  28  -0.01662    -0.02518     0.03748    -0.04260    -0.07232    -0.21979
  
  S  H  29   0.03006    -0.02968    -0.04788    -0.09049     0.02501     0.28990
  
  S  H  30  -0.03184    -0.01115     0.00327    -0.04924    -0.03614     0.26819
  
  S  H  31   0.01646    -0.04118    -0.02082    -0.06306    -0.04671    -0.23630
  
  S  H  32   0.02731    -0.08986     0.01777    -0.08500    -0.02954    -0.01843
  
  S  H  33  -0.27742     0.07122     0.06851     0.00416     0.05250     0.04550
  
  S  H  34   0.04119    -0.21743     0.09621    -0.03338     0.02112    -0.08048
  
  S  H  35  -0.10253     0.09954     0.02322     0.03968     0.04482     0.02172
  
  S  H  36  -0.02952    -0.09031     0.00453    -0.04941    -0.07800    -0.03223
  
  S  H  37   0.27812     0.03187    -0.08954     0.05487     0.00687     0.04375
  
  S  H  38  -0.04474    -0.23048     0.00765     0.03738    -0.05912    -0.09179
  
  S  H  39   0.10282     0.07786    -0.06432     0.05124     0.04468     0.02994
  
  S  H  40  -0.03088    -0.07657    -0.03561    -0.01498    -0.11223     0.06072




    ROOT NO.   31          32          33          34          35          36

           -16.79949   -16.63242   -16.35095   -16.05049   -15.89997   -15.68174
  
  
  S  N   1   0.09842     0.14851     0.12683    -0.06013     0.05568    -0.00039
 PX  N   1  -0.07828    -0.12158    -0.11085     0.05484    -0.04721     0.00701
 PY  N   1  -0.01459    -0.02370    -0.02914    -0.00165    -0.02645     0.03272
 PZ  N   1   0.00144    -0.04868     0.00895     0.04952     0.11257     0.00037
  
  S  C   2  -0.10713    -0.14875    -0.13645     0.05171    -0.04763     0.01568
 PX  C   2  -0.04943    -0.06581    -0.05168     0.01722    -0.00128     0.00801
 PY  C   2  -0.02288    -0.04181    -0.03577     0.00306    -0.03575     0.03121
 PZ  C   2  -0.00066    -0.07779     0.00370     0.07390     0.15749     0.01098
  
  S  C   3   0.02160     0.05081     0.02318    -0.02387     0.03631     0.00742
 PX  C   3   0.11372     0.15471     0.13044    -0.04255     0.06579    -0.00911
 PY  C   3  -0.06849    -0.15093    -0.00093     0.03694    -0.05323    -0.00895
 PZ  C   3  -0.01028    -0.12372    -0.02634     0.10791     0.22957     0.07564
  
  S  C   4  -0.00301     0.00352    -0.04896     0.00906    -0.01488    -0.00154
 PX  C   4  -0.14219    -0.22014    -0.22864     0.09748    -0.09268     0.00317
 PY  C   4   0.07454     0.17157    -0.01599    -0.03954     0.03158    -0.00104
 PZ  C   4   0.00981    -0.08147    -0.02350     0.04969     0.09530     0.03983
  
  S  C   5   0.03805     0.04265     0.01936    -0.00453     0.01832    -0.00315
 PX  C   5  -0.04753    -0.10354    -0.00603     0.00764     0.08163    -0.09942
 PY  C   5  -0.00109    -0.03441     0.10680    -0.00641    -0.03819     0.04117
 PZ  C   5  -0.03897    -0.13374    -0.08602    -0.00446    -0.11580     0.14669
  
  S  C   6   0.02596     0.01370     0.02227     0.00280     0.04119    -0.03879
 PX  C   6  -0.06944    -0.07194     0.04795    -0.08221    -0.06010     0.20004
 PY  C   6  -0.01732     0.10722     0.12411    -0.04483     0.03472     0.08515
 PZ  C   6   0.02191     0.01123    -0.09981     0.01491     0.11597    -0.20042
  
  S  C   7   0.01256    -0.02893    -0.01244     0.02447     0.00907    -0.08517
 PX  C   7  -0.01337    -0.02921    -0.13778    -0.06636    -0.03998     0.05744
 PY  C   7   0.05243    -0.04134    -0.06235     0.09851     0.01974    -0.17026
 PZ  C   7   0.01681    -0.08364     0.01709    -0.01966     0.11872    -0.19428
  
  S  C   8  -0.02939    -0.06687     0.10115    -0.01222    -0.01154     0.00085
 PX  C   8   0.03942    -0.08926    -0.00726    -0.10763     0.10550    -0.13435
 PY  C   8  -0.04985    -0.05679     0.07142     0.06803    -0.02356     0.05650
 PZ  C   8  -0.02929    -0.09194    -0.06891    -0.11642    -0.07034     0.13895
  
  S  C   9   0.00509     0.03225     0.01866    -0.01829     0.00720     0.08451
 PX  C   9  -0.09918    -0.05236    -0.03941    -0.11986    -0.07146     0.16579
 PY  C   9  -0.01796     0.14366    -0.05305    -0.00571    -0.01643     0.08148
 PZ  C   9   0.08192     0.02933    -0.02897    -0.02854     0.13166    -0.19446
  
  S  C  10  -0.04076    -0.00911    -0.01529    -0.01922    -0.06892     0.04094
 PX  C  10   0.00962    -0.06861    -0.06136    -0.02620    -0.04180     0.06431
 PY  C  10   0.03795    -0.11457     0.08451     0.07183     0.02775    -0.19764
 PZ  C  10  -0.03893    -0.11671     0.05013    -0.00191     0.08079    -0.20850
  
  S  N  11   0.01332     0.05447    -0.10882     0.01099    -0.00054    -0.00031
 PX  N  11   0.21423    -0.09396    -0.03307    -0.12882     0.00366     0.01832
 PY  N  11  -0.08496     0.09475     0.03614     0.03132    -0.03534    -0.00286
 PZ  N  11   0.00038    -0.13808    -0.10294    -0.17251     0.01021    -0.16309
  
  S  C  12  -0.00411    -0.07568     0.14576     0.12478    -0.05443    -0.00899
 PX  C  12   0.01374    -0.06890     0.05335    -0.00901    -0.03315     0.04801
 PY  C  12   0.17067    -0.06439    -0.12469    -0.12052     0.03751     0.07063
 PZ  C  12   0.02579    -0.08848    -0.08089    -0.12783     0.02720    -0.15647
  
  S  C  13  -0.04939     0.05163    -0.03080     0.00539     0.01111    -0.01182
 PX  C  13  -0.04999     0.14628    -0.19267    -0.09788     0.09042    -0.05387
 PY  C  13  -0.20730     0.12529    -0.11243    -0.12290     0.09397     0.02231
 PZ  C  13  -0.00287    -0.04065    -0.03622    -0.06457     0.02086    -0.09496
  
  S  C  14   0.10681    -0.08757     0.04403    -0.00049    -0.02643     0.02781
 PX  C  14  -0.08735     0.00280     0.11040     0.10813    -0.01825    -0.05682
 PY  C  14   0.08778    -0.00096     0.04875     0.13230    -0.05338    -0.06451
 PZ  C  14   0.01591    -0.02459    -0.02726    -0.03891     0.00998    -0.06647
  
  S  C  15  -0.04540     0.07117    -0.08599    -0.04290     0.03317    -0.01017
 PX  C  15  -0.12366    -0.00745     0.05986    -0.00180    -0.00986     0.03392
 PY  C  15   0.19700    -0.09621    -0.11643    -0.19848     0.04117     0.10846
 PZ  C  15   0.02628    -0.02852    -0.03146    -0.05151     0.01304    -0.05502
  
  S  C  16   0.07529    -0.05563     0.00618    -0.02705    -0.00124     0.03001
 PX  C  16   0.06713     0.08019    -0.16897    -0.07871     0.05772    -0.04478
 PY  C  16  -0.14533     0.15272    -0.20997    -0.15080     0.11584    -0.00836
 PZ  C  16  -0.00403    -0.03059    -0.02945    -0.05991     0.01518    -0.07833
  
  S  C  17  -0.15240     0.12120    -0.04902     0.00276     0.03036    -0.04313
 PX  C  17  -0.08323     0.00153     0.06672     0.04211     0.01234    -0.05113
 PY  C  17   0.00857    -0.01838     0.14881     0.15563    -0.07482    -0.04038
 PZ  C  17   0.02259    -0.06643    -0.04906    -0.09593     0.01595    -0.13784
  
  S  C  18   0.17796    -0.02842    -0.08071     0.00426    -0.03451     0.04295
 PX  C  18  -0.06597     0.01265     0.03935    -0.12927     0.02470     0.00025
 PY  C  18   0.03652    -0.07871     0.09400    -0.16706     0.02753     0.07202
 PZ  C  18   0.02429    -0.07069    -0.04533    -0.10234     0.02249    -0.13530
  
  S  C  19  -0.04414    -0.08484     0.10440    -0.14916     0.04996     0.00986
 PX  C  19  -0.08849     0.09833    -0.08713     0.13101    -0.01993    -0.01998
 PY  C  19  -0.14471     0.05122     0.01735     0.10996     0.01093    -0.07719
 PZ  C  19   0.02025    -0.09087    -0.05269    -0.12578     0.02921    -0.16030
  
  S  C  20   0.05600    -0.00760    -0.04899    -0.00065    -0.01807     0.01139
 PX  C  20   0.09365    -0.08769     0.03653     0.03782     0.00663    -0.05079
 PY  C  20   0.24276     0.03533    -0.20411     0.22536    -0.08952     0.02749
 PZ  C  20   0.01543    -0.03413    -0.03231    -0.05788     0.02026    -0.09510
  
  S  C  21  -0.12388     0.02022     0.06738    -0.01069     0.02512    -0.02743
 PX  C  21  -0.10417     0.08096    -0.03314    -0.04233    -0.00110     0.01234
 PY  C  21  -0.00559    -0.04742     0.04752    -0.20276     0.02522     0.08898
 PZ  C  21   0.01417    -0.03235    -0.01043    -0.04785     0.01549    -0.06287
  
  S  C  22   0.07170     0.02645    -0.08235     0.06112    -0.02976     0.00955
 PX  C  22  -0.19459     0.15813    -0.03487     0.18134    -0.00989    -0.05892
 PY  C  22  -0.05308     0.01637     0.03336     0.15415     0.00079    -0.09534
 PZ  C  22   0.01880    -0.03320    -0.01191    -0.04561     0.01175    -0.05989
  
  S  C  23  -0.08198     0.02172     0.03074     0.03232     0.01286    -0.03016
 PX  C  23   0.15049    -0.06048    -0.05025     0.09219    -0.02784    -0.02292
 PY  C  23   0.12868     0.11594    -0.22452     0.22970    -0.08538     0.04027
 PZ  C  23   0.00630    -0.02347    -0.03323    -0.05127     0.01092    -0.07715
  
  S  C  24  -0.04963    -0.08263     0.01321     0.01070    -0.00926    -0.00270
 PX  C  24  -0.08425    -0.13251    -0.04447     0.04128     0.02530     0.02681
 PY  C  24  -0.01363     0.03960    -0.08763    -0.01280    -0.02968    -0.00381
 PZ  C  24   0.01538    -0.07064    -0.01425     0.14466     0.42987     0.19058
  
  S  O  25   0.13039     0.18206     0.05663    -0.03211     0.02950    -0.00487
 PX  O  25   0.18506     0.25083     0.08719    -0.03384     0.08309     0.00737
 PY  O  25   0.00386     0.05456    -0.06156    -0.02127    -0.00801     0.00463
 PZ  O  25  -0.01562    -0.08985    -0.02468     0.12507     0.35439     0.16814
  
  S  O  26   0.08392     0.09234     0.08950    -0.01635     0.01270    -0.01520
 PX  O  26  -0.12062    -0.11425    -0.16806     0.03677     0.04711     0.05256
 PY  O  26  -0.09575    -0.14523    -0.04036     0.01579    -0.05319    -0.00442
 PZ  O  26   0.01457    -0.08204     0.00459     0.17035     0.52002     0.24458
  
  S  H  27  -0.11441    -0.16616    -0.20703     0.07849    -0.09346     0.00233
  
  S  H  28  -0.04621    -0.01936     0.11580    -0.06447    -0.07993     0.24038
  
  S  H  29  -0.04216     0.06103    -0.01999    -0.04455    -0.08777     0.19661
  
  S  H  30   0.11781     0.02834     0.01482     0.04573     0.12962    -0.20036
  
  S  H  31  -0.02568    -0.12705     0.07754     0.04175     0.05352    -0.23793
  
  S  H  32  -0.18202     0.18408    -0.20195    -0.14387     0.11882    -0.02041
  
  S  H  33  -0.03419    -0.03977     0.10648     0.06838    -0.01930    -0.01931
  
  S  H  34  -0.21490     0.11182     0.07035     0.14333    -0.02096    -0.08127
  
  S  H  35   0.09162    -0.17382     0.23812     0.12378    -0.10727     0.04543
  
  S  H  36   0.24315     0.02314    -0.19070     0.20607    -0.08334     0.01855
  
  S  H  37   0.00651    -0.06990     0.07989    -0.08211     0.02711     0.01999
  
  S  H  38   0.20497    -0.11751    -0.02415    -0.16695    -0.00663     0.08176
  
  S  H  39  -0.16603    -0.08170     0.21879    -0.18457     0.08032    -0.04357
  
  S  H  40  -0.07588    -0.10376    -0.05802     0.01881    -0.01381     0.01228




    ROOT NO.   37          38          39          40          41          42

           -15.35587   -15.25615   -14.89784   -14.82431   -14.42426   -13.71053
  
  
  S  N   1  -0.00668     0.04006     0.02833    -0.01053     0.25164    -0.34246
 PX  N   1   0.00843    -0.04402    -0.03178     0.01191    -0.29763     0.46083
 PY  N   1   0.01518    -0.03036    -0.00063     0.00520     0.04421    -0.14670
 PZ  N   1  -0.01103     0.03110    -0.03942    -0.00154     0.05627     0.03966
  
  S  C   2   0.00929    -0.04477    -0.01474     0.01284    -0.12384     0.08569
 PX  C   2   0.00127    -0.00667     0.00396     0.00290     0.09326    -0.22240
 PY  C   2   0.01543    -0.02841    -0.00241     0.00403     0.05147    -0.13782
 PZ  C   2  -0.01128     0.03220    -0.05019    -0.00023     0.04352     0.07294
  
  S  C   3  -0.00197    -0.02208     0.01632     0.03160     0.11266    -0.02904
 PX  C   3  -0.00828     0.02116     0.00654     0.00547     0.01665     0.16140
 PY  C   3   0.00174     0.04314    -0.00591    -0.01157     0.14910     0.01121
 PZ  C   3   0.00238     0.00189    -0.04213     0.00519     0.04787    -0.00193
  
  S  C   4   0.00221    -0.01590    -0.00980    -0.01296    -0.04679    -0.05362
 PX  C   4   0.01226    -0.10947    -0.02922     0.09322     0.00168     0.05885
 PY  C   4  -0.00226    -0.11593     0.01629     0.10795    -0.06134     0.15168
 PZ  C   4   0.01493    -0.00066    -0.08304     0.01618     0.04680    -0.03876
  
  S  C   5  -0.00117    -0.05826    -0.00062     0.02075     0.01318     0.02848
 PX  C   5  -0.03148     0.05414    -0.05082    -0.03663     0.09058    -0.17254
 PY  C   5   0.01085     0.16525     0.01658    -0.14610    -0.01273    -0.11009
 PZ  C   5   0.07325    -0.00692    -0.07972     0.02646     0.06172    -0.09442
  
  S  C   6  -0.00826     0.00776    -0.05269     0.02385    -0.01072     0.00654
 PX  C   6   0.06198     0.13564     0.05125    -0.03513     0.10863    -0.03987
 PY  C   6  -0.00895     0.03972     0.18721    -0.00976     0.04164     0.19029
 PZ  C   6  -0.05718    -0.13674    -0.07564     0.08169     0.01608    -0.04484
  
  S  C   7  -0.02220    -0.03189     0.01553    -0.01717     0.00243    -0.02948
 PX  C   7   0.03207    -0.10315    -0.08872     0.06136    -0.01184    -0.11349
 PY  C   7  -0.02662    -0.02978    -0.19159     0.01247    -0.09168    -0.10125
 PZ  C   7  -0.03493     0.14958    -0.11867    -0.03238     0.05109    -0.08652
  
  S  C   8  -0.00108     0.09579     0.00884    -0.01628     0.03150     0.03095
 PX  C   8  -0.00973     0.10093    -0.01730    -0.05082     0.06975    -0.06341
 PY  C   8  -0.00358     0.24448     0.00392    -0.13270     0.07648     0.09876
 PZ  C   8   0.05832     0.01153    -0.05679     0.01094     0.02426    -0.03002
  
  S  C   9   0.02211    -0.01349    -0.02686    -0.01676    -0.00686    -0.01225
 PX  C   9   0.04233     0.04863     0.07981    -0.04730     0.03677    -0.15960
 PY  C   9   0.00253    -0.09273     0.18830    -0.01947    -0.08321    -0.12038
 PZ  C   9  -0.03113    -0.16375    -0.12043     0.07980    -0.00481    -0.08101
  
  S  C  10   0.01062    -0.00298     0.06398     0.01009    -0.00006    -0.00234
 PX  C  10   0.04654    -0.06885    -0.10448     0.07175     0.06731    -0.03162
 PY  C  10  -0.04399     0.11381    -0.13956     0.01895     0.04018     0.20867
 PZ  C  10  -0.06044     0.11398    -0.07134    -0.03800     0.08215    -0.10458
  
  S  N  11   0.00163    -0.04889    -0.01338    -0.05043    -0.02139    -0.06550
 PX  N  11   0.20448    -0.08785    -0.03881     0.07859    -0.06152     0.00551
 PY  N  11  -0.08460    -0.22527     0.02903     0.16222    -0.08331    -0.06313
 PZ  N  11  -0.04571    -0.02994     0.22520    -0.02658     0.00684    -0.02147
  
  S  C  12   0.03731     0.02543     0.04250     0.08210    -0.00731     0.00279
 PX  C  12  -0.27491    -0.04115     0.00586    -0.01871    -0.00673    -0.02478
 PY  C  12   0.02422     0.09606    -0.11351    -0.14133     0.02805     0.03153
 PZ  C  12  -0.01771    -0.00347     0.25101    -0.05561    -0.00402    -0.01755
  
  S  C  13  -0.06078    -0.02718    -0.03083    -0.07410     0.00637    -0.00537
 PX  C  13   0.21387     0.06170    -0.04031    -0.05224     0.00767     0.02795
 PY  C  13  -0.10510     0.22695    -0.05524     0.12063    -0.00668     0.09601
 PZ  C  13  -0.03780     0.01443     0.15141    -0.02240    -0.00888    -0.01567
  
  S  C  14  -0.00318    -0.01949     0.00102    -0.02442     0.01290     0.01582
 PX  C  14   0.12839     0.10314     0.11015     0.33325    -0.07755    -0.05574
 PY  C  14   0.19284    -0.18157     0.04106    -0.04574    -0.01969    -0.11686
 PZ  C  14  -0.00893    -0.01678     0.12277    -0.04760    -0.00264    -0.01765
  
  S  C  15   0.03044    -0.00243    -0.03215    -0.06484     0.00803     0.00933
 PX  C  15  -0.29347    -0.03202    -0.02308    -0.12597     0.03781     0.01134
 PY  C  15  -0.06853     0.10433    -0.10084    -0.11818     0.05811     0.15176
 PZ  C  15  -0.00156     0.00476     0.13033    -0.02688    -0.00307     0.00161
  
  S  C  16  -0.02972     0.06236    -0.00545     0.04379    -0.00086     0.02152
 PX  C  16   0.30303     0.05239     0.00648     0.06621    -0.02935     0.00646
 PY  C  16   0.00237     0.16659    -0.05429     0.07396    -0.03534    -0.06171
 PZ  C  16  -0.04373    -0.00392     0.17985    -0.03674    -0.00426    -0.00724
  
  S  C  17   0.03673    -0.02171     0.00650     0.02441    -0.01820    -0.02906
 PX  C  17   0.07449     0.13491     0.09845     0.23901    -0.03556    -0.02595
 PY  C  17   0.14470    -0.15003     0.04982     0.00223     0.01311     0.04092
 PZ  C  17  -0.03585    -0.03771     0.28253    -0.06922    -0.00256     0.00446
  
  S  C  18  -0.03513    -0.02172    -0.00207     0.02576    -0.01941    -0.01740
 PX  C  18  -0.04759    -0.19643    -0.05100    -0.15700     0.01632     0.06316
 PY  C  18  -0.15174     0.01795    -0.05058     0.19751    -0.04614     0.03894
 PZ  C  18  -0.04430    -0.01044     0.28939    -0.01584    -0.00876     0.02445
  
  S  C  19  -0.03965     0.03440    -0.00880     0.08671    -0.01567    -0.00305
 PX  C  19  -0.20341     0.07111     0.05776    -0.11216     0.05690    -0.00028
 PY  C  19   0.19030     0.02614     0.02405    -0.11726     0.03724    -0.03729
 PZ  C  19  -0.01416    -0.03743     0.25654    -0.02865    -0.00269     0.02997
  
  S  C  20   0.06330    -0.02677     0.00207    -0.07747     0.01402    -0.01228
 PX  C  20   0.21315     0.12913     0.06833     0.11550     0.00231     0.01583
 PY  C  20  -0.09896     0.16901     0.09064     0.02442     0.04496     0.02232
 PZ  C  20  -0.03758    -0.03137     0.15203    -0.02184    -0.00120     0.03899
  
  S  C  21   0.00375    -0.01847    -0.01038    -0.02358     0.00827     0.02138
 PX  C  21  -0.04783    -0.20080    -0.06979    -0.25308     0.01924     0.00002
 PY  C  21  -0.22173    -0.02835    -0.04305     0.23542    -0.09569    -0.09262
 PZ  C  21  -0.01979    -0.00785     0.12934     0.01176    -0.00795     0.02926
  
  S  C  22  -0.02943    -0.00967     0.00783    -0.06900     0.01781    -0.00126
 PX  C  22  -0.14729     0.07311     0.06324    -0.02100     0.04528     0.04981
 PY  C  22   0.26325     0.03865     0.02490    -0.18374     0.08294     0.09190
 PZ  C  22   0.00662    -0.01949     0.13252    -0.02314    -0.00290     0.02906
  
  S  C  23   0.02606     0.05824     0.02690     0.04009     0.00704     0.00499
 PX  C  23   0.19443     0.08720     0.05202     0.00094     0.00265    -0.04223
 PY  C  23  -0.23400     0.12146     0.06495     0.08884    -0.01151    -0.08432
 PZ  C  23  -0.04975    -0.01707     0.18485    -0.01754    -0.00510     0.02513
  
  S  C  24  -0.00090     0.04080    -0.00240    -0.02688     0.02366     0.01479
 PX  C  24   0.00300     0.03920    -0.00483    -0.07909    -0.22965    -0.12363
 PY  C  24   0.00340    -0.06496    -0.00532     0.03483    -0.07910    -0.02575
 PZ  C  24   0.00145    -0.05889     0.08702    -0.00099    -0.00760     0.00277
  
  S  O  25  -0.00288    -0.03986     0.01187     0.05704     0.13742     0.06351
 PX  O  25  -0.00529    -0.07642     0.03112     0.11493     0.29907     0.18343
 PY  O  25   0.00390    -0.09275     0.01003     0.09142     0.17057    -0.03127
 PZ  O  25   0.00224    -0.04536     0.08494    -0.01846    -0.05216    -0.03337
  
  S  O  26  -0.00575     0.07441    -0.01040    -0.09003    -0.25735    -0.05250
 PX  O  26   0.00906    -0.18192     0.04199     0.20359     0.49581     0.17563
 PY  O  26   0.00448    -0.00468    -0.00637     0.03116     0.19501    -0.00259
 PZ  O  26   0.00040    -0.05352     0.15207    -0.04533    -0.11073    -0.04690
  
  S  H  27   0.01162    -0.09800    -0.02298     0.07404    -0.03015     0.03720
  
  S  H  28   0.06654     0.17495     0.09532    -0.06032     0.05956     0.05414
  
  S  H  29   0.03367    -0.11031     0.16368     0.02091     0.01879     0.08187
  
  S  H  30  -0.03418    -0.11125    -0.17038     0.07345    -0.00765     0.06988
  
  S  H  31  -0.07040     0.15197    -0.07473    -0.02388     0.06071     0.06957
  
  S  H  32   0.02691     0.16962    -0.06793     0.01284     0.00735     0.07976
  
  S  H  33   0.07566     0.11471     0.08412     0.29729    -0.05998    -0.02074
  
  S  H  34  -0.01322    -0.09904     0.05455     0.03400    -0.03499    -0.12902
  
  S  H  35  -0.18685    -0.11233     0.02950    -0.07118     0.04317     0.05345
  
  S  H  36  -0.03457     0.14616     0.08641    -0.00329     0.04552     0.02826
  
  S  H  37  -0.08336     0.11886     0.03065     0.30290    -0.06418    -0.03943
  
  S  H  38   0.01882    -0.07925    -0.05231     0.04615    -0.05941    -0.07619
  
  S  H  39   0.19142    -0.08920    -0.05814    -0.06228     0.01558     0.08814
  
  S  H  40   0.00480    -0.04574     0.00767     0.06566     0.23165     0.03679




    ROOT NO.   43          44          45          46          47          48

           -13.30996   -13.24037   -13.10116   -12.98890   -12.96379   -12.83678
  
  
  S  N   1   0.02161    -0.15951    -0.16958    -0.12511     0.03599    -0.00482
 PX  N   1  -0.00322     0.23289     0.26652     0.19452    -0.05972     0.00691
 PY  N   1   0.03142     0.11237     0.05696     0.02732    -0.03960    -0.12259
 PZ  N   1   0.50518    -0.19339     0.08331     0.02122    -0.04171     0.09430
  
  S  C   2   0.01035     0.02638     0.00363     0.00308    -0.00111    -0.00482
 PX  C   2   0.05022    -0.14430    -0.15906    -0.12075     0.03374    -0.00127
 PY  C   2   0.02115     0.09176     0.05465     0.02037    -0.03409    -0.10171
 PZ  C   2   0.51431    -0.16807     0.10610     0.03235    -0.04579     0.08089
  
  S  C   3   0.02947     0.01903    -0.02176     0.03205    -0.00361     0.00211
 PX  C   3   0.01294     0.10854     0.13076     0.11809    -0.03275     0.01003
 PY  C   3  -0.12465    -0.07876     0.11238    -0.06791     0.00296     0.01179
 PZ  C   3   0.31578    -0.05588     0.06643    -0.01429    -0.02529    -0.02045
  
  S  C   4  -0.00235     0.00201     0.04039     0.00525    -0.01282    -0.01012
 PX  C   4  -0.00086    -0.12404    -0.14421    -0.16425     0.04711    -0.01268
 PY  C   4   0.10013     0.07706    -0.18319     0.04630     0.01858     0.00034
 PZ  C   4   0.19140     0.07191     0.05268    -0.00338    -0.01936    -0.08804
  
  S  C   5   0.00153     0.00324     0.01838     0.00707    -0.01282     0.00638
 PX  C   5   0.03710     0.09274     0.01385     0.23817    -0.04009     0.06764
 PY  C   5  -0.11743    -0.05307     0.24525    -0.07051    -0.02178    -0.02849
 PZ  C   5   0.04312     0.22434     0.02014    -0.08437     0.00860    -0.21046
  
  S  C   6   0.01876     0.01774    -0.02062    -0.00235     0.00131    -0.01993
 PX  C   6   0.10375     0.27173    -0.04421     0.06988     0.01581    -0.11860
 PY  C   6   0.08503    -0.04384    -0.09639     0.04452     0.02371     0.08114
 PZ  C   6   0.03982     0.02531    -0.14708     0.23386    -0.02497     0.14085
  
  S  C   7  -0.02650    -0.00882     0.02567     0.02373    -0.01218     0.02142
 PX  C   7  -0.01112     0.05185    -0.08597     0.17458    -0.03222     0.11831
 PY  C   7  -0.11427    -0.11364     0.13043    -0.15362    -0.01286    -0.07262
 PZ  C   7   0.01390     0.23922     0.00770     0.02415     0.02100    -0.15597
  
[...]
    Config     482   0.19044360  0.03626877
    Config     484   0.06982305  0.00487526
    Config     487   0.04146887  0.00171967
    Config     488   0.04926218  0.00242676
    Config     491   0.04283999  0.00183526
    Config     494  -0.12147085  0.01475517
    Config     496   0.17066359  0.02912606
    Config     500   0.24357528  0.05932892
    Config     502  -0.05557242  0.00308829
    Config     503  -0.24671633  0.06086895
    Config     504   0.06793039  0.00461454
    Config     506   0.04614260  0.00212914
    Config     512  -0.06476304  0.00419425
    Config     516   0.04056787  0.00164575
    Config     518   0.04039454  0.00163172
    Config     519   0.07046415  0.00496520
    Config     520   0.08998443  0.00809720
    Config     522  -0.08521352  0.00726134
    Config     524   0.05722995  0.00327527
    Config     525   0.14337996  0.02055781
    Config     528   0.14516665  0.02107336
    Config     530  -0.04333686  0.00187808
    Config     536   0.04267395  0.00182107
    Config     537   0.04776906  0.00228188
    Config     539  -0.05219260  0.00272407
    Config     551   0.04622702  0.00213694
    Config     554   0.11583599  0.01341798
    Config     555  -0.04735540  0.00224253
    Config     556   0.07677376  0.00589421
    Config     558  -0.07206330  0.00519312
    Config     562   0.06124146  0.00375052
    Config     564   0.05032593  0.00253270
    Config     569   0.08621525  0.00743307
    Config     570  -0.06574348  0.00432220
    Config     571  -0.10570236  0.01117299
    Config     582   0.04662461  0.00217385
    Config     587   0.07221174  0.00521453
    Config     590   0.09251043  0.00855818
    Config     591  -0.09155549  0.00838241
    Config     595   0.19648006  0.03860441
    Config     597  -0.06807601  0.00463434
    Config     599   0.10651379  0.01134519
    Config     606   0.08442191  0.00712706
    Config     611  -0.06197540  0.00384095
    Config     619   0.04279274  0.00183122
    Config     620  -0.06112671  0.00373647
    Config     624  -0.08044970  0.00647215
    Config     637  -0.05393136  0.00290859
    Config     640   0.09807568  0.00961884
    Config     650  -0.05413618  0.00293073
    Config     655  -0.08584427  0.00736924
    Config     667   0.06432846  0.00413815
    Config     675  -0.05876913  0.00345381
    Config     677   0.04082293  0.00166651
    Config     679   0.14881503  0.02214591
    Config     681   0.05206011  0.00271025
    Config     727   0.04023258  0.00161866
    Config     750   0.04593998  0.00211048
    Config     751  -0.04189343  0.00175506
    Config     795   0.04064879  0.00165232
    Config     802  -0.06943700  0.00482150
    Config     834   0.07792291  0.00607198
    Config     842  -0.04475962  0.00200342
    Config     848   0.04799492  0.00230351
    Config     999  -0.06900496  0.00476168
    Config    1092  -0.06781966  0.00459951
 Total coeff printed             0.82253715
  
State  498 12.7166     CI coeff  CI percent
    Config     172   0.04378281  0.00191693
    Config     244  -0.13067179  0.01707512
    Config     253  -0.05015456  0.00251548
    Config     270  -0.04367158  0.00190721
    Config     271   0.04815172  0.00231859
    Config     275   0.05548647  0.00307875
    Config     297  -0.04893240  0.00239438
    Config     312  -0.09585171  0.00918755
    Config     313  -0.05839616  0.00341011
    Config     322   0.07360977  0.00541840
    Config     325  -0.04246325  0.00180313
    Config     328  -0.07531817  0.00567283
    Config     331   0.04299721  0.00184876
    Config     338  -0.07473771  0.00558572
    Config     340   0.04728326  0.00223571
    Config     341   0.07001971  0.00490276
    Config     343  -0.04483416  0.00201010
    Config     345   0.13824480  0.01911163
    Config     346   0.04369122  0.00190892
    Config     354  -0.04811484  0.00231504
    Config     356  -0.04336455  0.00188048
    Config     359  -0.15700677  0.02465113
    Config     363  -0.06275291  0.00393793
    Config     364   0.06596487  0.00435136
    Config     372   0.06956848  0.00483977
    Config     376   0.05737513  0.00329191
    Config     380  -0.05278078  0.00278581
    Config     382   0.04741953  0.00224861
    Config     387   0.05774612  0.00333461
    Config     389  -0.06450252  0.00416058
    Config     390   0.05046244  0.00254646
    Config     393  -0.11346521  0.01287435
    Config     394   0.05628063  0.00316751
    Config     395  -0.08922471  0.00796105
    Config     398  -0.04420993  0.00195452
    Config     401  -0.05352518  0.00286494
    Config     402   0.08229567  0.00677258
    Config     403  -0.08423723  0.00709591
    Config     407  -0.10078265  0.01015714
    Config     416   0.08469782  0.00717372
    Config     419  -0.05020275  0.00252032
    Config     428  -0.16917723  0.02862093
    Config     430  -0.04265866  0.00181976
    Config     434   0.14167329  0.02007132
    Config     435   0.05760271  0.00331807
    Config     436   0.07925719  0.00628170
    Config     438   0.04261941  0.00181641
    Config     439  -0.07624703  0.00581361
    Config     440   0.11492027  0.01320667
    Config     445   0.12055202  0.01453279
    Config     450  -0.04720791  0.00222859
    Config     451  -0.10635208  0.01131077
    Config     452  -0.05609205  0.00314632
    Config     457   0.07301015  0.00533048
    Config     471  -0.05306824  0.00281624
    Config     474  -0.06018676  0.00362245
    Config     476  -0.04390669  0.00192780
    Config     478  -0.05032124  0.00253223
    Config     479  -0.04743219  0.00224981
    Config     482   0.09208245  0.00847918
    Config     485   0.04189365  0.00175508
    Config     488  -0.05293495  0.00280211
    Config     490   0.07001022  0.00490143
    Config     491   0.07357659  0.00541351
    Config     493   0.30190053  0.09114393
    Config     496  -0.17229679  0.02968618
    Config     499   0.06460271  0.00417351
    Config     501  -0.04352419  0.00189436
    Config     502   0.05378737  0.00289308
    Config     504   0.08992261  0.00808608
    Config     505  -0.06061657  0.00367437
    Config     508   0.13053203  0.01703861
    Config     511   0.11166523  0.01246912
    Config     512   0.12512590  0.01565649
    Config     515  -0.04729491  0.00223681
    Config     523  -0.05698666  0.00324748
    Config     528   0.09286724  0.00862432
    Config     531   0.12701720  0.01613337
    Config     533  -0.07214815  0.00520536
    Config     538   0.08741251  0.00764095
    Config     540  -0.04306904  0.00185494
    Config     542   0.04825355  0.00232841
    Config     543   0.05489210  0.00301314
    Config     546  -0.05939646  0.00352794
    Config     555   0.07971607  0.00635465
    Config     562  -0.08404665  0.00706384
    Config     563  -0.10732015  0.01151761
    Config     564  -0.05081296  0.00258196
    Config     571  -0.06457769  0.00417028
    Config     576  -0.04051349  0.00164134
    Config     578  -0.04518367  0.00204156
    Config     579   0.05148103  0.00265030
    Config     582  -0.14051518  0.01974451
    Config     587   0.08585322  0.00737078
    Config     591  -0.07227519  0.00522370
    Config     598   0.04823215  0.00232634
    Config     600  -0.05617938  0.00315612
    Config     604  -0.04677478  0.00218788
    Config     612   0.05647686  0.00318964
    Config     615   0.13214865  0.01746326
    Config     616  -0.06462534  0.00417643
    Config     620  -0.04768149  0.00227352
    Config     624  -0.05269955  0.00277724
    Config     630   0.13223245  0.01748542
    Config     639   0.04333844  0.00187822
    Config     645   0.07439623  0.00553480
    Config     650   0.05901309  0.00348254
    Config     659  -0.06966732  0.00485354
    Config     665   0.04778663  0.00228356
    Config     668   0.06420282  0.00412200
    Config     674   0.04172942  0.00174134
    Config     682   0.04742120  0.00224877
    Config     699  -0.05573945  0.00310689
    Config     701   0.04374500  0.00191362
    Config     707   0.08322499  0.00692640
    Config     716   0.04878627  0.00238010
    Config     727  -0.06021282  0.00362558
    Config     773  -0.05735288  0.00328935
    Config     780   0.04352867  0.00189475
    Config     790  -0.07225137  0.00522026
    Config     882  -0.06217710  0.00386599
 Total coeff printed             0.79547762
  
State  499 12.7375     CI coeff  CI percent
    Config     244  -0.10279020  0.01056582
    Config     246   0.05120133  0.00262158
    Config     250  -0.04214201  0.00177595
    Config     270   0.07705445  0.00593739
    Config     275   0.04279358  0.00183129
    Config     281   0.04187022  0.00175312
    Config     303   0.05364732  0.00287803
    Config     305  -0.08795420  0.00773594
    Config     310   0.08360828  0.00699034
    Config     312   0.04127852  0.00170392
    Config     313   0.08421572  0.00709229
    Config     314   0.04201835  0.00176554
    Config     315  -0.04934421  0.00243485
    Config     316  -0.05345805  0.00285776
    Config     322   0.05236052  0.00274162
    Config     328  -0.10712642  0.01147607
    Config     331   0.05174256  0.00267729
    Config     337   0.04222451  0.00178291
    Config     340  -0.09882459  0.00976630
    Config     351   0.06289122  0.00395531
    Config     359   0.06856517  0.00470118
    Config     363  -0.05075117  0.00257568
    Config     366   0.05368916  0.00288253
    Config     368   0.04214343  0.00177607
    Config     372   0.06119854  0.00374526
    Config     389  -0.09493685  0.00901301
    Config     391  -0.09218394  0.00849788
    Config     395  -0.04625052  0.00213911
    Config     398  -0.06415543  0.00411592
    Config     399   0.13293261  0.01767108
    Config     402  -0.06519713  0.00425067
    Config     403   0.14872887  0.02212028
    Config     404  -0.05298042  0.00280693
    Config     407   0.08670107  0.00751708
    Config     409   0.05400517  0.00291656
    Config     410  -0.13846342  0.01917212
    Config     411  -0.05171488  0.00267443
    Config     413   0.09553089  0.00912615
    Config     415   0.05459281  0.00298037
    Config     417   0.04458265  0.00198761
    Config     419  -0.12229865  0.01495696
    Config     421  -0.04540184  0.00206133
    Config     423  -0.10061605  0.01012359
    Config     425   0.04887275  0.00238855
    Config     428   0.05356755  0.00286948
    Config     434  -0.06655734  0.00442988
    Config     435  -0.06189788  0.00383135
    Config     436   0.09968065  0.00993623
    Config     439  -0.08189595  0.00670695
    Config     446   0.04474289  0.00200193
    Config     449   0.07797959  0.00608082
    Config     450  -0.04063903  0.00165153
    Config     451   0.07604546  0.00578291
    Config     452   0.06350291  0.00403262
    Config     455   0.05083562  0.00258426
    Config     468   0.10586148  0.01120665
    Config     478  -0.05261421  0.00276825
    Config     482   0.13806994  0.01906331
    Config     483   0.06581804  0.00433201
    Config     489  -0.16307599  0.02659378
    Config     490   0.05203972  0.00270813
    Config     491   0.08012421  0.00641989
    Config     493  -0.16055944  0.02577933
    Config     494   0.19342768  0.03741427
    Config     496  -0.05010702  0.00251071
    Config     502  -0.05456271  0.00297709
    Config     503   0.05483030  0.00300636
    Config     504   0.05603432  0.00313985
    Config     506   0.06575147  0.00432326
    Config     508  -0.06070638  0.00368526
    Config     518  -0.04721305  0.00222907
    Config     525   0.07972338  0.00635582
    Config     528  -0.09528000  0.00907828
    Config     531  -0.10773773  0.01160742
    Config     532  -0.15538573  0.02414473
    Config     533  -0.06745207  0.00454978
    Config     536  -0.04043299  0.00163483
    Config     538   0.04783726  0.00228840
    Config     543  -0.05109540  0.00261074
    Config     550  -0.04030718  0.00162467
    Config     555   0.05496214  0.00302084
    Config     563  -0.18825864  0.03544132
    Config     587   0.04491379  0.00201725
    Config     589  -0.05495071  0.00301958
    Config     591  -0.14857768  0.02207533
    Config     597  -0.05078186  0.00257880
    Config     604   0.09405663  0.00884665
    Config     605   0.04440624  0.00197191
    Config     606  -0.04461832  0.00199079
    Config     608  -0.08616110  0.00742374
    Config     612  -0.06902536  0.00476450
    Config     615  -0.04706588  0.00221520
    Config     618   0.05906513  0.00348869
    Config     620   0.12545244  0.01573832
    Config     621   0.04082523  0.00166670
    Config     624  -0.15279458  0.02334618
    Config     625   0.04681476  0.00219162
    Config     629   0.04168408  0.00173756
    Config     637  -0.06061930  0.00367470
    Config     645   0.06154951  0.00378834
    Config     659   0.07422797  0.00550979
    Config     665   0.10559012  0.01114927
    Config     667  -0.07256450  0.00526561
    Config     672  -0.05104532  0.00260562
    Config     677   0.07397625  0.00547249
    Config     680   0.09538818  0.00909890
    Config     683  -0.04332737  0.00187726
    Config     694   0.04819265  0.00232253
    Config     697  -0.09161852  0.00839395
    Config     699   0.04898768  0.00239979
    Config     701  -0.07107053  0.00505102
    Config     705  -0.04400125  0.00193611
    Config     706   0.07760716  0.00602287
    Config     707  -0.10873334  0.01182294
    Config     718   0.06874990  0.00472655
    Config     755  -0.10441904  0.01090334
    Config     773  -0.05713971  0.00326495
    Config     780  -0.06359220  0.00404397
    Config     790   0.08840162  0.00781485
    Config     811  -0.04519747  0.00204281
    Config     819   0.04298998  0.00184814
    Config     826  -0.05041361  0.00254153
    Config     842  -0.09086791  0.00825698
 Total coeff printed             0.79987277
  
State  500 12.7517     CI coeff  CI percent
    Config     191  -0.04027085  0.00162174
    Config     244  -0.06032656  0.00363929
    Config     270   0.05271537  0.00277891
    Config     271   0.04341686  0.00188502
    Config     275   0.07469650  0.00557957
    Config     281   0.05735786  0.00328992
    Config     300   0.04596129  0.00211244
    Config     312   0.04013184  0.00161056
    Config     313   0.04005700  0.00160456
    Config     322   0.07953179  0.00632531
    Config     325  -0.10112332  0.01022593
    Config     329  -0.04993016  0.00249302
    Config     337  -0.04971976  0.00247205
    Config     338  -0.07512294  0.00564346
    Config     340  -0.08540798  0.00729452
    Config     341   0.07196505  0.00517897
    Config     342  -0.04238926  0.00179685
    Config     345   0.08498534  0.00722251
    Config     354  -0.05797098  0.00336063
    Config     358  -0.09485987  0.00899839
    Config     359   0.05998412  0.00359810
    Config     362   0.07400894  0.00547732
    Config     365  -0.04618683  0.00213322
    Config     374   0.07792658  0.00607255
    Config     382   0.04389507  0.00192678
    Config     388   0.10777405  0.01161525
    Config     390   0.05145699  0.00264782
    Config     391   0.13343642  0.01780528
    Config     395  -0.05845005  0.00341641
    Config     396  -0.12598232  0.01587155
    Config     397  -0.05608156  0.00314514
    Config     399  -0.07017640  0.00492473
    Config     403  -0.09261900  0.00857828
    Config     404   0.06208861  0.00385500
    Config     405   0.04600324  0.00211630
    Config     407   0.05216191  0.00272086
    Config     413  -0.05411386  0.00292831
    Config     416   0.08776335  0.00770241
    Config     419  -0.11041304  0.01219104
    Config     422   0.09116413  0.00831090
    Config     423   0.05492407  0.00301665
    Config     424   0.04477894  0.00200515
    Config     428   0.04654368  0.00216631
    Config     433   0.04798993  0.00230303
    Config     434  -0.06759182  0.00456865
    Config     435  -0.08913145  0.00794442
    Config     436  -0.04479673  0.00200675
    Config     437   0.05437388  0.00295652
    Config     438   0.05212038  0.00271653
    Config     445   0.06307056  0.00397790
    Config     447   0.05611270  0.00314864
    Config     450   0.08352355  0.00697618
    Config     452   0.18239365  0.03326744
    Config     453   0.06708154  0.00449993
    Config     457  -0.05100021  0.00260102
    Config     467  -0.07935638  0.00629743
    Config     471  -0.04924838  0.00242540
    Config     473  -0.04493542  0.00201919
    Config     478  -0.07547712  0.00569680
    Config     479  -0.08766533  0.00768521
    Config     481  -0.06129025  0.00375650
    Config     482  -0.13341162  0.01779866
    Config     483   0.04474492  0.00200211
    Config     489  -0.06503074  0.00422900
    Config     490   0.04993977  0.00249398
    Config     491   0.09924460  0.00984949
    Config     493  -0.13959099  0.01948564
    Config     496  -0.19205334  0.03688449
    Config     500   0.18994657  0.03607970
    Config     501   0.04181993  0.00174891
    Config     503  -0.19750343  0.03900760
    Config     505  -0.06020387  0.00362451
    Config     511   0.11354698  0.01289292
    Config     512   0.09338643  0.00872102
    Config     514  -0.05836163  0.00340608
    Config     522  -0.06476102  0.00419399
    Config     525  -0.07951742  0.00632302
    Config     528  -0.27596260  0.07615536
    Config     533  -0.05970023  0.00356412
    Config     536  -0.06264257  0.00392409
    Config     540   0.04985705  0.00248573
    Config     541  -0.05763237  0.00332149
    Config     554   0.05425630  0.00294375
    Config     555   0.08616160  0.00742382
    Config     556  -0.06938369  0.00481410
    Config     560   0.04262075  0.00181653
    Config     562  -0.06875307  0.00472698
    Config     563   0.13519660  0.01827812
    Config     564  -0.07188323  0.00516720
    Config     565  -0.04240460  0.00179815
    Config     569   0.04159899  0.00173048
    Config     582   0.05573665  0.00310657
    Config     590  -0.04560254  0.00207959
    Config     591   0.07635406  0.00582994
    Config     594  -0.04314915  0.00186185
    Config     595   0.16141718  0.02605551
    Config     598  -0.04803047  0.00230693
    Config     606   0.07213737  0.00520380
    Config     608   0.06868610  0.00471778
    Config     611  -0.04042680  0.00163433
    Config     615  -0.04873019  0.00237463
    Config     619   0.05357323  0.00287009
    Config     624   0.04975614  0.00247567
    Config     630  -0.07298257  0.00532646
    Config     637   0.06010149  0.00361219
    Config     640   0.04058302  0.00164698
    Config     646   0.04900118  0.00240112
    Config     650   0.07194660  0.00517631
    Config     652   0.04723297  0.00223095
    Config     665  -0.07502788  0.00562918
    Config     679   0.11154095  0.01244138
    Config     682  -0.05969284  0.00356324
    Config     701   0.04792687  0.00229698
    Config     702  -0.05238620  0.00274431
    Config     729   0.04202138  0.00176580
    Config     750  -0.04132675  0.00170790
    Config     755   0.04992911  0.00249292
    Config     769  -0.05137598  0.00263949
    Config     834   0.05835304  0.00340508
    Config     956   0.04660715  0.00217223
    Config     999  -0.05243763  0.00274970
    Config    1092  -0.05177893  0.00268106
 Total coeff printed             0.79829755
  

 **********************
 *                    *
 * JOB ENDED NORMALLY *
 *                    *
 **********************



 TOTAL JOB TIME:           109.10 SECONDS

 == MOPAC DONE ==
