 *******************************************************************************
 ** Site#: 37966        For non-commercial use only           Version 21.186W **
 *******************************************************************************
 ** Cite this program as: MOPAC2016, Version: 21.186W, James J. P. Stewart,   **
 ** Stewart Computational Chemistry, web: HTTP://OpenMOPAC.net. Days left: 257**
 *******************************************************************************
 **                                                                           **
 **                                MOPAC2016                                  **
 **                                                                           **
 *******************************************************************************

                              INDO CALCULATION RESULTS

 *******************************************************************************
 *  CALCULATION DONE:                                Thu Oct 21 10:15:37 2021  *
 *  INDO       - The INDO Hamiltonian to be used
 *  CIS        - C.I. USES 1 ELECTRON EXCITATIONS ONLY
 *  EPS=8.93   - USE ANDREAS KLAMT'S COSMO IMPLICIT SOLVATION MODEL
 *  N**2=1.42  - USED IN COSMO-CI
 *  T=         - A TIME OF 172800.0 SECONDS REQUESTED
 *  DUMP=N     - RESTART FILE WRITTEN EVERY 7200.0 SECONDS REQUESTED
 *******************************************************************************
INDO CIS EPS=8.93 N**2=1.42
 Dye50
 Calculo de Estados Excitados
   ATOM   CHEMICAL          X               Y               Z
  NUMBER   SYMBOL      (ANGSTROMS)     (ANGSTROMS)     (ANGSTROMS)
 
     1       C          0.00000000  *   0.00000000  *   0.00000000  *
     2       C          1.51995341  *   0.00000000  *   0.00000000  *
     3       C          2.06039518  *   1.42784186  *   0.00000000  *
     4       C          3.58727463  *   1.42863819  *  -0.01030034  *
     5       C          4.12277211  *   2.85727144  *  -0.00396028  *
     6       C          5.65806806  *   2.84516507  *  -0.02561857  *
     7       N          6.22107570  *   4.19443883  *  -0.01943221  *
     8       C          6.12330438  *   5.07085273  *  -1.12928264  *
     9       C          5.96502146  *   4.77367730  *  -2.47718063  *
    10       C          5.99528125  *   5.82691944  *  -3.37922579  *
    11       C          6.16630141  *   7.15167320  *  -2.94664889  *
    12       C          6.31513744  *   7.45612666  *  -1.58948074  *
    13       C          6.29094796  *   6.41029519  *  -0.68674690  *
    14       C          6.39945242  *   6.36848666  *   0.75099336  *
    15       C          6.29477567  *   5.00534048  *   1.13828457  *
    16       C          6.34390544  *   4.63004053  *   2.47756010  *
    17       C          6.50759093  *   5.63884475  *   3.41548094  *
    18       C          6.62053837  *   6.98036116  *   3.04044023  *
    19       C          6.56834915  *   7.35658099  *   1.70574885  *
    20       N          6.11452512  *   8.27234787  *  -3.84102037  *
    21       C          5.78736361  *   8.00018325  *  -5.23185418  *
    22       C          4.55001119  *   7.62682358  *  -5.71159282  *
    23       C          4.37676441  *   7.57836441  *  -7.09953731  *
    24       C          5.41527040  *   7.89595562  *  -7.96459164  *
    25       C          6.68302480  *   8.25763367  *  -7.47748302  *
    26       C          6.85826028  *   8.29844023  *  -6.12016682  *
    27       C          8.05675758  *   8.52072251  *  -5.27300059  *
    28       C          7.37576158  *   9.06493506  *  -3.97875676  *
    29       C          8.55402006  *   9.10682509  *  -3.02381856  *
    30       C          9.66849221  *   9.66140990  *  -3.95550876  *
    31       C          9.19299817  *   9.50880637  *  -5.42768694  *
    32       C          5.18589496  *   7.84377812  *  -9.40207779  *
    33       C          4.57875143  *   6.78973443  * -10.00164002  *
    34       C          4.34194031  *   6.74496237  * -11.41524913  *
    35       C          4.71028565  *   7.75865021  * -12.24076821  *
    36       C          5.34450014  *   8.91397264  * -11.66517871  *
    37       C          5.60100187  *   8.95358667  * -10.21637094  *
    38       N          6.19591807  *  10.07495356  *  -9.81988264  *
    39       S          6.42131611  *  11.03649302  * -11.17019750  *
    40       N          5.75206636  *  10.00632675  * -12.30511324  *
    41       C          4.49258694  *   7.70979030  * -13.66469909  *
    42       C          4.52157695  *   6.55104015  * -14.41382304  *
    43       C          4.26048013  *   6.81245576  * -15.78013892  *
    44       C          4.03351799  *   8.15874756  * -16.01205078  *
    45       S          4.16395798  *   9.07060671  * -14.59755725  *
    46       C          3.75261950  *   8.66251706  * -17.32122968  *
    47       C          3.29215513  *   9.89840959  * -17.61160679  *
    48       C          3.05826640  *  10.26519743  * -19.01338759  *
    49       O          3.23364989  *   9.55465748  * -19.99376949  *
    50       O          2.60461656  *  11.52398332  * -19.18200693  *
    51       C          3.00333378  *  10.88019165  * -16.63366762  *
    52       N          2.75928094  *  11.70162554  * -15.85641786  *
    53       H          3.93240720  *   7.95189733  * -18.14588952  *
    54       H         -0.41725297  *   0.50461177  *  -0.88336866  *
    55       H         -0.40896488  *  -1.02078631  *   0.00190186  *
    56       H         -0.41714659  *   0.50784983  *   0.88156564  *
    57       H          1.90235650  *  -0.56115271  *   0.87884732  *
    58       H          1.90196512  *  -0.56141161  *  -0.87886584  *
    59       H          1.66720829  *   1.98769087  *  -0.87483934  *
    60       H          1.67874100  *   1.98286503  *   0.88297993  *
    61       H          3.97888704  *   0.86457814  *   0.86275241  *
    62       H          3.96677199  *   0.87645519  *  -0.89621471  *
    63       H          3.73114855  *   3.42797696  *  -0.87285385  *
    64       H          3.75438623  *   3.41081212  *   0.88559028  *
    65       H          6.06758024  *   2.28248489  *   0.84459400  *
    66       H          6.04157120  *   2.30908810  *  -0.92470373  *
    67       H          5.82668465  *   3.74852962  *  -2.82671025  *
    68       H          5.88203448  *   5.60364928  *  -4.44519602  *
    69       H          6.43008107  *   8.48475781  *  -1.23698548  *
    70       H          6.25980051  *   3.58724366  *   2.78772076  *
    71       H          6.54884053  *   5.37790478  *   4.47782696  *
    72       H          6.75088037  *   7.74306545  *   3.81294714  *
    73       H          6.65533288  *   8.40405940  *   1.40666290  *
    74       H          3.72473949  *   7.39149861  *  -5.03497826  *
    75       H          3.39414022  *   7.30434305  *  -7.49685052  *
    76       H          7.50858016  *   8.48957750  *  -8.15488612  *
    77       H          8.50507885  *   7.50139862  *  -5.11630632  *
    78       H          6.99230747  *  10.11433253  *  -4.12053486  *
    79       H          8.38717513  *   9.75156079  *  -2.14113094  *
    80       H          8.81139683  *   8.11366009  *  -2.60768763  *
    81       H          9.89240096  *  10.71930377  *  -3.72256600  *
    82       H         10.62130951  *   9.12546381  *  -3.78702682  *
    83       H          9.99745903  *   9.15386555  *  -6.09761292  *
    84       H          8.86369652  *  10.47064580  *  -5.86510550  *
    85       H          4.25543671  *   5.92623483  *  -9.40980343  *
    86       H          3.83881410  *   5.85548251  * -11.80988500  *
    87       H          4.73409375  *   5.55800556  * -14.02667910  *
    88       H          4.24061030  *   6.03735426  * -16.54356111  *
    89       H          2.46528026  *  11.72027594  * -20.11975444  *
 


          CARTESIAN COORDINATES 

    NO.       ATOM           X           Y           Z

     1         C          0.0000      0.0000      0.0000
     2         C          1.5200      0.0000      0.0000
     3         C          2.0604      1.4278      0.0000
     4         C          3.5873      1.4286     -0.0103
     5         C          4.1228      2.8573     -0.0040
     6         C          5.6581      2.8452     -0.0256
     7         N          6.2211      4.1944     -0.0194
     8         C          6.1233      5.0709     -1.1293
     9         C          5.9650      4.7737     -2.4772
    10         C          5.9953      5.8269     -3.3792
    11         C          6.1663      7.1517     -2.9466
    12         C          6.3151      7.4561     -1.5895
    13         C          6.2909      6.4103     -0.6867
    14         C          6.3995      6.3685      0.7510
    15         C          6.2948      5.0053      1.1383
    16         C          6.3439      4.6300      2.4776
    17         C          6.5076      5.6388      3.4155
    18         C          6.6205      6.9804      3.0404
    19         C          6.5683      7.3566      1.7057
    20         N          6.1145      8.2723     -3.8410
    21         C          5.7874      8.0002     -5.2319
    22         C          4.5500      7.6268     -5.7116
    23         C          4.3768      7.5784     -7.0995
    24         C          5.4153      7.8960     -7.9646
    25         C          6.6830      8.2576     -7.4775
    26         C          6.8583      8.2984     -6.1202
    27         C          8.0568      8.5207     -5.2730
    28         C          7.3758      9.0649     -3.9788
    29         C          8.5540      9.1068     -3.0238
    30         C          9.6685      9.6614     -3.9555
    31         C          9.1930      9.5088     -5.4277
    32         C          5.1859      7.8438     -9.4021
    33         C          4.5788      6.7897    -10.0016
    34         C          4.3419      6.7450    -11.4152
    35         C          4.7103      7.7587    -12.2408
    36         C          5.3445      8.9140    -11.6652
    37         C          5.6010      8.9536    -10.2164
    38         N          6.1959     10.0750     -9.8199
    39         S          6.4213     11.0365    -11.1702
    40         N          5.7521     10.0063    -12.3051
    41         C          4.4926      7.7098    -13.6647
    42         C          4.5216      6.5510    -14.4138
    43         C          4.2605      6.8125    -15.7801
    44         C          4.0335      8.1587    -16.0121
    45         S          4.1640      9.0706    -14.5976
    46         C          3.7526      8.6625    -17.3212
    47         C          3.2922      9.8984    -17.6116
    48         C          3.0583     10.2652    -19.0134
    49         O          3.2336      9.5547    -19.9938
    50         O          2.6046     11.5240    -19.1820
    51         C          3.0033     10.8802    -16.6337
    52         N          2.7593     11.7016    -15.8564
    53         H          3.9324      7.9519    -18.1459
    54         H         -0.4173      0.5046     -0.8834
    55         H         -0.4090     -1.0208      0.0019
    56         H         -0.4171      0.5078      0.8816
    57         H          1.9024     -0.5612      0.8788
    58         H          1.9020     -0.5614     -0.8789
    59         H          1.6672      1.9877     -0.8748
    60         H          1.6787      1.9829      0.8830
    61         H          3.9789      0.8646      0.8628
    62         H          3.9668      0.8765     -0.8962
    63         H          3.7311      3.4280     -0.8729
    64         H          3.7544      3.4108      0.8856
    65         H          6.0676      2.2825      0.8446
    66         H          6.0416      2.3091     -0.9247
    67         H          5.8267      3.7485     -2.8267
    68         H          5.8820      5.6036     -4.4452
    69         H          6.4301      8.4848     -1.2370
    70         H          6.2598      3.5872      2.7877
    71         H          6.5488      5.3779      4.4778
    72         H          6.7509      7.7431      3.8129
    73         H          6.6553      8.4041      1.4067
    74         H          3.7247      7.3915     -5.0350
    75         H          3.3941      7.3043     -7.4969
    76         H          7.5086      8.4896     -8.1549
    77         H          8.5051      7.5014     -5.1163
    78         H          6.9923     10.1143     -4.1205
    79         H          8.3872      9.7516     -2.1411
    80         H          8.8114      8.1137     -2.6077
    81         H          9.8924     10.7193     -3.7226
    82         H         10.6213      9.1255     -3.7870
    83         H          9.9975      9.1539     -6.0976
    84         H          8.8637     10.4706     -5.8651
    85         H          4.2554      5.9262     -9.4098
    86         H          3.8388      5.8555    -11.8099
    87         H          4.7341      5.5580    -14.0267
    88         H          4.2406      6.0374    -16.5436
    89         H          2.4653     11.7203    -20.1198

           Empirical Formula: C43 H37 N5 O2 S2  =    89 atoms



      MOLECULAR POINT GROUP   :   C1  


      RHF CALCULATION, NO. OF DOUBLY OCCUPIED LEVELS = 129

 WARNING: INDO only performs single-point calculations


 ALL CONVERGERS ARE NOW FORCED ON
 SHIFT=10, PULAY ON, CAMP-KING ON
 AND ITERATION COUNTER RESET



 Summary of symmetry occupancy in each shell:

 SHELL     
    1  129
    v  116
 TOTAL 245




    ROOT NO.    1           2           3           4           5           6

           -49.40278   -48.41423   -46.75099   -46.56721   -43.63908   -43.34544
  
  
  S  C   1   0.00103     0.00558     0.00003     0.00030     0.00108    -0.00216
 PX  C   1   0.00046     0.00246     0.00001     0.00012     0.00041    -0.00081
 PY  C   1   0.00017     0.00087     0.00000     0.00004     0.00012    -0.00023
 PZ  C   1  -0.00000    -0.00000     0.00000     0.00000    -0.00000    -0.00000
  
  S  C   2   0.00247     0.01284     0.00006     0.00062     0.00192    -0.00376
 PX  C   2   0.00054     0.00258     0.00001     0.00010     0.00016    -0.00029
 PY  C   2   0.00084     0.00423     0.00002     0.00019     0.00050    -0.00096
 PZ  C   2  -0.00001    -0.00001     0.00000     0.00000    -0.00000    -0.00001
  
  S  C   3   0.00557     0.02721     0.00012     0.00116     0.00276    -0.00523
 PX  C   3   0.00201     0.00934     0.00004     0.00035     0.00056    -0.00098
 PY  C   3   0.00050     0.00193     0.00000     0.00003    -0.00015     0.00036
 PZ  C   3  -0.00003    -0.00007     0.00000     0.00000    -0.00001    -0.00003
  
  S  C   4   0.01163     0.05393     0.00021     0.00203     0.00348    -0.00637
 PX  C   4   0.00213     0.00887     0.00003     0.00024    -0.00007     0.00021
 PY  C   4   0.00392     0.01726     0.00006     0.00057     0.00065    -0.00109
 PZ  C   4  -0.00008    -0.00004     0.00000     0.00002    -0.00004    -0.00015
  
  S  C   5   0.02836     0.12249     0.00042     0.00391     0.00418    -0.00734
 PX  C   5   0.01103     0.04603     0.00014     0.00131     0.00063    -0.00119
 PY  C   5   0.00454     0.01684     0.00004     0.00032    -0.00033     0.00070
 PZ  C   5  -0.00057    -0.00089     0.00000     0.00005    -0.00019    -0.00065
  
  S  C   6   0.05075     0.21342     0.00068     0.00629     0.00451    -0.00843
 PX  C   6   0.00285     0.01058     0.00002     0.00019    -0.00047     0.00051
 PY  C   6   0.02383     0.09709     0.00029     0.00260     0.00099    -0.00214
 PZ  C   6  -0.00047     0.00127     0.00002     0.00022    -0.00037    -0.00168
  
  S  N   7   0.11712     0.46609     0.00132     0.01194     0.00401    -0.01013
 PX  N   7  -0.00840    -0.03587    -0.00012    -0.00107    -0.00094     0.00113
 PY  N   7   0.02687     0.09580     0.00020     0.00173    -0.00099     0.00063
 PZ  N   7  -0.00134     0.00565     0.00008     0.00077    -0.00093    -0.00519
  
  S  C   8   0.11844     0.34812     0.00040     0.00300     0.00421     0.01980
 PX  C   8   0.00314     0.01005     0.00001     0.00010    -0.00080    -0.00022
 PY  C   8   0.01304    -0.00566    -0.00029    -0.00291    -0.00173     0.00977
 PZ  C   8   0.01933     0.12948     0.00059     0.00556    -0.00195    -0.01392
  
  S  C   9   0.07492     0.13290    -0.00029    -0.00323     0.01053     0.03065
 PX  C   9   0.00443     0.00690    -0.00003    -0.00035    -0.00067     0.00130
 PY  C   9   0.02834     0.02222    -0.00030    -0.00299     0.00311     0.01417
 PZ  C   9   0.01389     0.06452     0.00015     0.00124    -0.00291    -0.00013
  
  S  C  10   0.12320     0.05458    -0.00112    -0.01090     0.02556     0.04493
 PX  C  10   0.00856     0.00142    -0.00014    -0.00135    -0.00404     0.00014
 PY  C  10   0.05050    -0.01332    -0.00061    -0.00583     0.00537     0.00900
 PZ  C  10   0.01100     0.04414    -0.00014    -0.00164    -0.00812     0.00844
  
  S  C  11   0.23019     0.01908    -0.00272    -0.02639     0.00546     0.04842
 PX  C  11   0.01539    -0.00545    -0.00028    -0.00276    -0.01427    -0.00554
 PY  C  11   0.05137    -0.04567    -0.00083    -0.00793    -0.01252    -0.00713
 PZ  C  11  -0.05505     0.04968     0.00061     0.00549    -0.01540    -0.00313
  
  S  C  12   0.12391     0.08752    -0.00135    -0.01355    -0.01578     0.02807
 PX  C  12   0.00146    -0.00541    -0.00006    -0.00056    -0.00585    -0.00395
 PY  C  12  -0.01538    -0.05663    -0.00007    -0.00050    -0.00619    -0.01222
 PZ  C  12  -0.04349     0.02786     0.00074     0.00716     0.00341    -0.00837
  
  S  C  13   0.11136     0.27795     0.00000    -0.00077    -0.00468     0.01940
 PX  C  13  -0.00202    -0.00706    -0.00001    -0.00011    -0.00151    -0.00173
 PY  C  13  -0.02226    -0.10677    -0.00037    -0.00340    -0.00394     0.00018
 PZ  C  13  -0.01040     0.04808     0.00053     0.00512    -0.00022    -0.01610
  
  S  C  14   0.07924     0.29106     0.00070     0.00618    -0.00632    -0.01363
 PX  C  14  -0.00356    -0.01336    -0.00003    -0.00028    -0.00039    -0.00054
 PY  C  14  -0.02462    -0.10361    -0.00032    -0.00292    -0.00107     0.00317
 PZ  C  14  -0.01710    -0.04156     0.00003     0.00048    -0.00115    -0.01068
  
  S  C  15   0.08873     0.36034     0.00107     0.00971    -0.00273    -0.02104
 PX  C  15  -0.00194    -0.00805    -0.00002    -0.00022    -0.00054    -0.00050
 PY  C  15   0.00324     0.00717    -0.00001    -0.00016    -0.00253    -0.00229
 PZ  C  15  -0.03345    -0.12398    -0.00029    -0.00252    -0.00203    -0.00485
  
  S  C  16   0.03363     0.14856     0.00052     0.00484    -0.00363    -0.02044
 PX  C  16  -0.00039    -0.00150    -0.00000    -0.00003    -0.00026    -0.00047
 PY  C  16   0.00796     0.03510     0.00012     0.00115    -0.00213    -0.00719
 PZ  C  16  -0.01488    -0.06226    -0.00019    -0.00177    -0.00001     0.00309
  
  S  C  17   0.02028     0.09238     0.00034     0.00323    -0.00461    -0.01940
 PX  C  17  -0.00058    -0.00262    -0.00001    -0.00009     0.00004     0.00035
 PY  C  17   0.00129     0.00542     0.00002     0.00016    -0.00067    -0.00164
 PZ  C  17  -0.01039    -0.04626    -0.00016    -0.00153     0.00187     0.00783
  
  S  C  18   0.02007     0.08859     0.00032     0.00294    -0.00514    -0.01858
 PX  C  18  -0.00119    -0.00531    -0.00002    -0.00018     0.00023     0.00095
 PY  C  18  -0.00636    -0.02945    -0.00011    -0.00104     0.00126     0.00575
 PZ  C  18  -0.00806    -0.03382    -0.00011    -0.00100     0.00169     0.00528
  
  S  C  19   0.03107     0.12092     0.00034     0.00310    -0.00639    -0.01661
 PX  C  19  -0.00179    -0.00708    -0.00002    -0.00018     0.00017     0.00052
 PY  C  19  -0.01363    -0.05848    -0.00019    -0.00176     0.00189     0.00742
 PZ  C  19  -0.00588    -0.01447     0.00001     0.00017     0.00030    -0.00322
  
  S  N  20   0.39529    -0.10536    -0.00449    -0.04252     0.01875     0.04000
 PX  N  20   0.08387    -0.02653    -0.00122    -0.01181    -0.03276    -0.00925
 PY  N  20  -0.02792    -0.00057     0.00028     0.00265    -0.01774    -0.01528
 PZ  N  20  -0.06831     0.02999     0.00030     0.00232    -0.03146    -0.00763
  
  S  C  21   0.30837    -0.09706     0.00047     0.00802     0.22619     0.08001
 PX  C  21   0.08881    -0.02945    -0.00146    -0.01425    -0.04025    -0.01216
 PY  C  21   0.03069    -0.01249    -0.00049    -0.00479    -0.01543    -0.00633
 PZ  C  21   0.05728    -0.01101    -0.00303    -0.03065    -0.10608    -0.01841
  
  S  C  22   0.12260    -0.03997     0.00343     0.03656     0.26112     0.08176
 PX  C  22   0.05890    -0.01924     0.00074     0.00830     0.07926     0.02500
 PY  C  22   0.01610    -0.00624     0.00025     0.00277     0.02282     0.00629
 PZ  C  22   0.00735     0.00115    -0.00206    -0.02094    -0.07608    -0.01670
  
  S  C  23   0.07711    -0.02949     0.00779     0.07913     0.30135     0.08312
 PX  C  23   0.03297    -0.01260     0.00249     0.02567     0.10749     0.02772
 PY  C  23   0.00954    -0.00383     0.00079     0.00813     0.03116     0.00691
 PZ  C  23   0.01568    -0.00468    -0.00191    -0.01817     0.01768     0.00817
  
  S  C  24   0.08192    -0.03332     0.01487     0.14838     0.34080     0.07684
 PX  C  24   0.00796    -0.00307     0.00004     0.00081     0.00517    -0.00456
 PY  C  24   0.00239    -0.00104     0.00068     0.00693    -0.00135    -0.00723
 PZ  C  24   0.03085    -0.01094    -0.00344    -0.03192     0.07668     0.02761
  
  S  C  25   0.11001    -0.04249     0.00855     0.08702     0.26712     0.05536
 PX  C  25  -0.01611     0.00659    -0.00327    -0.03312    -0.10593    -0.02683
 PY  C  25  -0.00400     0.00151    -0.00052    -0.00537    -0.03179    -0.01075
 PZ  C  25   0.04924    -0.01739    -0.00201    -0.01896     0.04196     0.01780
  
  S  C  26   0.26720    -0.09340     0.00191     0.02212     0.19409     0.04768
 PX  C  26  -0.00978     0.00308    -0.00191    -0.01977    -0.12073    -0.03921
 PY  C  26   0.00188    -0.00128    -0.00058    -0.00597    -0.03972    -0.01393
 PZ  C  26   0.10039    -0.03122    -0.00301    -0.02981    -0.07026    -0.01385
  
  S  C  27   0.31458    -0.10901    -0.00344    -0.03274    -0.12607    -0.06001
 PX  C  27  -0.07280     0.02256     0.00010     0.00022    -0.06983    -0.02994
 PY  C  27   0.02403    -0.01010    -0.00065    -0.00660    -0.05721    -0.02506
 PZ  C  27   0.06712    -0.02095    -0.00155    -0.01546    -0.07299    -0.02425
  
  S  C  28   0.36134    -0.11496    -0.00491    -0.04744    -0.15707    -0.05487
 PX  C  28  -0.02088     0.00176    -0.00024    -0.00290    -0.09328    -0.04645
 PY  C  28  -0.08009     0.02170     0.00086     0.00812    -0.01241    -0.01164
 PZ  C  28  -0.06012     0.02465     0.00041     0.00355    -0.00406     0.00317
  
  S  C  29   0.19322    -0.06136    -0.00338    -0.03340    -0.20177    -0.08061
 PX  C  29  -0.03459     0.00819     0.00043     0.00414    -0.00304    -0.00542
 PY  C  29  -0.01075     0.00061     0.00009     0.00079    -0.01049    -0.00682
 PZ  C  29  -0.07682     0.02863     0.00127     0.01251     0.07597     0.03307
  
  S  C  30   0.15055    -0.05444    -0.00280    -0.02781    -0.20895    -0.09161
 PX  C  30  -0.06186     0.02172     0.00107     0.01055     0.06730     0.02866
 PY  C  30  -0.02825     0.00963     0.00049     0.00481     0.03003     0.01261
 PZ  C  30  -0.01933     0.00792     0.00029     0.00282     0.02099     0.01046
  
  S  C  31   0.17158    -0.06326    -0.00266    -0.02619    -0.18680    -0.08596
 PX  C  31  -0.05329     0.01892     0.00063     0.00603     0.02584     0.01217
 PY  C  31  -0.03071     0.01088     0.00039     0.00380     0.02004     0.00932
 PZ  C  31   0.05167    -0.01844    -0.00105    -0.01045    -0.07113    -0.02988
  
  S  C  32   0.03254    -0.01583     0.02679     0.25676     0.16049     0.03325
 PX  C  32   0.00204    -0.00089     0.00053     0.00635     0.00424    -0.01378
 PY  C  32   0.00145    -0.00087     0.00312     0.03141    -0.00939    -0.02902
 PZ  C  32   0.00905    -0.00314    -0.00622    -0.05587     0.07128     0.00997
  
  S  C  33   0.01617    -0.00848     0.02029     0.18779     0.07576     0.06316
 PX  C  33   0.00280    -0.00144     0.00292     0.02820     0.01484     0.00199
 PY  C  33   0.00522    -0.00282     0.00716     0.06771     0.02214     0.00865
 PZ  C  33   0.00334    -0.00116    -0.00336    -0.02724     0.04131    -0.01209
  
  S  C  34   0.00819    -0.00504     0.02186     0.18343    -0.02009     0.11353
 PX  C  34   0.00159    -0.00098     0.00389     0.03537    -0.00092     0.00830
 PY  C  34   0.00264    -0.00169     0.00761     0.06693    -0.00971     0.02213
 PZ  C  34   0.00211    -0.00107     0.00054     0.01637     0.03237    -0.03065
  
  S  C  35   0.00811    -0.00539     0.03059     0.24099    -0.09119     0.15708
 PX  C  35   0.00081    -0.00054     0.00216     0.02445    -0.00304    -0.02114
 PY  C  35   0.00074    -0.00056     0.00292     0.03264    -0.01235    -0.03765
 PZ  C  35   0.00296    -0.00177     0.00366     0.05569     0.02961    -0.05231
  
  S  C  36   0.01355    -0.00897     0.04407     0.40493    -0.11460    -0.06540
 PX  C  36   0.00096    -0.00067     0.00323     0.03587    -0.01325    -0.05184
 PY  C  36   0.00075    -0.00070     0.00512     0.05706    -0.03573    -0.09598
 PZ  C  36   0.00363    -0.00207     0.00509     0.05756     0.02213    -0.04367
  
  S  C  37   0.02310    -0.01319     0.04291     0.41245    -0.00382    -0.11585
 PX  C  37   0.00043    -0.00026     0.00118     0.01383    -0.01215    -0.03610
 PY  C  37  -0.00086     0.00001     0.00507     0.05273    -0.05087    -0.08589
 PZ  C  37   0.00355    -0.00103    -0.00698    -0.06350     0.06852     0.02683
  
  S  N  38   0.01606    -0.00942     0.03327     0.32573    -0.03925    -0.17022
 PX  N  38  -0.00263     0.00158    -0.00574    -0.05603     0.00372     0.02478
 PY  N  38  -0.00581     0.00313    -0.00812    -0.07939    -0.01009     0.02801
 PZ  N  38  -0.00223     0.00187    -0.01190    -0.11568     0.04209     0.06872
  
  S  S  39   0.00697    -0.00468     0.02282     0.22133    -0.06887    -0.12592
 PX  S  39  -0.00198     0.00137    -0.00698    -0.06744     0.02227     0.03649
 PY  S  39  -0.00475     0.00318    -0.01546    -0.14983     0.04558     0.08245
 PZ  S  39   0.00115    -0.00064     0.00160     0.01683     0.00432    -0.01320
  
  S  N  40   0.00864    -0.00611     0.03398     0.31901    -0.12629    -0.13089
 PX  N  40  -0.00023     0.00018    -0.00140    -0.01094     0.00691    -0.00921
 PY  N  40  -0.00186     0.00132    -0.00772    -0.06892     0.02929     0.00577
 PZ  N  40   0.00387    -0.00267     0.01361     0.13213    -0.04244    -0.07269
  
  S  C  41   0.00289    -0.00214     0.02856     0.12414    -0.15792     0.34491
 PX  C  41   0.00025    -0.00018    -0.00006     0.00869     0.00181    -0.01481
 PY  C  41   0.00008    -0.00006    -0.00079     0.00358     0.00928    -0.04450
 PZ  C  41   0.00113    -0.00075    -0.00312     0.03054     0.03093    -0.09931
  
  S  C  42   0.00131    -0.00102     0.02358     0.06743    -0.14214     0.34971
 PX  C  42  -0.00001     0.00001    -0.00169    -0.00159     0.00957    -0.02565
 PY  C  42   0.00044    -0.00036     0.00930     0.02503    -0.05517     0.13166
 PZ  C  42   0.00037    -0.00025    -0.00245     0.01039     0.01411    -0.04098
  
  S  C  43   0.00064    -0.00055     0.02996     0.04229    -0.13771     0.34913
 PX  C  43   0.00002    -0.00002    -0.00122     0.00118    -0.00067     0.00083
 PY  C  43   0.00017    -0.00016     0.01121     0.01221    -0.04243     0.10665
 PZ  C  43   0.00027    -0.00022     0.00239     0.01652    -0.03877     0.09478
  
  S  C  44   0.00056    -0.00049     0.05230     0.03610    -0.13726     0.35044
 PX  C  44   0.00006    -0.00005    -0.00306     0.00440    -0.00916     0.02142
 PY  C  44  -0.00013     0.00011     0.00552    -0.00995     0.02627    -0.06522
 PZ  C  44   0.00023    -0.00019    -0.00898     0.01577    -0.03174     0.07406
  
  S  S  45   0.00110    -0.00088     0.02904     0.05735    -0.11433     0.25946
 PX  S  45   0.00020    -0.00015    -0.00038     0.00956    -0.00855     0.01148
 PY  S  45  -0.00049     0.00040    -0.01055    -0.02838     0.06642    -0.15975
 PZ  S  45   0.00044    -0.00032    -0.00857     0.01767     0.00697    -0.04159
  
  S  C  46   0.00016    -0.00016     0.11375     0.00118    -0.06422     0.17299
 PX  C  46   0.00001    -0.00001    -0.01591     0.00299    -0.00340     0.00807
 PY  C  46  -0.00003     0.00002     0.03948    -0.00691     0.00620    -0.01415
 PZ  C  46   0.00007    -0.00006    -0.02292     0.00872    -0.02342     0.06050
  
  S  C  47   0.00008    -0.00008     0.22488    -0.01990    -0.03031     0.08589
 PX  C  47   0.00001    -0.00001    -0.01580     0.00273    -0.00518     0.01390
 PY  C  47  -0.00002     0.00002     0.02734    -0.00535     0.01214    -0.03270
 PZ  C  47   0.00001    -0.00001    -0.07921     0.01124    -0.01287     0.03408
  
  S  C  48   0.00005    -0.00007     0.51001    -0.05885     0.01161    -0.02638
 PX  C  48   0.00000     0.00000    -0.03484     0.00454    -0.00477     0.01313
 PY  C  48  -0.00000    -0.00000     0.07545    -0.00989     0.01104    -0.03062
 PZ  C  48   0.00000     0.00000    -0.11160     0.01433    -0.01222     0.03273
  
  S  O  49   0.00003    -0.00005     0.40857    -0.04765     0.01134    -0.02615
 PX  O  49  -0.00000     0.00000    -0.03245     0.00392    -0.00194     0.00506
 PY  O  49   0.00001    -0.00001     0.11906    -0.01422     0.00590    -0.01506
 PZ  O  49   0.00001    -0.00002     0.12367    -0.01418     0.00161    -0.00279
  
  S  O  50   0.00004    -0.00006     0.57034    -0.06820     0.03172    -0.08311
 PX  O  50   0.00000    -0.00001     0.04831    -0.00571     0.00201    -0.00508
 PY  O  50  -0.00001     0.00002    -0.15127     0.01794    -0.00690     0.01762
 PZ  O  50  -0.00000     0.00000    -0.06171     0.00763    -0.00542     0.01464
  
  S  C  51   0.00004    -0.00005     0.11203    -0.00909    -0.02119     0.06003
 PX  C  51   0.00000    -0.00001     0.00351     0.00013    -0.00290     0.00789
 PY  C  51  -0.00002     0.00002    -0.01925     0.00066     0.00776    -0.02114
 PZ  C  51  -0.00001     0.00001    -0.05076     0.00578    -0.00107     0.00254
  
  S  N  52   0.00002    -0.00002     0.03921    -0.00293    -0.01046     0.03002
 PX  N  52   0.00000    -0.00000     0.00386    -0.00023    -0.00155     0.00440
 PY  N  52  -0.00001     0.00001    -0.01434     0.00093     0.00486    -0.01384
 PZ  N  52  -0.00001     0.00001    -0.01970     0.00181     0.00285    -0.00833
  
  S  H  53   0.00006    -0.00006     0.05250    -0.00079    -0.02362     0.06378
  
  S  H  54   0.00046     0.00245     0.00001     0.00013     0.00046    -0.00092
  
  S  H  55   0.00031     0.00173     0.00001     0.00009     0.00037    -0.00074
  
  S  H  56   0.00046     0.00245     0.00001     0.00013     0.00046    -0.00093
  
  S  H  57   0.00108     0.00558     0.00003     0.00027     0.00080    -0.00158
  
  S  H  58   0.00109     0.00560     0.00003     0.00027     0.00081    -0.00157
  
  S  H  59   0.00254     0.01217     0.00005     0.00051     0.00118    -0.00218
  
  S  H  60   0.00250     0.01215     0.00005     0.00051     0.00116    -0.00223
  
  S  H  61   0.00494     0.02308     0.00009     0.00088     0.00144    -0.00277
  
  S  H  62   0.00505     0.02317     0.00009     0.00086     0.00149    -0.00260
  
  S  H  63   0.01412     0.05758     0.00018     0.00167     0.00198    -0.00237
  
  S  H  64   0.01314     0.05681     0.00019     0.00180     0.00165    -0.00358
  
  S  H  65   0.01778     0.07688     0.00026     0.00240     0.00156    -0.00420
  
  S  H  66   0.01866     0.07631     0.00024     0.00216     0.00203    -0.00225
  
  S  H  67   0.02109     0.04565    -0.00001    -0.00025     0.00423     0.00795
  
  S  H  68   0.05542     0.00382    -0.00033    -0.00300     0.02433     0.01931
  
  S  H  69   0.04940     0.01931    -0.00062    -0.00623    -0.01325     0.00507
  
  S  H  70   0.01092     0.04879     0.00017     0.00162    -0.00066    -0.00612
  
  S  H  71   0.00457     0.02138     0.00008     0.00079    -0.00123    -0.00531
  
  S  H  72   0.00455     0.02024     0.00007     0.00069    -0.00143    -0.00502
  
  S  H  73   0.01001     0.03240     0.00006     0.00051    -0.00250    -0.00388
  
  S  H  74   0.03880    -0.01083     0.00070     0.00764     0.07019     0.02451
  
  S  H  75   0.01856    -0.00734     0.00311     0.03103     0.09054     0.02589
  
  S  H  76   0.03245    -0.01294     0.00404     0.04046     0.07129     0.00709
  
  S  H  77   0.12485    -0.04210    -0.00138    -0.01318    -0.05116    -0.02360
  
  S  H  78   0.13358    -0.04400    -0.00178    -0.01718    -0.06113    -0.02319
  
  S  H  79   0.06025    -0.01746    -0.00109    -0.01083    -0.06696    -0.02593
  
  S  H  80   0.08034    -0.02103    -0.00136    -0.01348    -0.07492    -0.02776
  
  S  H  81   0.04819    -0.01764    -0.00093    -0.00926    -0.07367    -0.03251
  
  S  H  82   0.04870    -0.01763    -0.00093    -0.00932    -0.07371    -0.03245
  
  S  H  83   0.05057    -0.01900    -0.00075    -0.00739    -0.05925    -0.02814
  
  S  H  84   0.06514    -0.02420    -0.00093    -0.00909    -0.06652    -0.03143
  
  S  H  85   0.00690    -0.00333     0.00562     0.05240     0.03994     0.02418
  
  S  H  86   0.00211    -0.00131     0.00661     0.05012    -0.01297     0.05314
  
  S  H  87   0.00055    -0.00041     0.00673     0.02430    -0.04050     0.10078
  
  S  H  88   0.00015    -0.00013     0.01011     0.01024    -0.03791     0.09767
  
  S  H  89   0.00001    -0.00002     0.24038    -0.02884     0.01411    -0.03712




    ROOT NO.    7           8           9          10          11          12

           -43.08440   -42.77699   -41.78334   -41.26343   -40.44105   -39.63680
  
  
  S  C   1  -0.02214     0.13041     0.15411     0.10850    -0.11570     0.02259
 PX  C   1  -0.00821     0.04763     0.05344     0.03649    -0.03685     0.00676
 PY  C   1  -0.00229     0.01305     0.01361     0.00888    -0.00823     0.00136
 PZ  C   1  -0.00001    -0.00003    -0.00001    -0.00001     0.00002    -0.00000
  
  S  C   2  -0.03789     0.21814     0.23852     0.16065    -0.15882     0.02858
 PX  C   2  -0.00256     0.01223     0.00387    -0.00118     0.00781    -0.00276
 PY  C   2  -0.00948     0.05321     0.05264     0.03325    -0.02897     0.00441
 PZ  C   2  -0.00006    -0.00014    -0.00004    -0.00005     0.00008    -0.00002
  
  S  C   3  -0.05117     0.28417     0.27110     0.16800    -0.14210     0.02105
 PX  C   3  -0.00885     0.04420     0.02367     0.00700     0.00744    -0.00395
 PY  C   3   0.00403    -0.02578    -0.03836    -0.02927     0.03417    -0.00704
 PZ  C   3  -0.00026    -0.00055    -0.00009    -0.00018     0.00030    -0.00006
  
  S  C   4  -0.05945     0.30993     0.23159     0.11915    -0.06190     0.00170
 PX  C   4   0.00328    -0.02700    -0.05030    -0.03982     0.04620    -0.00893
 PY  C   4  -0.00931     0.04299     0.01152    -0.00341     0.01889    -0.00569
 PZ  C   4  -0.00130    -0.00022     0.00120     0.00021     0.00052    -0.00015
  
  S  C   5  -0.06333     0.29769     0.12532     0.02580     0.05000    -0.01896
 PX  C   5  -0.00783     0.01770    -0.03984    -0.04082     0.05231    -0.00951
 PY  C   5   0.00803    -0.04815    -0.05655    -0.03510     0.02545    -0.00216
 PZ  C   5  -0.00548    -0.00378     0.00334    -0.00017     0.00293    -0.00069
  
  S  C   6  -0.06651     0.25751    -0.00080    -0.07369     0.14902    -0.03260
 PX  C   6   0.00605    -0.04635    -0.04295    -0.02417     0.01224     0.00059
 PY  C   6  -0.01385     0.03391    -0.05219    -0.05152     0.05777    -0.00826
 PZ  C   6  -0.01439    -0.00635     0.00862    -0.00112     0.00905    -0.00213
  
  S  N   7  -0.06744     0.18015    -0.15771    -0.16936     0.19275    -0.02707
 PX  N   7   0.00855    -0.04685     0.00696     0.01711    -0.02930     0.00607
 PY  N   7   0.01029    -0.06162    -0.04137    -0.00648    -0.03206     0.01194
 PZ  N   7  -0.04475    -0.02204     0.02504    -0.00390     0.02628    -0.00589
  
  S  C   8   0.17446     0.04402    -0.14762    -0.01128    -0.09215     0.02397
 PX  C   8   0.00044    -0.01261    -0.00645    -0.00115    -0.00406     0.00158
 PY  C   8   0.08207    -0.07660     0.00713     0.06187    -0.10826     0.01932
 PZ  C   8  -0.10435     0.02267    -0.04120    -0.07952     0.10510    -0.01357
  
  S  C   9   0.23401     0.01826    -0.06057     0.06691    -0.16071     0.02887
 PX  C   9   0.01301    -0.00408    -0.00543     0.00393    -0.01033     0.00194
 PY  C   9   0.10768    -0.03025    -0.00682     0.04766    -0.08570     0.01410
 PZ  C   9   0.01357     0.02341    -0.03535    -0.01334    -0.00211     0.00194
  
  S  C  10   0.28716    -0.03574     0.01980     0.09871    -0.13596     0.01783
 PX  C  10   0.01141    -0.00270    -0.00024     0.00568    -0.00504    -0.00010
 PY  C  10   0.04538    -0.01782     0.03853     0.01109     0.03234    -0.01097
 PZ  C  10   0.09831    -0.00940    -0.02844     0.04479    -0.09377     0.01525
  
  S  C  11   0.34153    -0.06687     0.09661     0.11758    -0.03759    -0.01547
 PX  C  11  -0.00737     0.00061    -0.00350     0.00251     0.00238    -0.00201
 PY  C  11  -0.04352    -0.00051     0.05344    -0.02410     0.12206    -0.02957
 PZ  C  11   0.03752    -0.00759    -0.06083     0.04013    -0.13088     0.02561
  
  S  C  12   0.26435    -0.07630     0.00638     0.12437    -0.16460     0.01739
 PX  C  12  -0.01644     0.00163    -0.00168    -0.00356     0.00647    -0.00128
 PY  C  12  -0.08966     0.01728     0.02835    -0.03364     0.08979    -0.01828
 PZ  C  12  -0.06735    -0.00375    -0.02934    -0.02015    -0.02072     0.01165
  
  S  C  13   0.18148    -0.09015    -0.07780     0.06735    -0.18239     0.03701
 PX  C  13  -0.01107    -0.00517     0.00467    -0.00037     0.00414    -0.00089
 PY  C  13   0.00440    -0.02290     0.05254     0.03889    -0.02139    -0.00145
 PZ  C  13  -0.13405    -0.02142     0.01047    -0.04908     0.07870    -0.00964
  
  S  C  14  -0.10980    -0.22363     0.07296     0.05057    -0.06398     0.01425
 PX  C  14  -0.00503    -0.00859     0.01067     0.00606    -0.00287    -0.00012
 PY  C  14   0.02503    -0.00880     0.03338     0.03662    -0.03769     0.00366
 PZ  C  14  -0.10210    -0.08757     0.11323     0.03744     0.01413    -0.00825
  
  S  C  15  -0.17491    -0.12304     0.04402    -0.02977     0.07105    -0.01101
 PX  C  15  -0.00511    -0.02552     0.01156     0.00994    -0.01111     0.00185
 PY  C  15  -0.02221    -0.11801     0.05392     0.05216    -0.06680     0.01224
 PZ  C  15  -0.05365    -0.10072     0.12872     0.07468    -0.03809    -0.00098
  
  S  C  16  -0.18377    -0.17902     0.16088     0.04878     0.02376    -0.01164
 PX  C  16  -0.00467    -0.01384     0.00768     0.00539    -0.00488     0.00067
 PY  C  16  -0.06630    -0.10703     0.07693     0.03988    -0.02238     0.00153
 PZ  C  16   0.02418    -0.00530     0.00981     0.01955    -0.02720     0.00394
  
  S  C  17  -0.17907    -0.23386     0.20233     0.09100    -0.02581    -0.00430
 PX  C  17   0.00318     0.00223    -0.00254    -0.00048    -0.00099     0.00031
 PY  C  17  -0.01541    -0.03230     0.02328     0.01523    -0.01327     0.00179
 PZ  C  17   0.07111     0.09078    -0.07234    -0.03074     0.00743     0.00136
  
  S  C  18  -0.17111    -0.24647     0.20322     0.10062    -0.04613     0.00024
 PX  C  18   0.00865     0.01173    -0.00936    -0.00429     0.00157     0.00006
 PY  C  18   0.05293     0.06755    -0.05630    -0.02403     0.00519     0.00142
 PZ  C  18   0.04728     0.07176    -0.05134    -0.02619     0.01501    -0.00128
  
  S  C  19  -0.14758    -0.24856     0.17400     0.09788    -0.06711     0.00693
 PX  C  19   0.00453     0.00781    -0.00399    -0.00223     0.00193    -0.00034
 PY  C  19   0.06661     0.09411    -0.06377    -0.02925     0.01343    -0.00084
 PZ  C  19  -0.03317    -0.02494     0.04032     0.01268     0.00750    -0.00385
  
  S  N  20   0.18817    -0.04587     0.21801     0.00194     0.28528    -0.07504
 PX  N  20   0.00119    -0.00075     0.01581     0.00326     0.04171    -0.01340
 PY  N  20  -0.06630     0.01379    -0.03551    -0.01530    -0.01499     0.00685
 PZ  N  20   0.03586    -0.00645    -0.02713     0.04488    -0.06804     0.00386
  
  S  C  21   0.00921    -0.01023     0.11486    -0.10892     0.11690     0.00772
 PX  C  21  -0.00320     0.00074     0.02310    -0.00548     0.06422    -0.01670
 PY  C  21  -0.01374     0.00231     0.00669    -0.00756     0.02967    -0.00658
 PZ  C  21   0.09457    -0.01832     0.07636     0.04270     0.13250    -0.04900
  
  S  C  22  -0.03518     0.00045     0.01985    -0.08639    -0.04791     0.04464
 PX  C  22  -0.00831    -0.00062     0.01803    -0.03431     0.00484     0.01052
 PY  C  22  -0.00800     0.00069     0.00421    -0.01277     0.00296     0.00321
 PZ  C  22   0.04933    -0.00860     0.03914     0.01796     0.06840    -0.02251
  
  S  C  23  -0.09464     0.01253    -0.06454    -0.03943    -0.13471     0.04253
 PX  C  23  -0.03587     0.00487    -0.01782    -0.02706    -0.04723     0.01833
 PY  C  23  -0.01119     0.00153    -0.00425    -0.01129    -0.01490     0.00617
 PZ  C  23   0.00601    -0.00195     0.02867    -0.04714     0.00481     0.02059
  
  S  C  24  -0.12601     0.01880    -0.11663     0.00754    -0.17408     0.01926
 PX  C  24  -0.00473     0.00094     0.00721    -0.02768    -0.01108     0.00948
 PY  C  24   0.00037     0.00006     0.00568    -0.01623    -0.00747     0.00354
 PZ  C  24  -0.02157     0.00216     0.02136    -0.08417    -0.03340     0.04504
  
  S  C  25  -0.11811     0.01864    -0.06535    -0.07464    -0.14198     0.04710
 PX  C  25   0.02666    -0.00297     0.01951     0.01275     0.04745    -0.01145
 PY  C  25   0.00720    -0.00070     0.00585     0.00124     0.01138    -0.00359
 PZ  C  25  -0.02334     0.00341     0.01179    -0.04543     0.00348     0.02192
  
  S  C  26  -0.10959     0.01705     0.00594    -0.11758    -0.00637     0.03869
 PX  C  26  -0.00211     0.00410    -0.01967     0.03434     0.01034    -0.01405
 PY  C  26  -0.00578     0.00226    -0.00760     0.00904     0.00411    -0.00462
 PZ  C  26   0.02631    -0.00493     0.05002     0.00294     0.10738    -0.02685
  
  S  C  27  -0.14981     0.03555    -0.08231    -0.01898    -0.03452     0.01389
 PX  C  27  -0.03480     0.01110    -0.07591     0.03702    -0.10213     0.01471
 PY  C  27  -0.04228     0.01115    -0.04563     0.01332    -0.04367     0.00646
 PZ  C  27  -0.01044     0.00391    -0.01497     0.02343     0.00257    -0.00924
  
  S  C  28  -0.05461     0.01299    -0.01027     0.01884     0.05803    -0.02444
 PX  C  28  -0.09731     0.02560    -0.12032     0.02661    -0.14459     0.02906
 PY  C  28  -0.04161     0.01051    -0.05321     0.00502    -0.07133     0.01696
 PZ  C  28   0.04098    -0.00920     0.00153     0.02854    -0.02326    -0.00314
  
  S  C  29  -0.10249     0.02665    -0.12485     0.06137    -0.12440     0.01061
 PX  C  29  -0.02620     0.00704    -0.02866    -0.00152    -0.03798     0.01076
 PY  C  29  -0.02189     0.00558    -0.01951    -0.00007    -0.02039     0.00507
 PZ  C  29   0.06015    -0.01603     0.05275    -0.01112     0.04083    -0.00610
  
  S  C  30  -0.15730     0.04146    -0.17420     0.05182    -0.18222     0.02957
 PX  C  30   0.04715    -0.01221     0.04708    -0.01432     0.04197    -0.00557
 PY  C  30   0.01975    -0.00518     0.02064    -0.00686     0.01901    -0.00249
 PZ  C  30   0.02521    -0.00657     0.02130     0.00011     0.01896    -0.00509
  
  S  C  31  -0.17095     0.04403    -0.16502     0.02853    -0.16150     0.03217
 PX  C  31   0.02909    -0.00689     0.01570     0.00366     0.00437    -0.00188
 PY  C  31   0.02036    -0.00505     0.01518    -0.00005     0.01100    -0.00273
 PZ  C  31  -0.04671     0.01250    -0.05152     0.01830    -0.04968     0.00648
  
  S  C  32  -0.07111     0.01216    -0.15415     0.22763    -0.01957    -0.08444
 PX  C  32   0.00162    -0.00017     0.01290    -0.04055    -0.02638     0.01048
 PY  C  32   0.00989    -0.00135     0.02246    -0.05217    -0.02642     0.00966
 PZ  C  32  -0.02251     0.00307     0.00639    -0.08429    -0.08612     0.03424
  
  S  C  33  -0.04930     0.00841    -0.14515     0.29523     0.08857    -0.09368
 PX  C  33  -0.00676     0.00121    -0.01708     0.02745    -0.00023    -0.01114
 PY  C  33  -0.01236     0.00224    -0.03886     0.07577     0.01747    -0.02708
 PZ  C  33  -0.00909     0.00137     0.00641    -0.05844    -0.06427     0.01266
  
  S  C  34  -0.02860     0.00444    -0.11315     0.29953     0.17148    -0.05639
 PX  C  34  -0.00314     0.00060    -0.01739     0.04527     0.02378    -0.01256
 PY  C  34  -0.00448     0.00079    -0.02827     0.08029     0.04930    -0.01648
 PZ  C  34  -0.00512     0.00136    -0.02404     0.03904    -0.00565    -0.03654
  
  S  C  35  -0.01333     0.00124    -0.06972     0.23728     0.18811     0.00281
 PX  C  35   0.00597    -0.00073     0.00564    -0.00771    -0.00106    -0.00381
 PY  C  35   0.01402    -0.00198     0.02466    -0.04690    -0.01463     0.00662
 PZ  C  35  -0.00069     0.00110    -0.03907     0.09304     0.03383    -0.05880
  
  S  C  36   0.05026    -0.00704     0.03383     0.01831     0.08246     0.00168
 PX  C  36   0.01817    -0.00258     0.03773    -0.08243    -0.03816     0.01196
 PY  C  36   0.03863    -0.00571     0.08488    -0.18003    -0.07372     0.03637
 PZ  C  36   0.00076     0.00058    -0.01422     0.01721    -0.01900    -0.03336
  
  S  C  37   0.02140    -0.00154    -0.00861     0.01131    -0.03143    -0.04399
 PX  C  37   0.01386    -0.00205     0.03621    -0.08363    -0.03996     0.01874
 PY  C  37   0.04109    -0.00620     0.08869    -0.17920    -0.06509     0.04049
 PZ  C  37  -0.03059     0.00473    -0.03539     0.01680    -0.04730    -0.00729
  
  S  N  38   0.05171    -0.00655     0.08236    -0.18797    -0.11086     0.01102
 PX  N  38  -0.00681     0.00081    -0.00818     0.01929     0.01422     0.00177
 PY  N  38  -0.00147    -0.00019     0.00084     0.01342     0.02570     0.00656
 PZ  N  38  -0.03143     0.00447    -0.04755     0.08113     0.02159    -0.01008
  
  S  S  39   0.05444    -0.00770     0.08879    -0.16291    -0.05161     0.02624
 PX  S  39  -0.01662     0.00237    -0.02633     0.04591     0.01169    -0.00797
 PY  S  39  -0.03563     0.00502    -0.05666     0.10237     0.03126    -0.01574
 PZ  S  39   0.00118    -0.00002     0.00185    -0.01194    -0.01654    -0.00383
  
  S  N  40   0.07585    -0.01120     0.11811    -0.18066    -0.00932     0.05154
 PX  N  40   0.00004     0.00007     0.00209    -0.01124    -0.01253    -0.00264
 PY  N  40  -0.01107     0.00172    -0.01271     0.00571    -0.01912    -0.00953
 PZ  N  40   0.03224    -0.00455     0.04900    -0.08330    -0.01964     0.01215
  
  S  C  41  -0.02954     0.00093     0.00619     0.01863     0.06462     0.11884
 PX  C  41   0.00271    -0.00024    -0.00183     0.01001     0.00989    -0.00268
 PY  C  41   0.00772    -0.00078     0.00602    -0.01064    -0.00515    -0.01379
 PZ  C  41   0.01131    -0.00042    -0.02768     0.09216     0.06605    -0.03756
  
  S  C  42  -0.03471     0.00152     0.01969    -0.04479     0.00184     0.12119
 PX  C  42   0.00272    -0.00012    -0.00300     0.00948     0.00589    -0.00682
 PY  C  42  -0.01231     0.00042     0.01086    -0.02558    -0.00464     0.04333
 PZ  C  42   0.00406    -0.00005    -0.01561     0.05141     0.03918    -0.00930
  
  S  C  43  -0.03492     0.00139     0.03858    -0.11449    -0.06660     0.06756
 PX  C  43  -0.00000    -0.00000    -0.00066     0.00323     0.00462     0.00947
 PY  C  43  -0.01046     0.00038     0.01362    -0.04127    -0.02761     0.00503
 PZ  C  43  -0.00921     0.00037     0.00619    -0.01262     0.00516     0.05898
  
  S  C  44  -0.03511     0.00136     0.04561    -0.14482    -0.10981    -0.03775
 PX  C  44  -0.00193     0.00006     0.00156    -0.00211     0.00432     0.02600
 PY  C  44   0.00638    -0.00025    -0.00550     0.01242    -0.00317    -0.05750
 PZ  C  44  -0.00669     0.00021     0.00444    -0.00413     0.01721     0.09213
  
  S  S  45  -0.02211     0.00044     0.02926    -0.07215    -0.03020     0.04405
 PX  S  45   0.00018    -0.00016     0.00169     0.00090     0.00769     0.01506
 PY  S  45   0.01503    -0.00052    -0.01436     0.03544     0.00924    -0.05304
 PZ  S  45   0.00705    -0.00058    -0.00739     0.03725     0.04275     0.03259
  
  S  C  46  -0.01825     0.00076     0.03098    -0.11530    -0.12750    -0.26016
 PX  C  46  -0.00074     0.00002     0.00033     0.00065     0.00513     0.02930
 PY  C  46   0.00125    -0.00004     0.00022    -0.00537    -0.01651    -0.07346
 PZ  C  46  -0.00614     0.00024     0.00792    -0.02483    -0.01582     0.04237
  
  S  C  47  -0.00946     0.00041     0.01975    -0.08026    -0.10366    -0.23487
 PX  C  47  -0.00146     0.00006     0.00249    -0.00936    -0.01096    -0.03805
 PY  C  47   0.00346    -0.00015    -0.00593     0.02257     0.02735     0.11114
 PZ  C  47  -0.00355     0.00015     0.00561    -0.02017    -0.01951     0.01263
  
  S  C  48   0.00237    -0.00008    -0.00115    -0.00035    -0.01214    -0.13016
 PX  C  48  -0.00142     0.00006     0.00307    -0.01327    -0.02113    -0.11862
 PY  C  48   0.00334    -0.00015    -0.00746     0.03299     0.05545     0.35280
 PZ  C  48  -0.00345     0.00014     0.00616    -0.02323    -0.02324     0.06573
  
  S  O  49   0.00237    -0.00008    -0.00074    -0.00475    -0.03222    -0.45297
 PX  O  49  -0.00052     0.00002     0.00086    -0.00323    -0.00354    -0.00117
 PY  O  49   0.00152    -0.00006    -0.00225     0.00785     0.00665    -0.02795
 PZ  O  49   0.00015     0.00000     0.00099    -0.00644    -0.01614    -0.14597
  
  S  O  50   0.00864    -0.00036    -0.01579     0.06479     0.09622     0.50442
 PX  O  50   0.00051    -0.00002    -0.00075     0.00277     0.00345     0.01695
 PY  O  50  -0.00179     0.00007     0.00280    -0.01065    -0.01367    -0.05949
 PZ  O  50  -0.00156     0.00007     0.00313    -0.01295    -0.01795    -0.05175
  
  S  C  51  -0.00661     0.00029     0.01449    -0.05991    -0.07864    -0.09146
 PX  C  51  -0.00084     0.00004     0.00140    -0.00509    -0.00526    -0.01453
 PY  C  51   0.00226    -0.00010    -0.00366     0.01327     0.01334     0.03743
 PZ  C  51  -0.00024     0.00001     0.00044    -0.00201    -0.00397    -0.01400
  
  S  N  52  -0.00334     0.00015     0.00825    -0.03570    -0.05083    -0.05181
 PX  N  52  -0.00049     0.00002     0.00111    -0.00466    -0.00629    -0.00789
 PY  N  52   0.00153    -0.00007    -0.00348     0.01467     0.01993     0.02323
 PZ  N  52   0.00094    -0.00004    -0.00236     0.01029     0.01460     0.00920
  
  S  H  53  -0.00674     0.00028     0.01154    -0.04318    -0.04865    -0.11925
  
  S  H  54  -0.00948     0.05587     0.06585     0.04632    -0.04935     0.00963
  
  S  H  55  -0.00767     0.04553     0.05522     0.03943    -0.04305     0.00861
  
  S  H  56  -0.00950     0.05586     0.06587     0.04632    -0.04934     0.00963
  
  S  H  57  -0.01590     0.09096     0.09869     0.06615    -0.06488     0.01159
  
  S  H  58  -0.01583     0.09113     0.09873     0.06621    -0.06498     0.01161
  
  S  H  59  -0.02127     0.11938     0.11269     0.06969    -0.05880     0.00869
  
  S  H  60  -0.02174     0.11912     0.11293     0.06962    -0.05845     0.00861
  
  S  H  61  -0.02579     0.12952     0.09706     0.04943    -0.02497     0.00054
  
  S  H  62  -0.02429     0.13040     0.09611     0.04949    -0.02585     0.00075
  
  S  H  63  -0.02065     0.12598     0.04821     0.01107     0.01664    -0.00679
  
  S  H  64  -0.03078     0.12093     0.05388     0.01034     0.02236    -0.00809
  
  S  H  65  -0.03437     0.09801     0.01226    -0.02411     0.05960    -0.01381
  
  S  H  66  -0.01777     0.10652     0.00214    -0.02324     0.04992    -0.01151
  
  S  H  67   0.05825     0.02442    -0.01935     0.01091    -0.03389     0.00630
  
  S  H  68   0.08392    -0.01072     0.02167     0.02046    -0.02121     0.00322
  
  S  H  69   0.07178    -0.03063     0.01191     0.04232    -0.04088     0.00132
  
  S  H  70  -0.05462    -0.03128     0.04248     0.00614     0.02080    -0.00637
  
  S  H  71  -0.04950    -0.06424     0.05900     0.02685    -0.00723    -0.00159
  
  S  H  72  -0.04663    -0.06884     0.05921     0.03036    -0.01487     0.00016
  
  S  H  73  -0.03279    -0.07137     0.04744     0.03220    -0.02812     0.00358
  
  S  H  74   0.00475    -0.00269     0.01512    -0.02083    -0.00427     0.01002
  
  S  H  75  -0.02976     0.00412    -0.02972     0.00729    -0.04137     0.00616
  
  S  H  76  -0.03924     0.00692    -0.02769    -0.01789    -0.05265     0.01078
  
  S  H  77  -0.05467     0.01331    -0.03335    -0.00423    -0.01820     0.00587
  
  S  H  78  -0.03328     0.00771    -0.01181     0.00413     0.01572    -0.00690
  
  S  H  79  -0.02705     0.00648    -0.04031     0.02507    -0.04537     0.00314
  
  S  H  80  -0.02209     0.00574    -0.04107     0.02914    -0.04752     0.00272
  
  S  H  81  -0.05610     0.01482    -0.06402     0.01941    -0.06941     0.01146
  
  S  H  82  -0.05550     0.01472    -0.06409     0.01966    -0.07006     0.01163
  
  S  H  83  -0.05859     0.01512    -0.05831     0.00898    -0.06085     0.01293
  
  S  H  84  -0.06591     0.01682    -0.06179     0.00833    -0.06064     0.01283
  
  S  H  85  -0.02128     0.00348    -0.05059     0.09068     0.01606    -0.02830
  
  S  H  86  -0.01063     0.00144    -0.03391     0.09219     0.05734    -0.00875
  
  S  H  87  -0.01049     0.00057     0.00043     0.00304     0.01243     0.03609
  
  S  H  88  -0.00994     0.00041     0.01167    -0.03642    -0.02451     0.00860
  
  S  H  89   0.00387    -0.00016    -0.00716     0.02928     0.04241     0.19600




    ROOT NO.   13          14          15          16          17          18

           -39.12992   -38.13923   -37.46971   -36.06126   -35.62586   -35.45420
  
  
  S  C   1  -0.02204    -0.28365     0.06211     0.00399     0.27951     0.00678
 PX  C   1  -0.00631    -0.07346     0.01482     0.00076     0.04835     0.00112
 PY  C   1  -0.00117    -0.01076     0.00169     0.00001    -0.00128    -0.00004
 PZ  C   1   0.00000    -0.00001     0.00002     0.00001     0.00002    -0.00005
  
  S  C   2  -0.02636    -0.30040     0.05994     0.00305     0.19554     0.00454
 PX  C   2   0.00343     0.06242    -0.01626    -0.00137    -0.10277    -0.00258
 PY  C   2  -0.00354    -0.02628     0.00292    -0.00019    -0.02091    -0.00056
 PZ  C   2   0.00001    -0.00006     0.00007     0.00004     0.00010    -0.00017
  
  S  C   3  -0.01661    -0.12120     0.01389    -0.00064    -0.07168    -0.00186
 PX  C   3   0.00521     0.09538    -0.02412    -0.00182    -0.12941    -0.00313
 PY  C   3   0.00699     0.09024    -0.01934    -0.00113    -0.07217    -0.00154
 PZ  C   3   0.00004    -0.00032     0.00027     0.00013     0.00036    -0.00060
  
  S  C   4   0.00372     0.15497    -0.04532    -0.00368    -0.27220    -0.00713
 PX  C   4   0.00829     0.08682    -0.01475    -0.00016     0.00025    -0.00022
 PY  C   4   0.00635     0.09084    -0.01958    -0.00099    -0.05915    -0.00129
 PZ  C   4   0.00012    -0.00047     0.00068     0.00041    -0.00062    -0.00201
  
  S  C   5   0.02177     0.30685    -0.06376    -0.00243    -0.17907    -0.00648
 PX  C   5   0.00795     0.05132    -0.00198     0.00158     0.08013    -0.00090
 PY  C   5   0.00031    -0.03874     0.01381     0.00141     0.09429     0.00196
 PZ  C   5   0.00053    -0.00245     0.00288     0.00156    -0.00105    -0.00747
  
  S  C   6   0.03015     0.26957    -0.03343     0.00323     0.10273    -0.00799
 PX  C   6  -0.00244    -0.07395     0.02124     0.00210     0.09800    -0.00050
 PY  C   6   0.00514    -0.01904     0.01647     0.00332     0.10749    -0.00482
 PZ  C   6   0.00174    -0.00152     0.00635     0.00380     0.00040    -0.01814
  
  S  N   7   0.01650    -0.06413     0.05225     0.01262     0.18517    -0.03582
 PX  N   7  -0.00548    -0.04702     0.00571    -0.00024    -0.02901    -0.00123
 PY  N   7  -0.01365    -0.17764     0.03197     0.00189    -0.11058    -0.01381
 PZ  N   7   0.00461    -0.00815     0.01756     0.00953     0.00204    -0.04578
  
  S  C   8  -0.02074    -0.06083    -0.03405    -0.02432     0.03948     0.11447
 PX  C   8  -0.00191    -0.03148     0.00791     0.00190    -0.02045    -0.00900
 PY  C   8  -0.01454    -0.04236    -0.01077    -0.00215    -0.12825    -0.00249
 PZ  C   8   0.00570    -0.15571     0.07013     0.02209    -0.09340    -0.09836
  
  S  C   9  -0.01893     0.14527    -0.10938    -0.04808     0.20447     0.21237
 PX  C   9  -0.00145    -0.00307    -0.00176    -0.00101     0.00156     0.00635
 PY  C   9  -0.00925     0.03019    -0.02966    -0.01009     0.01518     0.03760
 PZ  C   9  -0.00209    -0.01883     0.00212    -0.00049    -0.01172     0.01262
  
  S  C  10  -0.00855     0.15580    -0.07915    -0.02929     0.18971     0.10215
 PX  C  10   0.00054     0.00205     0.00294     0.00158    -0.00288     0.00229
 PY  C  10   0.00984    -0.00368     0.03445     0.01853    -0.02381    -0.08287
 PZ  C  10  -0.00946     0.04585    -0.03320    -0.01077     0.02152     0.06147
  
  S  C  11   0.02163     0.12207     0.04355     0.03461     0.06582    -0.12845
 PX  C  11   0.00214    -0.00474     0.01167     0.00545    -0.01639    -0.00489
 PY  C  11   0.02381    -0.04178     0.08632     0.03770    -0.05377    -0.12959
 PZ  C  11  -0.01814     0.02236    -0.03832    -0.00625    -0.05436     0.02220
  
  S  C  12  -0.00620     0.05028     0.00900     0.02603    -0.14321    -0.10957
 PX  C  12   0.00093    -0.00604     0.00542     0.00239    -0.00671    -0.00960
 PY  C  12   0.01396    -0.00665     0.03746     0.01581     0.02127    -0.06155
 PZ  C  12  -0.01258    -0.06306    -0.01892    -0.01331    -0.09547     0.03974
  
  S  C  13  -0.03001    -0.13970    -0.00575    -0.00153    -0.27343    -0.01031
 PX  C  13   0.00061    -0.00591     0.00438     0.00205    -0.01141    -0.00958
 PY  C  13   0.00422     0.07154    -0.00615     0.00816    -0.03815    -0.03997
 PZ  C  13   0.00332    -0.11339     0.04209     0.00923    -0.09409    -0.04725
  
  S  C  14  -0.01401    -0.15000     0.02525     0.00622    -0.26779    -0.04801
 PX  C  14   0.00045     0.01114    -0.00277    -0.00043     0.00276     0.00188
 PY  C  14  -0.00053     0.06776    -0.02308    -0.00313    -0.04479     0.00957
 PZ  C  14   0.00928     0.10927    -0.01971    -0.00390     0.09617     0.02155
  
  S  C  15   0.00594    -0.08122     0.04236     0.01202     0.05020    -0.05150
 PX  C  15  -0.00146    -0.00746    -0.00033    -0.00061    -0.00654     0.00201
 PY  C  15  -0.01007    -0.05000    -0.00473    -0.00409    -0.13405     0.00812
 PZ  C  15   0.00546     0.15035    -0.03941    -0.00725     0.09100     0.03429
  
  S  C  16   0.01257     0.12691    -0.01581    -0.00070     0.21182     0.01371
 PX  C  16  -0.00043     0.00089    -0.00133    -0.00068     0.00268     0.00323
 PY  C  16  -0.00011     0.02815    -0.01069    -0.00363     0.01438     0.01642
 PZ  C  16  -0.00216     0.02756    -0.01535    -0.00535     0.00648     0.02541
  
  S  C  17   0.00804     0.16000    -0.04008    -0.01035     0.18020     0.05743
 PX  C  17  -0.00031    -0.00228     0.00002    -0.00015    -0.00471     0.00057
 PY  C  17  -0.00110     0.00776    -0.00617    -0.00248    -0.03003     0.00976
 PZ  C  17  -0.00223    -0.03576     0.00748     0.00130    -0.02854    -0.00597
  
  S  C  18   0.00395     0.13367    -0.04061    -0.01111     0.05328     0.05275
 PX  C  18  -0.00021    -0.00482     0.00126     0.00029    -0.00286    -0.00131
 PY  C  18  -0.00226    -0.03873     0.00895     0.00242    -0.05753    -0.01411
 PZ  C  18   0.00050    -0.00837     0.00377     0.00040     0.04268     0.00271
  
  S  C  19  -0.00323     0.04269    -0.02107    -0.00380    -0.14039     0.00453
 PX  C  19   0.00031     0.00306    -0.00053    -0.00022     0.00804     0.00171
 PY  C  19   0.00020    -0.00743     0.00320     0.00102     0.01237    -0.00237
 PZ  C  19   0.00451     0.06454    -0.01517    -0.00516     0.09340     0.03014
  
  S  N  20   0.06122    -0.02132     0.15959     0.05517     0.00706    -0.14163
 PX  N  20   0.01172    -0.01295     0.03970     0.01228    -0.02564     0.02438
 PY  N  20  -0.00685    -0.02777    -0.01094    -0.00873    -0.03809     0.06212
 PZ  N  20   0.00268     0.05193     0.02369     0.02735     0.01301    -0.11533
  
  S  C  21  -0.01998    -0.06424    -0.09269    -0.04434     0.00636    -0.00706
 PX  C  21   0.01303    -0.03261     0.03908    -0.00030    -0.04962     0.18141
 PY  C  21   0.00471    -0.02180     0.01676     0.00021    -0.02948     0.06213
 PZ  C  21   0.04414     0.00203     0.11806     0.03414     0.01605    -0.02422
  
  S  C  22  -0.04680    -0.00520    -0.15872    -0.04367     0.06562    -0.25742
 PX  C  22  -0.01242    -0.01309    -0.04073    -0.01431     0.00000     0.00726
 PY  C  22  -0.00392    -0.00809    -0.01095    -0.00388    -0.00624     0.00318
 PZ  C  22   0.01893    -0.00600     0.04128     0.00511     0.00268     0.05007
  
  S  C  23  -0.03382     0.03213    -0.06839     0.00103     0.04785    -0.26808
 PX  C  23  -0.01542     0.00412    -0.02704    -0.00027    -0.00203    -0.01539
 PY  C  23  -0.00515     0.00065    -0.00698     0.00128    -0.00219    -0.00291
 PZ  C  23  -0.02555    -0.02052    -0.10194    -0.03647     0.01220    -0.04260
  
  S  C  24   0.00100     0.06663     0.10771     0.07044     0.00662    -0.08835
 PX  C  24  -0.00890    -0.00685    -0.01042     0.00061    -0.02228     0.09908
 PY  C  24  -0.00226     0.00023     0.00867     0.00730    -0.00810     0.03919
 PZ  C  24  -0.04968    -0.02686    -0.16321    -0.04779     0.00194    -0.05197
  
  S  C  25  -0.03630     0.00766    -0.03216     0.00991    -0.04769     0.16275
 PX  C  25   0.00678    -0.01711    -0.00697    -0.01641    -0.01132     0.08068
 PY  C  25   0.00294    -0.00347     0.00674    -0.00029    -0.00412     0.02629
 PZ  C  25  -0.02770    -0.03559    -0.11195    -0.04864    -0.01845     0.06383
  
  S  C  26  -0.04405    -0.07651    -0.13052    -0.06320    -0.08025     0.31876
 PX  C  26   0.01444     0.00051     0.03967     0.00364    -0.01566     0.10889
 PY  C  26   0.00478    -0.00202     0.01550     0.00276    -0.00735     0.02844
 PZ  C  26   0.01946    -0.03372     0.03005    -0.00845    -0.00723     0.04325
  
  S  C  27  -0.01451    -0.04089    -0.04820    -0.04092    -0.04676     0.28278
 PX  C  27  -0.00740     0.04486    -0.01217     0.00775     0.04022    -0.10198
 PY  C  27  -0.00359     0.01069    -0.00564     0.00027     0.00968    -0.01881
 PZ  C  27   0.01051     0.01280     0.03550     0.01843     0.01825    -0.10201
  
  S  C  28   0.02269    -0.01609     0.07644     0.02748    -0.02428    -0.04217
 PX  C  28  -0.02055     0.03525    -0.04932    -0.00872     0.02703    -0.03955
 PY  C  28  -0.01307     0.01333    -0.03256    -0.00717     0.01136    -0.01972
 PZ  C  28   0.00670     0.03667     0.03191     0.03013     0.02195    -0.17465
  
  S  C  29  -0.00042     0.05616     0.02644     0.03746     0.03610    -0.26384
 PX  C  29  -0.00911     0.00672    -0.02870    -0.01018     0.01777    -0.00023
 PY  C  29  -0.00402     0.00324    -0.01064    -0.00260     0.00901    -0.01315
 PZ  C  29   0.00358    -0.00718     0.00720     0.00254    -0.01266     0.00085
  
  S  C  30  -0.01771     0.05795    -0.03504     0.00587     0.06482    -0.17281
 PX  C  30   0.00269    -0.01064     0.00151    -0.00320    -0.00682     0.02931
 PY  C  30   0.00119    -0.00530     0.00101    -0.00113    -0.00329     0.01047
 PZ  C  30   0.00449     0.00178     0.01630     0.01133    -0.00070    -0.06024
  
  S  C  31  -0.02341     0.02581    -0.06329    -0.02537     0.02610     0.07137
 PX  C  31   0.00209     0.01056     0.00604     0.00752     0.01570    -0.06828
 PY  C  31   0.00235     0.00299     0.00707     0.00547     0.00625    -0.04151
 PZ  C  31  -0.00299     0.01770    -0.00292     0.00529     0.02115    -0.07087
  
  S  C  32   0.09739     0.06760     0.28521     0.06994     0.00420     0.02121
 PX  C  32  -0.00635     0.00779     0.02173     0.02058    -0.00581     0.03002
 PY  C  32  -0.00464     0.00901     0.03377     0.02584    -0.00547     0.03870
 PZ  C  32  -0.02373     0.02710     0.02735     0.04640     0.00505    -0.05397
  
  S  C  33   0.08651     0.01136     0.11589    -0.02114     0.00570     0.00642
 PX  C  33   0.01262     0.00756     0.03531     0.00731    -0.00020     0.00626
 PY  C  33   0.02684     0.00767     0.05005     0.00184     0.00021     0.01014
 PZ  C  33  -0.00131     0.02954     0.07408     0.04189     0.00681    -0.03742
  
  S  C  34   0.02669    -0.04823    -0.10941    -0.06177    -0.00626     0.03564
 PX  C  34   0.00899    -0.00567    -0.00745    -0.01204    -0.00103     0.00640
 PY  C  34   0.00761    -0.01613    -0.04151    -0.02435    -0.00246     0.00712
 PZ  C  34   0.04286     0.01525     0.08832    -0.01285     0.00290     0.00845
  
  S  C  35  -0.04407    -0.07849    -0.28077    -0.06461    -0.00786    -0.01538
 PX  C  35   0.00391    -0.00239    -0.00866    -0.01430     0.00065    -0.00953
 PY  C  35  -0.00535    -0.00407    -0.03058    -0.02214     0.00220    -0.03235
 PZ  C  35   0.05745    -0.00367     0.04071    -0.05073    -0.00151     0.02735
  
  S  C  36  -0.02174    -0.05583    -0.20985    -0.09658     0.00068    -0.06107
 PX  C  36  -0.00517     0.00891     0.02095     0.00797     0.00232    -0.01002
 PY  C  36  -0.02561     0.00923    -0.00774     0.00546     0.00613    -0.04727
 PZ  C  36   0.04380     0.02733     0.14843     0.02952    -0.00197     0.06662
  
  S  C  37   0.05851     0.04247     0.21548     0.05901    -0.00512     0.09556
 PX  C  37  -0.01207     0.01081     0.02771     0.02765    -0.00119     0.01545
 PY  C  37  -0.03060     0.00934     0.00923     0.03252     0.00100     0.00668
 PZ  C  37   0.01880     0.03888     0.14366     0.07096    -0.00274     0.04186
  
  S  N  38   0.01475     0.05521     0.22397     0.10983    -0.00432     0.10493
 PX  N  38  -0.00561    -0.00918    -0.03914    -0.01588     0.00023    -0.01386
 PY  N  38  -0.01355    -0.01939    -0.08181    -0.03367     0.00298    -0.03690
 PZ  N  38   0.00584    -0.00223    -0.00820    -0.00414    -0.00218    -0.00037
  
  S  S  39  -0.01811     0.00426    -0.00238     0.00540     0.00405    -0.01753
 PX  S  39   0.00659     0.00170     0.01385     0.00547    -0.00156     0.01290
 PY  S  39   0.01081    -0.00193     0.00324    -0.00120    -0.00223     0.01016
 PZ  S  39   0.00931     0.01540     0.07340     0.03596    -0.00240     0.04573
  
  S  N  40  -0.05925    -0.04346    -0.22933    -0.08491     0.00916    -0.13460
 PX  N  40   0.00606     0.00786     0.03405     0.01019     0.00011     0.01105
 PY  N  40   0.01591     0.01785     0.07991     0.02721    -0.00056     0.03000
 PZ  N  40  -0.00988    -0.00427    -0.02671    -0.01501     0.00272    -0.02217
  
  S  C  41  -0.13303    -0.01949    -0.13523     0.09503    -0.00127    -0.01640
 PX  C  41  -0.00123    -0.00684    -0.02710    -0.00988    -0.00033    -0.00669
 PY  C  41   0.01542    -0.00556    -0.02074    -0.03813     0.00075    -0.02051
 PZ  C  41   0.01728    -0.04101    -0.14381    -0.06844    -0.00395    -0.01970
  
  S  C  42  -0.12103     0.02253     0.03666     0.14807     0.00175     0.02273
 PX  C  42   0.00461    -0.00462    -0.01607    -0.00799    -0.00039    -0.00293
 PY  C  42  -0.03963     0.00801     0.01102     0.04096     0.00085     0.00103
 PZ  C  42  -0.00114    -0.02323    -0.08987    -0.01391    -0.00253    -0.00890
  
  S  C  43  -0.05416     0.04711     0.16298     0.04820     0.00342     0.02483
 PX  C  43  -0.01070     0.00004    -0.00455     0.01795     0.00022     0.00103
 PY  C  43   0.00493     0.01188     0.04626    -0.02071     0.00054     0.00093
 PZ  C  43  -0.05436     0.00929     0.00995     0.09073     0.00153     0.00885
  
  S  C  44   0.07779     0.03353     0.15361    -0.12577     0.00030     0.00403
 PX  C  44  -0.02940     0.00524     0.00981     0.03375     0.00085     0.00337
 PY  C  44   0.07291    -0.01787    -0.04818    -0.06697    -0.00208    -0.01227
 PZ  C  44  -0.08128     0.01205     0.00909     0.13710     0.00284     0.01020
  
  S  S  45  -0.00588     0.00595    -0.00072     0.02655     0.00162    -0.01411
 PX  S  45  -0.02548    -0.00063    -0.01143     0.00408     0.00026    -0.00581
 PY  S  45   0.05729    -0.01450    -0.03293    -0.03422    -0.00110    -0.00172
 PZ  S  45  -0.06303    -0.01325    -0.07360     0.03107     0.00000    -0.01462
  
  S  C  46   0.20982    -0.00732     0.05530    -0.34763    -0.00605    -0.02481
 PX  C  46  -0.02191     0.00594     0.01652     0.02041     0.00076     0.00382
 PY  C  46   0.07280    -0.01605    -0.04274    -0.06036    -0.00209    -0.01086
 PZ  C  46   0.04616     0.00826     0.03882    -0.01950     0.00043     0.00304
  
  S  C  47   0.30877    -0.03525    -0.05187    -0.27020    -0.00647    -0.02979
 PX  C  47  -0.00884     0.00148     0.01095    -0.03710    -0.00058    -0.00237
 PY  C  47   0.04642    -0.00523    -0.03184     0.10261     0.00163     0.00662
 PZ  C  47   0.11107    -0.00625    -0.00735    -0.00753    -0.00004     0.00015
  
  S  C  48  -0.06240    -0.00585    -0.02268    -0.01023    -0.00072    -0.00396
 PX  C  48  -0.03302    -0.00486    -0.01628     0.00693    -0.00008    -0.00064
 PY  C  48   0.14464     0.01106     0.04523    -0.05961    -0.00067    -0.00225
 PZ  C  48   0.23824    -0.01351    -0.00670    -0.18483    -0.00415    -0.01885
  
  S  O  49  -0.39371    -0.00176    -0.05480     0.24512     0.00448     0.01905
 PX  O  49   0.01864    -0.00129    -0.00088    -0.01555    -0.00035    -0.00157
 PY  O  49  -0.07274     0.00308    -0.00116     0.05121     0.00108     0.00477
 PZ  O  49  -0.09079    -0.00284    -0.01726     0.03230     0.00041     0.00144
  
  S  O  50   0.11753     0.02310     0.08030    -0.08130    -0.00070    -0.00191
 PX  O  50   0.00770    -0.00001     0.00011    -0.00423    -0.00012    -0.00059
 PY  O  50  -0.01136    -0.00177    -0.00472     0.00660     0.00015     0.00072
 PZ  O  50   0.05124    -0.00866    -0.02121    -0.02484    -0.00089    -0.00445
  
  S  C  51   0.47770    -0.06337    -0.19197     0.23910     0.00294     0.01143
 PX  C  51  -0.01091     0.00380     0.02113    -0.07705    -0.00140    -0.00613
 PY  C  51   0.03938    -0.01283    -0.06954     0.25523     0.00468     0.02051
 PZ  C  51   0.03961    -0.01212    -0.05977     0.22545     0.00430     0.01906
  
  S  N  52   0.40074    -0.06302    -0.22679     0.49417     0.00811     0.03462
 PX  N  52   0.04032    -0.00591    -0.01989     0.03815     0.00061     0.00257
 PY  N  52  -0.13426     0.01980     0.06722    -0.12975    -0.00205    -0.00870
 PZ  N  52  -0.12544     0.01863     0.06496    -0.12726    -0.00198    -0.00836
  
  S  H  53   0.04708    -0.00047     0.02695    -0.12976    -0.00215    -0.00833
  
  S  H  54  -0.00940    -0.12107     0.02654     0.00171     0.12050     0.00296
  
  S  H  55  -0.00854    -0.11355     0.02546     0.00172     0.12290     0.00300
  
  S  H  56  -0.00940    -0.12111     0.02657     0.00172     0.12052     0.00291
  
  S  H  57  -0.01064    -0.12015     0.02385     0.00122     0.07597     0.00163
  
  S  H  58  -0.01065    -0.12008     0.02377     0.00117     0.07587     0.00184
  
  S  H  59  -0.00685    -0.04982     0.00564    -0.00034    -0.02757    -0.00024
  
  S  H  60  -0.00678    -0.04976     0.00587    -0.00018    -0.02795    -0.00106
  
  S  H  61   0.00167     0.06345    -0.01803    -0.00121    -0.10856    -0.00413
  
  S  H  62   0.00150     0.06404    -0.01889    -0.00171    -0.10837    -0.00169
  
  S  H  63   0.00806     0.12324    -0.02792    -0.00249    -0.06921     0.00455
  
  S  H  64   0.00908     0.12094    -0.02369    -0.00013    -0.07106    -0.00651
  
  S  H  65   0.01304     0.11780    -0.01357     0.00264     0.04001    -0.01035
  
  S  H  66   0.01117     0.11974    -0.02060    -0.00151     0.03890     0.00931
  
  S  H  67  -0.00380     0.06462    -0.03983    -0.01825     0.09409     0.08200
  
  S  H  68  -0.00179     0.05089    -0.03029    -0.01265     0.08447     0.02284
  
  S  H  69   0.00200     0.01133     0.02124     0.01951    -0.07742    -0.08378
  
  S  H  70   0.00636     0.05660    -0.00522     0.00081     0.09747     0.00163
  
  S  H  71   0.00287     0.05807    -0.01480    -0.00403     0.07583     0.02349
  
  S  H  72   0.00127     0.04719    -0.01490    -0.00433     0.02044     0.02129
  
  S  H  73  -0.00211     0.00838    -0.00623    -0.00022    -0.07693    -0.00505
  
  S  H  74  -0.01129     0.00278    -0.04643    -0.01327     0.03470    -0.11235
  
  S  H  75  -0.00250     0.01766     0.00186     0.00722     0.02217    -0.11382
  
  S  H  76  -0.00508     0.00939     0.02336     0.01608    -0.02208     0.09692
  
  S  H  77  -0.00573    -0.01141    -0.01953    -0.01553    -0.01413     0.10629
  
  S  H  78   0.00639    -0.00940     0.02352     0.00793    -0.01180    -0.01005
  
  S  H  79   0.00084     0.02396     0.01500     0.01920     0.01120    -0.13032
  
  S  H  80   0.00145     0.02583     0.01606     0.01881     0.01036    -0.11963
  
  S  H  81  -0.00691     0.02366    -0.01390     0.00319     0.02809    -0.08029
  
  S  H  82  -0.00707     0.02399    -0.01484     0.00249     0.02825    -0.07570
  
  S  H  83  -0.00974     0.01008    -0.02789    -0.01175     0.01043     0.03816
  
  S  H  84  -0.00969     0.00764    -0.02686    -0.01179     0.00751     0.04212
  
  S  H  85   0.02795     0.00991     0.04964    -0.00017     0.00538    -0.01711
  
  S  H  86  -0.00223    -0.01756    -0.04935    -0.01125    -0.00225     0.01148
  
  S  H  87  -0.04014     0.00198    -0.00680     0.04895    -0.00015     0.00917
  
  S  H  88  -0.00840     0.01514     0.05869    -0.00335     0.00088     0.00837
  
  S  H  89   0.00843     0.01251     0.03795    -0.00934     0.00034     0.00220




    ROOT NO.   19          20          21          22          23          24

           -33.47890   -33.26747   -32.81727   -32.29522   -31.53863   -31.21629
  
  
  S  C   1  -0.09942    -0.00143     0.20446     0.12803     0.06452    -0.06570
 PX  C   1  -0.00747    -0.00009     0.00794     0.00103    -0.00266     0.00422
 PY  C   1   0.00459     0.00006    -0.01209    -0.00902    -0.00553     0.00601
 PZ  C   1  -0.00008     0.00003    -0.00016     0.00021     0.00015    -0.00004
  
  S  C   2  -0.03770    -0.00047     0.05632     0.02505     0.00479    -0.00130
 PX  C   2   0.04644     0.00070    -0.10067    -0.06498    -0.03402     0.03514
 PY  C   2   0.02037     0.00030    -0.04897    -0.03408    -0.01929     0.02036
 PZ  C   2  -0.00029     0.00010    -0.00053     0.00069     0.00046    -0.00012
  
  S  C   3   0.06567     0.00092    -0.15197    -0.10273    -0.05546     0.05721
 PX  C   3   0.04184     0.00059    -0.07785    -0.04335    -0.01717     0.01516
 PY  C   3   0.01440     0.00011    -0.01929    -0.00754     0.00029    -0.00252
 PZ  C   3  -0.00095     0.00034    -0.00177     0.00216     0.00141    -0.00032
  
  S  C   4   0.08204     0.00133    -0.14711    -0.07703    -0.02730     0.02326
 PX  C   4  -0.03166    -0.00033     0.08077     0.05949     0.03443    -0.03591
 PY  C   4  -0.00153    -0.00013     0.02048     0.01993     0.01571    -0.01842
 PZ  C   4  -0.00221     0.00106    -0.00696     0.00561     0.00374    -0.00059
  
  S  C   5  -0.00968    -0.00007     0.06711     0.05706     0.04229    -0.04422
 PX  C   5  -0.05314    -0.00016     0.10799     0.06527     0.02954    -0.02317
 PY  C   5  -0.02730    -0.00064     0.04977     0.01970     0.00478    -0.00215
 PZ  C   5  -0.00801     0.00362    -0.02198     0.01892     0.01250    -0.00182
  
  S  C   6  -0.11539     0.00073     0.23217     0.14426     0.06584    -0.04577
 PX  C   6  -0.01415     0.00086    -0.00429    -0.00850    -0.01322     0.02104
 PY  C   6  -0.02526     0.00054     0.03304    -0.00129    -0.00674     0.02086
 PZ  C   6  -0.02074     0.00907    -0.05427     0.04802     0.03167    -0.00470
  
  S  N   7  -0.03759     0.00550     0.04462    -0.02013    -0.00253     0.06006
 PX  N   7   0.02128     0.00141    -0.05857    -0.02044    -0.00701     0.00728
 PY  N   7   0.08689     0.00161    -0.14768    -0.10335    -0.03021     0.03422
 PZ  N   7  -0.04126     0.02199    -0.12372     0.09953     0.08321     0.00453
  
  S  C   8   0.08747    -0.03550     0.02592    -0.15789    -0.15823    -0.03082
 PX  C   8   0.00236     0.00197    -0.02048     0.00009    -0.00057     0.00148
 PY  C   8  -0.00964     0.00640    -0.08919     0.07994     0.02241    -0.05670
 PZ  C   8  -0.00852     0.01920    -0.03506     0.01606     0.04725     0.03858
  
  S  C   9   0.13834    -0.04610     0.04919    -0.22008    -0.12884     0.01169
 PX  C   9  -0.00093    -0.00199    -0.00445    -0.00228    -0.00943    -0.00466
 PY  C   9   0.01222    -0.00018    -0.05243     0.01374     0.01850    -0.00643
 PZ  C   9  -0.01947    -0.01188     0.03869    -0.00498    -0.07455    -0.04561
  
  S  C  10   0.12657     0.00363    -0.05930    -0.11482     0.11453     0.12089
 PX  C  10  -0.01555    -0.00303    -0.00380     0.00609    -0.00622    -0.00533
 PY  C  10  -0.04793     0.02479    -0.03164     0.08099     0.10634     0.03511
 PZ  C  10  -0.02323    -0.01685    -0.00663     0.00663    -0.05679    -0.04672
  
  S  C  11  -0.11609     0.03586    -0.06442     0.09900     0.17864     0.10376
 PX  C  11  -0.03866    -0.00884     0.00712     0.00645    -0.05200    -0.02510
 PY  C  11  -0.09342     0.00919     0.02686     0.02964    -0.00745     0.01102
 PZ  C  11  -0.10668    -0.00593     0.00870     0.13444    -0.08824    -0.10711
  
  S  C  12  -0.23592     0.02311     0.02757     0.30027     0.01607    -0.10892
 PX  C  12  -0.00587    -0.00059     0.00821    -0.00579    -0.02649    -0.00237
 PY  C  12  -0.01923     0.00780     0.02328    -0.02611    -0.00241     0.04785
 PZ  C  12   0.04341    -0.00844     0.05173     0.01241    -0.02500    -0.06181
  
  S  C  13  -0.03291    -0.00075     0.01006     0.12485    -0.01659    -0.12022
 PX  C  13  -0.00441     0.00148     0.00682     0.00466     0.00187     0.00211
 PY  C  13  -0.09619     0.01105     0.07537     0.14573     0.04754    -0.04160
[...]
    Config     607  -0.04582761  0.00210017
    Config     620  -0.04435554  0.00196741
    Config     622   0.06269592  0.00393078
    Config     637   0.08183178  0.00669644
    Config     662  -0.05942849  0.00353175
    Config     666   0.10151967  0.01030624
    Config     688   0.08622857  0.00743537
    Config     698  -0.06514538  0.00424392
    Config     701  -0.04099987  0.00168099
    Config     707  -0.06936809  0.00481193
    Config     710  -0.06271376  0.00393302
    Config     723   0.07840709  0.00614767
    Config     731  -0.11928647  0.01422926
    Config     737  -0.04358233  0.00189942
    Config     778  -0.08257383  0.00681844
    Config     819   0.04435014  0.00196693
    Config     824   0.04970702  0.00247079
    Config     843   0.05680991  0.00322737
    Config     852  -0.04820343  0.00232357
    Config     866  -0.10096565  0.01019406
    Config     869  -0.04951938  0.00245217
    Config     876  -0.05436165  0.00295519
    Config     909  -0.05574322  0.00310731
    Config     927   0.08944614  0.00800061
    Config     961   0.05195876  0.00269971
    Config     967  -0.05350114  0.00286237
    Config    1072   0.04085107  0.00166881
    Config    1110  -0.04249734  0.00180602
    Config    1138   0.04515760  0.00203921
    Config    1261  -0.05373324  0.00288726
 Total coeff printed             0.75682065
  
State  498  9.9982     CI coeff  CI percent
    Config     156  -0.04992028  0.00249203
    Config     164   0.04500927  0.00202583
    Config     167   0.04501790  0.00202661
    Config     168   0.09317840  0.00868221
    Config     176   0.07681907  0.00590117
    Config     196   0.04635332  0.00214863
    Config     199   0.07158314  0.00512415
    Config     205   0.06875971  0.00472790
    Config     211  -0.04005806  0.00160465
    Config     215   0.04108850  0.00168826
    Config     234   0.06164349  0.00379992
    Config     242   0.07903928  0.00624721
    Config     247   0.08674563  0.00752480
    Config     259  -0.04805714  0.00230949
    Config     263   0.04181484  0.00174848
    Config     276  -0.08200151  0.00672425
    Config     284   0.05554376  0.00308511
    Config     288  -0.04386502  0.00192414
    Config     295   0.07083597  0.00501773
    Config     299  -0.04451651  0.00198172
    Config     314  -0.06400119  0.00409615
    Config     316  -0.13367036  0.01786777
    Config     322   0.08778978  0.00770705
    Config     324   0.06490132  0.00421218
    Config     327  -0.06275762  0.00393852
    Config     347   0.05350555  0.00286284
    Config     352  -0.11336213  0.01285097
    Config     354   0.05057917  0.00255825
    Config     361   0.05812943  0.00337903
    Config     364  -0.05083665  0.00258437
    Config     366  -0.07019675  0.00492758
    Config     371  -0.04073152  0.00165906
    Config     375   0.04201948  0.00176564
    Config     377  -0.07623737  0.00581214
    Config     378   0.05631372  0.00317123
    Config     381  -0.06229498  0.00388066
    Config     382  -0.07516616  0.00564995
    Config     386   0.06917583  0.00478530
    Config     396   0.05322238  0.00283262
    Config     406   0.06048755  0.00365874
    Config     410   0.04241194  0.00179877
    Config     411  -0.05720385  0.00327228
    Config     412  -0.05362571  0.00287572
    Config     413  -0.14327489  0.02052769
    Config     414  -0.05303937  0.00281317
    Config     417  -0.09084127  0.00825214
    Config     431  -0.06994510  0.00489232
    Config     441   0.06482753  0.00420261
    Config     445   0.06085906  0.00370383
    Config     456   0.07340853  0.00538881
    Config     469  -0.10916720  0.01191748
    Config     472  -0.04085985  0.00166953
    Config     475  -0.07010849  0.00491520
    Config     490  -0.09776599  0.00955819
    Config     493   0.10584169  0.01120246
    Config     501  -0.05792004  0.00335473
    Config     511  -0.29641808  0.08786368
    Config     512   0.05183793  0.00268717
    Config     513  -0.05778215  0.00333878
    Config     514  -0.04998006  0.00249801
    Config     516   0.04527855  0.00205015
    Config     521   0.05074719  0.00257528
    Config     522  -0.04042846  0.00163446
    Config     529  -0.07817208  0.00611087
    Config     531  -0.05705841  0.00325566
    Config     536  -0.05357999  0.00287082
    Config     542  -0.04714146  0.00222232
    Config     549  -0.05323415  0.00283388
    Config     553   0.04853615  0.00235576
    Config     555   0.05481770  0.00300498
    Config     556   0.05901848  0.00348318
    Config     562  -0.05031315  0.00253141
    Config     568   0.08456469  0.00715119
    Config     569   0.04293408  0.00184334
    Config     572  -0.04879863  0.00238131
    Config     580  -0.04460972  0.00199003
    Config     591  -0.08655657  0.00749204
    Config     596  -0.07720227  0.00596019
    Config     600  -0.05028103  0.00252818
    Config     607   0.04444443  0.00197531
    Config     613  -0.06308710  0.00397998
    Config     615   0.04482156  0.00200897
    Config     616   0.07520562  0.00565589
    Config     628  -0.06425172  0.00412828
    Config     631  -0.05229248  0.00273450
    Config     632   0.07123146  0.00507392
    Config     637  -0.13592231  0.01847487
    Config     641   0.04802282  0.00230619
    Config     650   0.07973510  0.00635769
    Config     653   0.05654127  0.00319692
    Config     654   0.05697302  0.00324592
    Config     659  -0.04340830  0.00188428
    Config     661   0.10372710  0.01075931
    Config     666   0.04115659  0.00169386
    Config     667   0.17699386  0.03132683
    Config     673   0.06398331  0.00409386
    Config     679  -0.12876730  0.01658102
    Config     688   0.05440775  0.00296020
    Config     698   0.09797556  0.00959921
    Config     700   0.06181238  0.00382077
    Config     701  -0.05041819  0.00254199
    Config     710   0.06075443  0.00369110
    Config     714  -0.05304185  0.00281344
    Config     716  -0.07234910  0.00523439
    Config     723   0.04716757  0.00222478
    Config     731  -0.07282685  0.00530375
    Config     735  -0.05269131  0.00277637
    Config     740  -0.06345852  0.00402698
    Config     754  -0.04666318  0.00217745
    Config     769  -0.06122797  0.00374886
    Config     788   0.04516052  0.00203947
    Config     792   0.08421493  0.00709216
    Config     797   0.04348611  0.00189104
    Config     802  -0.05331859  0.00284287
    Config     814   0.04388758  0.00192612
    Config     836   0.07214886  0.00520546
    Config     839   0.04175182  0.00174321
    Config     842   0.09035806  0.00816458
    Config     843   0.05389022  0.00290416
    Config     848  -0.06225074  0.00387516
    Config     851  -0.05127838  0.00262947
    Config     860   0.04232662  0.00179154
    Config     872   0.04115020  0.00169334
    Config     885  -0.04018030  0.00161446
    Config     890   0.06777791  0.00459385
    Config     898  -0.08214474  0.00674776
    Config     908   0.05616895  0.00315495
    Config     916   0.04701519  0.00221043
    Config     917  -0.04009888  0.00160792
    Config     930  -0.04459021  0.00198829
    Config     933   0.05191017  0.00269467
    Config     946   0.06035601  0.00364285
    Config     954  -0.06623978  0.00438771
    Config     976   0.04073549  0.00165938
    Config     981   0.05305953  0.00281531
    Config    1001  -0.04814734  0.00231817
    Config    1002  -0.04932364  0.00243282
    Config    1018   0.04015516  0.00161244
    Config    1062  -0.05836376  0.00340633
    Config    1114  -0.04587380  0.00210441
    Config    1138   0.04971199  0.00247128
 Total coeff printed             0.70965045
  
State  499  9.9998     CI coeff  CI percent
    Config     156  -0.04497492  0.00202274
    Config     164  -0.04646899  0.00215937
    Config     186  -0.04397896  0.00193415
    Config     196  -0.05723782  0.00327617
    Config     203  -0.04372210  0.00191162
    Config     207   0.04660073  0.00217163
    Config     208  -0.05117125  0.00261850
    Config     212  -0.04476294  0.00200372
    Config     216  -0.05053759  0.00255405
    Config     221   0.05031396  0.00253149
    Config     228  -0.06214664  0.00386221
    Config     233   0.05117482  0.00261886
    Config     234   0.04166142  0.00173567
    Config     237  -0.04757663  0.00226354
    Config     239  -0.07890286  0.00622566
    Config     243  -0.16051112  0.02576382
    Config     244   0.09596165  0.00920864
    Config     247  -0.09677946  0.00936626
    Config     256  -0.05201841  0.00270592
    Config     260  -0.07799590  0.00608336
    Config     264  -0.06578400  0.00432753
    Config     271   0.10522552  0.01107241
    Config     288  -0.04332705  0.00187723
    Config     291  -0.04215163  0.00177676
    Config     295  -0.04915731  0.00241644
    Config     297   0.06008382  0.00361007
    Config     299   0.04226757  0.00178655
    Config     301   0.05892672  0.00347236
    Config     304   0.04515423  0.00203890
    Config     313   0.13667072  0.01867889
    Config     322   0.04103007  0.00168347
    Config     323   0.05009161  0.00250917
    Config     324   0.04502601  0.00202734
    Config     327  -0.04963760  0.00246389
    Config     328  -0.11221644  0.01259253
    Config     329   0.04071594  0.00165779
    Config     330  -0.13195293  0.01741158
    Config     331   0.04751386  0.00225757
    Config     337   0.06306982  0.00397780
    Config     339   0.04676272  0.00218675
    Config     355   0.06931125  0.00480405
    Config     359  -0.05267819  0.00277499
    Config     366  -0.05339996  0.00285156
    Config     367  -0.04560321  0.00207965
    Config     377   0.04528929  0.00205112
    Config     379  -0.04149352  0.00172171
    Config     385  -0.04281116  0.00183280
    Config     386   0.06406629  0.00410449
    Config     395  -0.04731374  0.00223859
    Config     398   0.05533412  0.00306186
    Config     400   0.05508644  0.00303452
    Config     401  -0.04744657  0.00225118
    Config     406  -0.06797874  0.00462111
    Config     410  -0.05931979  0.00351884
    Config     411   0.06970385  0.00485863
    Config     413   0.14860112  0.02208229
    Config     414   0.04382667  0.00192078
    Config     417  -0.04586265  0.00210338
    Config     418   0.05136530  0.00263839
    Config     419  -0.04815523  0.00231893
    Config     420  -0.10758147  0.01157377
    Config     422  -0.05876509  0.00345334
    Config     426   0.06960872  0.00484537
    Config     431   0.04783847  0.00228852
    Config     432  -0.04081647  0.00166598
    Config     433  -0.07593923  0.00576677
    Config     443  -0.05012920  0.00251294
    Config     444  -0.11052949  0.01221677
    Config     449   0.04052542  0.00164231
    Config     450  -0.06875090  0.00472669
    Config     454   0.08954548  0.00801839
    Config     457   0.05185226  0.00268866
    Config     460   0.04862800  0.00236468
    Config     462   0.06154962  0.00378836
    Config     468   0.05540117  0.00306929
    Config     469   0.09166930  0.00840326
    Config     472  -0.05598637  0.00313447
    Config     473  -0.06863503  0.00471077
    Config     474   0.27633955  0.07636355
    Config     486   0.04556125  0.00207583
    Config     489   0.04348330  0.00189080
    Config     490  -0.16310752  0.02660406
    Config     493  -0.05673911  0.00321933
    Config     494   0.10826068  0.01172037
    Config     495   0.10827807  0.01172414
    Config     506   0.05096659  0.00259759
    Config     509  -0.05715246  0.00326640
    Config     511  -0.20083743  0.04033567
    Config     514   0.04375680  0.00191466
    Config     515  -0.04778246  0.00228316
    Config     518   0.04559208  0.00207864
    Config     527  -0.04251522  0.00180754
    Config     532   0.04839010  0.00234160
    Config     539   0.04427498  0.00196027
    Config     541  -0.06740597  0.00454356
    Config     543  -0.07960376  0.00633676
    Config     551   0.06529265  0.00426313
    Config     559  -0.06807153  0.00463373
    Config     560  -0.04034302  0.00162756
    Config     562   0.04786005  0.00229058
    Config     566   0.05050422  0.00255068
    Config     567   0.05784653  0.00334622
    Config     568  -0.05167635  0.00267045
    Config     569  -0.04731525  0.00223873
    Config     579   0.04376801  0.00191564
    Config     581   0.04047234  0.00163801
    Config     586   0.05364966  0.00287829
    Config     589  -0.04970901  0.00247099
    Config     591  -0.09538702  0.00909868
    Config     602  -0.05005422  0.00250543
    Config     604  -0.04422969  0.00195627
    Config     606  -0.04910672  0.00241147
    Config     621   0.04552146  0.00207220
    Config     622  -0.05256225  0.00276279
    Config     625  -0.08339851  0.00695531
    Config     626   0.05606925  0.00314376
    Config     637  -0.05104721  0.00260582
    Config     639  -0.04032828  0.00162637
    Config     667  -0.05907331  0.00348966
    Config     678   0.04165358  0.00173502
    Config     679   0.04488096  0.00201430
    Config     684   0.04353090  0.00189494
    Config     685   0.04888438  0.00238968
    Config     687   0.04270571  0.00182378
    Config     692   0.05596952  0.00313259
    Config     698   0.04192515  0.00175772
    Config     706   0.05189942  0.00269355
    Config     707  -0.04588564  0.00210549
    Config     724   0.07226516  0.00522225
    Config     730  -0.05868235  0.00344362
    Config     731  -0.04641703  0.00215454
    Config     733  -0.04078286  0.00166324
    Config     739   0.06598019  0.00435339
    Config     749   0.04118486  0.00169619
    Config     791  -0.04670784  0.00218162
    Config     794   0.04405503  0.00194085
    Config     795  -0.05433692  0.00295250
    Config     826   0.04012275  0.00160984
    Config     827  -0.04460290  0.00198942
    Config     843   0.05476797  0.00299953
    Config     904   0.04498478  0.00202363
    Config     919   0.04876293  0.00237782
    Config     973  -0.06374819  0.00406383
    Config     984  -0.04005041  0.00160403
    Config    1006   0.04148325  0.00172086
    Config    1012  -0.04371759  0.00191123
    Config    1022  -0.05091039  0.00259187
    Config    1025  -0.04033549  0.00162695
    Config    1080   0.05239117  0.00274483
 Total coeff printed             0.70321641
  
State  500 10.0019     CI coeff  CI percent
    Config     133  -0.07281097  0.00530144
    Config     201   0.04650224  0.00216246
    Config     205   0.04611032  0.00212616
    Config     206   0.06169147  0.00380584
    Config     210   0.11067760  0.01224953
    Config     213   0.04019197  0.00161539
    Config     225  -0.04143721  0.00171704
    Config     231  -0.09197494  0.00845939
    Config     239   0.23356727  0.05455367
    Config     247   0.06148485  0.00378039
    Config     248   0.04139547  0.00171358
    Config     249   0.04022973  0.00161843
    Config     257   0.04171649  0.00174027
    Config     260   0.08958717  0.00802586
    Config     263   0.05391510  0.00290684
    Config     269  -0.04668422  0.00217942
    Config     271  -0.07725316  0.00596805
    Config     275   0.04613017  0.00212799
    Config     276  -0.04556216  0.00207591
    Config     286   0.06245091  0.00390012
    Config     287   0.08273725  0.00684545
    Config     294  -0.04068296  0.00165510
    Config     297   0.04014829  0.00161188
    Config     305  -0.07504987  0.00563248
    Config     313  -0.06848290  0.00468991
    Config     314   0.05508404  0.00303425
    Config     315  -0.05086361  0.00258711
    Config     321  -0.05643142  0.00318451
    Config     325   0.04041568  0.00163343
    Config     329   0.06042198  0.00365082
    Config     331  -0.10688048  0.01142344
    Config     337  -0.08083350  0.00653406
    Config     349  -0.10231932  0.01046924
    Config     359  -0.04639098  0.00215212
    Config     360   0.07271720  0.00528779
    Config     361  -0.05476965  0.00299972
    Config     367   0.11001006  0.01210221
    Config     396  -0.05758263  0.00331576
    Config     397  -0.06993941  0.00489152
    Config     405   0.08591960  0.00738218
    Config     408  -0.04198782  0.00176298
    Config     409  -0.07101023  0.00504245
    Config     410   0.04864759  0.00236659
    Config     411  -0.06354259  0.00403766
    Config     418  -0.04265693  0.00181961
    Config     429  -0.04619879  0.00213433
    Config     433  -0.06875025  0.00472660
    Config     443  -0.10497726  0.01102023
    Config     450   0.04294979  0.00184468
    Config     457   0.07508160  0.00563725
    Config     460   0.09851395  0.00970500
    Config     462   0.10039786  0.01007973
    Config     463   0.04306305  0.00185443
    Config     465  -0.05116759  0.00261812
    Config     468   0.07930827  0.00628980
    Config     474  -0.20937864  0.04383941
    Config     486  -0.08509847  0.00724175
    Config     492  -0.04680350  0.00219057
    Config     493  -0.04929608  0.00243010
    Config     494   0.06891802  0.00474969
    Config     500  -0.05976514  0.00357187
    Config     505   0.14115861  0.01992575
    Config     506   0.06664001  0.00444089
    Config     508  -0.05945027  0.00353433
    Config     510  -0.06732703  0.00453293
    Config     511   0.04744970  0.00225147
    Config     518   0.09491325  0.00900852
    Config     522   0.07425634  0.00551400
    Config     526  -0.04520705  0.00204368
    Config     527  -0.04581056  0.00209861
    Config     528   0.04281519  0.00183314
    Config     531  -0.04529623  0.00205175
    Config     533   0.04155295  0.00172665
    Config     538   0.06410309  0.00410921
    Config     543   0.10039372  0.01007890
    Config     544   0.42480094  0.18045584
    Config     546  -0.04263107  0.00181741
    Config     550  -0.04424429  0.00195756
    Config     564   0.07829580  0.00613023
    Config     575  -0.05711550  0.00326218
    Config     579   0.07330519  0.00537365
    Config     583  -0.04629925  0.00214362
    Config     592   0.04340739  0.00188420
    Config     599   0.04898717  0.00239974
    Config     604  -0.04614103  0.00212899
    Config     617   0.05785729  0.00334747
    Config     621   0.04665915  0.00217708
    Config     639  -0.04269584  0.00182293
    Config     645  -0.06949898  0.00483011
    Config     668  -0.05215787  0.00272044
    Config     670   0.04987030  0.00248705
    Config     671  -0.04860265  0.00236222
    Config     687  -0.04867317  0.00236908
    Config     692   0.04302058  0.00185077
    Config     702  -0.04221415  0.00178203
    Config     706   0.13051187  0.01703335
    Config     708  -0.08116150  0.00658719
    Config     720   0.04104419  0.00168463
    Config     725   0.04629212  0.00214296
    Config     756  -0.04204150  0.00176749
    Config     761  -0.04236446  0.00179475
    Config     801   0.04556880  0.00207652
    Config     832   0.05441195  0.00296066
    Config     837  -0.04143259  0.00171666
    Config     882  -0.05541201  0.00307049
    Config     886  -0.06003802  0.00360456
    Config     911   0.04971339  0.00247142
    Config     946  -0.05755927  0.00331307
    Config     959  -0.04279645  0.00183154
    Config     978  -0.05725859  0.00327855
    Config    1042   0.04020687  0.00161659
    Config    1150  -0.05020016  0.00252006
 Total coeff printed             0.72999651
  

 **********************
 *                    *
 * JOB ENDED NORMALLY *
 *                    *
 **********************



 TOTAL JOB TIME:           327.08 SECONDS

 == MOPAC DONE ==
