 *******************************************************************************
 ** Site#: 37966        For non-commercial use only           Version 21.186W **
 *******************************************************************************
 ** Cite this program as: MOPAC2016, Version: 21.186W, James J. P. Stewart,   **
 ** Stewart Computational Chemistry, web: HTTP://OpenMOPAC.net. Days left: 257**
 *******************************************************************************
 **                                                                           **
 **                                MOPAC2016                                  **
 **                                                                           **
 *******************************************************************************

                              INDO CALCULATION RESULTS

 *******************************************************************************
 *  CALCULATION DONE:                                Thu Oct 21 17:26:14 2021  *
 *  INDO       - The INDO Hamiltonian to be used
 *  CIS        - C.I. USES 1 ELECTRON EXCITATIONS ONLY
 *  EPS=8.93   - USE ANDREAS KLAMT'S COSMO IMPLICIT SOLVATION MODEL
 *  N**2=1.42  - USED IN COSMO-CI
 *  T=         - A TIME OF 172800.0 SECONDS REQUESTED
 *  DUMP=N     - RESTART FILE WRITTEN EVERY 7200.0 SECONDS REQUESTED
 *******************************************************************************
INDO CIS EPS=8.93 N**2=1.42
 Dye54
 Calculo de Estados Excitados
   ATOM   CHEMICAL          X               Y               Z
  NUMBER   SYMBOL      (ANGSTROMS)     (ANGSTROMS)     (ANGSTROMS)
 
     1       C          0.00000000  *   0.00000000  *   0.00000000  *
     2       C          1.52000420  *   0.00000000  *   0.00000000  *
     3       C          2.06135202  *   1.42746068  *   0.00000000  *
     4       C          3.58822556  *   1.42853199  *  -0.00034937  *
     5       C          4.12818571  *   2.85694192  *   0.00019111  *
     6       C          5.65528530  *   2.85791013  *   0.00009337  *
     7       C          6.19515780  *   4.28641619  *   0.00096319  *
     8       C          7.72229214  *   4.28707350  *   0.00188529  *
     9       C          8.26270954  *   5.71598007  *  -0.00041668  *
    10       C          9.78953234  *   5.71338680  *   0.00499623  *
    11       C         10.36286900  *   7.12717228  *  -0.03851413  *
    12       C         10.24710351  *   7.81522171  *   1.32816231  *
    13       N         10.70501601  *   9.22119120  *   1.31276522  *
    14       C         12.11119911  *   9.34997732  *   1.04131984  *
    15       C         12.58949805  *   9.79622890  *  -0.19398071  *
    16       C         13.95441044  *   9.91600752  *  -0.40637626  *
    17       C         14.84160628  *   9.59103377  *   0.62402156  *
    18       C         14.36808485  *   9.14761460  *   1.86221895  *
    19       C         13.00210136  *   9.02488075  *   2.06824932  *
    20       N         16.23324469  *   9.71271244  *   0.41102223  *
    21       C         16.89483946  *  10.83749288  *  -0.12236293  *
    22       C         16.38572217  *  12.06635898  *  -0.52809936  *
    23       C         17.28961981  *  12.99949131  *  -1.00888370  *
    24       C         18.66921510  *  12.74488934  *  -1.08701719  *
    25       C         19.16860661  *  11.52112655  *  -0.65955260  *
    26       C         18.28636545  *  10.56766883  *  -0.17446204  *
    27       C         18.48230143  *   9.23676823  *   0.34658483  *
    28       C         17.20418445  *   8.73230278  *   0.69889864  *
    29       C         17.05450896  *   7.44577335  *   1.20518574  *
    30       C         18.20517587  *   6.69335922  *   1.37505799  *
    31       C         19.48206770  *   7.18133171  *   1.05046891  *
    32       C         19.61721220  *   8.46077751  *   0.52634709  *
    33       C         20.66170088  *   6.27394818  *   1.28497071  *
    34       C         21.99894594  *   6.91605439  *   0.91016401  *
    35       C         20.71850505  *   5.90569332  *   2.77041515  *
    36       C         20.49227880  *   5.01029758  *   0.43684475  *
    37       C         19.55490054  *  13.83423947  *  -1.63367766  *
    38       C         19.10656365  *  14.17211973  *  -3.05852831  *
    39       C         21.03175055  *  13.43817801  *  -1.68897157  *
    40       C         19.43197558  *  15.06982329  *  -0.73758408  *
    41       C          9.86292392  *  10.22431992  *   0.76539223  *
    42       C         10.32599100  *  11.55272639  *   0.76126025  *
    43       C          9.49920733  *  12.57624343  *   0.33551955  *
    44       C          8.19773500  *  12.30484693  *  -0.08918197  *
    45       C          7.73309512  *  10.99265676  *  -0.07542380  *
    46       C          8.55524518  *   9.95571096  *   0.34194044  *
    47       C          7.32428905  *  13.36572001  *  -0.52769308  *
    48       C          5.99891001  *  13.48721900  *  -0.22642071  *
    49       C          5.41239104  *  14.64697173  *  -0.82939219  *
    50       C          6.31912984  *  15.35620212  *  -1.56373923  *
    51       S          7.87695260  *  14.63411263  *  -1.53983001  *
    52       C          6.07725467  *  16.56018103  *  -2.29170941  *
    53       C          6.81615748  *  17.70864018  *  -2.24505359  *
    54       C          6.29049199  *  18.72095656  *  -3.10870825  *
    55       C          5.17280564  *  18.29818705  *  -3.77486549  *
    56       S          4.75165398  *  16.68552839  *  -3.37223035  *
    57       C          4.40196217  *  19.05437393  *  -4.70690433  *
    58       C          3.04103578  *  18.97915889  *  -4.88678488  *
    59       C          2.59754954  *  19.86688400  *  -5.90278123  *
    60       C          3.63613397  *  20.58914151  *  -6.45522382  *
    61       S          5.12868777  *  20.18003243  *  -5.75065027  *
    62       C          3.43412663  *  21.54706499  *  -7.49755456  *
    63       C          4.36700227  *  22.38732478  *  -7.99480881  *
    64       C          3.99642676  *  23.31268084  *  -9.07253760  *
    65       O          2.89691772  *  23.41881587  *  -9.59825755  *
    66       O          5.00749657  *  24.10243984  *  -9.48781340  *
    67       C          5.70403106  *  22.44120613  *  -7.53304331  *
    68       N          6.80207700  *  22.50665778  *  -7.17448748  *
    69       H          2.41139200  *  21.58056222  *  -7.91067362  *
    70       H         -0.41706145  *   0.50625002  *  -0.88251282  *
    71       H         -0.40933077  *  -1.02062906  *   0.00011255  *
    72       H         -0.41708700  *   0.50646682  *   0.88237544  *
    73       H          1.90212384  *  -0.56132099  *   0.87885583  *
    74       H          1.90228564  *  -0.56143112  *  -0.87869934  *
    75       H          1.67350683  *   1.98495312  *  -0.87868794  *
    76       H          1.67394894  *   1.98461699  *   0.87910035  *
    77       H          3.97434310  *   0.86971784  *   0.87830843  *
    78       H          3.97396938  *   0.87043945  *  -0.87961768  *
    79       H          3.74192453  *   3.41556770  *  -0.87851061  *
    80       H          3.74205253  *   3.41477517  *   0.87945691  *
    81       H          6.04132627  *   2.29912694  *   0.87880186  *
    82       H          6.04124778  *   2.30008200  *  -0.87924070  *
    83       H          5.80964022  *   4.84499124  *  -0.87809995  *
    84       H          5.80824182  *   4.84408272  *   0.87999749  *
    85       H          8.10776174  *   3.73032054  *   0.88214062  *
    86       H          8.10820279  *   3.72671779  *  -0.87589612  *
    87       H          7.88093752  *   6.27034458  *  -0.88403815  *
    88       H          7.86553248  *   6.27452914  *   0.87279020  *
    89       H         10.17694145  *   5.16335467  *   0.88867417  *
    90       H         10.16773770  *   5.13509643  *  -0.86568342  *
    91       H         11.42969545  *   7.09256539  *  -0.35024031  *
    92       H          9.87130403  *   7.72626958  *  -0.83348929  *
    93       H          9.20939379  *   7.77851335  *   1.73024743  *
    94       H         10.85502614  *   7.26771857  *   2.08697442  *
    95       H         11.89535493  *  10.04826135  *  -1.00297445  *
    96       H         14.32654296  *  10.24606953  *  -1.38215415  *
    97       H         15.06341550  *   8.91485126  *   2.67583651  *
    98       H         12.63128024  *   8.69095450  *   3.04326028  *
    99       H         15.32057121  *  12.29620858  *  -0.45887259  *
   100       H         16.88950263  *  13.96644210  *  -1.33167075  *
   101       H         20.23006844  *  11.26517488  *  -0.68205720  *
   102       H         16.07174729  *   7.03623747  *   1.44706172  *
   103       H         18.08878088  *   5.68131013  *   1.77681742  *
   104       H         20.57841928  *   8.89456052  *   0.24234624  *
   105       H         22.05550654  *   7.18151063  *  -0.15516871  *
   106       H         22.20797633  *   7.82429761  *   1.49324620  *
   107       H         22.84490248  *   6.23671337  *   1.09603896  *
   108       H         19.84333405  *   5.33466484  *   3.10952934  *
   109       H         21.59434580  *   5.28409450  *   3.00778198  *
   110       H         20.77830691  *   6.79869829  *   3.40875266  *
   111       H         20.39047609  *   5.24810373  *  -0.63163170  *
   112       H         21.35247189  *   4.33154921  *   0.53251077  *
   113       H         19.60865724  *   4.41855330  *   0.71257890  *
   114       H         19.12449412  *  13.28759101  *  -3.71104859  *
   115       H         18.08711888  *  14.57873956  *  -3.10763086  *
   116       H         19.75491734  *  14.92746141  *  -3.52643574  *
   117       H         21.20960525  *  12.56515527  *  -2.33300302  *
   118       H         21.65669823  *  14.24702944  *  -2.09751826  *
   119       H         21.44539951  *  13.21176822  *  -0.69588451  *
   120       H         20.09650524  *  15.88319154  *  -1.06410846  *
   121       H         18.41911331  *  15.49511289  *  -0.72242710  *
   122       H         19.69343404  *  14.84331813  *   0.30591917  *
   123       H         11.33296417  *  11.79849884  *   1.11393367  *
   124       H          9.86902971  *  13.60683607  *   0.34489888  *
   125       H          6.71380100  *  10.76912029  *  -0.40725536  *
   126       H          8.14713261  *   8.94099084  *   0.33214643  *
   127       H          5.43536911  *  12.80615566  *   0.40636470  *
   128       H          4.36758289  *  14.91525053  *  -0.69323154  *
   129       H          7.69718819  *  17.86240317  *  -1.62640895  *
   130       H          6.74153872  *  19.70698729  *  -3.19770734  *
   131       H          2.37030876  *  18.33342920  *  -4.32526858  *
   132       H          1.55243248  *  19.95698245  *  -6.19427707  *
   133       H          4.71737915  *  24.69427672  * -10.19701718  *
 


          CARTESIAN COORDINATES 

    NO.       ATOM           X           Y           Z

     1         C          0.0000      0.0000      0.0000
     2         C          1.5200      0.0000      0.0000
     3         C          2.0614      1.4275      0.0000
     4         C          3.5882      1.4285     -0.0003
     5         C          4.1282      2.8569      0.0002
     6         C          5.6553      2.8579      0.0001
     7         C          6.1952      4.2864      0.0010
     8         C          7.7223      4.2871      0.0019
     9         C          8.2627      5.7160     -0.0004
    10         C          9.7895      5.7134      0.0050
    11         C         10.3629      7.1272     -0.0385
    12         C         10.2471      7.8152      1.3282
    13         N         10.7050      9.2212      1.3128
    14         C         12.1112      9.3500      1.0413
    15         C         12.5895      9.7962     -0.1940
    16         C         13.9544      9.9160     -0.4064
    17         C         14.8416      9.5910      0.6240
    18         C         14.3681      9.1476      1.8622
    19         C         13.0021      9.0249      2.0682
    20         N         16.2332      9.7127      0.4110
    21         C         16.8948     10.8375     -0.1224
    22         C         16.3857     12.0664     -0.5281
    23         C         17.2896     12.9995     -1.0089
    24         C         18.6692     12.7449     -1.0870
    25         C         19.1686     11.5211     -0.6596
    26         C         18.2864     10.5677     -0.1745
    27         C         18.4823      9.2368      0.3466
    28         C         17.2042      8.7323      0.6989
    29         C         17.0545      7.4458      1.2052
    30         C         18.2052      6.6934      1.3751
    31         C         19.4821      7.1813      1.0505
    32         C         19.6172      8.4608      0.5263
    33         C         20.6617      6.2739      1.2850
    34         C         21.9989      6.9161      0.9102
    35         C         20.7185      5.9057      2.7704
    36         C         20.4923      5.0103      0.4368
    37         C         19.5549     13.8342     -1.6337
    38         C         19.1066     14.1721     -3.0585
    39         C         21.0318     13.4382     -1.6890
    40         C         19.4320     15.0698     -0.7376
    41         C          9.8629     10.2243      0.7654
    42         C         10.3260     11.5527      0.7613
    43         C          9.4992     12.5762      0.3355
    44         C          8.1977     12.3048     -0.0892
    45         C          7.7331     10.9927     -0.0754
    46         C          8.5552      9.9557      0.3419
    47         C          7.3243     13.3657     -0.5277
    48         C          5.9989     13.4872     -0.2264
    49         C          5.4124     14.6470     -0.8294
    50         C          6.3191     15.3562     -1.5637
    51         S          7.8770     14.6341     -1.5398
    52         C          6.0773     16.5602     -2.2917
    53         C          6.8162     17.7086     -2.2451
    54         C          6.2905     18.7210     -3.1087
    55         C          5.1728     18.2982     -3.7749
    56         S          4.7517     16.6855     -3.3722
    57         C          4.4020     19.0544     -4.7069
    58         C          3.0410     18.9792     -4.8868
    59         C          2.5975     19.8669     -5.9028
    60         C          3.6361     20.5891     -6.4552
    61         S          5.1287     20.1800     -5.7507
    62         C          3.4341     21.5471     -7.4976
    63         C          4.3670     22.3873     -7.9948
    64         C          3.9964     23.3127     -9.0725
    65         O          2.8969     23.4188     -9.5983
    66         O          5.0075     24.1024     -9.4878
    67         C          5.7040     22.4412     -7.5330
    68         N          6.8021     22.5067     -7.1745
    69         H          2.4114     21.5806     -7.9107
    70         H         -0.4171      0.5063     -0.8825
    71         H         -0.4093     -1.0206      0.0001
    72         H         -0.4171      0.5065      0.8824
    73         H          1.9021     -0.5613      0.8789
    74         H          1.9023     -0.5614     -0.8787
    75         H          1.6735      1.9850     -0.8787
    76         H          1.6739      1.9846      0.8791
    77         H          3.9743      0.8697      0.8783
    78         H          3.9740      0.8704     -0.8796
    79         H          3.7419      3.4156     -0.8785
    80         H          3.7421      3.4148      0.8795
    81         H          6.0413      2.2991      0.8788
    82         H          6.0412      2.3001     -0.8792
    83         H          5.8096      4.8450     -0.8781
    84         H          5.8082      4.8441      0.8800
    85         H          8.1078      3.7303      0.8821
    86         H          8.1082      3.7267     -0.8759
    87         H          7.8809      6.2703     -0.8840
    88         H          7.8655      6.2745      0.8728
    89         H         10.1769      5.1634      0.8887
    90         H         10.1677      5.1351     -0.8657
    91         H         11.4297      7.0926     -0.3502
    92         H          9.8713      7.7263     -0.8335
    93         H          9.2094      7.7785      1.7302
    94         H         10.8550      7.2677      2.0870
    95         H         11.8954     10.0483     -1.0030
    96         H         14.3265     10.2461     -1.3822
    97         H         15.0634      8.9149      2.6758
    98         H         12.6313      8.6910      3.0433
    99         H         15.3206     12.2962     -0.4589
   100         H         16.8895     13.9664     -1.3317
   101         H         20.2301     11.2652     -0.6821
   102         H         16.0717      7.0362      1.4471
   103         H         18.0888      5.6813      1.7768
   104         H         20.5784      8.8946      0.2423
   105         H         22.0555      7.1815     -0.1552
   106         H         22.2080      7.8243      1.4932
   107         H         22.8449      6.2367      1.0960
   108         H         19.8433      5.3347      3.1095
   109         H         21.5943      5.2841      3.0078
   110         H         20.7783      6.7987      3.4088
   111         H         20.3905      5.2481     -0.6316
   112         H         21.3525      4.3315      0.5325
   113         H         19.6087      4.4186      0.7126
   114         H         19.1245     13.2876     -3.7110
   115         H         18.0871     14.5787     -3.1076
   116         H         19.7549     14.9275     -3.5264
   117         H         21.2096     12.5652     -2.3330
   118         H         21.6567     14.2470     -2.0975
   119         H         21.4454     13.2118     -0.6959
   120         H         20.0965     15.8832     -1.0641
   121         H         18.4191     15.4951     -0.7224
   122         H         19.6934     14.8433      0.3059
   123         H         11.3330     11.7985      1.1139
   124         H          9.8690     13.6068      0.3449
   125         H          6.7138     10.7691     -0.4073
   126         H          8.1471      8.9410      0.3321
   127         H          5.4354     12.8062      0.4064
   128         H          4.3676     14.9153     -0.6932
   129         H          7.6972     17.8624     -1.6264
   130         H          6.7415     19.7070     -3.1977
   131         H          2.3703     18.3334     -4.3253
   132         H          1.5524     19.9570     -6.1943
   133         H          4.7174     24.6943    -10.1970

           Empirical Formula: C60 H65 N3 O2 S3  =   133 atoms



      MOLECULAR POINT GROUP   :   C1  


      RHF CALCULATION, NO. OF DOUBLY OCCUPIED LEVELS = 175

 WARNING: INDO only performs single-point calculations


 ALL CONVERGERS ARE NOW FORCED ON
 SHIFT=10, PULAY ON, CAMP-KING ON
 AND ITERATION COUNTER RESET



 Summary of symmetry occupancy in each shell:

 SHELL     
    1  175
    v  162
 TOTAL 337




    ROOT NO.    1           2           3           4           5           6

           -48.67342   -47.20521   -46.75711   -45.20425   -44.80821   -43.95460
  
  
  S  C   1   0.00002     0.00042    -0.00000     0.00000     0.00081    -0.00714
 PX  C   1   0.00001     0.00018    -0.00000     0.00000     0.00032    -0.00275
 PY  C   1   0.00000     0.00006    -0.00000     0.00000     0.00010    -0.00081
 PZ  C   1   0.00000     0.00000    -0.00000     0.00000     0.00000    -0.00000
  
  S  C   2   0.00005     0.00093    -0.00000     0.00001     0.00155    -0.01299
 PX  C   2   0.00001     0.00017    -0.00000     0.00000     0.00019    -0.00126
 PY  C   2   0.00002     0.00029    -0.00000     0.00000     0.00044    -0.00347
 PZ  C   2   0.00000     0.00000    -0.00000     0.00000     0.00000    -0.00000
  
  S  C   3   0.00010     0.00181    -0.00000     0.00001     0.00251    -0.01934
 PX  C   3   0.00003     0.00059    -0.00000     0.00000     0.00063    -0.00420
 PY  C   3   0.00001     0.00007    -0.00000    -0.00000    -0.00004     0.00085
 PZ  C   3   0.00000     0.00000    -0.00000     0.00000     0.00000    -0.00000
  
  S  C   4   0.00020     0.00336    -0.00000     0.00002     0.00373    -0.02574
 PX  C   4   0.00004     0.00049    -0.00000     0.00000     0.00020    -0.00018
 PY  C   4   0.00006     0.00096    -0.00000     0.00000     0.00085    -0.00513
 PZ  C   4   0.00000     0.00000    -0.00000     0.00000     0.00000    -0.00000
  
  S  C   5   0.00041     0.00621    -0.00000     0.00003     0.00535    -0.03240
 PX  C   5   0.00014     0.00195    -0.00000     0.00001     0.00120    -0.00557
 PY  C   5   0.00003     0.00023    -0.00000    -0.00000    -0.00019     0.00244
 PZ  C   5   0.00000     0.00001    -0.00000     0.00000     0.00000    -0.00000
  
  S  C   6   0.00084     0.01131    -0.00000     0.00005     0.00755    -0.03936
 PX  C   6   0.00015     0.00156    -0.00000     0.00000     0.00030     0.00082
 PY  C   6   0.00026     0.00324    -0.00000     0.00001     0.00167    -0.00709
 PZ  C   6   0.00000     0.00004    -0.00000     0.00000     0.00001    -0.00002
  
  S  C   7   0.00176     0.02114    -0.00000     0.00007     0.01066    -0.04673
 PX  C   7   0.00061     0.00658    -0.00000     0.00002     0.00232    -0.00718
 PY  C   7   0.00015     0.00105    -0.00000    -0.00000    -0.00035     0.00410
 PZ  C   7   0.00002     0.00017    -0.00000     0.00000     0.00003    -0.00006
  
  S  C   8   0.00341     0.03711    -0.00001     0.00010     0.01453    -0.05451
 PX  C   8   0.00053     0.00438    -0.00000     0.00001     0.00032     0.00187
 PY  C   8   0.00112     0.01116    -0.00000     0.00002     0.00330    -0.00941
 PZ  C   8   0.00007     0.00061    -0.00000     0.00000     0.00011    -0.00020
  
  S  C   9   0.00744     0.07174    -0.00001     0.00015     0.02089    -0.06340
 PX  C   9   0.00226     0.01954    -0.00000     0.00003     0.00385    -0.00932
 PY  C   9   0.00098     0.00674    -0.00000     0.00000     0.00005     0.00564
 PZ  C   9   0.00042     0.00349    -0.00000     0.00001     0.00065    -0.00114
  
  S  C  10   0.01140     0.09998    -0.00002     0.00019     0.02298    -0.06879
 PX  C  10   0.00026    -0.00187     0.00000    -0.00001    -0.00269     0.00648
 PY  C  10   0.00404     0.03196    -0.00001     0.00005     0.00526    -0.01214
 PZ  C  10   0.00098     0.00767    -0.00000     0.00002     0.00116    -0.00309
  
  S  C  11   0.02464     0.18748    -0.00004     0.00027     0.02943    -0.08067
 PX  C  11   0.00098    -0.00254     0.00000    -0.00001    -0.00474     0.00104
 PY  C  11   0.00644     0.04190    -0.00001     0.00002     0.00299    -0.00154
 PZ  C  11   0.00645     0.04806    -0.00001     0.00008     0.00636    -0.01709
  
  S  C  12   0.03966     0.29085    -0.00005     0.00040     0.03890    -0.09151
 PX  C  12   0.00725     0.03890    -0.00001     0.00008    -0.00158    -0.02056
 PY  C  12   0.01370     0.09597    -0.00002     0.00007     0.01045    -0.01139
 PZ  C  12  -0.00533    -0.04167     0.00001    -0.00003    -0.00707     0.01376
  
  S  N  13   0.06963     0.47718    -0.00009     0.00039     0.05164    -0.09786
 PX  N  13   0.00663     0.01256    -0.00000     0.00004    -0.01413    -0.03279
 PY  N  13  -0.00065    -0.00675     0.00000    -0.00014     0.00088     0.03122
 PZ  N  13  -0.01034    -0.07295     0.00001     0.00001    -0.00941     0.00818
  
  S  C  14   0.08446     0.33789    -0.00006     0.00022    -0.03829    -0.14268
 PX  C  14   0.00841    -0.08822     0.00001     0.00001    -0.05004    -0.01333
 PY  C  14   0.00072    -0.00800     0.00000    -0.00036    -0.00335     0.01170
 PZ  C  14  -0.00318    -0.00212     0.00000     0.00053     0.00414    -0.00204
  
  S  C  15   0.07365     0.19492    -0.00004    -0.00196    -0.06179    -0.10120
 PX  C  15   0.01689    -0.03141     0.00000    -0.00125    -0.03584    -0.01815
 PY  C  15  -0.00645    -0.02389     0.00001    -0.00058     0.00531     0.01730
 PZ  C  15   0.02216     0.07160    -0.00001     0.00046    -0.01728    -0.03734
  
  S  C  16   0.11935     0.09344    -0.00002    -0.00691    -0.11252    -0.08258
 PX  C  16   0.03289    -0.03655     0.00001    -0.00278    -0.01778     0.02003
 PY  C  16  -0.00951    -0.01398     0.00000    -0.00228     0.01274     0.01330
 PZ  C  16   0.03761     0.03655    -0.00001     0.00046    -0.03995    -0.03342
  
  S  C  17   0.23294     0.06089    -0.00002    -0.00019    -0.18391    -0.06943
 PX  C  17   0.07755    -0.05897     0.00001     0.00133    -0.02493     0.04990
 PY  C  17   0.00682    -0.00494     0.00000    -0.00699    -0.00208     0.00489
 PZ  C  17  -0.01187     0.00829    -0.00000     0.00548     0.00357    -0.00817
  
  S  C  18   0.11879     0.08810    -0.00002     0.00681    -0.11413    -0.08699
 PX  C  18   0.01866    -0.04391     0.00001     0.00303    -0.00178     0.03347
 PY  C  18   0.01402     0.00692    -0.00000    -0.00178    -0.01429    -0.00694
 PZ  C  18  -0.04557    -0.02508     0.00001    -0.00037     0.04272     0.02501
  
  S  C  19   0.07082     0.17243    -0.00004     0.00212    -0.06746    -0.11533
 PX  C  19   0.00969    -0.04268     0.00001     0.00129    -0.02480     0.00240
 PY  C  19   0.00872     0.01628    -0.00000    -0.00032    -0.01038    -0.01105
 PZ  C  19  -0.02632    -0.06135     0.00001     0.00000     0.02634     0.04075
  
  S  N  20   0.46806    -0.06580     0.00001    -0.00044    -0.22728     0.04418
 PX  N  20   0.08084    -0.03500     0.00001     0.00346     0.00574     0.03382
 PY  N  20   0.00719    -0.00303     0.00000    -0.02344     0.00053     0.00312
 PZ  N  20  -0.01194     0.00520    -0.00000     0.00959    -0.00109    -0.00519
  
  S  C  21   0.35464    -0.07295     0.00001    -0.11222    -0.05473     0.04260
 PX  C  21   0.02039    -0.01581     0.00000    -0.02948     0.04818     0.00939
 PY  C  21  -0.11194     0.01861    -0.00000    -0.05186     0.08638    -0.02320
 PZ  C  21   0.04349    -0.00620     0.00000     0.02351    -0.03962     0.00867
  
  S  C  22   0.14864    -0.03227     0.00001    -0.14109     0.04821     0.00254
 PX  C  22   0.04112    -0.01538     0.00000    -0.06452     0.04692     0.00187
 PY  C  22  -0.05431     0.00830    -0.00000     0.00007     0.03226    -0.00833
 PZ  C  22   0.01532    -0.00159     0.00000     0.00834    -0.01788     0.00338
  
  S  C  23   0.10181    -0.03172     0.00001    -0.21361     0.16105    -0.01934
 PX  C  23   0.01591    -0.00740     0.00000    -0.06360     0.06247    -0.01043
 PY  C  23  -0.03976     0.01044    -0.00000     0.03428    -0.00952    -0.00570
 PZ  C  23   0.01349    -0.00320     0.00000    -0.00521    -0.00424     0.00366
  
  S  C  24   0.10933    -0.03856     0.00001    -0.29753     0.25911    -0.03993
 PX  C  24  -0.01972     0.00467    -0.00000     0.00090     0.01667    -0.00895
 PY  C  24  -0.02461     0.00601    -0.00000    -0.01438     0.02995    -0.01467
 PZ  C  24   0.01237    -0.00303     0.00000     0.00534    -0.01376     0.00695
  
  S  C  25   0.12911    -0.04074     0.00001    -0.18756     0.15357    -0.00770
 PX  C  25  -0.05402     0.01512    -0.00000     0.04949    -0.02161    -0.00619
 PY  C  25  -0.01197     0.00136    -0.00000    -0.05843     0.05298    -0.01555
 PZ  C  25   0.01138    -0.00240     0.00000     0.01730    -0.01849     0.00697
  
  S  C  26   0.29002    -0.07420     0.00001    -0.10150     0.03517     0.04010
 PX  C  26  -0.09494     0.01921    -0.00000     0.01342     0.04085    -0.01726
 PY  C  26  -0.04495     0.00803    -0.00000    -0.07729     0.05378    -0.01597
 PZ  C  26   0.02977    -0.00567     0.00000     0.02919    -0.02622     0.00856
  
  S  C  27   0.29004    -0.07430     0.00001     0.10136     0.03475     0.04014
 PX  C  27  -0.10571     0.02111    -0.00000     0.00939     0.05529    -0.02141
 PY  C  27   0.02730    -0.00441     0.00000    -0.07782    -0.04501     0.01253
 PZ  C  27   0.00064    -0.00047     0.00000     0.02990     0.01155    -0.00269
  
  S  C  28   0.35471    -0.07319     0.00001     0.11182    -0.05530     0.04235
 PX  C  28  -0.01272    -0.00985     0.00000     0.04366     0.07156     0.00252
 PY  C  28   0.11259    -0.02079     0.00000    -0.04575    -0.07563     0.02427
 PZ  C  28  -0.04472     0.01005    -0.00000     0.01258     0.02143    -0.01053
  
  S  C  29   0.14869    -0.03259     0.00001     0.14118     0.04755     0.00224
 PX  C  29   0.02492    -0.01256     0.00000     0.06326     0.05468    -0.00044
 PY  C  29   0.06013    -0.01081     0.00000     0.01118    -0.02339     0.00834
 PZ  C  29  -0.02536     0.00582    -0.00000    -0.01098     0.00250    -0.00360
  
  S  C  30   0.10185    -0.03193     0.00001     0.21412     0.16027    -0.01916
 PX  C  30   0.00422    -0.00422     0.00000     0.05265     0.05825    -0.01165
 PY  C  30   0.04153    -0.01152     0.00000     0.04450     0.01994     0.00372
 PZ  C  30  -0.01656     0.00499    -0.00000    -0.02284    -0.01399    -0.00030
  
  S  C  31   0.10938    -0.03875     0.00001     0.29836     0.25811    -0.03942
 PX  C  31  -0.02639     0.00634    -0.00000     0.00331     0.02490    -0.01284
 PY  C  31   0.02056    -0.00505     0.00000    -0.01431    -0.02629     0.01265
 PZ  C  31  -0.00539     0.00136    -0.00000     0.00508     0.00752    -0.00362
  
  S  C  32   0.12915    -0.04087     0.00001     0.18794     0.15288    -0.00744
 PX  C  32  -0.05621     0.01520    -0.00000    -0.03145    -0.00569    -0.01050
 PY  C  32   0.00227     0.00134    -0.00000    -0.06574    -0.05516     0.01395
 PZ  C  32   0.00532    -0.00221     0.00000     0.02968     0.02258    -0.00440
  
  S  C  33   0.05468    -0.02459     0.00001     0.30155     0.30084    -0.06615
 PX  C  33  -0.01018     0.00349    -0.00000    -0.02247    -0.01612     0.00105
 PY  C  33   0.00682    -0.00232     0.00000     0.01061     0.00744     0.00048
 PZ  C  33  -0.00164     0.00056    -0.00000    -0.00189    -0.00131    -0.00029
  
  S  C  34   0.02888    -0.01359     0.00000     0.17491     0.17936    -0.04061
 PX  C  34  -0.01183     0.00537    -0.00000    -0.06468    -0.06486     0.01405
 PY  C  34  -0.00204     0.00129    -0.00000    -0.02508    -0.02623     0.00684
 PZ  C  34   0.00190    -0.00100     0.00000     0.01579     0.01624    -0.00397
  
  S  C  35   0.02912    -0.01362     0.00000     0.18002     0.18175    -0.04153
 PX  C  35  -0.00360     0.00130    -0.00000    -0.01049    -0.00844     0.00113
 PY  C  35   0.00434    -0.00183     0.00000     0.01952     0.01887    -0.00376
 PZ  C  35  -0.01174     0.00547    -0.00000    -0.07089    -0.07137     0.01608
  
  S  C  36   0.02910    -0.01362     0.00000     0.17988     0.18165    -0.04149
 PX  C  36  -0.00183     0.00048    -0.00000     0.00039     0.00250    -0.00135
 PY  C  36   0.01127    -0.00509     0.00000     0.06230     0.06201    -0.01355
 PZ  C  36   0.00629    -0.00299     0.00000     0.04050     0.04092    -0.00942
  
  S  C  37   0.05464    -0.02445     0.00001    -0.30043     0.30168    -0.06688
 PX  C  37  -0.00792     0.00270    -0.00000     0.01873    -0.01358     0.00117
 PY  C  37  -0.00841     0.00285    -0.00000     0.01422    -0.01012    -0.00027
 PZ  C  37   0.00438    -0.00149     0.00000    -0.00813     0.00584    -0.00005
  
  S  C  38   0.02910    -0.01354     0.00000    -0.17934     0.18224    -0.04198
 PX  C  38   0.00082    -0.00070     0.00000    -0.01434     0.01639    -0.00438
 PY  C  38  -0.00461     0.00189    -0.00000     0.01930    -0.01843     0.00357
 PZ  C  38   0.01214    -0.00553     0.00000    -0.06998     0.07030    -0.01575
  
  S  C  39   0.02886    -0.01352     0.00000    -0.17425     0.17984    -0.04106
 PX  C  39  -0.01202     0.00553    -0.00000     0.06946    -0.07041     0.01571
 PY  C  39  -0.00005    -0.00033     0.00000    -0.01326     0.01444    -0.00429
 PZ  C  39   0.00175    -0.00067     0.00000    -0.00472     0.00441    -0.00056
  
  S  C  40   0.02907    -0.01354     0.00000    -0.17915     0.18210    -0.04193
 PX  C  40  -0.00166     0.00047    -0.00000     0.00104     0.00076    -0.00080
 PY  C  40  -0.01155     0.00514    -0.00000     0.06203    -0.06180     0.01349
 PZ  C  40  -0.00578     0.00284    -0.00000     0.04041    -0.04170     0.00989
  
  S  C  41   0.04403     0.34055    -0.00005     0.00001     0.07256     0.12553
 PX  C  41   0.01045     0.05398    -0.00002     0.00000    -0.00841    -0.07591
 PY  C  41  -0.00851    -0.05700     0.00002    -0.00014     0.00268     0.08954
 PZ  C  41   0.00305     0.01920    -0.00001     0.00005    -0.00207    -0.03310
  
  S  C  42   0.02563     0.19778    -0.00002    -0.00018     0.05313     0.17504
 PX  C  42  -0.00067    -0.02731    -0.00000    -0.00003    -0.02165    -0.09304
 PY  C  42  -0.01032    -0.07179     0.00001    -0.00000    -0.00867     0.00936
 PZ  C  42  -0.00036    -0.00653    -0.00000     0.00003    -0.00583    -0.03130
  
  S  C  43   0.01247     0.11882     0.00001    -0.00013     0.05414     0.24882
 PX  C  43  -0.00021    -0.01027    -0.00001    -0.00001    -0.01083    -0.06190
 PY  C  43  -0.00582    -0.05243     0.00000     0.00004    -0.01948    -0.07159
 PZ  C  43   0.00046     0.00229    -0.00000    -0.00000    -0.00112    -0.01173
  
  S  C  44   0.01075     0.11453     0.00004    -0.00010     0.06364     0.32915
 PX  C  44   0.00267     0.02419    -0.00002    -0.00002     0.00781     0.01519
 PY  C  44  -0.00324    -0.03150     0.00001     0.00001    -0.01187    -0.03122
 PZ  C  44   0.00136     0.01303    -0.00001    -0.00001     0.00483     0.01324
  
  S  C  45   0.01159     0.11939     0.00002    -0.00006     0.05820     0.25969
 PX  C  45   0.00515     0.04964    -0.00000    -0.00003     0.02010     0.07350
 PY  C  45   0.00001     0.00332     0.00001    -0.00002     0.00688     0.05653
 PZ  C  45   0.00172     0.01655    -0.00000    -0.00000     0.00626     0.01974
  
  S  C  46   0.02171     0.19463    -0.00002     0.00001     0.06294     0.17976
 PX  C  46   0.00880     0.06883    -0.00001     0.00002     0.01277     0.00573
 PY  C  46   0.00122     0.01908     0.00001    -0.00006     0.01678     0.09823
 PZ  C  46   0.00255     0.01973    -0.00000     0.00002     0.00245    -0.00895
  
  S  C  47   0.00361     0.04512     0.00013    -0.00005     0.03856     0.29075
 PX  C  47   0.00076     0.00720    -0.00004    -0.00000     0.00092    -0.02375
 PY  C  47  -0.00118    -0.01259     0.00004     0.00001    -0.00518    -0.00394
 PZ  C  47   0.00053     0.00585    -0.00001    -0.00000     0.00282     0.00741
  
  S  C  48   0.00174     0.02411     0.00015    -0.00003     0.02644     0.23570
 PX  C  48   0.00074     0.00958     0.00003    -0.00001     0.00866     0.06595
 PY  C  48  -0.00020    -0.00148     0.00005    -0.00000     0.00178     0.03564
 PZ  C  48  -0.00013    -0.00231    -0.00004     0.00000    -0.00403    -0.04462
  
  S  C  49   0.00081     0.01292     0.00025    -0.00002     0.01924     0.20724
 PX  C  49   0.00036     0.00565     0.00008    -0.00001     0.00799     0.08219
 PY  C  49  -0.00018    -0.00249     0.00005     0.00000    -0.00256    -0.01766
 PZ  C  49   0.00001    -0.00002    -0.00005     0.00000    -0.00063    -0.01203
  
  S  C  50   0.00070     0.01145     0.00050    -0.00002     0.01852     0.21847
 PX  C  50   0.00004     0.00038    -0.00004    -0.00000    -0.00001    -0.00467
 PY  C  50  -0.00027    -0.00419     0.00015     0.00001    -0.00516    -0.04010
 PZ  C  50   0.00018     0.00272    -0.00008    -0.00000     0.00353     0.02980
  
  S  S  51   0.00119     0.01638     0.00019    -0.00003     0.01845     0.17347
 PX  S  51  -0.00024    -0.00433    -0.00011     0.00001    -0.00746    -0.08387
 PY  S  51  -0.00054    -0.00669     0.00004     0.00001    -0.00535    -0.03364
 PZ  S  51   0.00047     0.00617     0.00001    -0.00001     0.00606     0.04934
  
  S  C  52   0.00021     0.00389     0.00141    -0.00001     0.00955     0.16781
 PX  C  52   0.00001     0.00025    -0.00006    -0.00000     0.00045     0.00518
 PY  C  52  -0.00007    -0.00116     0.00052     0.00000    -0.00107     0.00825
 PZ  C  52   0.00005     0.00085    -0.00027    -0.00000     0.00105     0.00281
  
  S  C  53   0.00009     0.00189     0.00155    -0.00001     0.00616     0.13269
 PX  C  53  -0.00002    -0.00045    -0.00057     0.00000    -0.00175    -0.04118
 PY  C  53  -0.00003    -0.00064     0.00001     0.00000    -0.00137    -0.01913
 PZ  C  53   0.00000    -0.00004    -0.00044     0.00000    -0.00070    -0.02272
  
  S  C  54   0.00004     0.00105     0.00265    -0.00000     0.00468     0.12128
 PX  C  54  -0.00001    -0.00014    -0.00086     0.00000    -0.00078    -0.02286
 PY  C  54  -0.00002    -0.00046    -0.00042     0.00000    -0.00185    -0.04350
 PZ  C  54   0.00001     0.00010    -0.00045    -0.00000     0.00025     0.00233
  
  S  C  55   0.00004     0.00095     0.00521    -0.00000     0.00459     0.12970
 PX  C  55   0.00001     0.00024    -0.00097    -0.00000     0.00093     0.01894
 PY  C  55  -0.00001    -0.00018     0.00104     0.00000    -0.00055    -0.00769
 PZ  C  55   0.00001     0.00027    -0.00108    -0.00000     0.00099     0.01897
  
  S  S  56   0.00007     0.00142     0.00200    -0.00000     0.00463     0.10266
 PX  S  56   0.00003     0.00067     0.00038    -0.00000     0.00217     0.04560
 PY  S  56  -0.00000     0.00003     0.00113    -0.00000     0.00089     0.03205
 PZ  S  56   0.00003     0.00055    -0.00016    -0.00000     0.00137     0.02231
  
  S  C  57   0.00001     0.00034     0.01452    -0.00000     0.00252     0.10281
 PX  C  57   0.00000     0.00006    -0.00378    -0.00000     0.00010    -0.00621
 PY  C  57  -0.00000    -0.00006     0.00299     0.00000    -0.00019     0.00003
 PZ  C  57   0.00000     0.00008    -0.00379    -0.00000     0.00026     0.00001
  
  S  C  58   0.00001     0.00017     0.01549    -0.00000     0.00166     0.08097
 PX  C  58   0.00000     0.00007     0.00371    -0.00000     0.00057     0.02490
 PY  C  58   0.00000     0.00001     0.00468    -0.00000     0.00023     0.01506
 PZ  C  58   0.00000     0.00000    -0.00417     0.00000    -0.00013    -0.01097
  
  S  C  59   0.00000     0.00010     0.02454    -0.00000     0.00129     0.07185
 PX  C  59   0.00000     0.00004     0.00841    -0.00000     0.00053     0.02892
 PY  C  59  -0.00000    -0.00001     0.00402     0.00000    -0.00007    -0.00246
 PZ  C  59   0.00000     0.00002    -0.00249    -0.00000     0.00018     0.00825
  
  S  C  60   0.00000     0.00009     0.04730    -0.00000     0.00122     0.06979
 PX  C  60  -0.00000    -0.00000     0.00053     0.00000    -0.00005    -0.00346
 PY  C  60  -0.00000    -0.00002     0.00954     0.00000    -0.00031    -0.01581
 PZ  C  60   0.00000     0.00003    -0.00910    -0.00000     0.00032     0.01594
  
  S  S  61   0.00000     0.00013     0.02216    -0.00000     0.00128     0.06201
 PX  S  61  -0.00000    -0.00004    -0.01105     0.00000    -0.00057    -0.03173
 PY  S  61  -0.00000    -0.00005     0.00312     0.00000    -0.00037    -0.01491
 PZ  S  61   0.00000     0.00005    -0.00481    -0.00000     0.00031     0.01047
  
  S  C  62   0.00000     0.00004     0.11264    -0.00000     0.00047     0.03096
 PX  C  62   0.00000     0.00000     0.02309    -0.00000     0.00004     0.00277
 PY  C  62  -0.00000    -0.00001     0.03476     0.00000    -0.00014    -0.00782
 PZ  C  62   0.00000     0.00001    -0.02631    -0.00000     0.00016     0.00921
  
  S  C  63   0.00000     0.00003     0.22545    -0.00000     0.00017     0.01377
 PX  C  63  -0.00000    -0.00000    -0.01519     0.00000    -0.00003    -0.00200
 PY  C  63  -0.00000     0.00000     0.05675     0.00000    -0.00011    -0.00651
 PZ  C  63   0.00000    -0.00000    -0.06301    -0.00000     0.00010     0.00588
  
  S  C  64   0.00000     0.00005     0.51357     0.00000    -0.00017    -0.00667
 PX  C  64  -0.00000     0.00000     0.01069     0.00000    -0.00002    -0.00162
 PY  C  64   0.00000     0.00001     0.10022     0.00000    -0.00010    -0.00597
 PZ  C  64  -0.00000    -0.00001    -0.09744    -0.00000     0.00009     0.00544
  
  S  O  65   0.00000     0.00004     0.41176     0.00000    -0.00015    -0.00637
 PX  O  65   0.00000     0.00002     0.16550     0.00000    -0.00007    -0.00318
 PY  O  65  -0.00000    -0.00000     0.00310     0.00000    -0.00002    -0.00114
 PZ  O  65   0.00000     0.00001     0.05982     0.00000    -0.00001    -0.00005
  
  S  O  66   0.00000     0.00005     0.57425     0.00000    -0.00030    -0.01597
 PX  O  66  -0.00000    -0.00001    -0.16303    -0.00000     0.00009     0.00440
 PY  O  66  -0.00000    -0.00001    -0.05306    -0.00000     0.00002     0.00064
 PZ  O  66   0.00000    -0.00000    -0.00815    -0.00000     0.00001     0.00102
  
  S  C  67   0.00000     0.00002     0.11212    -0.00000     0.00012     0.00961
 PX  C  67  -0.00000    -0.00001    -0.04187     0.00000    -0.00004    -0.00293
 PY  C  67  -0.00000    -0.00000     0.01525     0.00000    -0.00004    -0.00237
 PZ  C  67  -0.00000    -0.00000    -0.03159    -0.00000     0.00002     0.00129
  
  S  N  68   0.00000     0.00001     0.03917    -0.00000     0.00006     0.00467
 PX  N  68  -0.00000    -0.00000    -0.02217     0.00000    -0.00003    -0.00252
 PY  N  68  -0.00000    -0.00000     0.00200     0.00000    -0.00001    -0.00057
 PZ  N  68  -0.00000    -0.00000    -0.01061     0.00000    -0.00000    -0.00037
  
  S  H  69   0.00000     0.00002     0.05227    -0.00000     0.00017     0.01138
  
  S  H  70   0.00001     0.00018    -0.00000     0.00000     0.00035    -0.00307
  
  S  H  71   0.00001     0.00013    -0.00000     0.00000     0.00027    -0.00242
  
  S  H  72   0.00001     0.00018    -0.00000     0.00000     0.00035    -0.00307
  
  S  H  73   0.00002     0.00040    -0.00000     0.00000     0.00066    -0.00548
  
  S  H  74   0.00002     0.00040    -0.00000     0.00000     0.00066    -0.00548
  
  S  H  75   0.00004     0.00079    -0.00000     0.00001     0.00107    -0.00820
  
  S  H  76   0.00004     0.00079    -0.00000     0.00001     0.00107    -0.00820
  
  S  H  77   0.00009     0.00146    -0.00000     0.00001     0.00159    -0.01091
  
  S  H  78   0.00009     0.00146    -0.00000     0.00001     0.00159    -0.01091
  
  S  H  79   0.00018     0.00271    -0.00000     0.00001     0.00229    -0.01374
  
  S  H  80   0.00018     0.00272    -0.00000     0.00001     0.00229    -0.01374
  
  S  H  81   0.00037     0.00492    -0.00000     0.00002     0.00322    -0.01670
  
  S  H  82   0.00036     0.00488    -0.00000     0.00002     0.00321    -0.01668
  
  S  H  83   0.00078     0.00926    -0.00000     0.00003     0.00457    -0.01978
  
  S  H  84   0.00081     0.00951    -0.00000     0.00003     0.00462    -0.01986
  
  S  H  85   0.00149     0.01600    -0.00000     0.00004     0.00616    -0.02319
  
  S  H  86   0.00140     0.01529    -0.00000     0.00004     0.00603    -0.02294
  
  S  H  87   0.00334     0.03182    -0.00001     0.00006     0.00914    -0.02611
  
  S  H  88   0.00410     0.03814    -0.00001     0.00007     0.01030    -0.02781
  
  S  H  89   0.00496     0.04279    -0.00001     0.00009     0.00953    -0.02988
  
  S  H  90   0.00389     0.03462    -0.00001     0.00007     0.00836    -0.02656
  
  S  H  91   0.01273     0.08394    -0.00002     0.00012     0.00896    -0.03758
  
  S  H  92   0.01149     0.08817    -0.00002     0.00010     0.01470    -0.03000
  
  S  H  93   0.01409     0.11079    -0.00002     0.00014     0.01871    -0.02836
  
  S  H  94   0.01579     0.10806    -0.00002     0.00021     0.01145    -0.04217
  
  S  H  95   0.02197     0.08108    -0.00001    -0.00080    -0.00976    -0.02403
  
  S  H  96   0.04884     0.01973    -0.00000    -0.00616    -0.03786    -0.01897
  
  S  H  97   0.04869     0.01769    -0.00000     0.00609    -0.03854    -0.02076
  
  S  H  98   0.01974     0.06295    -0.00001     0.00087    -0.01456    -0.03681
  
  S  H  99   0.04967    -0.00563     0.00000    -0.03676     0.00051    -0.00198
  
  S  H 100   0.02740    -0.00922     0.00000    -0.08061     0.06798    -0.01175
  
  S  H 101   0.03887    -0.01308     0.00000    -0.06274     0.06359    -0.00614
  
  S  H 102   0.04968    -0.00591     0.00000     0.03676     0.00027    -0.00239
  
  S  H 103   0.02742    -0.00929     0.00000     0.08085     0.06771    -0.01166
  
  S  H 104   0.03888    -0.01312     0.00000     0.06292     0.06338    -0.00602
  
  S  H 105   0.01308    -0.00594     0.00000     0.07157     0.07323    -0.01612
  
  S  H 106   0.01308    -0.00594     0.00000     0.07157     0.07320    -0.01611
  
  S  H 107   0.00982    -0.00483     0.00000     0.06708     0.06960    -0.01635
  
  S  H 108   0.01330    -0.00599     0.00000     0.07611     0.07562    -0.01696
  
  S  H 109   0.00979    -0.00480     0.00000     0.06787     0.06971    -0.01646
  
  S  H 110   0.01260    -0.00573     0.00000     0.07265     0.07284    -0.01635
  
  S  H 111   0.01258    -0.00573     0.00000     0.07256     0.07279    -0.01633
  
  S  H 112   0.00978    -0.00480     0.00000     0.06782     0.06967    -0.01645
  
  S  H 113   0.01328    -0.00598     0.00000     0.07599     0.07553    -0.01693
  
  S  H 114   0.01259    -0.00570     0.00000    -0.07238     0.07304    -0.01653
  
  S  H 115   0.01329    -0.00595     0.00000    -0.07582     0.07583    -0.01714
  
  S  H 116   0.00978    -0.00477     0.00000    -0.06760     0.06989    -0.01664
  
  S  H 117   0.01307    -0.00591     0.00000    -0.07131     0.07341    -0.01630
  
  S  H 118   0.00981    -0.00480     0.00000    -0.06682     0.06979    -0.01653
  
  S  H 119   0.01307    -0.00592     0.00000    -0.07130     0.07343    -0.01630
  
  S  H 120   0.00977    -0.00477     0.00000    -0.06754     0.06983    -0.01662
  
  S  H 121   0.01327    -0.00594     0.00000    -0.07568     0.07571    -0.01711
  
  S  H 122   0.01257    -0.00569     0.00000    -0.07227     0.07297    -0.01650
  
  S  H 123   0.01317     0.08053    -0.00001    -0.00016     0.01188     0.03371
  
  S  H 124   0.00326     0.03097     0.00001    -0.00005     0.01517     0.07694
  
  S  H 125   0.00295     0.03186     0.00001    -0.00002     0.01731     0.08468
  
  S  H 126   0.00937     0.08123    -0.00001     0.00004     0.02185     0.03624
  
  S  H 127   0.00075     0.00975     0.00004    -0.00001     0.00926     0.07496
  
  S  H 128   0.00020     0.00323     0.00010    -0.00001     0.00514     0.05835
  
  S  H 129   0.00004     0.00073     0.00039    -0.00000     0.00205     0.04042
  
  S  H 130   0.00001     0.00026     0.00101    -0.00000     0.00125     0.03433
  
  S  H 131   0.00000     0.00006     0.00388    -0.00000     0.00055     0.02468
  
  S  H 132   0.00000     0.00003     0.00875    -0.00000     0.00034     0.01959
  
  S  H 133   0.00000     0.00002     0.24209     0.00000    -0.00013    -0.00707




    ROOT NO.    7           8           9          10          11          12

           -43.50782   -43.39826   -42.76227   -42.39419   -41.70249   -41.21589
  
  
  S  C   1   0.01498     0.08528     0.05349    -0.09179     0.13410     0.10704
 PX  C   1   0.00566     0.03205     0.01953    -0.03290     0.04630     0.03590
 PY  C   1   0.00162     0.00913     0.00535    -0.00878     0.01172     0.00870
 PZ  C   1   0.00000     0.00000     0.00000    -0.00000     0.00000     0.00000
  
  S  C   2   0.02642     0.14929     0.08943    -0.14921     0.20621     0.15787
 PX  C   2   0.00218     0.01176     0.00500    -0.00622     0.00264    -0.00150
 PY  C   2   0.00684     0.03831     0.02178    -0.03512     0.04508     0.03246
 PZ  C   2   0.00000     0.00000     0.00000    -0.00000     0.00000     0.00000
  
  S  C   3   0.03753     0.20948     0.11642    -0.18524     0.23180     0.16390
 PX  C   3   0.00736     0.03991     0.01808    -0.02445     0.01870     0.00604
 PY  C   3  -0.00225    -0.01342    -0.01053     0.01994    -0.03365    -0.02899
 PZ  C   3   0.00000    -0.00000    -0.00000     0.00000    -0.00000    -0.00000
  
  S  C   4   0.04672     0.25621     0.12686    -0.18642     0.19349     0.11445
 PX  C   4  -0.00108    -0.00804    -0.01098     0.02363    -0.04456    -0.03933
 PY  C   4   0.00841     0.04479     0.01761    -0.02094     0.00837    -0.00381
 PZ  C   4   0.00001     0.00003     0.00001    -0.00002     0.00002     0.00001
  
  S  C   5   0.05389     0.28849     0.12040    -0.15446     0.10438     0.02809
 PX  C   5   0.00728     0.03592     0.00538     0.00406    -0.03258    -0.03541
 PY  C   5  -0.00552    -0.03176    -0.02017     0.03364    -0.04358    -0.03017
 PZ  C   5   0.00000     0.00000    -0.00001     0.00002    -0.00001    -0.00000
  
  S  C   6   0.05871     0.30438     0.09794    -0.09499    -0.01232    -0.06748
 PX  C   6  -0.00399    -0.02509    -0.02063     0.03626    -0.04626    -0.02898
 PY  C   6   0.00874     0.04241     0.00510     0.00617    -0.03446    -0.03373
 PZ  C   6   0.00001     0.00006    -0.00001     0.00003    -0.00002     0.00000
  
  S  C   7   0.06097     0.30320     0.06216    -0.01836    -0.12566    -0.14094
 PX  C   7   0.00597     0.02398    -0.01007     0.02979    -0.05179    -0.03466
 PY  C   7  -0.00784    -0.04281    -0.01956     0.02450    -0.01038     0.00487
 PZ  C   7   0.00002     0.00007    -0.00011     0.00017    -0.00003     0.00009
  
  S  C   8   0.06067     0.28435     0.01918     0.06062    -0.20611    -0.16917
 PX  C   8  -0.00617    -0.03684    -0.01910     0.02375    -0.00259     0.01560
 PY  C   8   0.00760     0.03073    -0.01021     0.02928    -0.04323    -0.02317
 PZ  C   8   0.00007     0.00014    -0.00036     0.00051     0.00003     0.00041
  
  S  C   9   0.05775     0.25022    -0.02882     0.13120    -0.23130    -0.14052
 PX  C   9   0.00385     0.00558    -0.01896     0.03431    -0.02002     0.00744
 PY  C   9  -0.00889    -0.04355    -0.01099     0.00059     0.03381     0.03559
 PZ  C   9   0.00050     0.00149    -0.00187     0.00280    -0.00046     0.00149
  
  S  C  10   0.05161     0.19209    -0.05655     0.16117    -0.19681    -0.07539
 PX  C  10  -0.00846    -0.04601     0.00095    -0.01558     0.04378     0.03562
 PY  C  10   0.00531     0.01006    -0.01808     0.03061    -0.00890     0.01528
 PZ  C  10   0.00139     0.00233    -0.00352     0.00604    -0.00058     0.00425
  
  S  C  11   0.04482     0.11904    -0.08118     0.16773    -0.10169     0.02670
 PX  C  11  -0.00285    -0.03160     0.01213    -0.02024     0.02897     0.01883
 PY  C  11  -0.00515    -0.03358    -0.00628    -0.00990     0.05110     0.04028
 PZ  C  11   0.00724     0.00929    -0.01759     0.02908     0.00142     0.02374
  
  S  C  12   0.03830     0.06119    -0.10168     0.16062     0.00051     0.11552
 PX  C  12   0.00863    -0.01873     0.00491     0.00598     0.01757     0.03216
 PY  C  12  -0.00282    -0.02962    -0.02222     0.00519     0.06417     0.05782
 PZ  C  12  -0.00702    -0.02239     0.01901    -0.03244     0.01615    -0.00596
  
  S  N  13   0.02393    -0.02741    -0.11219     0.11601     0.14015     0.19741
 PX  N  13   0.01906    -0.02800     0.03928    -0.00922    -0.00399     0.01765
 PY  N  13  -0.01835    -0.01539     0.00686    -0.04304     0.01965    -0.03120
 PZ  N  13   0.00020     0.00212     0.01983    -0.01353    -0.02153    -0.02154
  
  S  C  14   0.06908    -0.12412     0.11970    -0.03230     0.02291     0.06980
 PX  C  14   0.01974    -0.04381     0.12385    -0.08430    -0.07492    -0.08926
 PY  C  14  -0.00607    -0.00941     0.01183    -0.02397     0.00250    -0.02007
 PZ  C  14   0.00047     0.00532    -0.01146     0.01313     0.00560     0.01560
  
  S  C  15   0.05647    -0.11930     0.16654    -0.09019    -0.03018    -0.02471
 PX  C  15   0.01683    -0.03048     0.07769    -0.04699    -0.04493    -0.04786
 PY  C  15  -0.00943     0.00991    -0.01410    -0.00040     0.00390    -0.00727
 PZ  C  15   0.01989    -0.03885     0.04880    -0.02203    -0.00376     0.00436
  
  S  C  16   0.05535    -0.11416     0.20645    -0.12229    -0.08105    -0.09133
 PX  C  16  -0.00952     0.01981    -0.02058     0.00875    -0.00427    -0.01138
 PY  C  16  -0.00856     0.01542    -0.02771     0.01444     0.01093     0.00923
 PZ  C  16   0.02202    -0.04397     0.07850    -0.04483    -0.03002    -0.03091
  
  S  C  17   0.05313    -0.10857     0.22046    -0.13504    -0.10647    -0.12923
 PX  C  17  -0.02777     0.05371    -0.07971     0.03998     0.01677     0.00404
 PY  C  17  -0.00278     0.00452    -0.00708     0.00283     0.00197    -0.00048
 PZ  C  17   0.00465    -0.00820     0.01262    -0.00558    -0.00317     0.00038
  
  S  C  18   0.05845    -0.11395     0.20942    -0.11842    -0.08518    -0.08588
 PX  C  18  -0.01866     0.03417    -0.04909     0.02205     0.00895    -0.00212
 PY  C  18   0.00507    -0.01141     0.02169    -0.01390    -0.00925    -0.01212
 PZ  C  18  -0.01751     0.03549    -0.06736     0.04006     0.02912     0.03331
  
  S  C  19   0.06643    -0.11834     0.17661    -0.07921    -0.04334    -0.01220
 PX  C  19   0.00432    -0.01566     0.05102    -0.04077    -0.03459    -0.05015
 PY  C  19   0.00679    -0.01781     0.02708    -0.01786    -0.00593    -0.00884
 PZ  C  19  -0.02374     0.04463    -0.06770     0.03331     0.01729     0.00996
  
  S  N  20  -0.01327     0.02120     0.00775    -0.01916    -0.03777    -0.07196
 PX  N  20  -0.02188     0.04384    -0.08280     0.04982     0.03830     0.04583
 PY  N  20  -0.00203     0.00380    -0.00731     0.00410     0.00362     0.00309
 PZ  N  20   0.00338    -0.00664     0.01265    -0.00746    -0.00600    -0.00655
  
  S  C  21  -0.02284     0.04371    -0.06811     0.03649     0.02396     0.02124
 PX  C  21  -0.00892     0.01903    -0.04522     0.03041     0.02887     0.04145
 PY  C  21   0.00963    -0.01749     0.01666    -0.00507     0.00496     0.01560
 PZ  C  21  -0.00314     0.00547    -0.00274    -0.00067    -0.00470    -0.01024
  
  S  C  22  -0.00351     0.00715    -0.01843     0.01224     0.01458     0.02056
 PX  C  22  -0.00357     0.00803    -0.02171     0.01516     0.01557     0.02288
 PY  C  22   0.00340    -0.00603     0.00578    -0.00175     0.00084     0.00417
 PZ  C  22  -0.00115     0.00192    -0.00069    -0.00048    -0.00173    -0.00378
  
  S  C  23   0.00489    -0.00749    -0.00397     0.00709     0.01391     0.02457
 PX  C  23   0.00384    -0.00670     0.00669    -0.00263    -0.00080     0.00042
 PY  C  23   0.00427    -0.00869     0.01931    -0.01273    -0.01315    -0.01897
 PZ  C  23  -0.00223     0.00439    -0.00867     0.00549     0.00538     0.00755
  
  S  C  24   0.01378    -0.02376     0.01882    -0.00509     0.00423     0.01295
 PX  C  24   0.00521    -0.01022     0.01978    -0.01250    -0.01232    -0.01750
 PY  C  24   0.00843    -0.01656     0.03166    -0.01991    -0.01896    -0.02678
 PZ  C  24  -0.00401     0.00788    -0.01513     0.00953     0.00914     0.01292
  
  S  C  25  -0.00249     0.00742    -0.03329     0.02560     0.02960     0.04613
 PX  C  25   0.00511    -0.01059     0.02393    -0.01578    -0.01567    -0.02224
 PY  C  25   0.00764    -0.01454     0.02310    -0.01315    -0.00992    -0.01207
 PZ  C  25  -0.00368     0.00712    -0.01219     0.00720     0.00590     0.00757
  
  S  C  26  -0.02693     0.05420    -0.10629     0.06570     0.05609     0.07328
 PX  C  26   0.00844    -0.01588     0.02174    -0.01050    -0.00435    -0.00004
 PY  C  26   0.00728    -0.01360     0.01725    -0.00802    -0.00175     0.00169
 PZ  C  26  -0.00400     0.00750    -0.00983     0.00468     0.00140    -0.00042
  
  S  C  27  -0.02690     0.05425    -0.10626     0.06605     0.05549     0.07679
 PX  C  27   0.01031    -0.01947     0.02625    -0.01269    -0.00472     0.00016
 PY  C  27  -0.00564     0.01046    -0.01305     0.00572     0.00140    -0.00430
 PZ  C  27   0.00117    -0.00214     0.00258    -0.00106    -0.00021     0.00146
  
  S  C  28  -0.02260     0.04384    -0.06795     0.03731     0.02282     0.02645
 PX  C  28  -0.00593     0.01328    -0.03893     0.02785     0.02932     0.04580
 PY  C  28  -0.01098     0.02028    -0.02407     0.00993     0.00053    -0.00995
 PZ  C  28   0.00545    -0.01038     0.01557    -0.00806    -0.00430    -0.00215
  
  S  C  29  -0.00321     0.00732    -0.01825     0.01323     0.01327     0.02653
 PX  C  29  -0.00255     0.00594    -0.01928     0.01406     0.01515     0.02492
 PY  C  29  -0.00385     0.00728    -0.00932     0.00452     0.00161     0.00093
 PZ  C  29   0.00207    -0.00406     0.00692    -0.00400    -0.00287    -0.00375
  
  S  C  30   0.00488    -0.00742    -0.00398     0.00749     0.01323     0.02860
 PX  C  30   0.00487    -0.00911     0.01206    -0.00650    -0.00428    -0.00619
 PY  C  30  -0.00345     0.00734    -0.01761     0.01221     0.01225     0.02086
 PZ  C  30   0.00089    -0.00202     0.00583    -0.00422    -0.00445    -0.00763
  
  S  C  31   0.01355    -0.02375     0.01867    -0.00514     0.00414     0.01444
 PX  C  31   0.00741    -0.01480     0.02839    -0.01831    -0.01695    -0.02783
 PY  C  31  -0.00723     0.01439    -0.02736     0.01747     0.01595     0.02514
 PZ  C  31   0.00207    -0.00412     0.00783    -0.00498    -0.00453    -0.00703
  
  S  C  32  -0.00258     0.00746    -0.03334     0.02580     0.02916     0.04926
 PX  C  32   0.00715    -0.01456     0.03000    -0.01945    -0.01775    -0.02750
 PY  C  32  -0.00650     0.01233    -0.01832     0.01010     0.00693     0.00774
 PZ  C  32   0.00180    -0.00331     0.00401    -0.00189    -0.00081    -0.00006
  
  S  C  33   0.02962    -0.05609     0.08325    -0.04755    -0.03646    -0.05292
 PX  C  33   0.00016    -0.00062     0.00373    -0.00315    -0.00401    -0.00776
 PY  C  33  -0.00076     0.00170    -0.00491     0.00364     0.00410     0.00729
 PZ  C  33   0.00028    -0.00061     0.00156    -0.00111    -0.00121    -0.00208
  
  S  C  34   0.01848    -0.03515     0.05355    -0.03111    -0.02470    -0.03709
 PX  C  34  -0.00622     0.01175    -0.01712     0.00966     0.00720     0.01027
 PY  C  34  -0.00334     0.00646    -0.01081     0.00660     0.00574     0.00903
 PZ  C  34   0.00188    -0.00361     0.00581    -0.00347    -0.00291    -0.00447
  
  S  C  35   0.01900    -0.03617     0.05550    -0.03233    -0.02579    -0.03845
 PX  C  35  -0.00032     0.00051     0.00011    -0.00039    -0.00081    -0.00185
 PY  C  35   0.00158    -0.00295     0.00392    -0.00207    -0.00132    -0.00164
 PZ  C  35  -0.00730     0.01386    -0.02096     0.01210     0.00947     0.01393
  
  S  C  36   0.01898    -0.03613     0.05541    -0.03228    -0.02574    -0.03838
 PX  C  36   0.00081    -0.00165     0.00339    -0.00228    -0.00231    -0.00405
 PY  C  36   0.00604    -0.01142     0.01681    -0.00954    -0.00721    -0.01033
 PZ  C  36   0.00432    -0.00823     0.01267    -0.00739    -0.00589    -0.00876
  
  S  C  37   0.03004    -0.05600     0.08352    -0.04676    -0.03756    -0.04786
 PX  C  37  -0.00006    -0.00011     0.00221    -0.00195    -0.00282    -0.00477
 PY  C  37   0.00077    -0.00175     0.00543    -0.00403    -0.00481    -0.00770
 PZ  C  37  -0.00030     0.00071    -0.00245     0.00186     0.00228     0.00369
  
  S  C  38   0.01927    -0.03612     0.05566    -0.03180    -0.02655    -0.03486
 PX  C  38   0.00216    -0.00411     0.00699    -0.00421    -0.00391    -0.00549
 PY  C  38  -0.00147     0.00267    -0.00337     0.00167     0.00098     0.00088
 PZ  C  38   0.00711    -0.01328     0.01993    -0.01120    -0.00902    -0.01153
  
  S  C  39   0.01875    -0.03509     0.05372    -0.03057    -0.02549    -0.03333
 PX  C  39  -0.00707     0.01319    -0.01970     0.01103     0.00887     0.01128
 PY  C  39   0.00221    -0.00427     0.00761    -0.00470    -0.00447    -0.00642
 PZ  C  39   0.00014    -0.00021    -0.00018     0.00028     0.00050     0.00092
  
  S  C  40   0.01924    -0.03606     0.05556    -0.03174    -0.02649    -0.03477
 PX  C  40   0.00052    -0.00105     0.00229    -0.00154    -0.00171    -0.00262
 PY  C  40  -0.00600     0.01115    -0.01632     0.00903     0.00705     0.00877
 PZ  C  40  -0.00460     0.00866    -0.01362     0.00787     0.00671     0.00893
  
  S  C  41  -0.09012     0.00292    -0.12181    -0.05147     0.11698    -0.04589
 PX  C  41   0.03686    -0.02334     0.00815     0.04275     0.02408     0.08194
 PY  C  41  -0.04410    -0.00075     0.01735    -0.08394    -0.01452    -0.10386
 PZ  C  41   0.01587    -0.00546    -0.00331     0.02558     0.01159     0.04022
  
  S  C  42  -0.10525    -0.00337    -0.06157    -0.12135     0.06651    -0.13089
 PX  C  42   0.05049    -0.01416     0.02515     0.05228    -0.00553     0.07346
 PY  C  42   0.00130     0.00719     0.02094    -0.00778    -0.03148    -0.01989
 PZ  C  42   0.01634    -0.00350     0.00374     0.02032     0.00172     0.02749
  
  S  C  43  -0.12702     0.01656    -0.02819    -0.14473     0.00251    -0.16012
 PX  C  43   0.02542    -0.00816    -0.00634     0.02273     0.01970     0.01769
 PY  C  43   0.04405    -0.00421     0.02830     0.05241    -0.02240     0.07026
 PZ  C  43   0.00293    -0.00190    -0.00623     0.00130     0.00970    -0.00305
  
  S  C  44  -0.14447     0.02873     0.01473    -0.14405    -0.05982    -0.12143
 PX  C  44  -0.02251     0.00033    -0.03558    -0.03663     0.03471    -0.06868
 PY  C  44   0.03058    -0.00406     0.03952     0.04221    -0.03225     0.07638
 PZ  C  44  -0.01279     0.00102    -0.01580    -0.01843     0.01401    -0.03203
  
  S  C  45  -0.12922     0.02877    -0.03226    -0.13141    -0.01280    -0.15028
 PX  C  45  -0.04463     0.00737    -0.02992    -0.05021     0.01917    -0.07110
 PY  C  45  -0.02005     0.00137     0.01997    -0.02244    -0.02351    -0.00474
 PZ  C  45  -0.01323     0.00244    -0.01210    -0.01449     0.00878    -0.02285
  
  S  C  46  -0.10635     0.03209    -0.09321    -0.08250     0.04621    -0.12454
 PX  C  46  -0.00944     0.00023    -0.02935     0.00385     0.02955     0.00595
 PY  C  46  -0.05216     0.00053    -0.00771    -0.07152     0.00649    -0.07991
 PZ  C  46   0.00252    -0.00028    -0.00952     0.00950     0.01044     0.01216
  
  S  C  47  -0.05343     0.02239     0.16442     0.01034    -0.17922     0.16270
 PX  C  47  -0.01737    -0.00093    -0.05489    -0.04321     0.04690    -0.09363
 PY  C  47   0.02695    -0.00200     0.04463     0.04868    -0.02915     0.08363
 PZ  C  47  -0.01214     0.00123    -0.01438    -0.01960     0.00722    -0.02919
  
  S  C  48  -0.01623     0.01683     0.18328     0.06065    -0.18233     0.22877
 PX  C  48  -0.01302     0.00525     0.03712     0.00099    -0.04218     0.03665
 PY  C  48   0.01240     0.00136     0.05123     0.03591    -0.03951     0.07584
 PZ  C  48  -0.00359    -0.00266    -0.04490    -0.02333     0.03913    -0.06050
  
  S  C  49   0.02598     0.01097     0.20028     0.11188    -0.15136     0.24166
 PX  C  49   0.00439     0.00497     0.07620     0.03719    -0.06509     0.09614
 PY  C  49   0.01431    -0.00281    -0.01035     0.00899     0.03261    -0.03199
 PZ  C  49  -0.01048     0.00039    -0.01499    -0.01642    -0.00267    -0.00652
  
  S  C  50   0.07135     0.00627     0.21715     0.15796    -0.09145     0.19188
 PX  C  50  -0.00758     0.00050    -0.00784    -0.01052    -0.00313    -0.00357
 PY  C  50   0.03163    -0.00649    -0.03408     0.01123     0.08484    -0.09749
 PZ  C  50  -0.01639     0.00399     0.02672    -0.00162    -0.05299     0.06402
  
  S  S  51   0.00657     0.00996     0.14134     0.06421    -0.10891     0.15000
 PX  S  51  -0.01307    -0.00427    -0.08390    -0.04913     0.06100    -0.10013
 PY  S  51   0.01993    -0.00397    -0.01137     0.01567     0.03314    -0.02133
 PZ  S  51  -0.00915     0.00392     0.03317     0.00441    -0.03935     0.04235
  
  S  C  52   0.19462    -0.01240     0.16237     0.22139     0.14530    -0.07441
 PX  C  52  -0.00039     0.00045     0.00764     0.00604    -0.00190     0.00548
 PY  C  52   0.06366    -0.00743    -0.00023     0.04254     0.09263    -0.09899
 PZ  C  52  -0.02860     0.00382     0.00862    -0.01306    -0.04559     0.05279
  
  S  C  53   0.20344    -0.01607     0.12038     0.20379     0.19451    -0.14865
 PX  C  53  -0.06995     0.00587    -0.03464    -0.06436    -0.06786     0.05534
 PY  C  53  -0.00969    -0.00022    -0.02324    -0.02207     0.00028    -0.01252
 PZ  C  53  -0.04924     0.00461    -0.01593    -0.03939    -0.05246     0.04848
  
  S  C  54   0.23301    -0.02100     0.07891     0.17306     0.20603    -0.17964
 PX  C  54  -0.05168     0.00506    -0.00523    -0.02225    -0.03280     0.03080
 PY  C  54  -0.07174     0.00587    -0.04122    -0.07433    -0.07768     0.06330
 PZ  C  54  -0.00695     0.00121     0.01471     0.01664     0.00996    -0.00493
  
  S  C  55   0.28555    -0.02772     0.03311     0.12532     0.17701    -0.16286
 PX  C  55   0.01712    -0.00047     0.04070     0.06085     0.05793    -0.04625
 PY  C  55   0.00518    -0.00152    -0.03039    -0.03852    -0.02935     0.01978
 PZ  C  55   0.01386    -0.00002     0.04349     0.06277     0.05697    -0.04397
  
  S  S  56   0.17103    -0.01443     0.07242     0.13263     0.13103    -0.10119
 PX  S  56   0.06664    -0.00507     0.04439     0.07236     0.06636    -0.04924
 PY  S  56   0.07810    -0.00776     0.00977     0.04052     0.06284    -0.06077
 PZ  S  56   0.01817    -0.00056     0.03028     0.03780     0.02197    -0.00917
  
  S  C  57   0.33307    -0.03754    -0.13368    -0.09401    -0.01306    -0.01534
 PX  C  57  -0.04713     0.00625     0.05169     0.06059     0.04825    -0.03690
 PY  C  57   0.02058    -0.00303    -0.03318    -0.04181    -0.03627     0.02909
 PZ  C  57  -0.02804     0.00413     0.04533     0.05712     0.04953    -0.03967
  
  S  C  58   0.29678    -0.03465    -0.16159    -0.14538    -0.07282     0.03835
 PX  C  58   0.08432    -0.00962    -0.03777    -0.02921    -0.00812    -0.00016
 PY  C  58   0.06423    -0.00778    -0.04534    -0.04679    -0.03160     0.02227
 PZ  C  58  -0.05116     0.00632     0.04036     0.04353     0.03161    -0.02338
  
  S  C  59   0.28514    -0.03399    -0.18125    -0.17875    -0.11201     0.07541
 PX  C  59   0.11318    -0.01344    -0.06994    -0.06781    -0.04083     0.02645
 PY  C  59  -0.00667     0.00070     0.00034    -0.00198    -0.00477     0.00571
 PZ  C  59   0.02913    -0.00336    -0.01400    -0.01115    -0.00296    -0.00082
  
  S  C  60   0.28236    -0.03384    -0.18686    -0.18905    -0.12654     0.09161
 PX  C  60  -0.01534     0.00188     0.01156     0.01232     0.00883    -0.00646
 PY  C  60  -0.05911     0.00693     0.03258     0.02893     0.01282    -0.00454
 PZ  C  60   0.05912    -0.00691    -0.03203    -0.02811    -0.01197     0.00380
  
  S  S  61   0.22772    -0.02661    -0.12540    -0.11430    -0.06055     0.03541
 PX  S  61  -0.12612     0.01504     0.08005     0.07873     0.04890    -0.03261
 PY  S  61  -0.04698     0.00524     0.01631     0.00900    -0.00375     0.00813
 PZ  S  61   0.02770    -0.00289    -0.00234     0.00556     0.01377    -0.01529
  
  S  C  62   0.13474    -0.01645    -0.10200    -0.11127    -0.08799     0.07394
 PX  C  62   0.01301    -0.00162    -0.01116    -0.01297    -0.01163     0.01075
 PY  C  62  -0.03089     0.00368     0.01922     0.01851     0.01046    -0.00580
 PZ  C  62   0.03720    -0.00445    -0.02434    -0.02432    -0.01544     0.01026
  
  S  C  63   0.06495    -0.00808    -0.05544    -0.06404    -0.05656     0.05164
 PX  C  63  -0.00903     0.00111     0.00726     0.00819     0.00701    -0.00640
 PY  C  63  -0.02780     0.00338     0.02062     0.02235     0.01752    -0.01466
 PZ  C  63   0.02489    -0.00302    -0.01824    -0.01964    -0.01517     0.01248
  
  S  C  64  -0.02254     0.00258     0.01075     0.00877     0.00264     0.00062
 PX  C  64  -0.00791     0.00100     0.00763     0.00960     0.01049    -0.01171
 PY  C  64  -0.02617     0.00321     0.02093     0.02384     0.02107    -0.01965
 PZ  C  64   0.02356    -0.00288    -0.01834    -0.02054    -0.01739     0.01548
  
  S  O  65  -0.02207     0.00254     0.01064     0.00836     0.00091     0.00406
 PX  O  65  -0.01184     0.00139     0.00703     0.00674     0.00385    -0.00209
 PY  O  65  -0.00530     0.00066     0.00462     0.00546     0.00515    -0.00503
 PZ  O  65   0.00088    -0.00014    -0.00201    -0.00298    -0.00376     0.00431
  
  S  O  66  -0.06565     0.00794     0.04825     0.05331     0.04544    -0.04219
 PX  O  66   0.01787    -0.00215    -0.01279    -0.01389    -0.01134     0.01009
 PY  O  66   0.00205    -0.00023    -0.00078    -0.00048     0.00016    -0.00045
 PZ  O  66   0.00472    -0.00059    -0.00407    -0.00479    -0.00447     0.00429
  
  S  C  67   0.04534    -0.00564    -0.03913    -0.04562    -0.04122     0.03834
 PX  C  67  -0.01315     0.00161     0.01020     0.01112     0.00853    -0.00679
 PY  C  67  -0.01023     0.00125     0.00768     0.00836     0.00658    -0.00553
 PZ  C  67   0.00531    -0.00064    -0.00381    -0.00411    -0.00330     0.00291
  
  S  N  68   0.02253    -0.00282    -0.02040    -0.02445    -0.02344     0.02284
 PX  N  68  -0.01209     0.00151     0.01077     0.01278     0.01196    -0.01143
 PY  N  68  -0.00261     0.00032     0.00216     0.00247     0.00215    -0.00194
 PZ  N  68  -0.00197     0.00025     0.00197     0.00245     0.00248    -0.00250
  
  S  H  69   0.04975    -0.00608    -0.03791    -0.04148    -0.03299     0.02786
  
  S  H  70   0.00643     0.03660     0.02292    -0.03928     0.05731     0.04570
  
  S  H  71   0.00514     0.02932     0.01868    -0.03236     0.04814     0.03894
  
  S  H  72   0.00643     0.03661     0.02292    -0.03929     0.05731     0.04570
  
  S  H  73   0.01110     0.06267     0.03733    -0.06209     0.08529     0.06502
  
  S  H  74   0.01110     0.06267     0.03733    -0.06209     0.08529     0.06501
  
  S  H  75   0.01585     0.08839     0.04888    -0.07755     0.09653     0.06801
  
  S  H  76   0.01585     0.08840     0.04888    -0.07756     0.09654     0.06802
  
  S  H  77   0.01973     0.10811     0.05324    -0.07800     0.08048     0.04741
  
  S  H  78   0.01973     0.10809     0.05324    -0.07799     0.08048     0.04740
  
  S  H  79   0.02276     0.12177     0.05055    -0.06466     0.04346     0.01165
  
  S  H  80   0.02277     0.12179     0.05055    -0.06466     0.04346     0.01166
  
  S  H  81   0.02481     0.12849     0.04114    -0.03977    -0.00514    -0.02798
  
  S  H  82   0.02480     0.12846     0.04117    -0.03981    -0.00514    -0.02801
  
  S  H  83   0.02574     0.12799     0.02606    -0.00769    -0.05229    -0.05846
  
  S  H  84   0.02577     0.12810     0.02592    -0.00749    -0.05227    -0.05831
  
  S  H  85   0.02569     0.11997     0.00817     0.02539    -0.08588    -0.07012
  
  S  H  86   0.02558     0.11977     0.00859     0.02474    -0.08583    -0.07056
  
  S  H  87   0.02390     0.10550    -0.01249     0.05440    -0.09571    -0.05866
  
  S  H  88   0.02459     0.10789    -0.01565     0.05871    -0.09601    -0.05620
  
  S  H  89   0.02228     0.08097    -0.02317     0.06787    -0.08255    -0.03082
  
  S  H  90   0.02083     0.07902    -0.01953     0.06156    -0.08227    -0.03573
  
  S  H  91   0.02009     0.03556    -0.02511     0.06214    -0.03400     0.01842
  
  S  H  92   0.01615     0.05177    -0.03826     0.06918    -0.03988     0.00850
  
  S  H  93   0.01188     0.03967    -0.04806     0.06734    -0.01073     0.03073
  
  S  H  94   0.01956     0.02173    -0.03056     0.06245    -0.00725     0.04488
  
  S  H  95   0.01131    -0.03155     0.03298    -0.02134     0.00344    -0.00079
  
  S  H  96   0.01364    -0.02914     0.05584    -0.03476    -0.02439    -0.03048
  
  S  H  97   0.01490    -0.02908     0.05704    -0.03315    -0.02608    -0.02801
  
  S  H  98   0.01990    -0.03119     0.04089    -0.01209    -0.00603     0.00982
  
  S  H  99   0.00146    -0.00340     0.00679    -0.00452    -0.00251    -0.00345
  
  S  H 100   0.00447    -0.00801     0.00849    -0.00360    -0.00068     0.00102
  
  S  H 101   0.00092    -0.00082    -0.00583     0.00553     0.00732     0.01228
  
  S  H 102   0.00175    -0.00328     0.00693    -0.00388    -0.00316    -0.00135
  
  S  H 103   0.00444    -0.00800     0.00847    -0.00354    -0.00078     0.00168
  
  S  H 104   0.00086    -0.00082    -0.00586     0.00550     0.00731     0.01257
  
  S  H 105   0.00722    -0.01369     0.02039    -0.01170    -0.00907    -0.01347
  
  S  H 106   0.00722    -0.01369     0.02039    -0.01170    -0.00907    -0.01347
  
  S  H 107   0.00760    -0.01452     0.02279    -0.01348    -0.01108    -0.01701
  
  S  H 108   0.00769    -0.01459     0.02205    -0.01272    -0.00996    -0.01457
  
  S  H 109   0.00767    -0.01467     0.02311    -0.01368    -0.01126    -0.01719
  
  S  H 110   0.00741    -0.01408     0.02132    -0.01233    -0.00970    -0.01434
  
  S  H 111   0.00740    -0.01406     0.02127    -0.01230    -0.00968    -0.01430
  
  S  H 112   0.00766    -0.01465     0.02308    -0.01366    -0.01124    -0.01716
  
  S  H 113   0.00767    -0.01456     0.02200    -0.01269    -0.00993    -0.01453
  
  S  H 114   0.00752    -0.01406     0.02139    -0.01213    -0.00999    -0.01299
  
  S  H 115   0.00779    -0.01457     0.02212    -0.01253    -0.01024    -0.01326
  
  S  H 116   0.00778    -0.01464     0.02317    -0.01345    -0.01159    -0.01556
  
  S  H 117   0.00733    -0.01366     0.02046    -0.01149    -0.00938    -0.01205
  
  S  H 118   0.00770    -0.01449     0.02286    -0.01325    -0.01142    -0.01532
  
  S  H 119   0.00733    -0.01366     0.02046    -0.01149    -0.00937    -0.01205
  
  S  H 120   0.00777    -0.01462     0.02313    -0.01343    -0.01156    -0.01553
  
  S  H 121   0.00777    -0.01453     0.02205    -0.01248    -0.01020    -0.01322
  
  S  H 122   0.00750    -0.01403     0.02133    -0.01209    -0.00996    -0.01295
  
  S  H 123  -0.02263    -0.01195    -0.00995    -0.03434     0.02582    -0.02648
  
  S  H 124  -0.03598     0.00466     0.00013    -0.04044    -0.00730    -0.03902
  
  S  H 125  -0.03747     0.01019     0.00054    -0.03442    -0.01659    -0.03198
  
  S  H 126  -0.02311     0.02234    -0.04020     0.00116     0.00841    -0.02320
  
  S  H 127  -0.01043     0.00583     0.04990     0.01004    -0.05391     0.05883
  
  S  H 128   0.01228     0.00255     0.05849     0.03701    -0.03749     0.06589
  
  S  H 129   0.05545    -0.00406     0.03874     0.06015     0.05122    -0.03581
  
  S  H 130   0.07075    -0.00662     0.01716     0.04413     0.05691    -0.05141
  
  S  H 131   0.08627    -0.00994    -0.04240    -0.03561    -0.01448     0.00534
  
  S  H 132   0.07918    -0.00948    -0.05213    -0.05246    -0.03441     0.02419
  
  S  H 133  -0.02926     0.00354     0.02170     0.02406     0.02055    -0.01901




    ROOT NO.   13          14          15          16          17          18

           -41.02645   -39.88433   -39.64784   -39.31532   -39.09355   -36.80821
  
  
  S  C   1   0.00063     0.12648     0.01048    -0.21406     0.01449     0.27082
 PX  C   1   0.00021     0.03865     0.00314    -0.06239     0.00414     0.05872
 PY  C   1   0.00005     0.00804     0.00063    -0.01189     0.00076     0.00439
 PZ  C   1   0.00000     0.00000     0.00000    -0.00000     0.00000     0.00000
  
  S  C   2   0.00092     0.16433     0.01328    -0.26169     0.01728     0.23624
 PX  C   2  -0.00002    -0.01325    -0.00126     0.03055    -0.00228    -0.08140
 PY  C   2   0.00018     0.02685     0.00205    -0.03709     0.00229     0.00078
 PZ  C   2   0.00000     0.00000     0.00000    -0.00000     0.00000     0.00001
  
  S  C   3   0.00092     0.12918     0.00980    -0.17508     0.01074     0.01049
 PX  C   3   0.00002    -0.01805    -0.00182     0.04589    -0.00348    -0.11528
 PY  C   3  -0.00018    -0.03903    -0.00328     0.06787    -0.00462    -0.08078
 PZ  C   3  -0.00000     0.00000     0.00000    -0.00000     0.00000     0.00001
  
  S  C   4   0.00059     0.02725     0.00094     0.01614    -0.00257    -0.23301
 PX  C   4  -0.00024    -0.05004    -0.00410     0.08135    -0.00536    -0.04351
 PY  C   4  -0.00004    -0.02879    -0.00263     0.05938    -0.00423    -0.08006
 PZ  C   4   0.00000     0.00000    -0.00000     0.00001    -0.00000    -0.00003
  
  S  C   5   0.00006    -0.08775    -0.00839     0.19751    -0.01429    -0.26564
 PX  C   5  -0.00022    -0.04935    -0.00396     0.07523    -0.00476     0.01503
 PY  C   5  -0.00017    -0.01583    -0.00098     0.01056    -0.00028     0.06803
 PZ  C   5  -0.00000     0.00000     0.00000     0.00000    -0.00000     0.00000
  
  S  C   6  -0.00050    -0.15958    -0.01333     0.26692    -0.01750    -0.05945
 PX  C   6  -0.00015     0.00134     0.00067    -0.02903     0.00263     0.11938
 PY  C   6  -0.00021    -0.03215    -0.00232     0.03586    -0.00187     0.06950
 PZ  C   6  -0.00000     0.00001    -0.00000     0.00002    -0.00000    -0.00006
  
  S  C   7  -0.00088    -0.15219    -0.01126     0.18475    -0.01027     0.19965
 PX  C   7  -0.00018     0.00468     0.00111    -0.04174     0.00360     0.10281
 PY  C   7   0.00006     0.03521     0.00312    -0.06761     0.00465     0.02711
 PZ  C   7   0.00000     0.00017     0.00001    -0.00008    -0.00000    -0.00034
  
  S  C   8  -0.00096    -0.07083    -0.00331    -0.00228     0.00309     0.28128
 PX  C   8   0.00013     0.04966     0.00420    -0.08280     0.00528    -0.04952
 PY  C   8  -0.00010     0.02056     0.00223    -0.05765     0.00429     0.02475
 PZ  C   8   0.00000     0.00055     0.00003    -0.00016    -0.00001    -0.00128
  
  S  C   9  -0.00068     0.04824     0.00644    -0.18760     0.01453     0.10449
 PX  C   9   0.00010     0.04936     0.00416    -0.07729     0.00463    -0.09470
 PY  C   9   0.00022     0.02782     0.00157    -0.01367     0.00008    -0.09487
 PZ  C   9   0.00000     0.00260     0.00014    -0.00103    -0.00001    -0.00510
  
  S  C  10  -0.00022     0.12652     0.01236    -0.26461     0.01747    -0.13916
 PX  C  10   0.00020     0.00168    -0.00031     0.02689    -0.00268    -0.06160
 PY  C  10   0.00014     0.03647     0.00270    -0.03817     0.00166    -0.09008
 PZ  C  10   0.00001     0.00514     0.00034    -0.00185    -0.00011    -0.01123
  
  S  C  11   0.00051     0.14262     0.01165    -0.17943     0.00884    -0.25685
 PX  C  11   0.00011    -0.02210    -0.00139     0.03990    -0.00311     0.01802
 PY  C  11   0.00031    -0.01687    -0.00256     0.07552    -0.00581     0.02591
 PZ  C  11   0.00012     0.01990     0.00120     0.00010    -0.00111    -0.03500
  
  S  C  12   0.00077     0.10876     0.00621    -0.01195    -0.00427    -0.16980
[...]
    Config     780   0.06768246  0.00458092
    Config     798  -0.05001423  0.00250142
    Config     805  -0.04100588  0.00168148
    Config     897   0.06243321  0.00389791
    Config     942   0.04915080  0.00241580
 Total coeff printed             0.81959932
  
State  496  9.5207     CI coeff  CI percent
    Config     122  -0.04447818  0.00197831
    Config     141  -0.08356009  0.00698229
    Config     151   0.05189557  0.00269315
    Config     185   0.04497314  0.00202258
    Config     200  -0.09842698  0.00968787
    Config     201  -0.04562414  0.00208156
    Config     203   0.06629705  0.00439530
    Config     206   0.13383349  0.01791140
    Config     208   0.06149793  0.00378200
    Config     225   0.04765927  0.00227141
    Config     226   0.04893964  0.00239509
    Config     228   0.04035033  0.00162815
    Config     233   0.09442359  0.00891581
    Config     235  -0.08282093  0.00685931
    Config     240   0.09683298  0.00937663
    Config     242  -0.04807357  0.00231107
    Config     247  -0.09234671  0.00852791
    Config     252  -0.05720959  0.00327294
    Config     255  -0.04149392  0.00172175
    Config     258   0.04116645  0.00169468
    Config     260   0.08083499  0.00653430
    Config     261  -0.09119231  0.00831604
    Config     268  -0.07010969  0.00491537
    Config     272   0.16477591  0.02715110
    Config     280   0.04265057  0.00181907
    Config     291   0.04162834  0.00173292
    Config     298  -0.04227187  0.00178691
    Config     299   0.04241720  0.00179922
    Config     313   0.04641066  0.00215395
    Config     317  -0.16442665  0.02703612
    Config     322   0.13853589  0.01919219
    Config     325   0.06703586  0.00449381
    Config     333   0.06386712  0.00407901
    Config     339   0.06546367  0.00428549
    Config     351  -0.10989378  0.01207664
    Config     354  -0.04586104  0.00210323
    Config     355  -0.08946083  0.00800324
    Config     356   0.05117889  0.00261928
    Config     361  -0.08579895  0.00736146
    Config     363   0.05269452  0.00277671
    Config     365   0.07138192  0.00509538
    Config     367   0.07417113  0.00550136
    Config     370  -0.05592105  0.00312716
    Config     375  -0.07997175  0.00639548
    Config     382  -0.05747289  0.00330313
    Config     385   0.06496883  0.00422095
    Config     387  -0.06960550  0.00484493
    Config     391   0.07721802  0.00596262
    Config     392   0.04164050  0.00173393
    Config     401  -0.04348066  0.00189057
    Config     405  -0.06838178  0.00467607
    Config     407   0.06399835  0.00409579
    Config     408   0.05280121  0.00278797
    Config     409   0.05250670  0.00275695
    Config     416   0.04066434  0.00165359
    Config     418   0.04652922  0.00216497
    Config     426   0.04783562  0.00228825
    Config     428   0.06290563  0.00395712
    Config     429   0.05259162  0.00276588
    Config     436   0.04059637  0.00164807
    Config     442  -0.05916750  0.00350079
    Config     454  -0.04116344  0.00169443
    Config     456   0.06988686  0.00488417
    Config     472   0.23964150  0.05742805
    Config     474   0.04454835  0.00198456
    Config     478  -0.05785884  0.00334765
    Config     483  -0.05117730  0.00261912
    Config     485  -0.21139748  0.04468889
    Config     486   0.18288340  0.03344634
    Config     494  -0.04193522  0.00175856
    Config     497  -0.13838689  0.01915093
    Config     498  -0.05232887  0.00273831
    Config     501   0.13805077  0.01905802
    Config     510  -0.04395605  0.00193213
    Config     514  -0.04361661  0.00190241
    Config     515   0.04322571  0.00186846
    Config     517  -0.05858032  0.00343165
    Config     519   0.07172656  0.00514470
    Config     521   0.09823918  0.00965094
    Config     522   0.06396957  0.00409211
    Config     525   0.04379387  0.00191790
    Config     533   0.10030273  0.01006064
    Config     545   0.04625988  0.00213998
    Config     547   0.04011145  0.00160893
    Config     550  -0.05677614  0.00322353
    Config     553  -0.08577024  0.00735653
    Config     556  -0.07867041  0.00618903
    Config     561  -0.11283722  0.01273224
    Config     567  -0.11363537  0.01291300
    Config     568  -0.16343290  0.02671031
    Config     571  -0.08605146  0.00740485
    Config     575  -0.04131065  0.00170657
    Config     577   0.04878006  0.00237949
    Config     587  -0.08544702  0.00730119
    Config     590  -0.05323307  0.00283376
    Config     610   0.05135812  0.00263766
    Config     612  -0.04478027  0.00200527
    Config     613   0.05185781  0.00268923
    Config     615   0.04358967  0.00190006
    Config     618   0.04050638  0.00164077
    Config     619   0.05650262  0.00319255
    Config     620   0.05589476  0.00312422
    Config     632  -0.10455655  0.01093207
    Config     636  -0.04880582  0.00238201
    Config     639  -0.08391978  0.00704253
    Config     686   0.06445620  0.00415460
    Config     698  -0.06581695  0.00433187
    Config     709  -0.04009992  0.00160800
    Config     711  -0.04932950  0.00243340
    Config     720  -0.05124012  0.00262555
    Config     749   0.05459733  0.00298087
    Config     751   0.05570075  0.00310257
    Config     774   0.04318787  0.00186519
    Config     775  -0.05468111  0.00299002
    Config     777   0.04979577  0.00247962
    Config     784  -0.04348458  0.00189091
    Config     809   0.04295966  0.00184553
    Config     942   0.06038500  0.00364635
    Config     986  -0.05202744  0.00270685
    Config    1076   0.04054973  0.00164428
    Config    1100   0.05104850  0.00260595
    Config    1186  -0.04430242  0.00196270
    Config    1269  -0.04001941  0.00160155
 Total coeff printed             0.73643778
  
State  497  9.5266     CI coeff  CI percent
    Config     281  -0.05246815  0.00275291
    Config     283  -0.11746358  0.01379769
    Config     308  -0.05383068  0.00289774
    Config     313   0.06412815  0.00411242
    Config     331   0.10821982  0.01171153
    Config     338   0.21045214  0.04429010
    Config     373  -0.08604612  0.00740393
    Config     420  -0.09826367  0.00965575
    Config     437  -0.12576063  0.01581574
    Config     446  -0.18676392  0.03488076
    Config     461  -0.23715471  0.05624236
    Config     489   0.05771282  0.00333077
    Config     494   0.43797849  0.19182516
    Config     567  -0.06171954  0.00380930
    Config     580  -0.71626530  0.51303597
    Config     617  -0.12058084  0.01453974
    Config     632   0.06531376  0.00426589
 Total coeff printed             0.93436776
  
State  498  9.5288     CI coeff  CI percent
    Config     188   0.04346637  0.00188933
    Config     208   0.04345194  0.00188807
    Config     217   0.04671007  0.00218183
    Config     224   0.07414296  0.00549718
    Config     228   0.06733395  0.00453386
    Config     233   0.05729750  0.00328300
    Config     238   0.04995790  0.00249579
    Config     244  -0.06252337  0.00390917
    Config     245  -0.04208929  0.00177151
    Config     252  -0.04456244  0.00198581
    Config     265   0.06081808  0.00369884
    Config     268   0.05323447  0.00283391
    Config     272  -0.10468036  0.01095798
    Config     280   0.05646337  0.00318811
    Config     282   0.08936401  0.00798593
    Config     287  -0.04190100  0.00175569
    Config     293  -0.05653597  0.00319632
    Config     297   0.07222835  0.00521693
    Config     315   0.07440256  0.00553574
    Config     316   0.04966566  0.00246668
    Config     323   0.04331174  0.00187591
    Config     325   0.08444817  0.00713149
    Config     326  -0.04961555  0.00246170
    Config     327  -0.07078392  0.00501036
    Config     339   0.05750353  0.00330666
    Config     351   0.11210335  0.01256716
    Config     353  -0.10990853  0.01207988
    Config     354  -0.05884405  0.00346262
    Config     367   0.07344243  0.00539379
    Config     369   0.05540975  0.00307024
    Config     389  -0.05821995  0.00338956
    Config     391  -0.06971172  0.00485972
    Config     392   0.06294413  0.00396196
    Config     401  -0.10443009  0.01090564
    Config     404  -0.07298874  0.00532736
    Config     405   0.06362451  0.00404808
    Config     407  -0.04005855  0.00160469
    Config     408  -0.04920284  0.00242092
    Config     412   0.04030443  0.00162445
    Config     414  -0.04289520  0.00184000
    Config     415  -0.07232853  0.00523142
    Config     417  -0.05697503  0.00324615
    Config     419   0.04530542  0.00205258
    Config     421   0.04009024  0.00160723
    Config     422   0.04459164  0.00198841
    Config     424  -0.07368538  0.00542954
    Config     454   0.09580368  0.00917834
    Config     457   0.07612267  0.00579466
    Config     466   0.04268773  0.00182224
    Config     481  -0.19292600  0.03722044
    Config     483   0.18416116  0.03391533
    Config     498  -0.04034532  0.00162774
    Config     503  -0.08466254  0.00716774
    Config     507   0.05258390  0.00276507
    Config     515  -0.10775984  0.01161218
    Config     525  -0.18503499  0.03423795
    Config     542   0.04854691  0.00235680
    Config     552  -0.05369254  0.00288289
    Config     553   0.06857607  0.00470268
    Config     555  -0.08372306  0.00700955
    Config     556   0.05593959  0.00312924
    Config     558  -0.05769951  0.00332923
    Config     561   0.05127280  0.00262890
    Config     572   0.06595934  0.00435064
    Config     575  -0.04842147  0.00234464
    Config     586  -0.04253623  0.00180933
    Config     589  -0.04388006  0.00192546
    Config     590   0.04106286  0.00168616
    Config     593   0.10184518  0.01037244
    Config     596   0.07635821  0.00583058
    Config     603   0.06345334  0.00402633
    Config     606  -0.06541871  0.00427961
    Config     612   0.07350378  0.00540281
    Config     616  -0.05060754  0.00256112
    Config     617   0.04126488  0.00170279
    Config     630  -0.13682174  0.01872019
    Config     634  -0.04380340  0.00191874
    Config     640  -0.05024319  0.00252438
    Config     643  -0.04816760  0.00232012
    Config     657   0.04175181  0.00174321
    Config     659  -0.04451208  0.00198133
    Config     671   0.04631411  0.00214500
    Config     675  -0.04943576  0.00244389
    Config     678   0.05247423  0.00275355
    Config     679  -0.04317864  0.00186439
    Config     681   0.07099955  0.00504094
    Config     688   0.07348161  0.00539955
    Config     698   0.06385529  0.00407750
    Config     702   0.04785504  0.00229011
    Config     707  -0.04163655  0.00173360
    Config     708  -0.04360447  0.00190135
    Config     732  -0.06309863  0.00398144
    Config     738  -0.10417680  0.01085281
    Config     751  -0.04606568  0.00212205
    Config     774   0.06139934  0.00376988
    Config     777   0.07239729  0.00524137
    Config     789   0.04203379  0.00176684
    Config     792  -0.06233807  0.00388604
    Config     816   0.07315799  0.00535209
    Config     828   0.04302749  0.00185136
    Config     830   0.05036465  0.00253660
    Config     860   0.16595993  0.02754270
    Config     869  -0.05519457  0.00304644
    Config     887  -0.04007588  0.00160608
    Config     891   0.07283901  0.00530552
    Config     894  -0.05454819  0.00297551
    Config     906  -0.04656348  0.00216816
    Config     918  -0.05637526  0.00317817
    Config     938  -0.04568891  0.00208748
    Config     948   0.06438270  0.00414513
    Config     986  -0.04297434  0.00184679
    Config     990   0.04053044  0.00164272
    Config    1013  -0.08179494  0.00669041
    Config    1027  -0.06267514  0.00392817
    Config    1029   0.04916498  0.00241720
    Config    1061  -0.08317028  0.00691729
    Config    1080   0.04973864  0.00247393
    Config    1081  -0.10617752  0.01127367
    Config    1100   0.05554265  0.00308499
    Config    1116  -0.04372231  0.00191164
    Config    1139  -0.04203568  0.00176700
    Config    1183  -0.04150518  0.00172268
    Config    1188   0.04598802  0.00211490
    Config    1191   0.05004090  0.00250409
    Config    1243  -0.04068511  0.00165528
    Config    1246   0.04152624  0.00172443
    Config    1260  -0.05187744  0.00269127
    Config    1272  -0.09838885  0.00968036
    Config    1275   0.04037126  0.00162984
    Config    1292   0.06027398  0.00363295
    Config    1339  -0.04103619  0.00168397
    Config    1360   0.04788842  0.00229330
    Config    1400   0.05559624  0.00309094
    Config    1424   0.09873247  0.00974810
    Config    1437   0.05247414  0.00275354
    Config    1539   0.04921818  0.00242243
    Config    1717   0.07148395  0.00510995
    Config    1740  -0.04181423  0.00174843
    Config    1886  -0.07822150  0.00611860
 Total coeff printed             0.66839446
  
State  499  9.5335     CI coeff  CI percent
    Config     272   0.08785938  0.00771927
    Config     293  -0.09568219  0.00915508
    Config     318   0.04441308  0.00197252
    Config     327   0.06198928  0.00384267
    Config     336  -0.04074532  0.00166018
    Config     340  -0.13399039  0.01795342
    Config     344  -0.04332720  0.00187725
    Config     351  -0.05830221  0.00339915
    Config     353  -0.04038285  0.00163077
    Config     401   0.05306384  0.00281577
    Config     415  -0.05284341  0.00279243
    Config     448  -0.04615663  0.00213043
    Config     470   0.05936508  0.00352421
    Config     481  -0.05241813  0.00274766
    Config     494   0.05044372  0.00254457
    Config     515   0.05355223  0.00286784
    Config     542   0.09750811  0.00950783
    Config     552  -0.09815824  0.00963504
    Config     553  -0.08600483  0.00739683
    Config     555  -0.16882561  0.02850209
    Config     556  -0.07102200  0.00504412
    Config     567  -0.04016007  0.00161283
    Config     571   0.56049768  0.31415765
    Config     580  -0.06842503  0.00468198
    Config     590  -0.18428198  0.03395985
    Config     609   0.05954269  0.00354533
    Config     613   0.19365808  0.03750345
    Config     616  -0.06340166  0.00401977
    Config     629  -0.19228853  0.03697488
    Config     653  -0.04596189  0.00211250
    Config     668   0.04961658  0.00246181
    Config     681   0.06331818  0.00400919
    Config     683   0.12264270  0.01504123
    Config     686  -0.04037231  0.00162992
    Config     688  -0.04261061  0.00181566
    Config     709  -0.07396848  0.00547134
    Config     712   0.04223123  0.00178348
    Config     723  -0.05531042  0.00305924
    Config     732  -0.10375094  0.01076426
    Config     734   0.35586626  0.12664079
    Config     747  -0.04676568  0.00218703
    Config     825   0.10988601  0.01207493
    Config     828   0.06811263  0.00463933
    Config     869   0.04414193  0.00194851
    Config     891   0.04115135  0.00169343
    Config     897  -0.05187864  0.00269139
    Config     906  -0.04284584  0.00183577
    Config     937   0.04486089  0.00201250
    Config    1097  -0.04231240  0.00179034
    Config    1169   0.08300584  0.00688997
    Config    1180   0.05286301  0.00279450
    Config    1221   0.05174743  0.00267780
    Config    1332  -0.04312961  0.00186016
    Config    1440   0.04481313  0.00200822
 Total coeff printed             0.78706819
  
State  500  9.5336     CI coeff  CI percent
    Config     197   0.04403425  0.00193901
    Config     226   0.04340832  0.00188428
    Config     231  -0.05965726  0.00355899
    Config     233  -0.06343659  0.00402420
    Config     238  -0.04343141  0.00188629
    Config     245   0.06673495  0.00445355
    Config     246   0.05527391  0.00305520
    Config     252   0.04711453  0.00221978
    Config     265   0.04011923  0.00160955
    Config     295   0.05864504  0.00343924
    Config     306  -0.06359447  0.00404426
    Config     317   0.05324414  0.00283494
    Config     327   0.05873883  0.00345025
    Config     351  -0.04695220  0.00220451
    Config     353  -0.07226909  0.00522282
    Config     360  -0.10433425  0.01088564
    Config     363   0.04030117  0.00162418
    Config     367  -0.08820577  0.00778026
    Config     369   0.05309435  0.00281901
    Config     375   0.05183210  0.00268657
    Config     415  -0.10152969  0.01030828
    Config     421   0.04750993  0.00225719
    Config     422  -0.06380579  0.00407118
    Config     434   0.04704942  0.00221365
    Config     454   0.04882457  0.00238384
    Config     457  -0.06591586  0.00434490
    Config     458  -0.04020737  0.00161663
    Config     472   0.04210518  0.00177285
    Config     481   0.04299960  0.00184897
    Config     501   0.05307883  0.00281736
    Config     513  -0.08632391  0.00745182
    Config     515   0.06431957  0.00413701
    Config     518   0.04463027  0.00199186
    Config     521  -0.04467210  0.00199560
    Config     542  -0.04817263  0.00232060
    Config     551   0.05870967  0.00344683
    Config     552   0.05969173  0.00356310
    Config     555  -0.50159996  0.25160252
    Config     561   0.06612097  0.00437198
    Config     567   0.10464724  0.01095104
    Config     571  -0.11514904  0.01325930
    Config     574  -0.09658201  0.00932809
    Config     579  -0.06424350  0.00412723
    Config     588  -0.05978232  0.00357393
    Config     590   0.08915156  0.00794800
    Config     591   0.04622767  0.00213700
    Config     593   0.10084119  0.01016895
    Config     603   0.05074750  0.00257531
    Config     609   0.06840031  0.00467860
    Config     612  -0.05491857  0.00301605
    Config     613  -0.10530480  0.01108910
    Config     616  -0.20526120  0.04213216
    Config     617  -0.08687468  0.00754721
    Config     624   0.04860339  0.00236229
    Config     629   0.04683583  0.00219359
    Config     630   0.05493412  0.00301776
    Config     647  -0.05048118  0.00254835
    Config     680   0.04443947  0.00197487
    Config     683  -0.08495424  0.00721722
    Config     686  -0.05310917  0.00282058
    Config     698  -0.04878283  0.00237976
    Config     699  -0.08678558  0.00753174
    Config     707   0.04106124  0.00168603
    Config     709   0.05497372  0.00302211
    Config     712  -0.04561397  0.00208063
    Config     720   0.05483806  0.00300721
    Config     731   0.04762949  0.00226857
    Config     732  -0.34060042  0.11600865
    Config     734  -0.09677897  0.00936617
    Config     747   0.10447340  0.01091469
    Config     757   0.06979396  0.00487120
    Config     780  -0.05238213  0.00274389
    Config     809  -0.04579107  0.00209682
    Config     831  -0.05639204  0.00318006
    Config     860   0.04213929  0.00177572
    Config     869   0.07554252  0.00570667
    Config     872   0.04694954  0.00220426
    Config     891  -0.07350300  0.00540269
    Config     897  -0.06713278  0.00450681
    Config    1038   0.04155996  0.00172723
    Config    1072   0.05197712  0.00270162
    Config    1097   0.04046780  0.00163764
    Config    1099   0.08343703  0.00696174
    Config    1162  -0.04122957  0.00169988
    Config    1236  -0.04094348  0.00167637
    Config    1243   0.05948834  0.00353886
    Config    1246   0.04092760  0.00167507
    Config    1271   0.06534563  0.00427005
    Config    1314  -0.04141249  0.00171499
    Config    1466   0.04346512  0.00188922
 Total coeff printed             0.76105167
  

 **********************
 *                    *
 * JOB ENDED NORMALLY *
 *                    *
 **********************



 TOTAL JOB TIME:           946.33 SECONDS

 == MOPAC DONE ==
