 *******************************************************************************
 ** Site#: 37966        For non-commercial use only           Version 21.186W **
 *******************************************************************************
 ** Cite this program as: MOPAC2016, Version: 21.186W, James J. P. Stewart,   **
 ** Stewart Computational Chemistry, web: HTTP://OpenMOPAC.net. Days left: 257**
 *******************************************************************************
 **                                                                           **
 **                                MOPAC2016                                  **
 **                                                                           **
 *******************************************************************************

                              INDO CALCULATION RESULTS

 *******************************************************************************
 *  CALCULATION DONE:                                Thu Oct 21 17:26:16 2021  *
 *  INDO       - The INDO Hamiltonian to be used
 *  CIS        - C.I. USES 1 ELECTRON EXCITATIONS ONLY
 *  EPS=8.93   - USE ANDREAS KLAMT'S COSMO IMPLICIT SOLVATION MODEL
 *  N**2=1.42  - USED IN COSMO-CI
 *  T=         - A TIME OF 172800.0 SECONDS REQUESTED
 *  DUMP=N     - RESTART FILE WRITTEN EVERY 7200.0 SECONDS REQUESTED
 *******************************************************************************
INDO CIS EPS=8.93 N**2=1.42
 Dye55
 Calculo de Estados Excitados
   ATOM   CHEMICAL          X               Y               Z
  NUMBER   SYMBOL      (ANGSTROMS)     (ANGSTROMS)     (ANGSTROMS)
 
     1       C          0.00000000  *   0.00000000  *   0.00000000  *
     2       C          1.51998115  *   0.00000000  *   0.00000000  *
     3       C          2.06106493  *   1.42757491  *   0.00000000  *
     4       C          3.58795047  *   1.42861940  *   0.00145541  *
     5       C          4.12683125  *   2.85746795  *   0.00113613  *
     6       C          5.65395440  *   2.85799697  *   0.00232717  *
     7       C          6.18688041  *   4.28816369  *   0.00059669  *
     8       C          7.71911780  *   4.26050857  *   0.00185710  *
     9       O          8.08435672  *   5.63635846  *  -0.00145457  *
    10       C          9.40075486  *   5.93606063  *   0.00992386  *
    11       N         10.31914085  *   4.93401281  *   0.00850032  *
    12       C         11.62650950  *   5.32103293  *   0.01997880  *
    13       C         12.03675936  *   6.65978424  *   0.02821914  *
    14       C         11.06868389  *   7.66192763  *   0.02878978  *
    15       C          9.71895251  *   7.31382499  *   0.02411944  *
    16       C          8.69986992  *   8.29358082  *   0.05224026  *
    17       N          7.85796759  *   9.08664866  *   0.07520451  *
    18       C         11.47765214  *   9.06493397  *   0.03438415  *
    19       C         12.38076170  *   9.49744201  *   1.01322322  *
    20       C         12.79207260  *  10.82134152  *   1.06076563  *
    21       C         12.29228571  *  11.70233687  *   0.11685385  *
    22       C         11.38599966  *  11.24854301  *  -0.88120915  *
    23       C         10.96683789  *   9.92276836  *  -0.93197588  *
    24       N         11.08909186  *  12.31342647  *  -1.76060733  *
    25       C          9.91211076  *  12.32912062  *  -2.63033839  *
    26       C          8.61528946  *  12.49368340  *  -1.84264395  *
    27       C         11.70337816  *  13.47179472  *  -1.23188111  *
    28       C         12.49346541  *  13.11087546  *  -0.10729859  *
    29       C         13.25937183  *  14.06360173  *   0.54518739  *
    30       C         13.22334363  *  15.36863299  *   0.07865361  *
    31       C         12.43634054  *  15.71903177  *  -1.02343330  *
    32       C         11.66601229  *  14.78407876  *  -1.69694093  *
    33       C         12.59511710  *   4.24407941  *   0.01823493  *
    34       C         12.35295457  *   2.95713795  *  -0.37831236  *
    35       C         13.51632037  *   2.13334273  *  -0.25509587  *
    36       C         14.58728076  *   2.83105054  *   0.23425598  *
    37       S         14.20722994  *   4.47098763  *   0.54323045  *
    38       C         15.89540262  *   2.31534638  *   0.48060267  *
    39       C         16.72745671  *   2.67509266  *   1.51402305  *
    40       C         17.96056925  *   1.97139256  *   1.46082938  *
    41       C         18.01665477  *   1.09903562  *   0.39287174  *
    42       S         16.59291435  *   1.14676376  *  -0.53320085  *
    43       C         19.16174905  *   0.28133440  *   0.13059895  *
    44       C         19.23358409  *  -0.71064398  *  -0.78191192  *
    45       C         20.48925053  *  -1.45770617  *  -0.93212631  *
    46       O         21.52249917  *  -1.28137158  *  -0.30187835  *
    47       O         20.44216763  *  -2.42224167  *  -1.87288464  *
    48       C         18.15488037  *  -1.09194073  *  -1.61589828  *
    49       N         17.28917552  *  -1.42473367  *  -2.30742903  *
    50       H         20.04790478  *   0.50449059  *   0.74917496  *
    51       H         -0.41714594  *   0.50633999  *   0.88242312  *
    52       H         -0.41709507  *   0.50630639  *  -0.88247403  *
    53       H         -0.40924692  *  -1.02066751  *  -0.00004289  *
    54       H          1.90228465  *  -0.56138199  *   0.87873515  *
    55       H          1.90225972  *  -0.56131776  *  -0.87879449  *
    56       H          1.67427245  *   1.98456787  *  -0.87948149  *
    57       H          1.67258354  *   1.98521060  *   0.87833360  *
    58       H          3.97304111  *   0.87085286  *   0.88121632  *
    59       H          3.97465979  *   0.86983257  *  -0.87696548  *
    60       H          3.74149791  *   3.41539496  *  -0.87846266  *
    61       H          3.74024808  *   3.41623961  *   0.87966369  *
    62       H          6.03937764  *   2.30192774  *   0.88323240  *
    63       H          6.04084433  *   2.29914696  *  -0.87616016  *
    64       H          5.80854631  *   4.85018636  *  -0.87945978  *
    65       H          5.80749435  *   4.85279903  *   0.87857047  *
    66       H          8.12488494  *   3.73894195  *   0.89746482  *
    67       H          8.12650094  *   3.73579128  *  -0.89111347  *
    68       H         13.09690073  *   6.92546828  *   0.01447913  *
    69       H         12.75419199  *   8.78775136  *   1.75709317  *
    70       H         13.49238182  *  11.16959884  *   1.82415794  *
    71       H         10.27776559  *   9.56830885  *  -1.70180373  *
    72       H         10.03116934  *  13.14323449  *  -3.38172634  *
    73       H          9.90033235  *  11.38531228  *  -3.22408061  *
    74       H          8.58789284  *  13.43360116  *  -1.27295711  *
    75       H          7.74254848  *  12.49855423  *  -2.51138866  *
    76       H          8.45747495  *  11.67864749  *  -1.11987148  *
    77       H         13.87199528  *  13.78350464  *   1.40565841  *
    78       H         13.81709498  *  16.13918052  *   0.57798169  *
    79       H         12.42901059  *  16.76023427  *  -1.36167839  *
    80       H         11.05840391  *  15.07430375  *  -2.55571759  *
    81       H         11.39784840  *   2.58354363  *  -0.74522057  *
    82       H         13.51901085  *   1.07757264  *  -0.51766492  *
    83       H         16.48694295  *   3.39790412  *   2.29000105  *
    84       H         18.75497094  *   2.11388034  *   2.19157506  *
    85       H         21.28903905  *  -2.88739372  *  -1.93687152  *
 


          CARTESIAN COORDINATES 

    NO.       ATOM           X           Y           Z

     1         C          0.0000      0.0000      0.0000
     2         C          1.5200      0.0000      0.0000
     3         C          2.0611      1.4276      0.0000
     4         C          3.5880      1.4286      0.0015
     5         C          4.1268      2.8575      0.0011
     6         C          5.6540      2.8580      0.0023
     7         C          6.1869      4.2882      0.0006
     8         C          7.7191      4.2605      0.0019
     9         O          8.0844      5.6364     -0.0015
    10         C          9.4008      5.9361      0.0099
    11         N         10.3191      4.9340      0.0085
    12         C         11.6265      5.3210      0.0200
    13         C         12.0368      6.6598      0.0282
    14         C         11.0687      7.6619      0.0288
    15         C          9.7190      7.3138      0.0241
    16         C          8.6999      8.2936      0.0522
    17         N          7.8580      9.0866      0.0752
    18         C         11.4777      9.0649      0.0344
    19         C         12.3808      9.4974      1.0132
    20         C         12.7921     10.8213      1.0608
    21         C         12.2923     11.7023      0.1169
    22         C         11.3860     11.2485     -0.8812
    23         C         10.9668      9.9228     -0.9320
    24         N         11.0891     12.3134     -1.7606
    25         C          9.9121     12.3291     -2.6303
    26         C          8.6153     12.4937     -1.8426
    27         C         11.7034     13.4718     -1.2319
    28         C         12.4935     13.1109     -0.1073
    29         C         13.2594     14.0636      0.5452
    30         C         13.2233     15.3686      0.0787
    31         C         12.4363     15.7190     -1.0234
    32         C         11.6660     14.7841     -1.6969
    33         C         12.5951      4.2441      0.0182
    34         C         12.3530      2.9571     -0.3783
    35         C         13.5163      2.1333     -0.2551
    36         C         14.5873      2.8311      0.2343
    37         S         14.2072      4.4710      0.5432
    38         C         15.8954      2.3153      0.4806
    39         C         16.7275      2.6751      1.5140
    40         C         17.9606      1.9714      1.4608
    41         C         18.0167      1.0990      0.3929
    42         S         16.5929      1.1468     -0.5332
    43         C         19.1617      0.2813      0.1306
    44         C         19.2336     -0.7106     -0.7819
    45         C         20.4893     -1.4577     -0.9321
    46         O         21.5225     -1.2814     -0.3019
    47         O         20.4422     -2.4222     -1.8729
    48         C         18.1549     -1.0919     -1.6159
    49         N         17.2892     -1.4247     -2.3074
    50         H         20.0479      0.5045      0.7492
    51         H         -0.4171      0.5063      0.8824
    52         H         -0.4171      0.5063     -0.8825
    53         H         -0.4092     -1.0207     -0.0000
    54         H          1.9023     -0.5614      0.8787
    55         H          1.9023     -0.5613     -0.8788
    56         H          1.6743      1.9846     -0.8795
    57         H          1.6726      1.9852      0.8783
    58         H          3.9730      0.8709      0.8812
    59         H          3.9747      0.8698     -0.8770
    60         H          3.7415      3.4154     -0.8785
    61         H          3.7402      3.4162      0.8797
    62         H          6.0394      2.3019      0.8832
    63         H          6.0408      2.2991     -0.8762
    64         H          5.8085      4.8502     -0.8795
    65         H          5.8075      4.8528      0.8786
    66         H          8.1249      3.7389      0.8975
    67         H          8.1265      3.7358     -0.8911
    68         H         13.0969      6.9255      0.0145
    69         H         12.7542      8.7878      1.7571
    70         H         13.4924     11.1696      1.8242
    71         H         10.2778      9.5683     -1.7018
    72         H         10.0312     13.1432     -3.3817
    73         H          9.9003     11.3853     -3.2241
    74         H          8.5879     13.4336     -1.2730
    75         H          7.7425     12.4986     -2.5114
    76         H          8.4575     11.6786     -1.1199
    77         H         13.8720     13.7835      1.4057
    78         H         13.8171     16.1392      0.5780
    79         H         12.4290     16.7602     -1.3617
    80         H         11.0584     15.0743     -2.5557
    81         H         11.3978      2.5835     -0.7452
    82         H         13.5190      1.0776     -0.5177
    83         H         16.4869      3.3979      2.2900
    84         H         18.7550      2.1139      2.1916
    85         H         21.2890     -2.8874     -1.9369

           Empirical Formula: C40 H36 N4 O3 S2  =    85 atoms



      MOLECULAR POINT GROUP   :   C1  


      RHF CALCULATION, NO. OF DOUBLY OCCUPIED LEVELS = 123

 WARNING: INDO only performs single-point calculations


 ALL CONVERGERS ARE NOW FORCED ON
 SHIFT=10, PULAY ON, CAMP-KING ON
 AND ITERATION COUNTER RESET



 Summary of symmetry occupancy in each shell:

 SHELL     
    1  123
    v  109
 TOTAL 232




    ROOT NO.    1           2           3           4           5           6

           -48.54764   -47.85217   -46.76149   -44.90857   -43.56612   -43.09297
  
  
  S  C   1   0.00017     0.00173    -0.00001     0.01067     0.00116     0.04125
 PX  C   1   0.00008     0.00075    -0.00000     0.00426     0.00044     0.01531
 PY  C   1   0.00003     0.00026    -0.00000     0.00131     0.00013     0.00429
 PZ  C   1   0.00000     0.00000    -0.00000     0.00000     0.00000     0.00000
  
  S  C   2   0.00040     0.00392    -0.00001     0.02064     0.00205     0.07076
 PX  C   2   0.00009     0.00077    -0.00000     0.00261     0.00017     0.00487
 PY  C   2   0.00013     0.00126    -0.00000     0.00585     0.00053     0.01776
 PZ  C   2   0.00000     0.00000    -0.00000     0.00000     0.00000     0.00000
  
  S  C   3   0.00086     0.00797    -0.00003     0.03373     0.00293     0.09614
 PX  C   3   0.00030     0.00272    -0.00001     0.00866     0.00059     0.01689
 PY  C   3   0.00006     0.00043    -0.00000    -0.00044    -0.00017    -0.00722
 PZ  C   3   0.00000     0.00000    -0.00000     0.00001     0.00000     0.00002
  
  S  C   4   0.00175     0.01554    -0.00005     0.05073     0.00371     0.11202
 PX  C   4   0.00031     0.00252    -0.00001     0.00299    -0.00006    -0.00608
 PY  C   4   0.00053     0.00460    -0.00001     0.01184     0.00068     0.01798
 PZ  C   4  -0.00000    -0.00000     0.00000    -0.00001    -0.00000    -0.00002
  
  S  C   5   0.00353     0.02991    -0.00009     0.07400     0.00432     0.11793
 PX  C   5   0.00120     0.00973    -0.00003     0.01686     0.00062     0.01105
 PY  C   5   0.00019     0.00125    -0.00000    -0.00242    -0.00045    -0.01557
 PZ  C   5   0.00000     0.00000    -0.00000     0.00001    -0.00000     0.00001
  
  S  C   6   0.00722     0.05814    -0.00015     0.10627     0.00490     0.11281
 PX  C   6   0.00127     0.00921    -0.00002     0.00464    -0.00021    -0.01473
 PY  C   6   0.00219     0.01712    -0.00004     0.02425     0.00071     0.01253
 PZ  C   6  -0.00000    -0.00001     0.00000    -0.00003    -0.00001    -0.00003
  
  S  C   7   0.01637     0.12505    -0.00030     0.16503     0.00491     0.10068
 PX  C   7   0.00698     0.05099    -0.00011     0.04676     0.00063     0.00361
 PY  C   7   0.00172     0.01153    -0.00002     0.00134    -0.00089    -0.01685
 PZ  C   7   0.00001     0.00004    -0.00000     0.00004    -0.00001     0.00002
  
  S  C   8   0.03755     0.27157    -0.00059     0.25315     0.00645     0.07692
 PX  C   8   0.00727     0.04698    -0.00007     0.00761     0.00077    -0.02258
 PY  C   8   0.01844     0.13132    -0.00028     0.10846     0.00035     0.01513
 PZ  C   8  -0.00001    -0.00006    -0.00000    -0.00015    -0.00006    -0.00007
  
  S  O   9   0.07448     0.51899    -0.00110     0.40677    -0.00226     0.07506
 PX  O   9   0.01604     0.10356    -0.00019     0.04143    -0.00212    -0.00921
 PY  O   9  -0.00988    -0.07812     0.00018    -0.08578    -0.00573    -0.02011
 PZ  O   9   0.00021     0.00149    -0.00000     0.00095    -0.00005     0.00010
  
  S  C  10   0.07531     0.42924    -0.00059    -0.00586    -0.00551    -0.07987
 PX  C  10  -0.00025    -0.05116     0.00031    -0.23638     0.00665    -0.09105
 PY  C  10  -0.00482    -0.06244     0.00011    -0.06574    -0.02279     0.01460
 PZ  C  10  -0.00010    -0.00051     0.00000    -0.00155    -0.00015    -0.00053
  
  S  N  11   0.06009     0.32754    -0.00010    -0.20371     0.05162    -0.18420
 PX  N  11  -0.00141    -0.02773     0.00024    -0.11121     0.02300    -0.04555
 PY  N  11   0.02188     0.11136    -0.00010    -0.08251    -0.00209    -0.05967
 PZ  N  11   0.00009     0.00041    -0.00000    -0.00062    -0.00058    -0.00030
  
  S  C  12   0.04593     0.21467     0.00036    -0.28739     0.07980    -0.17064
 PX  C  12  -0.01616    -0.08563     0.00017     0.06228     0.01362     0.05483
 PY  C  12   0.00931     0.02901    -0.00019    -0.03875    -0.04319    -0.00081
 PZ  C  12  -0.00012    -0.00089    -0.00001     0.00102    -0.00151     0.00122
  
  S  C  13   0.04930     0.16054     0.00010    -0.26534    -0.01674    -0.06304
 PX  C  13  -0.01803    -0.07250     0.00004     0.09297     0.01338     0.03635
 PY  C  13   0.00452    -0.02189    -0.00008     0.01120    -0.04403     0.06171
 PZ  C  13   0.00021    -0.00033    -0.00000    -0.00036    -0.00101     0.00171
  
  S  C  14   0.07747     0.17728    -0.00006    -0.30404    -0.10472     0.03881
 PX  C  14  -0.00228    -0.02865     0.00005     0.00677     0.00023     0.01923
 PY  C  14   0.00525    -0.05898     0.00000     0.04262    -0.03720     0.10051
 PZ  C  14  -0.00050    -0.00044     0.00000     0.00006    -0.00009     0.00043
  
  S  C  15   0.06509     0.24002    -0.00024    -0.18460    -0.06675    -0.01580
 PX  C  15   0.01113     0.01115     0.00008    -0.11455    -0.01448    -0.01844
 PY  C  15  -0.00588    -0.08231     0.00009    -0.00166    -0.02368     0.06027
 PZ  C  15  -0.00073    -0.00057     0.00000     0.00047     0.00051    -0.00084
  
  S  C  16   0.03482     0.09601    -0.00014    -0.05986    -0.05521     0.04635
 PX  C  16   0.01197     0.02650    -0.00002    -0.04045    -0.01648     0.00712
 PY  C  16  -0.00474    -0.04488     0.00007    -0.00296    -0.00006     0.01206
 PZ  C  16  -0.00176    -0.00126     0.00000     0.00169     0.00157    -0.00213
  
  S  N  17   0.01492     0.02776    -0.00005    -0.02099    -0.02904     0.03398
 PX  N  17   0.00730     0.01128    -0.00002    -0.01321    -0.01380     0.01592
 PY  N  17  -0.00361    -0.01416     0.00003     0.00295     0.00866    -0.00929
 PZ  N  17  -0.00113    -0.00041     0.00000     0.00076     0.00088    -0.00130
  
  S  C  18   0.12741     0.05885    -0.00002    -0.22300    -0.17729     0.25871
 PX  C  18   0.00561    -0.01077     0.00001     0.00651    -0.00433     0.02003
 PY  C  18   0.03668    -0.03003     0.00000     0.02251    -0.02424     0.07592
 PZ  C  18  -0.00480     0.00021     0.00000    -0.00127    -0.00030     0.00076
  
  S  C  19   0.10589     0.02117    -0.00001    -0.14410    -0.14008     0.23304
 PX  C  19  -0.01920    -0.00755     0.00000     0.03242     0.02708    -0.04009
 PY  C  19   0.02856    -0.01275    -0.00000     0.00381    -0.01930     0.04947
 PZ  C  19  -0.03450    -0.00532     0.00000     0.04118     0.04063    -0.06753
  
  S  C  20   0.13026    -0.00702    -0.00000    -0.08363    -0.10727     0.19795
 PX  C  20  -0.03772     0.00159     0.00000     0.02478     0.03134    -0.05796
 PY  C  20   0.00926    -0.00868     0.00000     0.02744     0.02618    -0.04402
 PZ  C  20  -0.05085     0.00507     0.00000     0.02175     0.03018    -0.05745
  
  S  C  21   0.30166    -0.04971     0.00001    -0.03359    -0.06739     0.13851
 PX  C  21  -0.06091     0.01092    -0.00000     0.00053     0.00699    -0.01955
 PY  C  21   0.03375    -0.01728     0.00001     0.05488     0.06361    -0.11723
 PZ  C  21  -0.08905     0.02000    -0.00000    -0.01864    -0.01349     0.01624
  
  S  C  22   0.37064    -0.06065     0.00001    -0.02962    -0.06917     0.15675
 PX  C  22   0.02133    -0.00331     0.00000    -0.00829    -0.01232     0.02179
 PY  C  22   0.11854    -0.03688     0.00001     0.06441     0.05939    -0.09154
 PZ  C  22  -0.01393     0.00913    -0.00000    -0.03370    -0.03690     0.06029
  
  S  C  23   0.16811     0.01069    -0.00002    -0.12740    -0.13133     0.22236
 PX  C  23   0.03138    -0.00244     0.00000    -0.02385    -0.03030     0.05706
 PY  C  23   0.05716    -0.02693     0.00001     0.03409     0.01080     0.00588
 PZ  C  23   0.02238     0.00901    -0.00000    -0.04631    -0.04546     0.07321
  
  S  N  24   0.46539    -0.10103     0.00002     0.08043     0.04913    -0.03995
 PX  N  24   0.02880    -0.00624     0.00000     0.00243     0.00109    -0.00441
 PY  N  24   0.00838    -0.00431     0.00000     0.01506     0.02063    -0.04222
 PZ  N  24   0.09930    -0.02086     0.00000     0.01083     0.00276     0.00210
  
  S  C  25   0.20069    -0.04362     0.00001     0.03968     0.02701    -0.02176
 PX  C  25   0.06384    -0.01416     0.00000     0.01241     0.00830    -0.00811
 PY  C  25   0.00097    -0.00135     0.00000     0.00518     0.00679    -0.01348
 PZ  C  25   0.07525    -0.01629     0.00000     0.01347     0.00805    -0.00502
  
  S  C  26   0.10115    -0.02166     0.00000     0.01995     0.01351    -0.00938
 PX  C  26   0.05209    -0.01135     0.00000     0.01016     0.00676    -0.00530
 PY  C  26  -0.00539     0.00056     0.00000     0.00123     0.00214    -0.00490
 PZ  C  26  -0.00387     0.00108    -0.00000    -0.00189    -0.00179     0.00213
  
  S  C  27   0.35769    -0.08128     0.00002     0.08678     0.09009    -0.17138
 PX  C  27  -0.01298     0.00258    -0.00000     0.00060     0.00840    -0.03052
 PY  C  27  -0.12401     0.02570    -0.00000    -0.00839     0.01344    -0.05580
 PZ  C  27   0.02349    -0.00496     0.00000     0.00340     0.00614    -0.01994
  
  S  C  28   0.29447    -0.06459     0.00001     0.05707     0.06032    -0.12846
 PX  C  28  -0.07163     0.01546    -0.00000    -0.01055    -0.00417    -0.00148
 PY  C  28  -0.04693     0.00681    -0.00000     0.01701     0.03800    -0.09557
 PZ  C  28  -0.07539     0.01742    -0.00000    -0.01920    -0.01809     0.03017
  
  S  C  29   0.12032    -0.02857     0.00001     0.04216     0.06514    -0.16047
 PX  C  29  -0.03858     0.00910    -0.00000    -0.01231    -0.01696     0.03927
 PY  C  29  -0.01622     0.00279    -0.00000     0.00405     0.01114    -0.02928
 PZ  C  29  -0.04322     0.01054    -0.00000    -0.01683    -0.02497     0.05894
  
  S  C  30   0.08655    -0.02185     0.00001     0.04240     0.07171    -0.17889
 PX  C  30  -0.02293     0.00576    -0.00000    -0.01069    -0.01715     0.04154
 PY  C  30  -0.03316     0.00814    -0.00000    -0.01342    -0.02074     0.05021
 PZ  C  30  -0.01819     0.00464    -0.00000    -0.00914    -0.01490     0.03608
  
  S  C  31   0.08970    -0.02277     0.00001     0.04488     0.07479    -0.18388
 PX  C  31  -0.00334     0.00079    -0.00000    -0.00096    -0.00058    -0.00004
 PY  C  31  -0.04425     0.01102    -0.00000    -0.01942    -0.03005     0.07161
 PZ  C  31   0.01005    -0.00255     0.00000     0.00502     0.00888    -0.02290
  
  S  C  32   0.14428    -0.03512     0.00001     0.05608     0.08011    -0.18188
 PX  C  32   0.01214    -0.00329     0.00000     0.00817     0.01569    -0.04135
 PY  C  32  -0.05943     0.01364    -0.00000    -0.01448    -0.01280     0.01975
 PZ  C  32   0.03540    -0.00875     0.00000     0.01515     0.02401    -0.05849
  
  S  C  33   0.01586     0.07895     0.00141    -0.16478     0.20686    -0.08047
 PX  C  33  -0.00539    -0.02755     0.00036     0.02736     0.03052     0.03204
 PY  C  33   0.00387     0.01543    -0.00051    -0.01103    -0.06368    -0.01619
 PZ  C  33  -0.00032    -0.00201    -0.00002     0.00379    -0.00620     0.00294
  
  S  C  34   0.00805     0.04377     0.00158    -0.11030     0.21619    -0.04216
 PX  C  34  -0.00015    -0.00069     0.00069    -0.01963     0.07762     0.00578
 PY  C  34   0.00350     0.01820     0.00014    -0.03413     0.03138    -0.02249
 PZ  C  34   0.00096     0.00519     0.00024    -0.01491     0.03080    -0.00475
  
  S  C  35   0.00367     0.02076     0.00271    -0.08019     0.24057     0.00652
 PX  C  35  -0.00046    -0.00256     0.00078     0.00224     0.02010     0.01831
 PY  C  35   0.00172     0.00956     0.00064    -0.03402     0.08549    -0.00723
 PZ  C  35   0.00032     0.00180     0.00041    -0.00816     0.02796     0.00341
  
  S  C  36   0.00315     0.01772     0.00532    -0.07824     0.29174     0.05315
 PX  C  36  -0.00135    -0.00741     0.00160     0.02441    -0.02370     0.03781
 PY  C  36   0.00040     0.00199    -0.00075    -0.00472    -0.00876    -0.01522
 PZ  C  36  -0.00029    -0.00160     0.00039     0.00567    -0.00660     0.00860
  
  S  S  37   0.00526     0.02523     0.00204    -0.07906     0.17576    -0.00499
 PX  S  37  -0.00290    -0.01360     0.00012     0.03515    -0.03908     0.02313
 PY  S  37  -0.00031    -0.00390    -0.00121     0.02299    -0.09491    -0.00986
 PZ  S  37  -0.00105    -0.00515    -0.00023     0.01676    -0.03419     0.00490
  
  S  C  38   0.00097     0.00585     0.01472    -0.04201     0.32939     0.17744
 PX  C  38  -0.00038    -0.00211     0.00568     0.00549     0.04757     0.05957
 PY  C  38   0.00013     0.00076    -0.00191    -0.00255    -0.00771    -0.01458
 PZ  C  38  -0.00005    -0.00028     0.00156    -0.00045     0.02643     0.02275
  
  S  C  39   0.00043     0.00274     0.01566    -0.02745     0.29090     0.18555
 PX  C  39  -0.00011    -0.00067     0.00242     0.00250     0.00967     0.01731
 PY  C  39  -0.00005    -0.00034    -0.00507     0.00540    -0.07401    -0.05233
 PZ  C  39  -0.00013    -0.00086    -0.00477     0.00854    -0.08782    -0.05500
  
  S  C  40   0.00022     0.00151     0.02470    -0.02108     0.27753     0.19434
 PX  C  40  -0.00009    -0.00059    -0.00158     0.00708    -0.08176    -0.05372
 PY  C  40  -0.00000    -0.00001    -0.00545     0.00085    -0.01764    -0.01432
 PZ  C  40  -0.00006    -0.00041    -0.00789     0.00588    -0.07803    -0.05477
  
  S  C  41   0.00020     0.00136     0.04751    -0.01983     0.27478     0.19701
 PX  C  41  -0.00006    -0.00042     0.00891     0.00486    -0.05131    -0.03184
 PY  C  41   0.00005     0.00036    -0.00880    -0.00475     0.05532     0.03617
 PZ  C  41   0.00003     0.00018    -0.00397    -0.00276     0.03562     0.02450
  
  S  S  42   0.00034     0.00215     0.02235    -0.02104     0.22322     0.14317
 PX  S  42  -0.00009    -0.00049     0.01025     0.00065     0.03148     0.03216
 PY  S  42   0.00014     0.00086    -0.00049    -0.00752     0.06815     0.03962
 PZ  S  42   0.00013     0.00085     0.00721    -0.00969     0.11174     0.07394
  
  S  C  43   0.00006     0.00048     0.11279    -0.00757     0.12996     0.10118
 PX  C  43  -0.00002    -0.00015     0.01586     0.00291    -0.04219    -0.03085
 PY  C  43   0.00001     0.00009    -0.03728    -0.00194     0.02390     0.01610
 PZ  C  43   0.00000     0.00003    -0.02824    -0.00064     0.00509     0.00239
  
  S  C  44   0.00003     0.00030     0.22562    -0.00265     0.06234     0.05246
 PX  C  44  -0.00000    -0.00000     0.07047     0.00142    -0.02042    -0.01535
 PY  C  44   0.00001     0.00004    -0.04763    -0.00169     0.02652     0.02043
 PZ  C  44   0.00000     0.00003    -0.01365    -0.00099     0.01633     0.01274
  
  S  C  45   0.00003     0.00031     0.51362     0.00293    -0.02251    -0.01328
 PX  C  45   0.00000     0.00003     0.09312     0.00134    -0.01949    -0.01497
 PY  C  45  -0.00000    -0.00002    -0.09323    -0.00152     0.02467     0.01992
 PZ  C  45  -0.00000    -0.00001    -0.04731    -0.00086     0.01488     0.01235
  
  S  O  46   0.00002     0.00023     0.41177     0.00264    -0.02202    -0.01322
 PX  O  46  -0.00001    -0.00008    -0.13616    -0.00074     0.00464     0.00217
 PY  O  46  -0.00000    -0.00002    -0.04373    -0.00052     0.00747     0.00581
 PZ  O  46  -0.00000    -0.00005    -0.10259    -0.00083     0.00922     0.00652
  
  S  O  47   0.00002     0.00028     0.57421     0.00508    -0.06374    -0.04809
 PX  O  47   0.00000     0.00004     0.08302     0.00089    -0.01254    -0.00977
 PY  O  47   0.00000     0.00005     0.08820     0.00062    -0.00613    -0.00416
 PZ  O  47   0.00000     0.00006     0.12136     0.00099    -0.01146    -0.00834
  
  S  C  48   0.00002     0.00017     0.11220    -0.00192     0.04371     0.03697
 PX  C  48   0.00000     0.00004     0.05099     0.00011     0.00057     0.00069
 PY  C  48   0.00000     0.00003    -0.00338    -0.00071     0.01216     0.00947
 PZ  C  48   0.00001     0.00005     0.01924    -0.00064     0.01177     0.00925
  
  S  N  49   0.00001     0.00007     0.03922    -0.00092     0.02174     0.01891
 PX  N  49   0.00000     0.00003     0.02087    -0.00028     0.00727     0.00639
 PY  N  49   0.00000     0.00001     0.00372    -0.00024     0.00520     0.00440
 PZ  N  49   0.00000     0.00002     0.01264    -0.00036     0.00815     0.00696
  
  S  H  50   0.00002     0.00018     0.05223    -0.00274     0.04785     0.03742
  
  S  H  51   0.00008     0.00076    -0.00000     0.00460     0.00050     0.01769
  
  S  H  52   0.00008     0.00076    -0.00000     0.00460     0.00050     0.01769
  
  S  H  53   0.00005     0.00054    -0.00000     0.00354     0.00040     0.01428
  
  S  H  54   0.00018     0.00171    -0.00001     0.00878     0.00086     0.02963
  
  S  H  55   0.00018     0.00171    -0.00001     0.00878     0.00086     0.02963
  
  S  H  56   0.00038     0.00349    -0.00001     0.01441     0.00124     0.04048
  
  S  H  57   0.00038     0.00349    -0.00001     0.01441     0.00124     0.04048
  
  S  H  58   0.00077     0.00679    -0.00002     0.02165     0.00157     0.04713
  
  S  H  59   0.00077     0.00679    -0.00002     0.02165     0.00157     0.04713
  
  S  H  60   0.00156     0.01313    -0.00004     0.03169     0.00182     0.04968
  
  S  H  61   0.00156     0.01312    -0.00004     0.03169     0.00182     0.04967
  
  S  H  62   0.00317     0.02540    -0.00007     0.04508     0.00212     0.04727
  
  S  H  63   0.00317     0.02539    -0.00007     0.04507     0.00213     0.04727
  
  S  H  64   0.00695     0.05293    -0.00013     0.06940     0.00191     0.04228
  
  S  H  65   0.00696     0.05296    -0.00013     0.06942     0.00190     0.04227
  
  S  H  66   0.01425     0.10188    -0.00021     0.08852     0.00355     0.02630
  
  S  H  67   0.01422     0.10171    -0.00021     0.08842     0.00370     0.02630
  
  S  H  68   0.01686     0.04059     0.00007    -0.08442    -0.00704    -0.00295
  
  S  H  69   0.02737     0.01302     0.00000    -0.05426    -0.04296     0.06552
  
  S  H  70   0.03508    -0.00261     0.00000    -0.02023    -0.02656     0.04872
  
  S  H  71   0.05750     0.00916    -0.00001    -0.04524    -0.04050     0.06281
  
  S  H  72   0.07130    -0.01600     0.00000     0.01685     0.01366    -0.01617
  
  S  H  73   0.07175    -0.01456     0.00000     0.01069     0.00565    -0.00015
  
  S  H  74   0.04593    -0.01008     0.00000     0.01000     0.00755    -0.00761
  
  S  H  75   0.02809    -0.00601     0.00000     0.00587     0.00416    -0.00292
  
  S  H  76   0.04810    -0.00918     0.00000     0.00592     0.00252     0.00186
  
  S  H  77   0.03296    -0.00749     0.00000     0.00929     0.01474    -0.03812
  
  S  H  78   0.01973    -0.00506     0.00000     0.01073     0.01916    -0.04884
  
  S  H  79   0.02065    -0.00534     0.00000     0.01157     0.02024    -0.05062
  
  S  H  80   0.04684    -0.01133     0.00000     0.01751     0.02361    -0.05110
  
  S  H  81   0.00364     0.02014     0.00039    -0.03684     0.06018    -0.01935
  
  S  H  82   0.00090     0.00516     0.00103    -0.02133     0.07248     0.00693
  
  S  H  83   0.00017     0.00106     0.00392    -0.00904     0.08471     0.05093
  
  S  H  84   0.00005     0.00037     0.00878    -0.00555     0.07687     0.05499
  
  S  H  85   0.00001     0.00012     0.24193     0.00221    -0.02838    -0.02155




    ROOT NO.    7           8           9          10          11          12

           -42.65819   -42.20649   -41.83231   -39.75178   -39.65817   -39.24808
  
  
  S  C   1   0.16524     0.01536    -0.04798     0.26860    -0.10279    -0.04381
 PX  C   1   0.06007     0.00546    -0.01671     0.08135    -0.03090    -0.01271
 PY  C   1   0.01636     0.00144    -0.00428     0.01666    -0.00624    -0.00240
 PZ  C   1   0.00000     0.00000    -0.00000    -0.00000     0.00000     0.00000
  
  S  C   2   0.27451     0.02464    -0.07470     0.34494    -0.13071    -0.05328
 PX  C   2   0.01448     0.00086    -0.00145    -0.03014     0.01218     0.00638
 PY  C   2   0.06638     0.00571    -0.01662     0.05498    -0.02038    -0.00745
 PZ  C   2   0.00002     0.00000    -0.00000     0.00000    -0.00000    -0.00000
  
  S  C   3   0.35373     0.02991    -0.08593     0.26351    -0.09736    -0.03512
 PX  C   3   0.05322     0.00361    -0.00800    -0.04216     0.01738     0.00961
 PY  C   3  -0.03325    -0.00346     0.01171    -0.08340     0.03208     0.01392
 PZ  C   3   0.00007     0.00001    -0.00001     0.00001    -0.00000     0.00000
  
  S  C   4   0.37918     0.02895    -0.07521     0.04193    -0.01097     0.00416
 PX  C   4  -0.03588    -0.00426     0.01523    -0.10574     0.04026     0.01652
 PY  C   4   0.05071     0.00287    -0.00464    -0.06408     0.02544     0.01231
 PZ  C   4  -0.00007    -0.00001     0.00002    -0.00006     0.00002     0.00001
  
  S  C   5   0.35077     0.02231    -0.04618    -0.20006     0.08083     0.04119
 PX  C   5   0.01131    -0.00149     0.00979    -0.10360     0.03912     0.01525
 PY  C   5  -0.06202    -0.00549     0.01615    -0.02976     0.01014     0.00209
 PZ  C   5   0.00003     0.00000    -0.00000    -0.00005     0.00002     0.00001
  
  S  C   6   0.27185     0.01112    -0.00594    -0.34068     0.13057     0.05384
 PX  C   6  -0.06480    -0.00607     0.01724     0.00966    -0.00591    -0.00688
 PY  C   6   0.00911    -0.00191     0.01108    -0.06398     0.02314     0.00730
 PZ  C   6  -0.00008     0.00000    -0.00001     0.00010    -0.00004    -0.00001
  
  S  C   7   0.14725    -0.00296     0.04073    -0.30048     0.10945     0.03682
 PX  C   7  -0.04279    -0.00653     0.02287     0.02337    -0.01212    -0.01039
 PY  C   7  -0.06036    -0.00372     0.00834     0.08173    -0.03200    -0.01291
 PZ  C   7   0.00004     0.00001    -0.00001    -0.00009     0.00004     0.00002
  
  S  C   8  -0.00028    -0.01828     0.07671    -0.11051     0.03065    -0.01293
 PX  C   8  -0.05630    -0.00374    -0.00133     0.10344    -0.04060    -0.02500
 PY  C   8  -0.05933    -0.00890     0.03486     0.06713    -0.02883    -0.01368
 PZ  C   8  -0.00001     0.00008    -0.00017     0.00006     0.00001     0.00003
  
  S  O   9  -0.16082    -0.02355     0.11516     0.15711    -0.06359    -0.00012
 PX  O   9  -0.04403     0.00008    -0.00162     0.08000    -0.02717    -0.00101
 PY  O   9   0.01166     0.01150    -0.03110     0.02405     0.00055     0.03562
 PZ  O   9  -0.00051     0.00004     0.00014     0.00069    -0.00020     0.00022
  
  S  C  10  -0.05694     0.01480    -0.08268     0.09343    -0.02623    -0.02798
 PX  C  10   0.08184     0.01400    -0.11007    -0.09614     0.03377    -0.05904
 PY  C  10   0.01092     0.02633    -0.01552     0.00967     0.01888     0.11250
 PZ  C  10   0.00049     0.00046    -0.00088    -0.00049     0.00035     0.00027
  
  S  N  11   0.04673    -0.02721    -0.13702    -0.04819    -0.01292    -0.21414
 PX  N  11   0.04688    -0.01526    -0.02154    -0.04988     0.00761    -0.03496
 PY  N  11   0.01025     0.01285    -0.07342    -0.00862     0.00488    -0.04296
 PZ  N  11  -0.00004     0.00073    -0.00132    -0.00019     0.00033    -0.00015
  
  S  C  12   0.09493    -0.05334    -0.07439    -0.09133    -0.00335    -0.15441
 PX  C  12  -0.00576    -0.02205     0.08901     0.01369    -0.00786     0.05846
 PY  C  12  -0.00627     0.04756    -0.06397    -0.00347     0.02144     0.03458
 PZ  C  12  -0.00074     0.00151    -0.00081     0.00032     0.00052     0.00128
  
  S  C  13   0.05683     0.03405    -0.07513    -0.06380     0.02961     0.00923
 PX  C  13  -0.01452    -0.02263     0.06103     0.01413    -0.01451    -0.00603
 PY  C  13  -0.01983     0.03740     0.01869     0.01837     0.01132     0.07879
 PZ  C  13  -0.00024     0.00101     0.00151    -0.00008    -0.00005    -0.00022
  
  S  C  14   0.02442     0.10761    -0.06075    -0.01684     0.05294     0.19324
 PX  C  14   0.00445    -0.00386     0.03023    -0.02243    -0.00388    -0.04881
 PY  C  14  -0.02411     0.01612     0.08337     0.02288    -0.00359     0.06489
 PZ  C  14   0.00022     0.00139     0.00208    -0.00107    -0.00053    -0.00508
  
  S  C  15  -0.01146     0.07642    -0.09198     0.06459     0.02975     0.22205
 PX  C  15   0.03154     0.02117    -0.03927    -0.04992     0.02062    -0.01729
 PY  C  15   0.00049     0.01390     0.04198     0.00092     0.01230     0.09974
 PZ  C  15   0.00026     0.00041     0.00010    -0.00024    -0.00010    -0.00117
  
  S  C  16  -0.02853     0.04824    -0.01120     0.10170     0.02175     0.34469
 PX  C  16   0.00169     0.01602    -0.00863    -0.00955     0.00501    -0.01714
 PY  C  16   0.00727    -0.00472     0.01054    -0.00556     0.00521     0.04254
 PZ  C  16   0.00053     0.00002     0.00006    -0.00050    -0.00036    -0.00283
  
  S  N  17  -0.01700     0.02168     0.00102     0.07685     0.01618     0.28932
 PX  N  17  -0.00605     0.01030     0.00110     0.02593     0.00668     0.10257
 PY  N  17   0.00714    -0.00842    -0.00096    -0.02726    -0.00373    -0.08754
 PZ  N  17   0.00039     0.00028     0.00026    -0.00097    -0.00039    -0.00473
  
  S  C  18  -0.02339     0.11435     0.14078     0.00178     0.01567     0.11463
 PX  C  18  -0.00200     0.00203     0.02977    -0.00932    -0.00997    -0.06545
 PY  C  18  -0.01770    -0.00813     0.07011     0.00393    -0.02278    -0.08908
 PZ  C  18   0.00130     0.00837     0.00979    -0.00421    -0.00250    -0.02239
  
  S  C  19  -0.02479     0.09309     0.16991    -0.00743    -0.01231    -0.04656
 PX  C  19   0.00401    -0.01556    -0.01988    -0.00097    -0.00328    -0.02407
 PY  C  19  -0.01032     0.00550     0.04963     0.00156    -0.01651    -0.07441
 PZ  C  19   0.00785    -0.02138    -0.04287     0.00043     0.00172     0.00045
  
  S  C  20  -0.02528     0.08037     0.17835    -0.00562    -0.03321    -0.15997
 PX  C  20   0.00820    -0.01240    -0.04085     0.00051     0.00669     0.02839
 PY  C  20   0.00541    -0.00584    -0.02045     0.00054    -0.00203    -0.01956
 PZ  C  20   0.00829    -0.01350    -0.04440     0.00089     0.00923     0.04411
  
  S  C  21  -0.02042     0.04475     0.13529    -0.00650    -0.03944    -0.21722
 PX  C  21   0.00576     0.03285     0.01301     0.00009     0.00089     0.00577
 PY  C  21   0.01798    -0.00105    -0.05862    -0.00059     0.00631     0.01080
 PZ  C  21   0.00096     0.04186     0.03648     0.00067    -0.00067     0.00684
  
  S  C  22  -0.03384    -0.10124     0.02011    -0.00117    -0.01823    -0.09025
 PX  C  22  -0.00072     0.03968     0.04972    -0.00319    -0.01224    -0.07297
 PY  C  22   0.00816    -0.07361    -0.08942    -0.00462     0.00101    -0.02990
 PZ  C  22  -0.00425     0.07221     0.09000    -0.00111    -0.01404    -0.06794
  
  S  C  23  -0.03262     0.01636     0.09309     0.01111     0.00212     0.06719
 PX  C  23  -0.00699     0.01685     0.04657    -0.00442    -0.00819    -0.04508
 PY  C  23  -0.00660    -0.05232    -0.01037    -0.00393    -0.01160    -0.06761
 PZ  C  23  -0.00775     0.04068     0.05987     0.00102    -0.00389    -0.00822
  
  S  N  24  -0.01518    -0.27216    -0.21540    -0.00212     0.01676     0.06481
 PX  N  24   0.00360     0.04551     0.04059    -0.00266    -0.01209    -0.07888
 PY  N  24   0.00837     0.01989    -0.00815    -0.00063     0.00369     0.01409
 PZ  N  24  -0.00157    -0.00665     0.00630    -0.00250    -0.00977    -0.06709
  
  S  C  25  -0.01151    -0.20358    -0.17425     0.00374     0.03027     0.17637
 PX  C  25  -0.00172    -0.03824    -0.03109    -0.00086     0.00153     0.00076
 PY  C  25   0.00264     0.00534    -0.00302    -0.00052     0.00119     0.00419
 PZ  C  25  -0.00390    -0.06129    -0.04913     0.00048     0.00604     0.03200
  
  S  C  26  -0.00758    -0.12481    -0.10815     0.00425     0.02248     0.14040
 PX  C  26  -0.00284    -0.04967    -0.04187     0.00061     0.00660     0.03708
 PY  C  26   0.00140     0.00748     0.00369    -0.00071    -0.00062    -0.00582
 PZ  C  26   0.00039     0.01125     0.01074    -0.00011    -0.00256    -0.01516
  
  S  C  27   0.03211     0.08088    -0.01889    -0.00088     0.00711     0.02058
 PX  C  27   0.01239     0.10357     0.06383     0.00033    -0.00535    -0.02648
 PY  C  27   0.02125     0.15650     0.07703     0.00420     0.00764     0.06513
 PZ  C  27   0.00838     0.07568     0.05183    -0.00060    -0.00799    -0.04601
  
  S  C  28   0.03317     0.19446     0.09901    -0.00251    -0.01512    -0.09830
 PX  C  28   0.00372     0.04288     0.02747     0.00136     0.00117     0.01541
 PY  C  28   0.02489     0.12329     0.03217     0.00396     0.01275     0.08331
 PZ  C  28  -0.00363     0.01292     0.02370     0.00054    -0.00246    -0.00588
  
  S  C  29   0.04563     0.27916     0.12945     0.00266    -0.00111     0.00440
 PX  C  29  -0.01036    -0.05774    -0.02420    -0.00033     0.00024     0.00115
 PY  C  29   0.00778     0.03831     0.00835     0.00191     0.00635     0.04312
 PZ  C  29  -0.01555    -0.08503    -0.03313    -0.00102    -0.00173    -0.01224
  
  S  C  30   0.05006     0.29310     0.12266     0.00501     0.00837     0.06765
 PX  C  30  -0.01117    -0.06170    -0.02361    -0.00103    -0.00234    -0.01684
 PY  C  30  -0.01380    -0.08019    -0.03452    -0.00081    -0.00037    -0.00428
 PZ  C  30  -0.00960    -0.05175    -0.01857    -0.00103    -0.00281    -0.01967
  
  S  C  31   0.05008     0.28033     0.10792     0.00545     0.01271     0.09347
 PX  C  31   0.00060     0.00845     0.00672     0.00006    -0.00093    -0.00455
 PY  C  31  -0.01889    -0.10178    -0.03769    -0.00156    -0.00372    -0.02565
 PZ  C  31   0.00676     0.04282     0.02023     0.00059     0.00008     0.00291
  
  S  C  32   0.04430     0.20711     0.05474     0.00420     0.01607     0.10210
 PX  C  32   0.01242     0.07933     0.03746     0.00106     0.00057     0.00786
 PY  C  32  -0.00162     0.01846     0.02261     0.00065    -0.00179    -0.00309
 PZ  C  32   0.01604     0.09217     0.03833     0.00121     0.00168     0.01346
  
  S  C  33   0.10003    -0.18279     0.20772    -0.03182    -0.04895    -0.04951
 PX  C  33  -0.00338    -0.02509     0.07168     0.02563    -0.00530     0.05616
 PY  C  33  -0.01094     0.05825    -0.10595    -0.02336     0.01811    -0.03755
 PZ  C  33  -0.00318     0.00674    -0.00769     0.00081     0.00270     0.00260
  
  S  C  34   0.08414    -0.19261     0.25985     0.00166    -0.05425     0.00510
 PX  C  34   0.02097    -0.06457     0.10697     0.01613    -0.01497     0.03591
 PY  C  34   0.01974    -0.03003     0.02449    -0.01292    -0.00932    -0.02565
 PZ  C  34   0.01133    -0.02653     0.03664     0.00099    -0.00677     0.00247
  
  S  C  35   0.06151    -0.17588     0.27195     0.03529    -0.03136     0.06916
 PX  C  35  -0.00874     0.01012    -0.00624     0.01029     0.01579     0.01650
 PY  C  35   0.02929    -0.07485     0.11031     0.00788    -0.01950     0.01792
 PZ  C  35   0.00500    -0.01631     0.02643     0.00495    -0.00045     0.00914
  
  S  C  36   0.03624    -0.13834     0.23230     0.05265     0.01142     0.09125
 PX  C  36  -0.03953     0.08265    -0.11315     0.00396     0.04358    -0.00438
 PY  C  36   0.01035    -0.01662     0.01896    -0.00590    -0.01302    -0.00676
 PZ  C  36  -0.00951     0.02055    -0.02880     0.00021     0.01069    -0.00253
  
  S  S  37   0.05054    -0.12392     0.18140     0.01196    -0.01844     0.03199
 PX  S  37  -0.02776     0.05118    -0.06346     0.00960     0.02054     0.00896
 PY  S  37  -0.01837     0.06217    -0.10001    -0.01844     0.00691    -0.03167
 PZ  S  37  -0.01328     0.03097    -0.04437    -0.00130     0.00832    -0.00547
  
  S  C  38  -0.06428     0.05667    -0.02930     0.05810     0.11180     0.06848
 PX  C  38  -0.04089     0.07509    -0.09959    -0.00106     0.03572    -0.01572
 PY  C  38   0.01123    -0.02197     0.03019     0.00333    -0.00436     0.00875
 PZ  C  38  -0.01307     0.02123    -0.02603     0.00424     0.01847     0.00165
  
  S  C  39  -0.08377     0.10755    -0.10824     0.04386     0.11851     0.04019
 PX  C  39  -0.01344     0.02685    -0.03770    -0.00605     0.00281    -0.01266
 PY  C  39   0.02621    -0.03804     0.04319    -0.00664    -0.02691    -0.00210
 PZ  C  39   0.02429    -0.03023     0.02937    -0.01273    -0.03266    -0.01157
  
  S  C  40  -0.09679     0.14024    -0.15966     0.01165     0.06751    -0.00097
 PX  C  40   0.02489    -0.03275     0.03350    -0.01933    -0.05221    -0.01544
 PY  C  40   0.00818    -0.01375     0.01787     0.01056     0.01951     0.01281
 PZ  C  40   0.02736    -0.03979     0.04553     0.00005    -0.01119     0.00526
  
  S  C  41  -0.10074     0.15103    -0.17832    -0.03283    -0.03140    -0.05514
 PX  C  41   0.01363    -0.01564     0.01293    -0.02917    -0.07216    -0.02258
 PY  C  41  -0.01654     0.02109    -0.02042     0.02666     0.06754     0.02746
 PZ  C  41  -0.01188     0.01646    -0.01765     0.01249     0.03349     0.01646
  
  S  S  42  -0.06535     0.08574    -0.08921     0.01018     0.03917    -0.00730
 PX  S  42  -0.02078     0.03766    -0.05058    -0.01641    -0.01828    -0.03069
 PY  S  42  -0.01584     0.01662    -0.01234     0.01877     0.04050     0.02660
 PZ  S  42  -0.03473     0.04690    -0.04983     0.01199     0.03716     0.01022
  
  S  C  43  -0.05622     0.09283    -0.12007    -0.10992    -0.24199    -0.08694
 PX  C  43   0.01607    -0.02453     0.02937    -0.00422    -0.02850     0.03307
 PY  C  43  -0.00758     0.00995    -0.00982     0.02337     0.06421     0.00772
 PZ  C  43  -0.00047    -0.00083     0.00300     0.02030     0.04844     0.02221
  
  S  C  44  -0.03120     0.05528    -0.07590    -0.10008    -0.21653    -0.12816
 PX  C  44   0.00829    -0.01331     0.01677    -0.00402    -0.03127     0.05764
 PY  C  44  -0.01129     0.01859    -0.02404    -0.02869    -0.07209     0.00264
 PZ  C  44  -0.00712     0.01188    -0.01555    -0.02923    -0.08278     0.02792
  
  S  C  45   0.00551    -0.00613     0.00476    -0.04141    -0.12612     0.04429
 PX  C  45   0.00828    -0.01363     0.01750    -0.02899    -0.12092     0.13122
 PY  C  45  -0.01165     0.02066    -0.02876    -0.08081    -0.22286     0.03342
 PZ  C  45  -0.00744     0.01365    -0.01966    -0.09008    -0.26668     0.09041
  
  S  O  46   0.00545    -0.00557     0.00298    -0.13842    -0.44557     0.23622
 PX  O  46  -0.00050    -0.00045     0.00213     0.04458     0.13831    -0.06104
 PY  O  46  -0.00328     0.00561    -0.00755    -0.01174    -0.02798    -0.00757
 PZ  O  46  -0.00336     0.00515    -0.00625     0.00873     0.03515    -0.03454
  
  S  O  47   0.02667    -0.04515     0.06091     0.17281     0.48749    -0.10559
 PX  O  47   0.00555    -0.00957     0.01303     0.02284     0.05475     0.01631
 PY  O  47   0.00207    -0.00308     0.00369     0.00791     0.02473    -0.01438
 PZ  O  47   0.00446    -0.00722     0.00934     0.01778     0.04814    -0.00648
  
  S  C  48  -0.02218     0.03979    -0.05532    -0.05472    -0.07717    -0.21685
 PX  C  48  -0.00045     0.00073    -0.00081     0.00360     0.00676     0.01806
 PY  C  48  -0.00525     0.00864    -0.01110    -0.01177    -0.03064     0.00811
 PZ  C  48  -0.00514     0.00844    -0.01076    -0.00951    -0.02597     0.01563
  
  S  N  49  -0.01169     0.02173    -0.03120    -0.03533    -0.04205    -0.18098
 PX  N  49  -0.00398     0.00741    -0.01065    -0.01043    -0.00916    -0.06392
 PY  N  49  -0.00264     0.00475    -0.00662    -0.00749    -0.01224    -0.02470
 PZ  N  49  -0.00423     0.00770    -0.01085    -0.01156    -0.01543    -0.05107
  
  S  H  50  -0.02086     0.03457    -0.04486    -0.04742    -0.11225    -0.01557
  
  S  H  51   0.07078     0.00657    -0.02051     0.11452    -0.04382    -0.01868
  
  S  H  52   0.07077     0.00657    -0.02051     0.11452    -0.04382    -0.01868
  
  S  H  53   0.05783     0.00544    -0.01716     0.10197    -0.03913    -0.01689
  
  S  H  54   0.11453     0.01024    -0.03094     0.14023    -0.05309    -0.02156
  
  S  H  55   0.11451     0.01024    -0.03094     0.14022    -0.05309    -0.02156
  
  S  H  56   0.14842     0.01251    -0.03582     0.10829    -0.03999    -0.01439
  
  S  H  57   0.14843     0.01251    -0.03583     0.10832    -0.04000    -0.01439
  
  S  H  58   0.15901     0.01209    -0.03133     0.01705    -0.00444     0.00170
  
  S  H  59   0.15901     0.01209    -0.03133     0.01704    -0.00444     0.00170
  
  S  H  60   0.14708     0.00933    -0.01920    -0.08190     0.03308     0.01689
  
  S  H  61   0.14707     0.00933    -0.01920    -0.08188     0.03307     0.01689
  
  S  H  62   0.11405     0.00462    -0.00265    -0.13974     0.05348     0.02165
  
  S  H  63   0.11406     0.00462    -0.00264    -0.13973     0.05347     0.02165
  
  S  H  64   0.06148    -0.00107     0.01687    -0.12230     0.04469     0.01601
  
  S  H  65   0.06145    -0.00106     0.01686    -0.12227     0.04469     0.01603
  
  S  H  66   0.00645    -0.00706     0.02499    -0.05094     0.01447    -0.00867
  
  S  H  67   0.00656    -0.00722     0.02522    -0.05102     0.01444    -0.00869
  
  S  H  68   0.01831     0.00978    -0.00058    -0.02187     0.00808     0.01034
  
  S  H  69  -0.00452     0.03350     0.04652    -0.00492     0.00001    -0.00125
  
  S  H  70  -0.00550     0.03092     0.05483    -0.00211    -0.01092    -0.05539
  
  S  H  71  -0.01024    -0.00533     0.00684     0.00900     0.00822     0.07194
  
  S  H  72  -0.00246    -0.06976    -0.06534     0.00139     0.01266     0.07355
  
  S  H  73  -0.00575    -0.07853    -0.06402     0.00211     0.01181     0.07201
  
  S  H  74  -0.00244    -0.05039    -0.04560     0.00162     0.00955     0.05882
  
  S  H  75  -0.00252    -0.04173    -0.03690     0.00177     0.00859     0.05508
  
  S  H  76  -0.00443    -0.05438    -0.04469     0.00317     0.00957     0.06382
  
  S  H  77   0.01179     0.08035     0.04264     0.00049    -0.00226    -0.00947
  
  S  H  78   0.01398     0.08394     0.03604     0.00160     0.00260     0.02183
  
  S  H  79   0.01399     0.07934     0.03066     0.00177     0.00429     0.03197
  
  S  H  80   0.01126     0.04110     0.00127     0.00139     0.00720     0.04427
  
  S  H  81   0.02646    -0.05540     0.06747    -0.00492    -0.01695    -0.01133
  
  S  H  82   0.01460    -0.04631     0.07430     0.01275    -0.00526     0.02363
  
  S  H  83  -0.02147     0.02504    -0.02241     0.01527     0.03633     0.01631
  
  S  H  84  -0.02799     0.04163    -0.04859    -0.00126     0.00967    -0.00352
  
  S  H  85   0.01201    -0.02041     0.02756     0.06897     0.18848    -0.02327




    ROOT NO.   13          14          15          16          17          18

           -39.07474   -37.60968   -36.38401   -36.13722   -35.85226   -34.23452
  
  
  S  C   1  -0.00591    -0.06219    -0.01051    -0.05747     0.32443    -0.13080
 PX  C   1  -0.00169    -0.01516    -0.00213    -0.01112     0.05930    -0.01487
 PY  C   1  -0.00031    -0.00185    -0.00010    -0.00029    -0.00002     0.00394
 PZ  C   1   0.00000     0.00000     0.00000     0.00000    -0.00001     0.00000
  
  S  C   2  -0.00705    -0.06153    -0.00856    -0.04472     0.23903    -0.06486
 PX  C   2   0.00093     0.01560     0.00340     0.01943    -0.11475     0.05694
 PY  C   2  -0.00093    -0.00362     0.00025     0.00229    -0.01897     0.02079
 PZ  C   2   0.00000     0.00000     0.00000     0.00000    -0.00002     0.00001
  
  S  C   3  -0.00438    -0.01693     0.00072     0.00738    -0.06410     0.06934
 PX  C   3   0.00141     0.02335     0.00465     0.02591    -0.14858     0.05915
 PY  C   3   0.00189     0.01957     0.00303     0.01599    -0.08700     0.02459
 PZ  C   3   0.00000     0.00001     0.00000     0.00001    -0.00008     0.00003
  
  S  C   4   0.00101     0.04276     0.00958     0.05419    -0.31242     0.12231
 PX  C   4   0.00216     0.01586     0.00110     0.00445    -0.01193    -0.02550
 PY  C   4   0.00174     0.02007     0.00289     0.01468    -0.07598     0.00920
 PZ  C   4   0.00000     0.00000    -0.00000    -0.00000     0.00003    -0.00003
  
  S  C   5   0.00592     0.06858     0.00947     0.04694    -0.23888     0.02241
 PX  C   5   0.00194     0.00641    -0.00139    -0.01011     0.07379    -0.05883
 PY  C   5   0.00022    -0.01028    -0.00285    -0.01759     0.10348    -0.04524
 PZ  C   5   0.00000     0.00001     0.00000     0.00001    -0.00002    -0.00002
  
  S  C   6   0.00688     0.04000    -0.00019    -0.00577     0.07949    -0.10620
 PX  C   6  -0.00135    -0.02508    -0.00496    -0.02389     0.13192    -0.02308
 PY  C   6   0.00096    -0.00864    -0.00282    -0.01879     0.10817    -0.03768
 PZ  C   6  -0.00000    -0.00000     0.00001     0.00001    -0.00004    -0.00000
  
  S  C   7   0.00527    -0.02297    -0.00735    -0.05666     0.31280    -0.09071
 PX  C   7  -0.00153    -0.03015    -0.00305    -0.01691     0.06909     0.03176
 PY  C   7  -0.00086    -0.01527     0.00100    -0.00147    -0.02311     0.04675
 PZ  C   7   0.00000     0.00003     0.00001    -0.00000     0.00006    -0.00012
  
  S  C   8  -0.00597    -0.07340    -0.01302    -0.04300     0.22920     0.02813
 PX  C   8  -0.00740    -0.00163    -0.00238     0.02949    -0.12556     0.03875
 PY  C   8  -0.00014    -0.02834     0.00421    -0.00563    -0.03984     0.07315
 PZ  C   8  -0.00002     0.00016     0.00007     0.00008    -0.00024    -0.00038
  
  S  O   9   0.01765    -0.04828     0.02627    -0.03308    -0.10692     0.14038
 PX  O   9   0.00223     0.02431     0.00961     0.02171    -0.13519    -0.01880
 PY  O   9   0.01640     0.05698     0.01428     0.00458    -0.08137    -0.05106
 PZ  O   9   0.00014     0.00038     0.00018    -0.00003    -0.00081    -0.00016
  
  S  C  10  -0.02344     0.05786     0.02737     0.04275    -0.17466    -0.15908
 PX  C  10  -0.04747     0.00986    -0.02006     0.04323     0.07183    -0.13024
 PY  C  10   0.05518     0.05927     0.07276    -0.08780    -0.01573    -0.03434
 PZ  C  10  -0.00006     0.00089     0.00064    -0.00044     0.00038    -0.00161
  
  S  N  11  -0.12033     0.00951    -0.14718     0.21271    -0.01089    -0.11870
 PX  N  11  -0.01491     0.00634    -0.05645     0.03491     0.06501     0.06215
 PY  N  11  -0.03389     0.01075     0.00707     0.02926    -0.02720    -0.10097
 PZ  N  11  -0.00046     0.00008     0.00089    -0.00007    -0.00003    -0.00190
  
  S  C  12  -0.07152    -0.01250    -0.13530     0.10292     0.10507     0.16455
 PX  C  12   0.04681    -0.01740     0.01650    -0.07282     0.02844     0.16770
 PY  C  12  -0.00011    -0.01042     0.09476    -0.07589    -0.00386    -0.05866
 PZ  C  12   0.00013    -0.00062     0.00294    -0.00214    -0.00013    -0.00105
  
  S  C  13  -0.00448    -0.07016     0.08144    -0.12463     0.09362     0.16317
 PX  C  13   0.00798    -0.00552    -0.04256     0.02668     0.00437     0.07504
 PY  C  13   0.03587    -0.03136     0.08561    -0.08859    -0.01811    -0.01974
 PZ  C  13  -0.00008    -0.00213     0.00082    -0.00099     0.00004     0.00153
  
  S  C  14   0.08252    -0.06269     0.20780    -0.24613     0.03446     0.04192
 PX  C  14  -0.02244    -0.07659    -0.01083    -0.00412     0.03879     0.11073
 PY  C  14   0.04286    -0.03903    -0.00676    -0.01417    -0.00020     0.07113
 PZ  C  14  -0.00269    -0.00291     0.00091    -0.00071     0.00039     0.00195
  
  S  C  15   0.10151     0.14022     0.13279    -0.12442    -0.08166    -0.15047
 PX  C  15  -0.01922    -0.07592     0.06929    -0.07495     0.03904    -0.00413
 PY  C  15   0.05758     0.01930    -0.00437    -0.03175     0.05857     0.07205
 PZ  C  15  -0.00065     0.00195     0.00016    -0.00018     0.00068    -0.00024
  
  S  C  16   0.18885     0.36812    -0.14685     0.11883     0.07254    -0.00808
 PX  C  16  -0.01606    -0.11129     0.13597    -0.13282    -0.06865    -0.04028
 PY  C  16   0.02779     0.08238    -0.11842     0.10526     0.09317     0.05256
 PZ  C  16  -0.00142     0.00479    -0.00269     0.00277     0.00236     0.00053
  
  S  N  17   0.16536     0.39408    -0.27201     0.24233     0.15728     0.05118
 PX  N  17   0.05780     0.12142    -0.07519     0.06398     0.04592     0.01436
 PY  N  17  -0.04985    -0.12298     0.07136    -0.06305    -0.03674    -0.01112
 PZ  N  17  -0.00265    -0.00164     0.00297    -0.00269    -0.00104    -0.00001
  
  S  C  18   0.06326    -0.16933     0.04620    -0.07471     0.01147     0.11739
 PX  C  18  -0.03227    -0.03363    -0.02647     0.03564    -0.00417     0.00696
 PY  C  18  -0.03878    -0.01081    -0.10523     0.13260    -0.02827    -0.04208
 PZ  C  18  -0.01183    -0.01028    -0.00027     0.00298    -0.00023    -0.00176
  
  S  C  19  -0.01692    -0.14703    -0.05575     0.06796    -0.01636     0.01741
 PX  C  19  -0.01311     0.02637    -0.01323     0.02086    -0.00389    -0.03250
 PY  C  19  -0.03498     0.01575    -0.06932     0.09479    -0.02429    -0.07742
 PZ  C  19  -0.00173     0.03421     0.00505    -0.00312     0.00111    -0.02322
  
  S  C  20  -0.07525    -0.01661    -0.11084     0.15366    -0.03769    -0.14004
 PX  C  20   0.01262     0.00997     0.02054    -0.02638     0.00665     0.00499
 PY  C  20  -0.01218     0.07608     0.01955    -0.02040     0.00512    -0.04001
 PZ  C  20   0.02098    -0.01393     0.01788    -0.02455     0.00595     0.01768
  
  S  C  21  -0.10989     0.18569    -0.01677     0.03751    -0.00802    -0.11545
 PX  C  21   0.00317    -0.01772    -0.01411     0.01995    -0.00495    -0.03965
 PY  C  21   0.00027     0.10509     0.07756    -0.09679     0.02468     0.01107
 PZ  C  21   0.00576    -0.06348    -0.04828     0.06317    -0.01574    -0.05851
  
  S  C  22  -0.04388     0.06643    -0.01416     0.01846    -0.00358     0.01751
 PX  C  22  -0.03788     0.07408     0.01482    -0.01348     0.00265    -0.01184
 PY  C  22  -0.02160     0.12734     0.07952    -0.09456     0.02267     0.01780
 PZ  C  22  -0.03273     0.03305    -0.02088     0.03018    -0.00689    -0.03455
  
  S  C  23   0.04227    -0.10804    -0.04762     0.04405    -0.00980     0.04907
 PX  C  23  -0.02162    -0.02266    -0.01069     0.01601    -0.00823     0.00701
 PY  C  23  -0.03369     0.01182    -0.04380     0.06043    -0.01244    -0.03054
 PZ  C  23  -0.00198    -0.01936    -0.00766     0.00762    -0.00313     0.01047
  
  S  N  24   0.02864    -0.01690     0.04600    -0.06063     0.01148     0.07773
 PX  N  24  -0.04287     0.14647     0.06387    -0.07851     0.02032     0.04968
 PY  N  24   0.00606    -0.00198     0.01952    -0.02500     0.00483     0.02581
 PZ  N  24  -0.03691     0.13157     0.05482    -0.06683     0.01775     0.03245
  
  S  C  25   0.09288    -0.28936    -0.11017     0.13665    -0.03709    -0.10502
 PX  C  25  -0.00103     0.02467     0.03144    -0.04170     0.00888     0.06512
 PY  C  25   0.00184    -0.00763     0.00295    -0.00325    -0.00022     0.00420
 PZ  C  25   0.01626    -0.03911    -0.00986     0.01137    -0.00297    -0.00378
  
  S  C  26   0.07550    -0.25268    -0.12577     0.15897    -0.03828    -0.16784
 PX  C  26   0.01929    -0.05757    -0.01796     0.02192    -0.00665    -0.01128
 PY  C  26  -0.00330     0.00479     0.00640    -0.00722     0.00023     0.00492
 PZ  C  26  -0.00812     0.03334     0.01321    -0.01726     0.00567     0.01806
  
  S  C  27   0.00665     0.05261     0.07002    -0.09142     0.02125     0.10381
 PX  C  27  -0.01334     0.03940     0.00541    -0.00578     0.00281    -0.01729
 PY  C  27   0.03723    -0.13561    -0.06096     0.07193    -0.01774    -0.00180
 PZ  C  27  -0.02420     0.07609     0.01681    -0.01823     0.00627    -0.03366
  
  S  C  28  -0.05363     0.18551     0.05705    -0.06325     0.01799    -0.07338
 PX  C  28   0.00949    -0.04572    -0.03177     0.04052    -0.00966    -0.04899
 PY  C  28   0.04445    -0.10985    -0.02672     0.02729    -0.00661     0.01103
 PZ  C  28  -0.00146    -0.02638    -0.03449     0.04622    -0.01099    -0.06964
  
  S  C  29   0.00340    -0.00495    -0.02539     0.03510    -0.00645    -0.12532
 PX  C  29   0.00076    -0.01019    -0.00494     0.00624    -0.00193     0.00211
 PY  C  29   0.02345    -0.06981    -0.02114     0.02278    -0.00600     0.02082
 PZ  C  29  -0.00647     0.00901    -0.00001     0.00130    -0.00069    -0.00518
  
  S  C  30   0.03782    -0.11502    -0.05587     0.06682    -0.01564    -0.04664
 PX  C  30  -0.00917     0.02472     0.00704    -0.00721     0.00179    -0.01461
 PY  C  30  -0.00232    -0.00139     0.00146    -0.00211    -0.00020     0.02941
 PZ  C  30  -0.01071     0.03119     0.00813    -0.00806     0.00223    -0.02831
  
  S  C  31   0.05149    -0.15864    -0.05809     0.06548    -0.01676     0.05106
 PX  C  31  -0.00225     0.00547    -0.00285     0.00443    -0.00072    -0.02350
 PY  C  31  -0.01376     0.03226     0.00685    -0.00629     0.00145    -0.01338
 PZ  C  31   0.00181    -0.00437    -0.00632     0.00829    -0.00155    -0.02618
  
  S  C  32   0.05423    -0.14550    -0.02806     0.02630    -0.00841     0.10654
 PX  C  32   0.00466    -0.01274    -0.00666     0.00724    -0.00135     0.00421
 PY  C  32  -0.00029    -0.01941    -0.02206     0.02806    -0.00655    -0.01414
 PZ  C  32   0.00736    -0.01496    -0.00406     0.00361    -0.00047     0.00612
  
  S  C  33   0.03488    -0.00685    -0.13552     0.02283     0.06206     0.26378
 PX  C  33   0.03539     0.00032     0.06212    -0.06283    -0.03346    -0.05135
 PY  C  33  -0.03875    -0.00900    -0.01492     0.03103     0.04087     0.05286
 PZ  C  33  -0.00188    -0.00083     0.00904    -0.00290    -0.00020    -0.00789
  
  S  C  34   0.06692     0.00508    -0.07683    -0.02156    -0.00417     0.11109
 PX  C  34   0.03575     0.00269     0.03031    -0.04397    -0.02612    -0.03922
 PY  C  34  -0.00192    -0.00175    -0.05130     0.02521     0.02558     0.09046
 PZ  C  34   0.00908     0.00056    -0.00605    -0.00401    -0.00083     0.01074
  
  S  C  35   0.06756     0.00928     0.06001    -0.06282    -0.05668    -0.13547
 PX  C  35  -0.01424     0.00083     0.05186     0.00611    -0.00931    -0.09656
 PY  C  35   0.03180     0.00218    -0.00352    -0.02458    -0.01166     0.01193
 PZ  C  35   0.00391     0.00086     0.01375    -0.00403    -0.00563    -0.02477
  
  S  C  36   0.01882     0.00880     0.14424    -0.02303    -0.05337    -0.25384
 PX  C  36  -0.05958    -0.00161     0.04163     0.05196     0.01504    -0.05803
 PY  C  36   0.01432    -0.00126    -0.02695    -0.00930     0.00667     0.06360
 PZ  C  36  -0.01531    -0.00072     0.00717     0.01508     0.00658    -0.00144
  
  S  S  37   0.03557    -0.00312     0.01910    -0.03039     0.00104     0.02888
 PX  S  37  -0.02332     0.00428     0.04324     0.01606    -0.01721    -0.10954
 PY  S  37  -0.02029    -0.00600    -0.03584     0.01618     0.02550     0.07553
 PZ  S  37  -0.01303     0.00049     0.00384     0.01127     0.00066    -0.01678
  
  S  C  38  -0.11660     0.00305     0.15868     0.08492    -0.00049    -0.18465
 PX  C  38  -0.04828    -0.00343    -0.03441     0.03265     0.02887     0.12389
 PY  C  38   0.00564     0.00100     0.02172     0.00069    -0.00561    -0.03968
 PZ  C  38  -0.02420    -0.00079     0.00697     0.02187     0.01059     0.02593
  
  S  C  39  -0.13897    -0.00111     0.08547     0.09976     0.03103     0.01005
 PX  C  39  -0.00795    -0.00181    -0.04442    -0.00468     0.01108     0.09746
 PY  C  39   0.03169     0.00098     0.00313    -0.01564    -0.00971    -0.03743
 PZ  C  39   0.03551     0.00002    -0.02666    -0.02344    -0.00496     0.01869
  
  S  C  40  -0.08973    -0.00377    -0.05768     0.01512     0.02610     0.16378
 PX  C  40   0.05634     0.00045    -0.04702    -0.05466    -0.01698    -0.00611
 PY  C  40  -0.02204     0.00044     0.04372     0.03580     0.00750    -0.01848
 PZ  C  40   0.01162     0.00088     0.02348     0.00797    -0.00221    -0.02829
  
  S  C  41   0.04405    -0.00333    -0.16153    -0.10231    -0.01088     0.11236
 PX  C  41   0.06960     0.00017    -0.07574    -0.08073    -0.02350    -0.01034
 PY  C  41  -0.08573    -0.00086     0.04313     0.06159     0.02257     0.04895
 PZ  C  41  -0.05421    -0.00091     0.00272     0.02150     0.01179     0.05175
  
  S  S  42  -0.01223    -0.00006     0.02532     0.02227     0.00396    -0.02544
 PX  S  42   0.03373    -0.00152    -0.05722    -0.02614     0.00254     0.06651
 PY  S  42  -0.06092     0.00008     0.02876     0.02257     0.00367    -0.02543
 PZ  S  42  -0.04668    -0.00074     0.00294     0.01354     0.00626     0.00939
  
  S  C  43   0.20685    -0.00091    -0.24768    -0.24293    -0.06649    -0.04579
 PX  C  43  -0.04071     0.00061     0.03491     0.02258     0.00243    -0.02966
 PY  C  43  -0.04667    -0.00099    -0.00131     0.02037     0.01254     0.06966
 PZ  C  43  -0.06323    -0.00070     0.01319     0.02897     0.01310     0.05506
  
  S  C  44   0.30685     0.00142    -0.14318    -0.17898    -0.06120    -0.15013
 PX  C  44  -0.09677    -0.00030    -0.00724    -0.00670    -0.00211    -0.01147
 PY  C  44   0.00955    -0.00039    -0.05837    -0.05437    -0.01398    -0.00018
 PZ  C  44  -0.03342    -0.00050    -0.05868    -0.05467    -0.01423    -0.00520
  
  S  C  45  -0.03784     0.00050     0.00694    -0.00442    -0.00488    -0.03805
 PX  C  45  -0.20721    -0.00012     0.10993     0.12316     0.03909     0.08669
 PY  C  45   0.00876     0.00080     0.00260    -0.01124    -0.00721    -0.03608
 PZ  C  45  -0.08403     0.00071     0.05160     0.04429     0.01058     0.00431
  
  S  O  46  -0.29539     0.00102     0.17238     0.16947     0.04745     0.06341
 PX  O  46   0.06878    -0.00033    -0.03112    -0.02730    -0.00661    -0.00078
 PY  O  46   0.02287     0.00013    -0.01344    -0.01713    -0.00596    -0.01582
 PZ  O  46   0.05262    -0.00002    -0.02674    -0.02855    -0.00864    -0.01544
  
  S  O  47   0.04248    -0.00176    -0.08138    -0.06024    -0.01123     0.01954
 PX  O  47  -0.04963    -0.00049     0.00405     0.01328     0.00655     0.03061
 PY  O  47   0.02093     0.00009    -0.00521    -0.00843    -0.00349    -0.01652
 PZ  O  47  -0.00213    -0.00013    -0.00313    -0.00209    -0.00040    -0.00208
  
  S  C  48   0.45338     0.00428     0.21628     0.17481     0.03875    -0.00082
 PX  C  48  -0.04545    -0.00138    -0.17657    -0.17556    -0.05032    -0.08537
 PY  C  48  -0.01231    -0.00061    -0.07830    -0.07599    -0.02103    -0.02626
 PZ  C  48  -0.03155    -0.00117    -0.15082    -0.14831    -0.04184    -0.06238
  
  S  N  49   0.38307     0.00489     0.38232     0.34926     0.09124     0.09969
 PX  N  49   0.13254     0.00156     0.11226     0.10027     0.02545     0.02186
 PY  N  49   0.05322     0.00059     0.04030     0.03615     0.00929     0.01033
 PZ  N  49   0.10781     0.00124     0.08706     0.07787     0.01986     0.01913
  
  S  H  50   0.05108    -0.00049    -0.09603    -0.09152    -0.02417    -0.00771
  
  S  H  51  -0.00252    -0.02657    -0.00451    -0.02470     0.13966    -0.05704
  
  S  H  52  -0.00252    -0.02658    -0.00451    -0.02470     0.13966    -0.05705
  
  S  H  53  -0.00229    -0.02534    -0.00448    -0.02474     0.14123    -0.06092
  
  S  H  54  -0.00285    -0.02450    -0.00336    -0.01750     0.09315    -0.02447
  
  S  H  55  -0.00285    -0.02450    -0.00337    -0.01750     0.09318    -0.02448
  
  S  H  56  -0.00179    -0.00694     0.00027     0.00280    -0.02477     0.02700
  
  S  H  57  -0.00179    -0.00695     0.00027     0.00279    -0.02473     0.02699
  
  S  H  58   0.00040     0.01730     0.00382     0.02175    -0.12497     0.04851
  
  S  H  59   0.00040     0.01730     0.00382     0.02175    -0.12497     0.04851
  
  S  H  60   0.00246     0.02767     0.00386     0.01862    -0.09526     0.00905
  
  S  H  61   0.00246     0.02767     0.00386     0.01863    -0.09529     0.00905
  
  S  H  62   0.00261     0.01612    -0.00036    -0.00187     0.03193    -0.04284
  
  S  H  63   0.00261     0.01611    -0.00037    -0.00187     0.03190    -0.04278
  
  S  H  64   0.00271    -0.00862    -0.00249    -0.02335     0.12442    -0.03483
  
  S  H  65   0.00272    -0.00857    -0.00248    -0.02334     0.12439    -0.03490
  
  S  H  66  -0.00507    -0.02633    -0.00907    -0.01061     0.09252    -0.00107
  
  S  H  67  -0.00501    -0.02643    -0.00925    -0.01064     0.09271    -0.00060
  
  S  H  68   0.00623    -0.04336     0.02771    -0.05761     0.04534     0.11818
  
  S  H  69   0.00072    -0.06069    -0.00209     0.00050     0.00154     0.02408
  
  S  H  70  -0.02668     0.00293    -0.03732     0.05360    -0.01303    -0.06818
  
  S  H  71   0.03941    -0.03809    -0.01374     0.00754     0.00181     0.01855
  
  S  H  72   0.03873    -0.12398    -0.04496     0.05591    -0.01582    -0.03948
  
  S  H  73   0.03836    -0.12028    -0.05078     0.06278    -0.01631    -0.04967
  
  S  H  74   0.03153    -0.10618    -0.05142     0.06520    -0.01601    -0.06959
  
  S  H  75   0.02988    -0.10480    -0.05566     0.07089    -0.01698    -0.08019
  
  S  H  76   0.03463    -0.09990    -0.05915     0.07286    -0.01358    -0.07218
  
  S  H  77  -0.00447     0.00762    -0.01198     0.01783    -0.00355    -0.06720
  
  S  H  78   0.01236    -0.04169    -0.02249     0.02749    -0.00658    -0.02260
  
  S  H  79   0.01776    -0.05972    -0.02356     0.02708    -0.00710     0.02226
  
  S  H  80   0.02347    -0.06857    -0.01508     0.01560    -0.00511     0.04386
  
  S  H  81   0.01430     0.00133    -0.04258     0.00774     0.00601     0.05317
  
  S  H  82   0.01647     0.00332     0.02979    -0.01733    -0.02098    -0.06958
  
  S  H  83  -0.04291     0.00001     0.03827     0.03496     0.00857    -0.01280
  
  S  H  84  -0.01978    -0.00133    -0.03545    -0.00897     0.00573     0.06587
  
  S  H  85  -0.01743    -0.00085    -0.02171    -0.00908     0.00109     0.02724




    ROOT NO.   19          20          21          22          23          24

           -33.70712   -33.25543   -32.82481   -31.61044   -30.96042   -30.71216
  
  
  S  C   1  -0.03456     0.06704     0.12339     0.18108     0.17019     0.17483
 PX  C   1  -0.00304     0.00430     0.00497    -0.00642    -0.01391    -0.01759
 PY  C   1   0.00140    -0.00330    -0.00712    -0.01476    -0.01603    -0.01731
 PZ  C   1   0.00000    -0.00000    -0.00000    -0.00001    -0.00001    -0.00001
  
  S  C   2  -0.01438     0.02316     0.03431     0.01505    -0.00397    -0.01126
 PX  C   2   0.01582    -0.03196    -0.06079    -0.09581    -0.09222    -0.09533
 PY  C   2   0.00656    -0.01435    -0.02917    -0.05271    -0.05357    -0.05638
 PZ  C   2   0.00000    -0.00001    -0.00001    -0.00002    -0.00001    -0.00001
  
  S  C   3   0.02136    -0.04560    -0.09049    -0.15179    -0.14794    -0.15320
 PX  C   3   0.01497    -0.02753    -0.04731    -0.05050    -0.03513    -0.03076
 PY  C   3   0.00541    -0.00823    -0.01117     0.00207     0.01168     0.01587
 PZ  C   3   0.00001    -0.00002    -0.00003    -0.00003    -0.00002    -0.00002
  
  S  C   4   0.03017    -0.05454    -0.09129    -0.08698    -0.05299    -0.04245
 PX  C   4  -0.00942     0.02188     0.04670     0.08978     0.09229     0.09722
 PY  C   4   0.00034     0.00331     0.01279     0.04564     0.05424     0.05959
 PZ  C   4  -0.00001     0.00002     0.00004     0.00007     0.00007     0.00007
  
  S  C   5  -0.00031     0.01241     0.04088     0.12287     0.13522     0.14419
 PX  C   5  -0.01695     0.03376     0.06217     0.07667     0.05746     0.05209
 PY  C   5  -0.01090     0.02062     0.03432     0.02920     0.01118     0.00435
 PZ  C   5  -0.00001     0.00001     0.00004     0.00007     0.00007     0.00005
  
  S  C   6  -0.03210     0.06207     0.11311     0.12873     0.09235     0.08222
 PX  C   6  -0.00337    -0.00252    -0.01707    -0.07365    -0.08361    -0.08935
 PY  C   6  -0.00710     0.01168     0.01347    -0.01649    -0.03752    -0.04710
 PZ  C   6   0.00001    -0.00003    -0.00000     0.00001     0.00004    -0.00002
  
  S  C   7  -0.01281     0.02161     0.01737    -0.05996    -0.10607    -0.12726
 PX  C   7   0.01318    -0.03073    -0.06383    -0.09701    -0.07656    -0.07010
 PY  C   7   0.01747    -0.02705    -0.04790    -0.04199    -0.03078    -0.02844
 PZ  C   7  -0.00001    -0.00003     0.00010     0.00007     0.00009    -0.00008
  
  S  C   8   0.00758    -0.05093    -0.11050    -0.18768    -0.11932    -0.09773
 PX  C   8  -0.00518    -0.01355    -0.01413     0.01406     0.07108     0.09276
 PY  C   8   0.02855    -0.03559    -0.05325     0.00128     0.02049     0.02256
 PZ  C   8  -0.00004    -0.00014     0.00032     0.00028     0.00040    -0.00019
  
  S  O   9   0.07973    -0.03610    -0.03662     0.12136     0.05256     0.03192
 PX  O   9  -0.01066     0.03360     0.07395     0.10913     0.08459     0.07497
 PY  O   9   0.00256     0.05853     0.11064     0.14589     0.02491    -0.00655
 PZ  O   9   0.00046    -0.00027     0.00100     0.00112     0.00067    -0.00028
  
  S  C  10  -0.07045     0.07583     0.14101     0.04367     0.06251     0.01601
 PX  C  10  -0.08665     0.00039    -0.01141    -0.18314    -0.02982    -0.03256
 PY  C  10   0.07552     0.06875     0.11297     0.15950    -0.08552    -0.15854
 PZ  C  10   0.00143    -0.00216     0.00237     0.00000     0.00110    -0.00242
  
  S  N  11  -0.20594     0.01999    -0.03123    -0.20591     0.01446     0.19625
 PX  N  11   0.01298     0.00598    -0.02880     0.06130    -0.07796    -0.01086
 PY  N  11  -0.05027    -0.00621     0.01809    -0.06429     0.04440    -0.02577
 PZ  N  11   0.00028    -0.00263    -0.00053     0.00049     0.00236    -0.00321
  
  S  C  12   0.04791    -0.06202    -0.11055     0.16678    -0.03658    -0.04997
 PX  C  12   0.13908    -0.03331    -0.02893     0.20426    -0.00299    -0.09089
 PY  C  12   0.05821    -0.08722    -0.01778    -0.01078     0.10599    -0.15732
 PZ  C  12   0.00340    -0.00681    -0.00140     0.00407     0.00624    -0.00752
  
  S  C  13   0.20485    -0.20359    -0.12490     0.11057     0.14670    -0.16662
 PX  C  13   0.01552    -0.01042    -0.01928     0.07068     0.00645     0.03247
 PY  C  13   0.01387    -0.01483     0.02066    -0.12276     0.04238     0.09193
 PZ  C  13   0.00553    -0.01035     0.00511    -0.00166     0.00897     0.00346
  
  S  C  14   0.11195    -0.02904    -0.02523    -0.09150    -0.00458     0.02474
 PX  C  14   0.05614    -0.14592    -0.09186    -0.02927     0.14992     0.06225
 PY  C  14  -0.04835     0.04932    -0.03073    -0.05228    -0.05158     0.20177
 PZ  C  14   0.01775    -0.03114     0.01824    -0.00557     0.02392     0.00720
  
  S  C  15   0.03073     0.16923     0.19969     0.11207    -0.15967    -0.13661
 PX  C  15   0.01066    -0.02628    -0.05844    -0.11765     0.00286    -0.00041
 PY  C  15   0.01429     0.01749    -0.04989    -0.02947    -0.08002     0.05830
 PZ  C  15   0.00664    -0.01053     0.00745    -0.00101     0.00660    -0.00048
  
  S  C  16   0.01223    -0.00727     0.04581     0.03817    -0.04807    -0.03216
 PX  C  16  -0.00097     0.13844     0.06843     0.05680    -0.12769    -0.01314
 PY  C  16  -0.01875    -0.10997    -0.11193    -0.11613     0.08153     0.05252
 PZ  C  16   0.00459    -0.01224     0.00416    -0.00313     0.00804    -0.00072
  
  S  N  17   0.00187    -0.17447    -0.08420    -0.09035     0.11082     0.01756
 PX  N  17  -0.00334    -0.03274    -0.02183    -0.02240     0.01010     0.00831
 PY  N  17  -0.00266     0.04136     0.00421     0.00312    -0.02497     0.00533
 PZ  N  17   0.00106    -0.00297     0.00352     0.00021     0.00246    -0.00080
  
  S  C  18  -0.07316     0.00733    -0.07603    -0.10352     0.00072     0.24319
 PX  C  18   0.03958    -0.11377     0.04606    -0.00044     0.09930    -0.00049
 PY  C  18  -0.11209     0.05519     0.00907     0.06415    -0.02437    -0.06803
 PZ  C  18   0.07431    -0.12116     0.08174    -0.02205     0.07776     0.02415
  
  S  C  19   0.06623    -0.23280     0.15843    -0.05256     0.15657     0.10661
 PX  C  19   0.03907    -0.02779     0.04224     0.02161     0.01387    -0.05968
 PY  C  19  -0.00540    -0.00256     0.08197     0.05215    -0.03515    -0.11477
 PZ  C  19   0.04387    -0.02128     0.03315     0.00674     0.01331    -0.03209
  
  S  C  20   0.16719    -0.17047     0.23082     0.03167     0.01636    -0.12249
 PX  C  20   0.02634     0.00085    -0.01091    -0.01105     0.00979     0.01591
 PY  C  20   0.05883     0.06786    -0.03902     0.00974    -0.08442    -0.04280
 PZ  C  20   0.01252    -0.02047     0.00229    -0.01808     0.03774     0.03624
  
  S  C  21   0.14591    -0.00057     0.05987     0.03240    -0.12036    -0.12093
 PX  C  21   0.09072    -0.03365     0.04014    -0.01512    -0.00832     0.01779
 PY  C  21   0.09978     0.02114    -0.05472    -0.05303    -0.03518     0.10179
 PZ  C  21   0.08566    -0.04896     0.07150    -0.00163    -0.00390    -0.01129
  
  S  C  22  -0.18381     0.17669    -0.14966     0.08897     0.03251    -0.16408
 PX  C  22   0.03674    -0.04711     0.05414    -0.00510    -0.04902    -0.00630
 PY  C  22   0.09251    -0.08506     0.04687    -0.03088     0.04813     0.01577
 PZ  C  22   0.03246    -0.02821     0.05698     0.00124    -0.09838    -0.00837
  
  S  C  23  -0.25740     0.26599    -0.21616     0.03606    -0.07361     0.01062
 PX  C  23  -0.03318    -0.00868     0.00413     0.00904     0.00996    -0.00628
 PY  C  23  -0.04216     0.03150    -0.02221     0.06755     0.05517    -0.13835
 PZ  C  23  -0.02268    -0.01225     0.01971    -0.01557    -0.03169     0.04444
  
  S  N  24  -0.08910    -0.03964    -0.00397     0.00475     0.20710    -0.01144
 PX  N  24  -0.04735    -0.02108     0.00850    -0.01071    -0.03512     0.01944
 PY  N  24   0.02320    -0.13192     0.12670    -0.04871    -0.05808     0.10623
 PZ  N  24  -0.02928     0.01737    -0.03053    -0.00006    -0.02379    -0.00931
  
[...]
    Config     494   0.04442220  0.00197333
    Config     496  -0.09647813  0.00930803
    Config     501   0.04005271  0.00160422
    Config     503   0.04809972  0.00231358
    Config     504  -0.05383697  0.00289842
    Config     505   0.04003205  0.00160256
    Config     507  -0.10489841  0.01100368
    Config     510   0.04782199  0.00228694
    Config     512  -0.12701606  0.01613308
    Config     520  -0.07852574  0.00616629
    Config     521   0.08653653  0.00748857
    Config     529  -0.04676457  0.00218692
    Config     531  -0.05852607  0.00342530
    Config     539  -0.10754198  0.01156528
    Config     544  -0.05194928  0.00269873
    Config     549  -0.10989390  0.01207667
    Config     556  -0.07264688  0.00527757
    Config     558  -0.12209225  0.01490652
    Config     564  -0.14632536  0.02141111
    Config     568   0.04117502  0.00169538
    Config     573   0.04570943  0.00208935
    Config     574   0.04683808  0.00219381
    Config     576  -0.09076197  0.00823774
    Config     583   0.04130516  0.00170612
    Config     584  -0.06641184  0.00441053
    Config     592   0.04991631  0.00249164
    Config     620  -0.04089948  0.00167277
    Config     622   0.07230202  0.00522758
    Config     624  -0.06184059  0.00382426
    Config     641   0.04109152  0.00168851
    Config     645  -0.04452688  0.00198264
    Config     650   0.07969260  0.00635091
    Config     657   0.08203217  0.00672928
    Config     661  -0.06200263  0.00384433
    Config     664  -0.05611006  0.00314834
    Config     674  -0.07107855  0.00505216
    Config     678   0.06860264  0.00470632
    Config     682  -0.04796792  0.00230092
    Config     687   0.05095018  0.00259592
    Config     692  -0.04541057  0.00206212
    Config     705   0.04701801  0.00221069
    Config     718  -0.05894974  0.00347507
    Config     719  -0.04715334  0.00222344
    Config     727  -0.05143443  0.00264550
    Config     728  -0.04521051  0.00204399
    Config     731  -0.04763941  0.00226951
    Config     732   0.05885136  0.00346348
    Config     733   0.04170697  0.00173947
    Config     756  -0.04000961  0.00160077
    Config     763  -0.06871312  0.00472149
    Config     765  -0.05829758  0.00339861
    Config     786  -0.12466370  0.01554104
    Config     788   0.04242382  0.00179978
    Config     796   0.04065059  0.00165247
    Config     817  -0.05069565  0.00257005
    Config     824  -0.04035982  0.00162891
    Config     830  -0.07254489  0.00526276
    Config     837   0.04712594  0.00222085
    Config     859  -0.05727975  0.00328097
    Config     869  -0.04466665  0.00199511
    Config     885  -0.04547488  0.00206796
    Config     892   0.09820337  0.00964390
    Config     941   0.05856088  0.00342938
    Config     964  -0.04449499  0.00197980
    Config     971   0.04006015  0.00160482
    Config     974   0.04264507  0.00181860
    Config     976   0.06680482  0.00446288
    Config     979   0.04037842  0.00163042
    Config    1007   0.04569801  0.00208831
    Config    1037  -0.05365187  0.00287852
    Config    1050  -0.04068556  0.00165531
    Config    1089   0.06373853  0.00406260
    Config    1145   0.05384953  0.00289977
    Config    1163   0.06835613  0.00467256
    Config    1195  -0.04534372  0.00205605
    Config    1219  -0.04101584  0.00168230
    Config    1237   0.05528420  0.00305634
    Config    1252  -0.04812703  0.00231621
    Config    1294  -0.04292307  0.00184239
    Config    1325   0.05912299  0.00349553
 Total coeff printed             0.69533126
  
State  498 10.3787     CI coeff  CI percent
    Config     119   0.05205961  0.00271020
    Config     152  -0.04815247  0.00231866
    Config     163  -0.06255277  0.00391285
    Config     169   0.04068437  0.00165522
    Config     183   0.05011736  0.00251175
    Config     206  -0.05708492  0.00325869
    Config     209   0.05319741  0.00282996
    Config     219   0.07983759  0.00637404
    Config     225   0.04138705  0.00171289
    Config     236  -0.04238904  0.00179683
    Config     243   0.06228771  0.00387976
    Config     251   0.07931941  0.00629157
    Config     252  -0.05711786  0.00326245
    Config     263  -0.04616684  0.00213138
    Config     264   0.10649912  0.01134206
    Config     269  -0.05660005  0.00320357
    Config     272   0.06126217  0.00375305
    Config     283  -0.05183795  0.00268717
    Config     292  -0.07042357  0.00495948
    Config     294   0.05360245  0.00287322
    Config     299  -0.04188527  0.00175438
    Config     309   0.05261825  0.00276868
    Config     316  -0.06716071  0.00451056
    Config     330   0.05014790  0.00251481
    Config     332  -0.12074334  0.01457895
    Config     339   0.06286312  0.00395177
    Config     345  -0.05031564  0.00253166
    Config     347  -0.08654378  0.00748983
    Config     357   0.21189993  0.04490158
    Config     360   0.06268336  0.00392920
    Config     369   0.05366832  0.00288029
    Config     371  -0.18643756  0.03475896
    Config     372   0.12373586  0.01531056
    Config     375  -0.04180171  0.00174738
    Config     378  -0.07091318  0.00502868
    Config     380  -0.08334311  0.00694607
    Config     384  -0.04722628  0.00223032
    Config     385  -0.17696495  0.03131659
    Config     386  -0.04524386  0.00204701
    Config     395  -0.06343015  0.00402338
    Config     402  -0.04848618  0.00235091
    Config     404  -0.06751989  0.00455894
    Config     408  -0.04483213  0.00200992
    Config     415   0.05732868  0.00328658
    Config     419  -0.09064912  0.00821726
    Config     422   0.06280640  0.00394464
    Config     427   0.07596970  0.00577140
    Config     435  -0.05452492  0.00297297
    Config     437   0.05235593  0.00274114
    Config     440  -0.07077135  0.00500858
    Config     447  -0.04209927  0.00177235
    Config     455  -0.08772713  0.00769605
    Config     456  -0.14493409  0.02100589
    Config     457   0.13928570  0.01940051
    Config     461  -0.08876551  0.00787932
    Config     463  -0.09345837  0.00873447
    Config     465   0.11869369  0.01408819
    Config     470  -0.06065222  0.00367869
    Config     472   0.10880223  0.01183793
    Config     473   0.05388714  0.00290382
    Config     474  -0.11477780  0.01317394
    Config     475   0.04819318  0.00232258
    Config     477  -0.04621786  0.00213609
    Config     480   0.05833360  0.00340281
    Config     481   0.11027314  0.01216017
    Config     483   0.05074499  0.00257505
    Config     487  -0.09732548  0.00947225
    Config     493  -0.04302165  0.00185086
    Config     499  -0.06466520  0.00418159
    Config     502  -0.08674885  0.00752536
    Config     503   0.06069492  0.00368387
    Config     504   0.06554900  0.00429667
    Config     507   0.05206097  0.00271034
    Config     518  -0.06302903  0.00397266
    Config     520   0.05413689  0.00293080
    Config     528   0.05199660  0.00270365
    Config     549   0.06202439  0.00384703
    Config     552   0.08473592  0.00718018
    Config     557  -0.10529627  0.01108730
    Config     562  -0.05767174  0.00332603
    Config     564   0.11877800  0.01410821
    Config     571   0.18679357  0.03489184
    Config     573   0.06463531  0.00417772
    Config     581   0.05129355  0.00263103
    Config     584  -0.05431360  0.00294997
    Config     591  -0.06079229  0.00369570
    Config     594   0.10213455  0.01043147
    Config     602   0.10131861  0.01026546
    Config     603  -0.08092666  0.00654912
    Config     610  -0.09015553  0.00812802
    Config     623  -0.04363031  0.00190360
    Config     629  -0.06717194  0.00451207
    Config     642  -0.04323735  0.00186947
    Config     643   0.04245008  0.00180201
    Config     650  -0.04309384  0.00185708
    Config     664   0.05370700  0.00288444
    Config     670  -0.04086537  0.00166998
    Config     673  -0.05594845  0.00313023
    Config     674   0.08401773  0.00705898
    Config     677   0.04714804  0.00222294
    Config     693   0.04260000  0.00181476
    Config     694   0.05451502  0.00297189
    Config     699  -0.10619504  0.01127739
    Config     710   0.05526889  0.00305465
    Config     756   0.04586619  0.00210371
    Config     763  -0.06079136  0.00369559
    Config     767  -0.04043626  0.00163509
    Config     769   0.05198071  0.00270199
    Config     786   0.11571794  0.01339064
    Config     788  -0.05187837  0.00269137
    Config     795  -0.04471447  0.00199938
    Config     805   0.04199204  0.00176333
    Config     817   0.04101801  0.00168248
    Config     830   0.04987234  0.00248725
    Config     835  -0.05066571  0.00256701
    Config     943   0.05017476  0.00251751
    Config     970  -0.04534907  0.00205654
    Config     976  -0.06552681  0.00429376
    Config    1007  -0.05078715  0.00257933
    Config    1081  -0.04242762  0.00180010
    Config    1089  -0.06414437  0.00411450
    Config    1108   0.04091462  0.00167401
    Config    1132   0.05004445  0.00250445
    Config    1195  -0.04006474  0.00160518
    Config    1325  -0.05227976  0.00273317
 Total coeff printed             0.72153870
  
State  499 10.3796     CI coeff  CI percent
    Config     111   0.06041300  0.00364973
    Config     195  -0.05141694  0.00264370
    Config     200  -0.04799434  0.00230346
    Config     225  -0.12019381  0.01444655
    Config     245   0.05277114  0.00278479
    Config     253   0.05200492  0.00270451
    Config     263   0.07711805  0.00594719
    Config     264   0.04249640  0.00180594
    Config     265   0.04574170  0.00209230
    Config     283   0.08432081  0.00711000
    Config     287  -0.06692431  0.00447886
    Config     305   0.11642012  0.01355364
    Config     313   0.04188768  0.00175458
    Config     320   0.12097389  0.01463468
    Config     323   0.04812886  0.00231639
    Config     335  -0.08721197  0.00760593
    Config     336   0.08125740  0.00660277
    Config     343  -0.04993274  0.00249328
    Config     346  -0.05159072  0.00266160
    Config     347  -0.04132133  0.00170745
    Config     349   0.10814784  0.01169595
    Config     361  -0.21124425  0.04462413
    Config     364  -0.06423336  0.00412592
    Config     366   0.06237278  0.00389036
    Config     367  -0.06342097  0.00402222
    Config     369   0.04209455  0.00177195
    Config     372   0.05404591  0.00292096
    Config     393  -0.04829337  0.00233225
    Config     399   0.05292891  0.00280147
    Config     411  -0.06480033  0.00419908
    Config     428  -0.06889215  0.00474613
    Config     429  -0.16870318  0.02846076
    Config     430   0.05726289  0.00327904
    Config     434   0.13373310  0.01788454
    Config     435  -0.07397304  0.00547201
    Config     439  -0.12662398  0.01603363
    Config     440  -0.06644811  0.00441535
    Config     443  -0.07875749  0.00620274
    Config     444   0.09717454  0.00944289
    Config     445  -0.05788272  0.00335041
    Config     447   0.04099080  0.00168025
    Config     448  -0.08193983  0.00671414
    Config     450  -0.04878378  0.00237986
    Config     454  -0.06856521  0.00470119
    Config     459   0.07010267  0.00491438
    Config     465   0.09163941  0.00839778
    Config     468   0.05225504  0.00273059
    Config     477  -0.05254109  0.00276057
    Config     480   0.11149443  0.01243101
    Config     488   0.05013181  0.00251320
    Config     489  -0.05338701  0.00285017
    Config     496  -0.21063530  0.04436723
    Config     500   0.04315722  0.00186255
    Config     510  -0.07109323  0.00505425
    Config     512  -0.04269531  0.00182289
    Config     517   0.09046339  0.00818362
    Config     523   0.19737119  0.03895539
    Config     526   0.05280122  0.00278797
    Config     531   0.16542469  0.02736533
    Config     538   0.06710178  0.00450265
    Config     542  -0.08250485  0.00680705
    Config     551  -0.04023439  0.00161881
    Config     555  -0.05654896  0.00319778
    Config     557  -0.06324362  0.00399976
    Config     565  -0.04268886  0.00182234
    Config     571  -0.04988542  0.00248856
    Config     576   0.09390413  0.00881798
    Config     583   0.06503274  0.00422926
    Config     584  -0.12900634  0.01664264
    Config     594  -0.04810743  0.00231432
    Config     601  -0.05688455  0.00323585
    Config     602  -0.04445265  0.00197604
    Config     606   0.05307933  0.00281742
    Config     617   0.04184607  0.00175109
    Config     622  -0.08268789  0.00683729
    Config     635  -0.06872919  0.00472370
    Config     650  -0.06065100  0.00367854
    Config     658  -0.05579738  0.00311335
    Config     662  -0.06377771  0.00406760
    Config     667   0.04707575  0.00221613
    Config     668  -0.10677011  0.01139986
    Config     674   0.05640123  0.00318110
    Config     679  -0.06059156  0.00367134
    Config     689   0.17207813  0.02961088
    Config     695   0.04333372  0.00187781
    Config     697   0.04522521  0.00204532
    Config     702   0.05433864  0.00295269
    Config     707  -0.05845238  0.00341668
    Config     710  -0.09470315  0.00896869
    Config     718  -0.04593568  0.00211009
    Config     719  -0.06658613  0.00443371
    Config     755  -0.05126805  0.00262841
    Config     758  -0.06607244  0.00436557
    Config     762  -0.04995666  0.00249567
    Config     772   0.04532390  0.00205426
    Config     773   0.08665461  0.00750902
    Config     777  -0.05804970  0.00336977
    Config     800   0.05350028  0.00286228
    Config     820  -0.07018867  0.00492645
    Config     854  -0.04169910  0.00173882
    Config     890   0.09785838  0.00957626
    Config     891  -0.06656317  0.00443066
    Config     899   0.06344820  0.00402567
    Config     901  -0.05897545  0.00347810
    Config     925  -0.07351331  0.00540421
    Config     942   0.04724372  0.00223197
    Config     958  -0.04389925  0.00192714
    Config     959  -0.06172770  0.00381031
    Config     983  -0.07211105  0.00520000
    Config     990   0.04494010  0.00201961
    Config    1053   0.04202563  0.00176615
    Config    1088  -0.06230886  0.00388239
    Config    1105   0.04544348  0.00206511
    Config    1162   0.04633375  0.00214682
 Total coeff printed             0.71588248
  
State  500 10.3801     CI coeff  CI percent
    Config     140  -0.05631959  0.00317190
    Config     152   0.04039942  0.00163211
    Config     159  -0.05320912  0.00283121
    Config     163  -0.04586240  0.00210336
    Config     209  -0.04110385  0.00168953
    Config     211   0.06212288  0.00385925
    Config     218   0.05417772  0.00293523
    Config     241  -0.06964157  0.00484995
    Config     243  -0.09158604  0.00838800
    Config     256   0.04577127  0.00209501
    Config     260  -0.06095093  0.00371502
    Config     263   0.06571008  0.00431781
    Config     264  -0.08817053  0.00777404
    Config     278   0.04133413  0.00170851
    Config     286  -0.09223859  0.00850796
    Config     296   0.04588863  0.00210577
    Config     297   0.04838686  0.00234129
    Config     299   0.05788871  0.00335110
    Config     307  -0.04629166  0.00214292
    Config     309  -0.04465499  0.00199407
    Config     311  -0.11268131  0.01269708
    Config     313   0.05249217  0.00275543
    Config     316  -0.06609533  0.00436859
    Config     332   0.13605029  0.01850968
    Config     337  -0.04379136  0.00191768
    Config     338  -0.09740386  0.00948751
    Config     345  -0.16749960  0.02805612
    Config     347  -0.12265561  0.01504440
    Config     348   0.04035841  0.00162880
    Config     349  -0.04720868  0.00222866
    Config     352   0.04914203  0.00241494
    Config     357  -0.07413274  0.00549566
    Config     360   0.04210563  0.00177288
    Config     367  -0.04054934  0.00164425
    Config     370  -0.07950450  0.00632097
    Config     371   0.09840189  0.00968293
    Config     372   0.11492220  0.01320711
    Config     379   0.06842470  0.00468194
    Config     380  -0.09628544  0.00927089
    Config     385   0.22669525  0.05139073
    Config     388  -0.08720791  0.00760522
    Config     392  -0.07878540  0.00620714
    Config     395  -0.05420793  0.00293850
    Config     397   0.14772759  0.02182344
    Config     399  -0.10561661  0.01115487
    Config     400   0.16107902  0.02594645
    Config     404  -0.04583593  0.00210093
    Config     407  -0.05446414  0.00296634
    Config     409  -0.04534402  0.00205608
    Config     418   0.06158177  0.00379231
    Config     427  -0.10548751  0.01112762
    Config     429   0.05247396  0.00275352
    Config     430   0.06594815  0.00434916
    Config     434   0.06884129  0.00473912
    Config     435  -0.07007677  0.00491075
    Config     440  -0.04270655  0.00182385
    Config     443   0.06333832  0.00401174
    Config     444  -0.17421059  0.03034933
    Config     445   0.04180331  0.00174752
    Config     449   0.05547281  0.00307723
    Config     456   0.06375964  0.00406529
    Config     457  -0.17514429  0.03067552
    Config     461  -0.08433713  0.00711275
    Config     462  -0.20615050  0.04249803
    Config     466   0.11967249  0.01432150
    Config     472   0.14133171  0.01997465
    Config     474   0.07611725  0.00579384
    Config     477  -0.06428813  0.00413296
    Config     487   0.04702653  0.00221149
    Config     496  -0.14022692  0.01966359
    Config     499   0.07995612  0.00639298
    Config     502  -0.10320631  0.01065154
    Config     503   0.15882948  0.02522680
    Config     506  -0.04624602  0.00213869
    Config     520   0.06929062  0.00480119
    Config     526   0.04220301  0.00178109
    Config     530   0.05256140  0.00276270
    Config     535   0.07099752  0.00504065
    Config     543   0.04313099  0.00186028
    Config     551  -0.06362967  0.00404873
    Config     557   0.06526479  0.00425949
    Config     563   0.06670468  0.00444951
    Config     567   0.08885356  0.00789495
    Config     568  -0.05459374  0.00298048
    Config     575  -0.06347648  0.00402926
    Config     576  -0.04495351  0.00202082
    Config     579  -0.04793002  0.00229729
    Config     582   0.04204677  0.00176793
    Config     586  -0.04660683  0.00217220
    Config     587  -0.04377570  0.00191631
    Config     595  -0.06090352  0.00370924
    Config     598  -0.05533626  0.00306210
    Config     603   0.05054880  0.00255518
    Config     615   0.04619420  0.00213390
    Config     621  -0.04411833  0.00194643
    Config     629   0.05009234  0.00250924
    Config     632   0.04331735  0.00187639
    Config     649  -0.05321717  0.00283207
    Config     651  -0.12349258  0.01525042
    Config     680  -0.04856770  0.00235882
    Config     697   0.05621644  0.00316029
    Config     701   0.04131574  0.00170699
    Config     707  -0.05653660  0.00319639
    Config     709  -0.04811789  0.00231533
    Config     715   0.04564253  0.00208324
    Config     718   0.04340386  0.00188390
    Config     719  -0.05020217  0.00252026
    Config     748   0.04543751  0.00206457
    Config     763  -0.05064467  0.00256488
    Config     786   0.05245108  0.00275112
    Config     788   0.04024545  0.00161970
    Config     883   0.05743547  0.00329883
    Config    1050  -0.04221870  0.00178242
 Total coeff printed             0.74769566
  

 **********************
 *                    *
 * JOB ENDED NORMALLY *
 *                    *
 **********************



 TOTAL JOB TIME:           550.09 SECONDS

 == MOPAC DONE ==
