 *******************************************************************************
 ** Site#: 4824         For non-commercial use only    Version 21.013L 64BITS **
 *******************************************************************************
 ** Cite this program as: MOPAC2016, Version: 21.013L, James J. P. Stewart,   **
 ** Stewart Computational Chemistry, web: HTTP://OpenMOPAC.net. Days left:  84**
 *******************************************************************************
 **                                                                           **
 **                                MOPAC2016                                  **
 **                                                                           **
 *******************************************************************************

                              INDO CALCULATION RESULTS

 *******************************************************************************
 *  CALCULATION DONE:                                Thu Oct 21 15:45:28 2021  *
 *  INDO       - The INDO Hamiltonian to be used
 *  CIS        - C.I. USES 1 ELECTRON EXCITATIONS ONLY
 *  EPS=  8.93 - USE ANDREAS KLAMT'S COSMO IMPLICIT SOLVATION MODEL
 *  n**2 =  1.420 for COSMO-CI
 *  T=         - A TIME OF 172800.0 SECONDS REQUESTED
 *  DUMP=N     - RESTART FILE WRITTEN EVERY 7200.0 SECONDS REQUESTED
 *******************************************************************************
INDO CIS EPS=8.93 N**2=1.42
 Dye62
 Calculo de Estados Excitados
   ATOM   CHEMICAL          X               Y               Z
  NUMBER   SYMBOL      (ANGSTROMS)     (ANGSTROMS)     (ANGSTROMS)
 
     1       N          0.00000000  *   0.00000000  *   0.00000000  *
     2       C          1.15641021  *   0.00000000  *   0.00000000  *
     3       C          2.57358328  *   0.01902782  *   0.00000000  *
     4       C          3.32275188  *  -1.09964005  *  -0.04312010  *
     5       C          2.76470142  *  -2.42098549  *  -0.03848191  *
     6       C          1.66184795  *  -2.85087558  *   0.64938769  *
     7       C          1.40580443  *  -4.24055465  *   0.43008056  *
     8       C          2.32414496  *  -4.80394977  *  -0.41460365  *
     9       S          3.50546825  *  -3.68116638  *  -0.92888868  *
    10       C          2.33074051  *  -6.17423070  *  -0.81365323  *
    11       C          1.95343451  *  -7.22015047  *  -0.01752450  *
    12       C          2.04519299  *  -8.47420649  *  -0.70382345  *
    13       C          2.48598741  *  -8.32094293  *  -1.98601712  *
    14       S          2.78681821  *  -6.68580411  *  -2.38351894  *
    15       C          2.70861426  *  -9.38978731  *  -2.93738571  *
    16       C          3.98805049  *  -9.69068032  *  -3.33138300  *
    17       C          4.22702907  * -10.74507763  *  -4.23746156  *
    18       C          3.17761279  * -11.47947824  *  -4.73103702  *
    19       C          1.85024477  * -11.18116763  *  -4.34336095  *
    20       C          1.60538074  * -10.13106703  *  -3.44416204  *
    21       C          0.26758153  *  -9.83585003  *  -3.07656276  *
    22       C         -0.76778214  * -10.57171433  *  -3.58175241  *
    23       C         -0.52300311  * -11.63393326  *  -4.47955536  *
    24       C          0.76381044  * -11.93008338  *  -4.85457023  *
    25       C          1.00099538  * -13.03760173  *  -5.79800994  *
    26       O          0.09250506  * -13.71012007  *  -6.26666264  *
    27       N          2.34165556  * -13.31325150  *  -6.15879564  *
    28       C          3.44996049  * -12.58262637  *  -5.67049908  *
    29       O          4.58266171  * -12.87573925  *  -6.03043776  *
    30       C          2.59146515  * -14.39605258  *  -7.07824483  *
    31       C          3.42323939  * -15.45084759  *  -6.66953317  *
    32       C          3.69635704  * -16.50705945  *  -7.52351473  *
    33       C          3.10934270  * -16.48675216  *  -8.78587307  *
    34       C          2.26942840  * -15.41592756  *  -9.19534346  *
    35       C          2.00347942  * -14.36029597  *  -8.34117193  *
    36       C          1.85304722  * -15.69902138  * -10.54604937  *
    37       C          1.04104829  * -15.01911384  * -11.43803265  *
    38       C          0.84604894  * -15.56540267  * -12.69844530  *
    39       C          1.44954852  * -16.77248508  * -13.06231341  *
    40       C          2.26065222  * -17.47658950  * -12.18486508  *
    41       C          2.45469885  * -16.93149684  * -10.91905073  *
    42       N          3.15931207  * -17.45613104  *  -9.81129850  *
    43       C          4.19634983  * -18.48144630  *  -9.89924108  *
    44       C          5.55524013  * -17.89539231  * -10.27691189  *
    45       C          3.23399343  *   1.33237282  *   0.01972018  *
    46       O          4.43821717  *   1.53976879  *  -0.02026570  *
    47       O          2.38012087  *   2.37228692  *   0.09208609  *
    48       H          4.42118626  *  -1.03223782  *  -0.08928216  *
    49       H          1.04739730  *  -2.24187943  *   1.31041126  *
    50       H          0.56662619  *  -4.76534649  *   0.88115955  *
    51       H          1.62936696  *  -7.13482101  *   1.01709727  *
    52       H          1.79759215  *  -9.42475331  *  -0.23639394  *
    53       H          4.84170815  *  -9.12595707  *  -2.94308779  *
    54       H          5.26098319  * -10.96451300  *  -4.53308213  *
    55       H          0.06554933  *  -9.00947550  *  -2.38642848  *
    56       H         -1.80124716  * -10.34687572  *  -3.29977184  *
    57       H         -1.37357079  * -12.20861164  *  -4.86767195  *
    58       H          3.87300752  * -15.44133875  *  -5.67113484  *
    59       H          4.34998282  * -17.32219736  *  -7.20753242  *
    60       H          1.34855418  * -13.54418111  *  -8.65761630  *
    61       H          0.56931693  * -14.07734597  * -11.14682520  *
    62       H          0.21048424  * -15.04590964  * -13.42069705  *
    63       H          1.27671587  * -17.17240086  * -14.06650074  *
    64       H          2.72148049  * -18.41914827  * -12.48435233  *
    65       H          4.25210394  * -19.01290802  *  -8.92035261  *
    66       H          3.87888040  * -19.25740396  * -10.63318742  *
    67       H          5.90308352  * -17.14907369  *  -9.54754080  *
    68       H          6.32569731  * -18.67786352  * -10.32863725  *
    69       H          5.53743763  * -17.39711701  * -11.25685191  *
    70       H          2.85715318  *   3.21510091  *   0.10006012  *
 


          CARTESIAN COORDINATES 

    NO.       ATOM           X           Y           Z

     1         N          0.0000      0.0000      0.0000
     2         C          1.1564      0.0000      0.0000
     3         C          2.5736      0.0190      0.0000
     4         C          3.3228     -1.0996     -0.0431
     5         C          2.7647     -2.4210     -0.0385
     6         C          1.6618     -2.8509      0.6494
     7         C          1.4058     -4.2406      0.4301
     8         C          2.3241     -4.8039     -0.4146
     9         S          3.5055     -3.6812     -0.9289
    10         C          2.3307     -6.1742     -0.8137
    11         C          1.9534     -7.2202     -0.0175
    12         C          2.0452     -8.4742     -0.7038
    13         C          2.4860     -8.3209     -1.9860
    14         S          2.7868     -6.6858     -2.3835
    15         C          2.7086     -9.3898     -2.9374
    16         C          3.9881     -9.6907     -3.3314
    17         C          4.2270    -10.7451     -4.2375
    18         C          3.1776    -11.4795     -4.7310
    19         C          1.8502    -11.1812     -4.3434
    20         C          1.6054    -10.1311     -3.4442
    21         C          0.2676     -9.8359     -3.0766
    22         C         -0.7678    -10.5717     -3.5818
    23         C         -0.5230    -11.6339     -4.4796
    24         C          0.7638    -11.9301     -4.8546
    25         C          1.0010    -13.0376     -5.7980
    26         O          0.0925    -13.7101     -6.2667
    27         N          2.3417    -13.3133     -6.1588
    28         C          3.4500    -12.5826     -5.6705
    29         O          4.5827    -12.8757     -6.0304
    30         C          2.5915    -14.3961     -7.0782
    31         C          3.4232    -15.4508     -6.6695
    32         C          3.6964    -16.5071     -7.5235
    33         C          3.1093    -16.4868     -8.7859
    34         C          2.2694    -15.4159     -9.1953
    35         C          2.0035    -14.3603     -8.3412
    36         C          1.8530    -15.6990    -10.5460
    37         C          1.0410    -15.0191    -11.4380
    38         C          0.8460    -15.5654    -12.6984
    39         C          1.4495    -16.7725    -13.0623
    40         C          2.2607    -17.4766    -12.1849
    41         C          2.4547    -16.9315    -10.9191
    42         N          3.1593    -17.4561     -9.8113
    43         C          4.1963    -18.4814     -9.8992
    44         C          5.5552    -17.8954    -10.2769
    45         C          3.2340      1.3324      0.0197
    46         O          4.4382      1.5398     -0.0203
    47         O          2.3801      2.3723      0.0921
    48         H          4.4212     -1.0322     -0.0893
    49         H          1.0474     -2.2419      1.3104
    50         H          0.5666     -4.7653      0.8812
    51         H          1.6294     -7.1348      1.0171
    52         H          1.7976     -9.4248     -0.2364
    53         H          4.8417     -9.1260     -2.9431
    54         H          5.2610    -10.9645     -4.5331
    55         H          0.0655     -9.0095     -2.3864
    56         H         -1.8012    -10.3469     -3.2998
    57         H         -1.3736    -12.2086     -4.8677
    58         H          3.8730    -15.4413     -5.6711
    59         H          4.3500    -17.3222     -7.2075
    60         H          1.3486    -13.5442     -8.6576
    61         H          0.5693    -14.0773    -11.1468
    62         H          0.2105    -15.0459    -13.4207
    63         H          1.2767    -17.1724    -14.0665
    64         H          2.7215    -18.4191    -12.4844
    65         H          4.2521    -19.0129     -8.9204
    66         H          3.8789    -19.2574    -10.6332
    67         H          5.9031    -17.1491     -9.5475
    68         H          6.3257    -18.6779    -10.3286
    69         H          5.5374    -17.3971    -11.2569
    70         H          2.8572      3.2151      0.1001

           Empirical Formula: C38 H23 N3 O4 S2  =    70 atoms



      MOLECULAR POINT GROUP   :   C1  


      RHF CALCULATION, NO. OF DOUBLY OCCUPIED LEVELS = 113

 WARNING: INDO only performs single-point calculations

 Summary of symmetry occupancy in each shell:

 SHELL     
    1  113
    v   98
 TOTAL 211




    ROOT NO.    1           2           3           4           5           6

           -48.68280   -48.04830   -46.80237   -45.55088   -43.65570   -43.54550
  
  
  S  N   1   0.00002     0.00006     0.04023     0.00113     0.02468     0.04047
 PX  N   1   0.00001     0.00003     0.02480     0.00059     0.01304     0.02136
 PY  N   1  -0.00000    -0.00001     0.00381    -0.00029    -0.00376    -0.00601
 PZ  N   1   0.00000     0.00000     0.00030     0.00005     0.00061     0.00098
  
  S  C   2   0.00004     0.00013     0.11458     0.00191     0.04323     0.07067
 PX  C   2   0.00001     0.00004     0.04973     0.00024     0.00710     0.01151
 PY  C   2  -0.00001    -0.00003     0.02179    -0.00104    -0.01296    -0.02072
 PZ  C   2   0.00000     0.00000     0.00094     0.00008     0.00105     0.00167
  
  S  C   3   0.00006     0.00019     0.22963     0.00176     0.05061     0.08294
 PX  C   3   0.00000     0.00000     0.03197    -0.00040    -0.00310    -0.00485
 PY  C   3  -0.00002    -0.00004     0.07703    -0.00238    -0.02941    -0.04712
 PZ  C   3   0.00000     0.00000     0.00119     0.00001     0.00015     0.00022
  
  S  C   4   0.00009     0.00027     0.11705     0.00524     0.08534     0.13761
 PX  C   4  -0.00002    -0.00007    -0.01843    -0.00165    -0.02488    -0.03999
 PY  C   4  -0.00003    -0.00007     0.04711    -0.00226    -0.02147    -0.03350
 PZ  C   4   0.00000     0.00001     0.00209     0.00015     0.00219     0.00351
  
  S  C   5   0.00026     0.00074     0.05445     0.01474     0.16942     0.26770
 PX  C   5  -0.00005    -0.00015    -0.00355    -0.00294    -0.03079    -0.04826
 PY  C   5  -0.00010    -0.00027     0.01508    -0.00475    -0.03626    -0.05517
 PZ  C   5   0.00001     0.00003     0.00315     0.00072     0.00990     0.01581
  
  S  C   6   0.00031     0.00085     0.03647     0.01628     0.17155     0.26940
 PX  C   6   0.00006     0.00017     0.00973     0.00354     0.04038     0.06371
 PY  C   6  -0.00011    -0.00029     0.00547    -0.00468    -0.03389    -0.05143
 PZ  C   6  -0.00007    -0.00021    -0.00742    -0.00399    -0.04093    -0.06412
  
  S  C   7   0.00066     0.00172     0.02012     0.02453     0.17982     0.27491
 PX  C   7   0.00016     0.00044     0.00631     0.00683     0.05484     0.08437
 PY  C   7  -0.00017    -0.00041     0.00615    -0.00229     0.02083     0.03666
 PZ  C   7  -0.00016    -0.00040    -0.00304    -0.00532    -0.03333    -0.05019
  
  S  C   8   0.00131     0.00327     0.01744     0.03766     0.19799     0.29339
 PX  C   8  -0.00010    -0.00024    -0.00121    -0.00291    -0.01642    -0.02455
 PY  C   8  -0.00057    -0.00132     0.00659    -0.00870     0.02235     0.04418
 PZ  C   8  -0.00005    -0.00011     0.00289     0.00060     0.02184     0.03532
  
  S  S   9   0.00038     0.00100     0.01942     0.01532     0.12551     0.19365
 PX  S   9  -0.00017    -0.00046    -0.00801    -0.00759    -0.06454    -0.09974
 PY  S   9  -0.00012    -0.00031     0.00553    -0.00286    -0.00005     0.00285
 PZ  S   9   0.00009     0.00026     0.00711     0.00467     0.04618     0.07217
  
  S  C  10   0.00429     0.01009     0.00660     0.08098     0.18174     0.23541
 PX  C  10  -0.00017    -0.00040    -0.00040    -0.00349    -0.00937    -0.01305
 PY  C  10  -0.00199    -0.00454     0.00185    -0.02973    -0.01877    -0.01043
 PZ  C  10  -0.00034    -0.00071     0.00116    -0.00208     0.01311     0.02179
  
  S  C  11   0.00502     0.01167     0.00383     0.08701     0.15647     0.19291
 PX  C  11   0.00056     0.00133     0.00034     0.01034     0.01806     0.02108
 PY  C  11  -0.00078    -0.00166     0.00116    -0.00667     0.01237     0.02183
 PZ  C  11  -0.00231    -0.00530    -0.00088    -0.03670    -0.05338    -0.06230
  
  S  C  12   0.01031     0.02259     0.00223     0.12667     0.13683     0.15080
 PX  C  12   0.00083     0.00185     0.00018     0.01132     0.01455     0.01272
 PY  C  12   0.00002     0.00054     0.00091     0.01776     0.04987     0.06242
 PZ  C  12  -0.00448    -0.00952    -0.00033    -0.04339    -0.02491    -0.02137
  
  S  C  13   0.01947     0.04113     0.00213     0.18889     0.13988     0.12565
 PX  C  13  -0.00057    -0.00134    -0.00016    -0.00857    -0.00443    -0.01499
 PY  C  13  -0.00613    -0.01212     0.00040    -0.03265     0.02074     0.04103
 PZ  C  13  -0.00374    -0.00709     0.00054    -0.01012     0.03236     0.05222
  
  S  S  14   0.00632     0.01399     0.00236     0.08305     0.11007     0.12299
 PX  S  14  -0.00093    -0.00213    -0.00046    -0.01452    -0.02122    -0.02644
 PY  S  14  -0.00375    -0.00806    -0.00002    -0.03972    -0.02744    -0.02058
 PZ  S  14   0.00144     0.00349     0.00134     0.03006     0.05840     0.07254
  
  S  C  15   0.04921     0.09700     0.00114     0.30277     0.08249    -0.02244
 PX  C  15  -0.00241    -0.00509    -0.00010    -0.02047     0.01804    -0.01613
 PY  C  15  -0.01374    -0.02552     0.00010    -0.05077     0.01034     0.03996
 PZ  C  15  -0.01090    -0.02006     0.00013    -0.03635     0.00977     0.03830
  
  S  C  16   0.04227     0.08110     0.00063     0.21969     0.08216    -0.06832
 PX  C  16  -0.01510    -0.02943    -0.00025    -0.08541    -0.01840     0.01500
 PY  C  16  -0.01078    -0.01941     0.00001    -0.03240    -0.00948     0.03066
 PZ  C  16  -0.00723    -0.01276     0.00005    -0.01683    -0.00527     0.02433
  
  S  C  17   0.06334     0.11074     0.00031     0.17727     0.11374    -0.13068
 PX  C  17  -0.02483    -0.04440    -0.00014    -0.08101    -0.02189     0.03832
 PY  C  17  -0.00971    -0.01267     0.00010     0.02794    -0.02060     0.01894
 PZ  C  17  -0.00523    -0.00548     0.00010     0.03235    -0.01428     0.01139
  
  S  C  18   0.12851     0.20618     0.00012     0.16449     0.11408    -0.15766
 PX  C  18  -0.01878    -0.03078    -0.00003    -0.03640     0.06602    -0.03132
 PY  C  18  -0.01916    -0.01983     0.00023     0.08534    -0.01671    -0.00045
 PZ  C  18  -0.01372    -0.01301     0.00019     0.07439    -0.02035     0.00279
  
  S  C  19   0.12563     0.21454     0.00040     0.30104    -0.07108    -0.06389
 PX  C  19   0.00386     0.00472    -0.00000    -0.00895     0.08677    -0.05145
 PY  C  19  -0.01582    -0.01746     0.00022     0.07122     0.01194    -0.01321
 PZ  C  19  -0.01360    -0.01510     0.00018     0.05994     0.00135    -0.00551
  
  S  C  20   0.07593     0.14430     0.00088     0.36790    -0.04015    -0.03513
 PX  C  20   0.00452     0.00832     0.00009     0.02139     0.06277    -0.03466
 PY  C  20  -0.01537    -0.02624     0.00009    -0.02640     0.03449     0.01419
 PZ  C  20  -0.01327    -0.02269     0.00008    -0.02350     0.02359     0.01638
  
  S  C  21   0.04466     0.08672     0.00060     0.24083    -0.08762     0.01866
 PX  C  21   0.00948     0.01864     0.00019     0.05693     0.01118    -0.00440
 PY  C  21  -0.01328    -0.02476    -0.00002    -0.05163     0.04459     0.00076
 PZ  C  21  -0.01175    -0.02198    -0.00002    -0.04685     0.03647     0.00195
  
  S  C  22   0.04002     0.07569     0.00030     0.17986    -0.12860     0.02572
 PX  C  22   0.01795     0.03399     0.00015     0.08105    -0.04511     0.00534
 PY  C  22  -0.00545    -0.00931     0.00002    -0.00857     0.02221    -0.00539
 PZ  C  22  -0.00625    -0.01098     0.00000    -0.01479     0.02289    -0.00482
  
  S  C  23   0.06270     0.10859     0.00016     0.15524    -0.19027     0.06179
 PX  C  23   0.02695     0.04585     0.00005     0.05668    -0.06007     0.01587
 PY  C  23  -0.00026     0.00376     0.00010     0.04928    -0.00195    -0.01527
 PZ  C  23  -0.00302    -0.00163     0.00008     0.03495     0.00470    -0.01430
  
  S  C  24   0.12839     0.20492     0.00002     0.14847    -0.21522     0.06744
 PX  C  24   0.02574     0.03738    -0.00004     0.00067     0.04445    -0.03708
 PY  C  24  -0.01100    -0.00740     0.00020     0.08791     0.01050    -0.03636
 PZ  C  24  -0.01192    -0.01011     0.00017     0.07283     0.00456    -0.02658
  
  S  C  25   0.20595     0.27812    -0.00062    -0.12393    -0.26677     0.20342
 PX  C  25   0.03595     0.04303    -0.00010    -0.02337     0.11635    -0.08454
 PY  C  25  -0.02194    -0.01810     0.00016     0.07290     0.04426    -0.06435
 PZ  C  25  -0.02303    -0.02016     0.00015     0.06403     0.02631    -0.04637
  
  S  O  26   0.14184     0.18697    -0.00053    -0.13893    -0.33645     0.28116
 PX  O  26   0.05233     0.06599    -0.00020    -0.05529    -0.08709     0.07879
 PY  O  26   0.02718     0.03858    -0.00009    -0.02000    -0.07479     0.05716
 PZ  O  26   0.01606     0.02465    -0.00005    -0.00981    -0.05296     0.03871
  
  S  N  27   0.28308     0.35056    -0.00094    -0.24432     0.02791     0.02446
 PX  N  27  -0.00005    -0.00370    -0.00000    -0.00611     0.12250    -0.08977
 PY  N  27  -0.00028     0.01735     0.00004     0.03287     0.00656    -0.02699
 PZ  N  27  -0.00053     0.01447     0.00003     0.02798    -0.00243    -0.01673
  
  S  C  28   0.20517     0.27896    -0.00058    -0.11483     0.26574    -0.20242
 PX  C  28  -0.02351    -0.03113     0.00004    -0.00728     0.13610    -0.09633
 PY  C  28  -0.03393    -0.03288     0.00020     0.07782    -0.03349     0.00045
 PZ  C  28  -0.02443    -0.02297     0.00015     0.06372    -0.03989     0.00951
  
  S  O  29   0.14047     0.18771    -0.00048    -0.12899     0.36010    -0.25633
 PX  O  29  -0.05933    -0.07770     0.00021     0.05600    -0.12460     0.08602
 PY  O  29   0.00500     0.01095    -0.00001     0.00413     0.03119    -0.02813
 PZ  O  29   0.01158     0.01813    -0.00003    -0.00383     0.04005    -0.03258
  
  S  C  30   0.22041     0.14355    -0.00059    -0.20100     0.05068     0.04228
 PX  C  30  -0.00542    -0.01644     0.00004     0.00871     0.04863    -0.03696
 PY  C  30   0.01852     0.07588    -0.00016    -0.03704    -0.00160    -0.00150
 PZ  C  30   0.01281     0.06659    -0.00014    -0.03183     0.01056    -0.01016
  
  S  C  31   0.14276     0.03838    -0.00028    -0.11130     0.06556     0.00990
 PX  C  31  -0.03016    -0.01389     0.00007     0.02625    -0.00170    -0.01087
 PY  C  31   0.02553     0.04325    -0.00012    -0.03669     0.02029    -0.00681
 PZ  C  31  -0.03916     0.02042     0.00001     0.01538    -0.00603    -0.01195
  
  S  C  32   0.14678    -0.05578    -0.00007    -0.04840     0.03599     0.01464
 PX  C  32  -0.03631     0.01197     0.00002     0.01400    -0.00660    -0.00631
 PY  C  32   0.02644     0.00974    -0.00007    -0.02844     0.01554     0.00619
 PZ  C  32  -0.04680     0.04062    -0.00004    -0.00778     0.00218    -0.00183
  
  S  C  33   0.30957    -0.20735     0.00010    -0.00254     0.01913     0.01026
 PX  C  33  -0.03357     0.02241    -0.00001     0.00005     0.00107    -0.00243
 PY  C  33  -0.00625     0.02973    -0.00008    -0.02980     0.01015     0.01053
 PZ  C  33  -0.08441     0.09190    -0.00013    -0.04156     0.01488     0.01070
  
  S  C  34   0.26377    -0.15382     0.00003    -0.02423     0.01259     0.02097
 PX  C  34   0.03797    -0.02393     0.00001    -0.00306     0.00732     0.00027
 PY  C  34  -0.07264     0.07237    -0.00009    -0.02397     0.00148     0.00753
 PZ  C  34  -0.01532     0.04780    -0.00011    -0.04099     0.01388     0.01486
  
  S  C  35   0.16686     0.01762    -0.00026    -0.10565     0.00874     0.05014
 PX  C  35   0.03163    -0.00331    -0.00004    -0.01855     0.01910    -0.00174
 PY  C  35  -0.03828     0.03896    -0.00003     0.00024    -0.01156    -0.00116
 PZ  C  35   0.02411     0.05405    -0.00015    -0.04859    -0.00156     0.01826
  
  S  C  36   0.23785    -0.19091     0.00017     0.04041    -0.01791    -0.00719
 PX  C  36   0.05488    -0.04372     0.00004     0.00707     0.00151    -0.00050
 PY  C  36  -0.06261     0.05630    -0.00006    -0.01747     0.00423     0.00545
 PZ  C  36   0.03760    -0.02070    -0.00000    -0.00864     0.00887     0.00711
  
  S  C  37   0.09647    -0.08139     0.00009     0.02500    -0.01893    -0.00802
 PX  C  37   0.02829    -0.02382     0.00002     0.00646    -0.00351    -0.00170
 PY  C  37  -0.03635     0.03299    -0.00004    -0.01203     0.00713     0.00457
 PZ  C  37   0.01270    -0.00723    -0.00000    -0.00254     0.00217     0.00280
  
  S  C  38   0.06781    -0.06183     0.00008     0.02526    -0.01934    -0.01078
 PX  C  38   0.01961    -0.01789     0.00002     0.00704    -0.00479    -0.00286
 PY  C  38  -0.01451     0.01375    -0.00002    -0.00602     0.00398     0.00269
 PZ  C  38   0.02468    -0.02178     0.00002     0.00767    -0.00541    -0.00273
  
  S  C  39   0.06982    -0.06472     0.00008     0.02742    -0.01969    -0.01203
 PX  C  39   0.00810    -0.00744     0.00001     0.00283    -0.00141    -0.00108
 PY  C  39   0.00963    -0.00872     0.00001     0.00348    -0.00290    -0.00146
 PZ  C  39   0.03325    -0.03034     0.00004     0.01180    -0.00765    -0.00469
  
  S  C  40   0.11263    -0.10191     0.00012     0.03754    -0.02057    -0.01425
 PX  C  40   0.00006     0.00054    -0.00000    -0.00167     0.00309     0.00129
 PY  C  40   0.03151    -0.02834     0.00003     0.01052    -0.00705    -0.00411
 PZ  C  40   0.04537    -0.03941     0.00004     0.01124    -0.00311    -0.00291
  
  S  C  41   0.28295    -0.24161     0.00025     0.06604    -0.02268    -0.01771
 PX  C  41   0.02522    -0.02103     0.00002     0.00380     0.00315    -0.00001
 PY  C  41   0.02437    -0.01795     0.00001     0.00181    -0.00225     0.00032
 PZ  C  41   0.09572    -0.07624     0.00006     0.01152     0.00380     0.00071
  
  S  N  42   0.36913    -0.30962     0.00030     0.07382    -0.01017    -0.01577
 PX  N  42  -0.01640     0.01221    -0.00001    -0.00115     0.00136    -0.00057
 PY  N  42   0.08083    -0.06313     0.00005     0.00925    -0.00027    -0.00007
 PZ  N  42  -0.00767     0.01141    -0.00002    -0.00910     0.00517     0.00373
  
  S  C  43   0.15704    -0.13597     0.00014     0.03788    -0.00521    -0.01028
 PX  C  43  -0.04208     0.03614    -0.00004    -0.00953     0.00175     0.00220
 PY  C  43   0.06533    -0.05560     0.00006     0.01407    -0.00163    -0.00330
 PZ  C  43   0.00109     0.00050    -0.00000    -0.00206     0.00158     0.00098
  
  S  C  44   0.07834    -0.06825     0.00007     0.01972    -0.00246    -0.00577
 PX  C  44  -0.03968     0.03441    -0.00004    -0.00960     0.00137     0.00257
 PY  C  44   0.00303    -0.00207     0.00000    -0.00012     0.00022     0.00020
 PZ  C  44   0.00932    -0.00748     0.00001     0.00133     0.00037    -0.00024
  
  S  C  45   0.00004     0.00017     0.51324    -0.00398    -0.01810    -0.02748
 PX  C  45  -0.00000     0.00000     0.01729    -0.00027    -0.00201    -0.00305
 PY  C  45   0.00000     0.00001     0.13732    -0.00218    -0.02633    -0.04254
 PZ  C  45   0.00000     0.00000     0.00437    -0.00006    -0.00074    -0.00121
  
  S  O  46   0.00003     0.00012     0.41083    -0.00358    -0.02023    -0.03117
 PX  O  46  -0.00001    -0.00005    -0.17540     0.00156     0.00939     0.01457
 PY  O  46  -0.00000    -0.00001    -0.00501    -0.00017    -0.00425    -0.00702
 PZ  O  46   0.00000     0.00000     0.00677    -0.00007    -0.00049    -0.00078
  
  S  O  47   0.00003     0.00016     0.57206    -0.00575    -0.04701    -0.07479
 PX  O  47   0.00001     0.00004     0.15819    -0.00164    -0.01369    -0.02179
 PY  O  47  -0.00001    -0.00002    -0.06421     0.00045     0.00101     0.00136
 PZ  O  47  -0.00000    -0.00000    -0.00907     0.00009     0.00064     0.00100
  
  S  H  48   0.00003     0.00009     0.05126     0.00150     0.02639     0.04266
  
  S  H  49   0.00008     0.00022     0.01620     0.00438     0.05056     0.07994
  
  S  H  50   0.00030     0.00075     0.00524     0.00928     0.05515     0.08280
  
  S  H  51   0.00123     0.00288     0.00155     0.02310     0.04945     0.06349
  
  S  H  52   0.00427     0.00912     0.00059     0.04487     0.03717     0.03953
  
  S  H  53   0.01042     0.02036     0.00023     0.06165     0.02980    -0.01361
  
  S  H  54   0.02167     0.03598     0.00005     0.03826     0.05240    -0.05100
  
  S  H  55   0.01228     0.02460     0.00034     0.08135    -0.00954     0.01580
  
  S  H  56   0.00941     0.01801     0.00008     0.04551    -0.03509     0.00863
  
  S  H  57   0.02156     0.03539     0.00001     0.03188    -0.07210     0.03335
  
  S  H  58   0.04723     0.02840    -0.00012    -0.04315     0.03258    -0.00595
  
  S  H  59   0.04539    -0.02278    -0.00001    -0.00923     0.00990     0.00241
  
  S  H  60   0.05581     0.01866    -0.00011    -0.03983    -0.00928     0.02445
  
  S  H  61   0.02740    -0.02068     0.00002     0.00447    -0.00511    -0.00071
  
  S  H  62   0.01545    -0.01420     0.00002     0.00618    -0.00518    -0.00282
  
  S  H  63   0.01600    -0.01510     0.00002     0.00692    -0.00530    -0.00327
  
  S  H  64   0.03641    -0.03311     0.00004     0.01221    -0.00590    -0.00459
  
  S  H  65   0.05630    -0.04781     0.00005     0.01226    -0.00086    -0.00324
  
  S  H  66   0.05558    -0.04902     0.00005     0.01491    -0.00287    -0.00439
  
  S  H  67   0.03757    -0.03150     0.00003     0.00779    -0.00029    -0.00216
  
  S  H  68   0.02167    -0.01912     0.00002     0.00588    -0.00075    -0.00185
  
  S  H  69   0.03545    -0.03103     0.00003     0.00919    -0.00149    -0.00272
  
  S  H  70   0.00001     0.00006     0.24067    -0.00249    -0.02123    -0.03386




    ROOT NO.    7           8           9          10          11          12

           -42.65373   -42.31589   -41.56503   -40.73693   -39.72324   -39.19913
  
  
  S  N   1   0.02594    -0.05887    -0.02022     0.03225    -0.04391     0.38451
 PX  N   1   0.01351    -0.03048    -0.01030     0.01605    -0.02082     0.18091
 PY  N   1  -0.00311     0.00647     0.00179    -0.00220     0.00905    -0.00179
 PZ  N   1   0.00048    -0.00097    -0.00025     0.00024     0.00025     0.00074
  
  S  C   2   0.04383    -0.09789    -0.03224     0.04867    -0.08264     0.46228
 PX  C   2   0.00643    -0.01351    -0.00366     0.00382    -0.02172    -0.05119
 PY  C   2  -0.01074     0.02237     0.00625    -0.00786     0.03717    -0.00483
 PZ  C   2   0.00082    -0.00165    -0.00041     0.00037     0.00133     0.00149
  
  S  C   3   0.05195    -0.11603    -0.03808     0.05763    -0.23058     0.30489
 PX  C   3  -0.00205     0.00382     0.00065     0.00078    -0.09645    -0.10643
 PY  C   3  -0.02508     0.05289     0.01525    -0.01976     0.07193    -0.05162
 PZ  C   3   0.00003     0.00004     0.00009    -0.00032     0.00521     0.00054
  
  S  C   4   0.07643    -0.16339    -0.04857     0.06551    -0.25460     0.20366
 PX  C   4  -0.02164     0.04575     0.01320    -0.01678     0.02784    -0.08828
 PY  C   4  -0.01335     0.02388     0.00362     0.00190    -0.08787     0.02630
 PZ  C   4   0.00187    -0.00393    -0.00111     0.00137    -0.00283     0.00526
  
  S  C   5   0.12390    -0.24436    -0.05844     0.05497    -0.02289     0.04262
 PX  C   5  -0.02050     0.03857     0.00784    -0.00453    -0.03102     0.01203
 PY  C   5  -0.01606     0.02257    -0.00113     0.01356    -0.11378     0.13437
 PZ  C   5   0.00795    -0.01619    -0.00416     0.00426    -0.00067     0.00850
  
  S  C   6   0.11733    -0.22457    -0.04891     0.03694     0.06940    -0.04290
 PX  C   6   0.02895    -0.05646    -0.01298     0.01109     0.00492    -0.00681
 PY  C   6  -0.01473     0.02084    -0.00056     0.01031    -0.07392     0.10740
 PZ  C   6  -0.02719     0.05129     0.01065    -0.00708    -0.02034     0.02149
  
  S  C   7   0.09149    -0.15218    -0.01971    -0.00557     0.14464    -0.17285
 PX  C   7   0.03000    -0.05171    -0.00781     0.00048     0.04283    -0.05300
 PY  C   7   0.02995    -0.06754    -0.01990     0.02084     0.01347    -0.00227
 PZ  C   7  -0.01382     0.02005     0.00073     0.00463    -0.02660     0.03556
  
  S  C   8   0.06548    -0.07843     0.00813    -0.03890     0.14212    -0.18835
 PX  C   8  -0.00583     0.00731    -0.00059     0.00381    -0.01575     0.01971
 PY  C   8   0.04924    -0.11420    -0.03394     0.03343     0.03853    -0.03598
 PZ  C   8   0.01827    -0.03627    -0.00805     0.00497     0.02431    -0.02786
  
  S  S   9   0.07171    -0.12718    -0.02194     0.00846     0.06876    -0.08996
 PX  S   9  -0.03716     0.06575     0.01100    -0.00295    -0.04864     0.05728
 PY  S   9   0.01209    -0.03183    -0.01191     0.01610    -0.02557     0.03246
 PZ  S   9   0.02995    -0.05588    -0.01117     0.00654     0.02821    -0.03400
  
  S  C  10  -0.05707     0.21203     0.09262    -0.11388     0.02235    -0.05466
 PX  C  10   0.00170    -0.00826    -0.00425     0.00716    -0.00301     0.00528
 PY  C  10   0.05121    -0.12801    -0.03826     0.03321     0.05303    -0.06357
 PZ  C  10   0.00950    -0.01519    -0.00046    -0.00556     0.01872    -0.02622
  
  S  C  11  -0.08379     0.26331     0.10133    -0.11696    -0.02456     0.00845
 PX  C  11  -0.01131     0.03431     0.01277    -0.01214    -0.00497     0.00375
 PY  C  11   0.01421    -0.02491    -0.00195    -0.00372     0.02681    -0.03799
 PZ  C  11   0.03848    -0.11082    -0.03851     0.04009     0.02113    -0.02023
  
  S  C  12  -0.11007     0.29230     0.08779    -0.07890    -0.06517     0.07315
 PX  C  12  -0.01087     0.02944     0.00899     0.00176    -0.00601     0.00719
 PY  C  12  -0.02924     0.09707     0.04084    -0.04825    -0.01399     0.00843
 PZ  C  12   0.02733    -0.05817    -0.00862    -0.00369     0.01705    -0.02416
  
  S  C  13  -0.12510     0.29217     0.06288     0.00459    -0.06829     0.08916
 PX  C  13   0.00771    -0.01896    -0.00531     0.03290     0.00745    -0.00767
 PY  C  13  -0.00431     0.04487     0.03371    -0.06287    -0.00490    -0.00434
 PZ  C  13  -0.01902     0.07618     0.03862    -0.06778    -0.01620     0.01127
  
  S  S  14  -0.06975     0.19741     0.06496    -0.04908    -0.02757     0.02480
 PX  S  14   0.01393    -0.04068    -0.01430     0.01856     0.00646    -0.00537
 PY  S  14   0.03272    -0.07596    -0.01671    -0.00377     0.02492    -0.03338
 PZ  S  14  -0.03217     0.10203     0.03990    -0.04663    -0.01079     0.00466
  
  S  C  15  -0.08569     0.10495    -0.03994     0.24160    -0.01348     0.04041
 PX  C  15   0.00738    -0.00114     0.00902     0.08021     0.01269    -0.01477
 PY  C  15  -0.01144     0.05196     0.02597    -0.06148    -0.02025     0.02395
 PZ  C  15  -0.01351     0.05103     0.02242    -0.06142    -0.02067     0.02478
  
  S  C  16  -0.04016     0.03656    -0.02962     0.31141     0.02095    -0.00646
 PX  C  16   0.01865    -0.01489     0.01551    -0.08173    -0.00228    -0.00261
 PY  C  16  -0.00869     0.02557     0.00746    -0.05630    -0.01475     0.01756
 PZ  C  16  -0.00984     0.02418     0.00476    -0.03786    -0.01242     0.01547
  
  S  C  17   0.01282    -0.02822    -0.00105     0.27516     0.03864    -0.03382
 PX  C  17  -0.00058     0.01460     0.00998    -0.09498    -0.01551     0.01847
 PY  C  17  -0.02045     0.01307    -0.02101     0.04853     0.00187    -0.00035
 PZ  C  17  -0.01704     0.00952    -0.01850     0.05101     0.00319    -0.00218
  
  S  C  18   0.05913    -0.07043     0.03416     0.17718     0.04420    -0.06364
 PX  C  18   0.00277     0.01664     0.01682     0.01824    -0.00754     0.02597
 PY  C  18  -0.02611    -0.00150    -0.03746     0.10217     0.01142    -0.00655
 PZ  C  18  -0.02210    -0.00283    -0.03291     0.08249     0.01016    -0.00804
  
  S  C  19   0.02398    -0.11747    -0.04683    -0.00098     0.03235    -0.05982
 PX  C  19   0.00258     0.02602     0.01890     0.19585     0.02077    -0.02360
 PY  C  19  -0.02598     0.00286    -0.03738     0.03656    -0.00271     0.01599
 PZ  C  19  -0.02205     0.00025    -0.03281     0.01021    -0.00457     0.01594
  
  S  C  20  -0.04837    -0.04032    -0.09694    -0.00135    -0.00578     0.01752
 PX  C  20  -0.00791     0.03173     0.01082     0.20858     0.01902    -0.01872
 PY  C  20  -0.01930     0.05383     0.01191     0.03945    -0.01277     0.02366
 PZ  C  20  -0.01627     0.04431     0.00961     0.01174    -0.01334     0.02264
  
  S  C  21  -0.03499    -0.04667    -0.08182    -0.23834    -0.03310     0.04777
 PX  C  21  -0.01508     0.01548    -0.00967     0.04092    -0.00188     0.00536
 PY  C  21  -0.00541     0.04396     0.02415     0.08523     0.00093     0.00080
 PZ  C  21  -0.00390     0.03680     0.02126     0.06575     0.00028     0.00104
  
  S  C  22  -0.00658    -0.08948    -0.07061    -0.30605    -0.02561     0.03328
 PX  C  22  -0.00408    -0.03358    -0.02907    -0.09825    -0.00731     0.00851
 PY  C  22  -0.00578     0.01475     0.00004     0.02564    -0.00114     0.00243
 PZ  C  22  -0.00453     0.01581     0.00295     0.03066    -0.00034     0.00133
  
  S  C  23   0.01654    -0.09521    -0.02820    -0.27329    -0.01656     0.02145
 PX  C  23   0.00841    -0.03223    -0.00550    -0.06586    -0.00050    -0.00268
 PY  C  23  -0.00686    -0.02556    -0.03338    -0.07857    -0.00513     0.00396
 PZ  C  23  -0.00655    -0.01773    -0.02693    -0.05806    -0.00420     0.00355
  
  S  C  24   0.04824    -0.09834     0.01988    -0.17772     0.00515    -0.02325
 PX  C  24   0.01162    -0.00386     0.00637     0.06053     0.01527    -0.03484
 PY  C  24  -0.01073    -0.04200    -0.05177    -0.08755    -0.00190    -0.00121
 PZ  C  24  -0.01006    -0.03439    -0.04332    -0.07877    -0.00316     0.00257
  
  S  C  25   0.05426     0.05014     0.13894     0.11107     0.00394    -0.00182
 PX  C  25   0.00308    -0.01689    -0.03952    -0.04628     0.00977    -0.04795
 PY  C  25   0.01127    -0.05124    -0.02344    -0.08738     0.00628    -0.02510
 PZ  C  25   0.00970    -0.04180    -0.01374    -0.06934     0.00412    -0.01595
  
  S  O  26   0.03087     0.10099     0.16671     0.21957    -0.01005     0.06323
 PX  O  26   0.00578     0.03382     0.04027     0.06669    -0.00168     0.01155
 PY  O  26   0.01046     0.01470     0.03826     0.03343    -0.00186     0.01166
 PZ  O  26   0.00895     0.00803     0.02979     0.02031    -0.00144     0.00859
  
  S  N  27   0.03906     0.05105     0.04944    -0.00113     0.00019    -0.03720
 PX  N  27   0.00562    -0.01899    -0.01685    -0.08358    -0.00847     0.01057
 PY  N  27   0.03712    -0.02403     0.04496    -0.01327     0.00642    -0.01737
 PZ  N  27   0.02964    -0.01953     0.03895    -0.00696     0.00572    -0.01497
  
  S  C  28   0.11084    -0.03241     0.11783    -0.11015    -0.01015     0.00978
 PX  C  28   0.02274    -0.00981     0.03290    -0.07893    -0.02390     0.06619
 PY  C  28   0.00248    -0.01935     0.00132     0.06505     0.01524    -0.01920
 PZ  C  28  -0.00148    -0.01501    -0.00403     0.06044     0.01488    -0.02251
  
  S  O  29   0.11149    -0.02824     0.13129    -0.21572    -0.04366     0.09412
 PX  O  29  -0.03762     0.00720    -0.04222     0.07485     0.01404    -0.02651
 PY  O  29   0.01596    -0.00738     0.02034    -0.00553    -0.00102     0.00599
 PZ  O  29   0.01590    -0.00669     0.01931    -0.01327    -0.00243     0.00787
  
  S  C  30  -0.15586     0.05173    -0.23701    -0.00122    -0.00153    -0.00195
 PX  C  30  -0.01403    -0.01538    -0.02581    -0.03989    -0.00226     0.00346
 PY  C  30   0.07391     0.01608     0.10517     0.00071    -0.00541    -0.00020
 PZ  C  30   0.05860     0.00770     0.09228    -0.01157    -0.00598     0.00126
  
  S  C  31  -0.18286     0.00959    -0.25477    -0.02627     0.00134     0.00149
 PX  C  31   0.02828    -0.00859     0.04468    -0.00482    -0.00087     0.00165
 PY  C  31   0.01548     0.01334     0.00595    -0.01201    -0.00400     0.00285
 PZ  C  31   0.07907     0.00331     0.10368    -0.00343    -0.00408     0.00234
  
  S  C  32  -0.21068    -0.03214    -0.19568    -0.00926     0.00566    -0.00178
 PX  C  32   0.04813     0.00114     0.06348    -0.00060    -0.00223     0.00130
 PY  C  32  -0.05425     0.01063    -0.11000    -0.00438     0.00236    -0.00074
 PZ  C  32   0.03213     0.01982    -0.01741    -0.00336    -0.00089     0.00084
  
  S  C  33  -0.20986    -0.07229    -0.07430     0.00043     0.00623    -0.00371
 PX  C  33  -0.00407    -0.01184     0.03992    -0.00240    -0.00221     0.00171
 PY  C  33  -0.03216     0.03334    -0.16019     0.00047     0.00482    -0.00266
 PZ  C  33  -0.05154     0.02371    -0.14419    -0.00313     0.00253    -0.00051
  
  S  C  34  -0.12862     0.01007    -0.23172     0.00864     0.01074    -0.00687
 PX  C  34  -0.04963    -0.01958    -0.00876    -0.00266     0.00072    -0.00043
 PY  C  34   0.00356     0.02378    -0.05729     0.00277     0.00023     0.00022
 PZ  C  34  -0.10663    -0.00939    -0.09938     0.00204     0.00226    -0.00065
  
  S  C  35  -0.15226     0.04043    -0.26973     0.02426     0.00721    -0.00446
 PX  C  35  -0.04899    -0.00240    -0.06637    -0.00895     0.00125    -0.00134
 PY  C  35   0.05970     0.00519     0.09181     0.00368    -0.00398     0.00202
 PZ  C  35  -0.02854     0.01044    -0.01536     0.00926    -0.00187     0.00101
  
  S  C  36   0.20194     0.11098    -0.12742     0.00094     0.00407    -0.00306
 PX  C  36  -0.04539    -0.03093     0.03593     0.00080     0.00041    -0.00059
 PY  C  36  -0.02914     0.00202    -0.04178     0.00130     0.00114    -0.00048
 PZ  C  36  -0.14588    -0.06788     0.02210     0.00430     0.00272    -0.00212
  
  S  C  37   0.27766     0.15634    -0.15868    -0.00279     0.00128    -0.00048
 PX  C  37   0.04511     0.02404    -0.02308    -0.00026     0.00041    -0.00030
 PY  C  37  -0.10438    -0.05320     0.04043     0.00198     0.00024    -0.00025
 PZ  C  37  -0.04772    -0.02191     0.00555     0.00239     0.00132    -0.00108
  
  S  C  38   0.30470     0.16443    -0.14257    -0.00583    -0.00093     0.00128
 PX  C  38   0.07195     0.03738    -0.02892    -0.00137    -0.00030     0.00032
 PY  C  38  -0.06115    -0.03070     0.01996     0.00148     0.00059    -0.00053
 PZ  C  38   0.07874     0.04248    -0.03843    -0.00099     0.00017    -0.00004
  
  S  C  39   0.30511     0.15858    -0.11870    -0.00657    -0.00218     0.00216
 PX  C  39   0.01680     0.00648     0.00167    -0.00037    -0.00039     0.00028
 PY  C  39   0.04812     0.02747    -0.02875    -0.00083     0.00019    -0.00004
 PZ  C  39   0.11125     0.05628    -0.03928    -0.00208    -0.00062     0.00057
  
  S  C  40   0.27093     0.12226    -0.04076    -0.00565    -0.00380     0.00293
 PX  C  40  -0.06179    -0.03814     0.04577     0.00125    -0.00035     0.00007
 PY  C  40   0.10652     0.05635    -0.04760    -0.00194    -0.00012     0.00022
 PZ  C  40   0.01277    -0.00521     0.03365     0.00012    -0.00082     0.00034
  
  S  C  41   0.19834     0.05838     0.05731    -0.00221    -0.00273     0.00123
 PX  C  41  -0.08515    -0.06076     0.09149     0.00130    -0.00151     0.00077
 PY  C  41   0.05102     0.04080    -0.07916     0.00002     0.00275    -0.00189
 PZ  C  41  -0.12147    -0.07912     0.08945     0.00336     0.00103    -0.00138
  
  S  N  42  -0.08756    -0.13296     0.31724     0.00148    -0.00654     0.00331
 PX  N  42  -0.02830    -0.02494     0.05563    -0.00064    -0.00265     0.00204
 PY  N  42  -0.00993    -0.00125    -0.02638     0.00105     0.00292    -0.00236
 PZ  N  42  -0.04804    -0.01238    -0.02873     0.00024     0.00169    -0.00099
  
  S  C  43  -0.06552    -0.09987     0.26417    -0.00054    -0.00910     0.00614
 PX  C  43   0.00480     0.01354    -0.03685    -0.00020     0.00057    -0.00015
 PY  C  43  -0.02459    -0.03289     0.07781     0.00008    -0.00200     0.00120
 PZ  C  43  -0.01545    -0.00452    -0.00843     0.00001     0.00063    -0.00040
  
  S  C  44  -0.04250    -0.06151     0.16472    -0.00061    -0.00644     0.00459
 PX  C  44   0.01533     0.02405    -0.06366     0.00009     0.00209    -0.00138
 PY  C  44  -0.00049     0.00147    -0.00763     0.00003     0.00047    -0.00035
 PZ  C  44  -0.01006    -0.00781     0.01286    -0.00009    -0.00036     0.00027
  
  S  C  45  -0.00891     0.01465     0.00147     0.00346    -0.13210    -0.05927
 PX  C  45  -0.00055    -0.00023    -0.00163     0.00823    -0.32641    -0.26026
 PY  C  45  -0.02494     0.05524     0.01828    -0.02945     0.20892    -0.07054
 PZ  C  45  -0.00077     0.00179     0.00067    -0.00133     0.02011     0.00731
  
  S  O  46  -0.01155     0.02007     0.00223     0.00771    -0.46804    -0.37739
 PX  O  46   0.00592    -0.01104    -0.00208    -0.00035     0.12455     0.11214
 PY  O  46  -0.00479     0.01117     0.00413    -0.00770     0.08871     0.01294
 PZ  O  46  -0.00038     0.00078     0.00021    -0.00024    -0.00184    -0.00402
  
  S  O  47  -0.03961     0.08542     0.02739    -0.04570     0.51328     0.11061
 PX  O  47  -0.01147     0.02455     0.00762    -0.01167     0.08117    -0.02468
 PY  O  47  -0.00035     0.00158     0.00102    -0.00214    -0.00634    -0.04438
 PZ  O  47   0.00048    -0.00100    -0.00029     0.00042    -0.00390    -0.00101
  
  S  H  48   0.02420    -0.05218    -0.01587     0.02229    -0.11546     0.04466
  
  S  H  49   0.03721    -0.07359    -0.01772     0.01677     0.00208     0.03060
  
  S  H  50   0.02203    -0.03131    -0.00077    -0.00796     0.04447    -0.05504
  
  S  H  51  -0.01936     0.06755     0.02859    -0.03601     0.00131    -0.00931
  
  S  H  52  -0.03372     0.08304     0.02115    -0.01837    -0.02118     0.02595
  
  S  H  53  -0.01667     0.02463    -0.00464     0.09518     0.00265     0.00369
  
  S  H  54   0.01158    -0.00962     0.01050     0.07139     0.00979    -0.00552
  
  S  H  55  -0.02306     0.01577    -0.01931    -0.06700    -0.01796     0.02631
  
  S  H  56  -0.00243    -0.02339    -0.01965    -0.09320    -0.00894     0.01228
  
  S  H  57   0.00792    -0.02179     0.00441    -0.07058    -0.00576     0.01061
  
  S  H  58  -0.04399     0.00407    -0.06346    -0.01779    -0.00187     0.00287
  
  S  H  59  -0.06345    -0.01794    -0.03220    -0.00353     0.00086     0.00008
  
  S  H  60  -0.02973     0.02267    -0.07226     0.01676     0.00186    -0.00079
  
  S  H  61   0.07169     0.04457    -0.05502     0.00020     0.00087    -0.00045
  
  S  H  62   0.08502     0.04680    -0.04254    -0.00172    -0.00027     0.00041
  
  S  H  63   0.08518     0.04469    -0.03378    -0.00201    -0.00075     0.00075
  
  S  H  64   0.06920     0.02592     0.01001    -0.00165    -0.00189     0.00139
  
  S  H  65  -0.03332    -0.03985     0.09507    -0.00037    -0.00330     0.00231
  
  S  H  66  -0.01318    -0.03300     0.10158    -0.00033    -0.00384     0.00261
  
  S  H  67  -0.02432    -0.02801     0.06671    -0.00039    -0.00254     0.00185
  
  S  H  68  -0.01400    -0.02052     0.05665    -0.00026    -0.00242     0.00177
  
  S  H  69  -0.01348    -0.02437     0.07030    -0.00026    -0.00279     0.00197
  
  S  H  70  -0.01821     0.03942     0.01267    -0.02076     0.19826     0.00736




    ROOT NO.   13          14          15          16          17          18

           -38.89656   -37.83940   -36.89952   -36.26566   -34.08405   -33.88562
  
  
  S  N   1  -0.07293    -0.06793    -0.19210     0.51555    -0.04779     0.05463
 PX  N   1  -0.03380    -0.02958    -0.07777     0.19623    -0.01321     0.01453
 PY  N   1   0.00031    -0.00056    -0.00244     0.00418     0.00387    -0.00520
 PZ  N   1  -0.00004     0.00014     0.00034     0.00003    -0.00087     0.00112
  
  S  C   2  -0.08507    -0.06513    -0.13763     0.27027     0.01337    -0.01946
 PX  C   2   0.01157     0.02192     0.09963    -0.34794     0.06325    -0.07559
 PY  C   2   0.00122    -0.00148    -0.00792     0.01671     0.01027    -0.01400
 PZ  C   2  -0.00006     0.00029     0.00071    -0.00000    -0.00165     0.00211
  
  S  C   3  -0.05991    -0.03207     0.00728    -0.23672     0.10648    -0.13051
 PX  C   3   0.01419     0.00881     0.02526    -0.07437     0.00957    -0.01097
 PY  C   3   0.00905    -0.00108    -0.02411     0.08375     0.00878    -0.01451
 PZ  C   3   0.00021     0.00037     0.00033     0.00186    -0.00179     0.00224
  
  S  C   4  -0.03804    -0.00500     0.07264    -0.33185     0.04035    -0.04236
 PX  C   4   0.01408     0.00329    -0.01229     0.06263    -0.00633     0.00637
 PY  C   4  -0.01191    -0.01628    -0.02586    -0.01537     0.05812    -0.07435
 PZ  C   4  -0.00079     0.00003     0.00126    -0.00345    -0.00136     0.00187
  
  S  C   5   0.00754     0.03774     0.10424    -0.15481    -0.08495     0.11018
 PX  C   5  -0.00585    -0.00754    -0.00492    -0.04124     0.02501    -0.02981
 PY  C   5  -0.02980    -0.01932     0.00194    -0.13044     0.03644    -0.04026
 PZ  C   5  -0.00023     0.00255     0.00661    -0.00284    -0.01274     0.01635
  
  S  C   6   0.02459     0.04178     0.07039     0.01858    -0.10547     0.13027
 PX  C   6   0.00533     0.01164     0.02858    -0.03924    -0.02133     0.02741
 PY  C   6  -0.02231    -0.01269     0.00281    -0.07716     0.00535    -0.00233
 PZ  C   6  -0.00768    -0.01038    -0.01687     0.00108     0.01655    -0.01991
  
  S  C   7   0.03814     0.02079    -0.01051     0.13152     0.00702    -0.01553
 PX  C   7   0.01248     0.00887     0.00410     0.02689    -0.00186     0.00043
 PY  C   7   0.01003     0.02555     0.05136    -0.00057    -0.08097     0.10020
 PZ  C   7  -0.00611     0.00023     0.01046    -0.02085    -0.01992     0.02622
  
  S  C   8   0.02667    -0.01570    -0.08338     0.12249     0.11973    -0.15420
 PX  C   8  -0.00303     0.00136     0.01010    -0.02178    -0.01266     0.01654
 PY  C   8   0.02303     0.04391     0.07578     0.02257    -0.09784     0.11732
 PZ  C   8   0.00865     0.00971     0.01002     0.02300    -0.01342     0.01525
  
  S  S   9   0.02328     0.02140     0.02584     0.01018    -0.01560     0.01714
 PX  S   9  -0.01459    -0.01235    -0.00974    -0.03001     0.01050    -0.01082
 PY  S   9  -0.00146     0.01174     0.03844    -0.05469    -0.04390     0.05701
 PZ  S   9   0.01048     0.01256     0.01845     0.00601    -0.02079     0.02498
  
  S  C  10  -0.03141    -0.09694    -0.18057     0.00259     0.17384    -0.20518
 PX  C  10   0.00139     0.00577     0.01225    -0.00297    -0.01415     0.01625
 PY  C  10   0.02406     0.02558     0.01242     0.06592     0.04331    -0.06290
 PZ  C  10   0.00224    -0.00825    -0.02723     0.01847     0.04473    -0.05449
  
  S  C  11  -0.04352    -0.09502    -0.14788    -0.05282     0.09202    -0.09483
 PX  C  11  -0.00561    -0.01091    -0.01529    -0.00874     0.00532    -0.00530
 PY  C  11   0.00356    -0.01242    -0.04277     0.02922     0.07785    -0.09883
 PZ  C  11   0.01666     0.02637     0.02944     0.02891     0.00436    -0.01048
  
  S  C  12  -0.03076    -0.02199     0.01463    -0.06027    -0.09455     0.12445
 PX  C  12  -0.00256    -0.00114     0.00354    -0.00585    -0.01679     0.01821
 PY  C  12  -0.02182    -0.04832    -0.07403    -0.03659     0.03459    -0.03263
 PZ  C  12  -0.00371    -0.02782    -0.06258    -0.00556     0.06125    -0.06773
  
  S  C  13  -0.00219     0.05956     0.15371    -0.01012    -0.17748     0.19742
 PX  C  13   0.00405     0.00148    -0.00418     0.00401     0.00138    -0.00872
 PY  C  13  -0.02510    -0.06554    -0.10569    -0.04346     0.04949    -0.04611
 PZ  C  13  -0.02496    -0.05276    -0.07309    -0.04596     0.01015     0.00348
  
  S  S  14  -0.02064    -0.02997    -0.03038    -0.02679    -0.00740     0.00692
 PX  S  14   0.00607     0.00997     0.01218     0.00805    -0.00402     0.00260
 PY  S  14   0.00255    -0.01497    -0.04519     0.01412     0.06796    -0.07843
 PZ  S  14  -0.01772    -0.03800    -0.05763    -0.02297     0.03209    -0.03335
  
  S  C  15   0.05247     0.15038     0.23271     0.07861    -0.10064     0.08086
 PX  C  15   0.00451    -0.02456    -0.05705    -0.01556     0.02360    -0.03735
 PY  C  15  -0.00421     0.00662     0.04135    -0.00574    -0.07071     0.08020
 PZ  C  15  -0.00425     0.01026     0.04692    -0.00396    -0.07096     0.08258
  
  S  C  16   0.06269     0.06099     0.03617     0.03164     0.04402    -0.08093
 PX  C  16  -0.00516    -0.03332    -0.04962    -0.02007     0.02374    -0.01758
 PY  C  16  -0.00993     0.02262     0.06267     0.01109    -0.06180     0.06399
 PZ  C  16  -0.00761     0.02304     0.05895     0.01137    -0.05600     0.05748
  
  S  C  17   0.09112    -0.04792    -0.15631    -0.03242     0.13068    -0.13328
 PX  C  17   0.00874     0.01922     0.04223     0.00882    -0.01909     0.01893
 PY  C  17  -0.01343     0.03673     0.04621     0.02326     0.01383    -0.03532
 PZ  C  17  -0.01182     0.02864     0.03385     0.01831     0.01295    -0.03124
  
  S  C  18  -0.05203    -0.16066    -0.23101    -0.08482     0.01562     0.01737
 PX  C  18   0.14105     0.03302    -0.00069     0.00883     0.05799    -0.05333
 PY  C  18   0.03523     0.02919    -0.01142     0.01212     0.06518    -0.07826
 PZ  C  18   0.01425     0.02134    -0.00932     0.00909     0.04601    -0.05970
  
  S  C  19  -0.13420    -0.10894    -0.14685    -0.05346    -0.02176     0.03507
 PX  C  19  -0.01958    -0.02794    -0.04217    -0.01036     0.02220    -0.02151
 PY  C  19   0.07451     0.07513     0.06623     0.04221     0.06897    -0.07853
 PZ  C  19   0.06381     0.06564     0.05987     0.03608     0.05330    -0.06229
  
  S  C  20   0.02606     0.11636     0.15817     0.07408     0.02048    -0.02392
 PX  C  20  -0.00813    -0.01155    -0.02625    -0.00623    -0.01938     0.00733
 PY  C  20   0.02763     0.05263     0.09672     0.02915    -0.04013     0.03852
 PZ  C  20   0.02360     0.04552     0.08511     0.02444    -0.03537     0.03579
  
  S  C  21   0.05577     0.12916     0.19047     0.07920     0.06815    -0.05883
 PX  C  21  -0.00290     0.02623     0.04910     0.01565    -0.04321     0.04426
 PY  C  21  -0.00835    -0.00157     0.01468    -0.00111    -0.03882     0.03962
 PZ  C  21  -0.00662    -0.00318     0.00911    -0.00259    -0.03021     0.03123
  
  S  C  22   0.06953     0.06777     0.06327     0.03574     0.11870    -0.11821
 PX  C  22   0.01065     0.02210     0.02611     0.01304     0.01948    -0.01634
 PY  C  22  -0.00900     0.01775     0.03999     0.01598     0.00762    -0.00414
 PZ  C  22  -0.00848     0.01260     0.03074     0.01186     0.00380    -0.00125
  
  S  C  23   0.09801    -0.01310    -0.07708    -0.02931     0.00581    -0.01659
 PX  C  23  -0.00068    -0.02449    -0.03974    -0.01869    -0.03404     0.03507
 PY  C  23  -0.01316     0.02659     0.03689     0.01968     0.05564    -0.05081
 PZ  C  23  -0.01096     0.02447     0.03452     0.01810     0.04869    -0.04539
  
  S  C  24  -0.04816    -0.12893    -0.17074    -0.08458    -0.13240     0.13285
 PX  C  24  -0.14649    -0.05446    -0.01568    -0.01390    -0.03182     0.04552
 PY  C  24  -0.01554     0.01715     0.00781     0.00954     0.04805    -0.03973
 PZ  C  24   0.00182     0.01994     0.00792     0.00918     0.04086    -0.03791
  
  S  C  25   0.02442    -0.05809    -0.03334    -0.02414    -0.08030     0.06824
 PX  C  25  -0.32455    -0.02552     0.08901     0.02186     0.01441     0.00361
 PY  C  25  -0.10908    -0.07299    -0.07038    -0.04169    -0.07757     0.08817
 PZ  C  25  -0.05816    -0.05733    -0.06936    -0.03779    -0.07777     0.06944
  
  S  O  26   0.41186     0.04083    -0.04258     0.00026     0.00499    -0.03306
 PX  O  26   0.06413     0.01863     0.01835     0.01169     0.02210    -0.02228
 PY  O  26   0.08358    -0.00478    -0.02632    -0.00966    -0.02187     0.01327
 PZ  O  26   0.06331    -0.00604    -0.02521    -0.00999    -0.02835     0.01155
  
  S  N  27  -0.37506     0.03338     0.22440     0.07464     0.03792    -0.06517
 PX  N  27   0.01304     0.02476     0.02040     0.00844    -0.01163    -0.01605
 PY  N  27  -0.05167    -0.09000    -0.05707    -0.03765    -0.07710     0.10373
 PZ  N  27  -0.04449    -0.07075    -0.05437    -0.03391    -0.09241     0.07525
  
  S  C  28   0.02880    -0.06666    -0.01743    -0.02113    -0.05221     0.07191
 PX  C  28   0.34970     0.05118    -0.03003     0.00138     0.03308    -0.01058
 PY  C  28   0.01453    -0.07123    -0.11584    -0.04598    -0.00392     0.04013
 PZ  C  28  -0.02496    -0.06031    -0.09377    -0.03833    -0.01529     0.02896
  
  S  O  29   0.42022     0.03697     0.00831     0.00572    -0.01435     0.04439
 PX  O  29  -0.09887    -0.01498    -0.02090    -0.00767     0.00480    -0.00669
 PY  O  29   0.05490    -0.01907    -0.02975    -0.01203     0.00355     0.01845
 PZ  O  29   0.05512    -0.01108    -0.02304    -0.00911    -0.00186     0.01237
  
  S  C  30  -0.09259     0.16388     0.06304     0.04534     0.11842    -0.12828
 PX  C  30   0.01623     0.01884    -0.04060    -0.01565    -0.08483    -0.00917
 PY  C  30  -0.07568    -0.00545     0.13376     0.04828     0.08811    -0.02698
 PZ  C  30  -0.06839     0.03152     0.08329     0.03071    -0.04964    -0.07468
  
  S  C  31   0.00149     0.17224    -0.13453    -0.03333    -0.16996    -0.09943
 PX  C  31   0.01348    -0.01366    -0.01384    -0.00834    -0.03884     0.01800
 PY  C  31  -0.02957     0.01240     0.08172     0.03362     0.08725    -0.03767
 PZ  C  31  -0.02454    -0.02106     0.07644     0.02585     0.03682    -0.01718
  
  S  C  32   0.03950     0.13505    -0.22940    -0.07640    -0.26830    -0.00654
 PX  C  32  -0.01482     0.00496     0.02531     0.00925     0.02099     0.00286
 PY  C  32   0.01785     0.01685    -0.04122    -0.01250    -0.02771    -0.01565
 PZ  C  32  -0.00725     0.02088     0.00412     0.00401    -0.00298    -0.02731
  
  S  C  33   0.05852    -0.08436    -0.05906    -0.03173    -0.15984     0.00562
 PX  C  33  -0.02356     0.10612    -0.06107    -0.01466    -0.04227    -0.00075
 PY  C  33   0.03780    -0.04994    -0.02020    -0.00984     0.04315     0.04281
 PZ  C  33   0.00773     0.13144    -0.14561    -0.04264    -0.06491     0.02878
  
  S  C  34   0.09465    -0.23359     0.04147    -0.00163     0.15855     0.15845
 PX  C  34   0.00644     0.00217    -0.02134    -0.00853    -0.08012    -0.04229
 PY  C  34  -0.01006     0.07681    -0.04149    -0.00620     0.11290     0.06175
 PZ  C  34   0.00421     0.10287    -0.10040    -0.02641    -0.03111    -0.01976
  
  S  C  35   0.02296    -0.00022     0.00159     0.00985     0.26892     0.08888
 PX  C  35   0.00037     0.01800    -0.02566    -0.00739    -0.01790    -0.01245
 PY  C  35  -0.03804     0.03464     0.04814     0.02066     0.00958    -0.04478
 PZ  C  35  -0.03731     0.08911     0.01027     0.01388    -0.01955    -0.09855
  
  S  C  36   0.04768    -0.20755     0.10699     0.02210     0.15630     0.15339
 PX  C  36   0.00944    -0.06606     0.04419     0.01061    -0.04420    -0.06666
 PY  C  36   0.00523     0.02537    -0.03541    -0.01051     0.09715     0.12177
 PZ  C  36   0.03132    -0.12588     0.05740     0.01088     0.02949     0.01171
  
  S  C  37   0.00751     0.01147    -0.02719    -0.00959     0.17293     0.24877
 PX  C  37   0.00476    -0.02225     0.01314     0.00311     0.01821     0.01092
 PY  C  37   0.00329    -0.01631     0.00891     0.00210     0.01286     0.00489
 PZ  C  37   0.01620    -0.07743     0.04487     0.01063     0.05895     0.02994
  
  S  C  38  -0.01911     0.13588    -0.09770    -0.02583     0.00502     0.09840
 PX  C  38  -0.00459     0.02493    -0.01426    -0.00316    -0.01551    -0.01434
 PY  C  38   0.00789    -0.03920     0.02153     0.00460     0.05759     0.06546
 PZ  C  38   0.00094     0.00014    -0.00131    -0.00053     0.04744     0.06156
  
  S  C  39  -0.03272     0.18336    -0.11215    -0.02625    -0.13467    -0.11313
 PX  C  39  -0.00414     0.01167    -0.00075     0.00111    -0.02380    -0.04855
 PY  C  39   0.00078     0.00789    -0.01143    -0.00409     0.02726     0.06345
 PZ  C  39  -0.00825     0.03761    -0.01773    -0.00321    -0.01797    -0.02313
  
  S  C  40  -0.04372     0.16828    -0.06616    -0.00895    -0.15097    -0.23146
 PX  C  40  -0.00097    -0.01666     0.01936     0.00605     0.02106     0.00035
 PY  C  40  -0.00283     0.01977    -0.01313    -0.00336    -0.01910    -0.00856
 PZ  C  40  -0.00436    -0.01959     0.03152     0.01043     0.01270    -0.02148
  
  S  C  41  -0.01468    -0.05352     0.08937     0.02907    -0.07716    -0.18094
 PX  C  41  -0.01138     0.01102     0.01194     0.00541    -0.00628    -0.03027
 PY  C  41   0.02910    -0.09880     0.03382     0.00343     0.04506     0.08572
 PZ  C  41   0.02261    -0.15212     0.09733     0.02222     0.02402     0.02247
  
  S  N  42  -0.04537     0.02280     0.05994     0.02239    -0.07820    -0.12416
 PX  N  42  -0.03173     0.14556    -0.08091    -0.01774     0.04795     0.06918
 PY  N  42   0.03740    -0.16873     0.08370     0.01557    -0.05364    -0.03500
 PZ  N  42   0.01477    -0.01055    -0.03120    -0.01416    -0.02997     0.05788
  
  S  C  43  -0.09323     0.32647    -0.13528    -0.02224     0.16156     0.13622
 PX  C  43   0.00107     0.03170    -0.03448    -0.00993     0.08632     0.10684
 PY  C  43  -0.01729     0.04188    -0.00876    -0.00014    -0.00745    -0.00881
 PZ  C  43   0.00652    -0.01295    -0.00507    -0.00377    -0.02971     0.00547
  
  S  C  44  -0.07117     0.28681    -0.14144    -0.02768     0.24877     0.24798
 PX  C  44   0.02077    -0.06748     0.02472     0.00341    -0.02184    -0.01299
 PY  C  44   0.00578    -0.02472     0.01196     0.00214    -0.02555    -0.02110
 PZ  C  44  -0.00382     0.01906    -0.01298    -0.00348     0.00215     0.01498
  
  S  C  45   0.00234    -0.00547    -0.01126    -0.00270     0.02840    -0.03704
 PX  C  45   0.02769     0.00167    -0.03261     0.15814    -0.04361     0.05333
 PY  C  45   0.02135     0.01658     0.00851     0.07625    -0.05484     0.06862
 PZ  C  45  -0.00024     0.00066     0.00198    -0.00430    -0.00052     0.00073
  
  S  O  46   0.03923    -0.00044    -0.05385     0.23114    -0.04717     0.05609
 PX  O  46  -0.01226    -0.00074     0.01292    -0.05755     0.01045    -0.01216
 PY  O  46   0.00210     0.00396     0.00462     0.00938    -0.01341     0.01703
 PZ  O  46   0.00057     0.00019    -0.00026     0.00239    -0.00093     0.00115
  
  S  O  47   0.00537     0.02037     0.04808    -0.08827    -0.01520     0.02060
 PX  O  47   0.00782     0.00665     0.00782     0.00671    -0.01363     0.01719
 PY  O  47   0.00772     0.00529     0.00500     0.01734    -0.02340     0.03032
 PZ  O  47   0.00002    -0.00003    -0.00002     0.00015    -0.00038     0.00052
  
  S  H  48  -0.01031    -0.00115     0.02616    -0.12067     0.01712    -0.01853
  
  S  H  49  -0.00065     0.00815     0.01705     0.00801    -0.03830     0.04834
  
  S  H  50   0.00948    -0.00060    -0.01897     0.04883     0.02192    -0.02921
  
  S  H  51  -0.01175    -0.03207    -0.05723    -0.00753     0.05012    -0.05567
  
  S  H  52  -0.00539     0.00593     0.02764    -0.01273    -0.04595     0.05807
  
  S  H  53   0.02376     0.02570     0.02450     0.01154     0.00285    -0.01706
  
  S  H  54   0.05751    -0.02069    -0.06371    -0.01609     0.04995    -0.04563
  
  S  H  55   0.02080     0.05846     0.09906     0.03376     0.00489     0.00149
  
  S  H  56   0.02614     0.02527     0.02582     0.01400     0.04890    -0.04950
  
  S  H  57   0.05922    -0.00738    -0.03810    -0.01523    -0.00801    -0.00019
  
  S  H  58  -0.00554     0.06977    -0.03045    -0.00529    -0.07327    -0.05167
  
  S  H  59   0.00519     0.07006    -0.08989    -0.02931    -0.10878     0.00442
  
  S  H  60   0.00457    -0.00596     0.02540     0.01286     0.14531     0.04831
  
  S  H  61   0.00654    -0.00760    -0.00574    -0.00279     0.09782     0.12652
  
  S  H  62  -0.00625     0.04841    -0.03708    -0.01019     0.00496     0.04702
  
  S  H  63  -0.01163     0.06790    -0.04333    -0.01043    -0.05966    -0.05159
  
  S  H  64  -0.02110     0.07756    -0.02875    -0.00333    -0.05803    -0.10283
  
  S  H  65  -0.03501     0.13688    -0.06735    -0.01363     0.06034     0.07213
  
  S  H  66  -0.03995     0.13824    -0.05334    -0.00746     0.07233     0.04239
  
  S  H  67  -0.02835     0.12151    -0.06523    -0.01397     0.09932     0.11222
  
  S  H  68  -0.02774     0.11813    -0.06128    -0.01243     0.11880     0.11986
  
  S  H  69  -0.03059     0.11985    -0.05657    -0.01049     0.10842     0.10079
  
  S  H  70   0.00815     0.01142     0.02026    -0.01627    -0.02106     0.02739




    ROOT NO.   19          20          21          22          23          24

           -32.69887   -32.43065   -32.00443   -30.95953   -30.54091   -30.33220
  
  
  S  N   1  -0.04574    -0.01842    -0.04531    -0.05641     0.01684    -0.09822
 PX  N   1  -0.00952    -0.00355    -0.00813    -0.00941     0.00305    -0.01824
 PY  N   1   0.00849     0.00399     0.01064     0.01141    -0.00171     0.00546
 PZ  N   1  -0.00140    -0.00064    -0.00147    -0.00043    -0.00035     0.00328
  
  S  C   2   0.03395     0.01551     0.04057     0.04637    -0.01049     0.05355
 PX  C   2   0.07662     0.03223     0.08048     0.09376    -0.02480     0.13716
 PY  C   2   0.02422     0.01140     0.03108     0.03690    -0.00705     0.03038
 PZ  C   2  -0.00260    -0.00118    -0.00268    -0.00064    -0.00070     0.00638
  
  S  C   3   0.14223     0.06059     0.14895     0.15219    -0.03403     0.17068
 PX  C   3   0.00671     0.00233     0.00262    -0.01128     0.00579    -0.04032
 PY  C   3   0.04175     0.02065     0.06202     0.09480    -0.02360     0.12376
 PZ  C   3  -0.00240    -0.00106    -0.00222     0.00037    -0.00102     0.00831
  
  S  C   4  -0.00124    -0.00498    -0.03321    -0.10079     0.03325    -0.19931
 PX  C   4   0.00029     0.00095     0.00337    -0.00186     0.00421    -0.03507
 PY  C   4   0.09920     0.04357     0.11319     0.13066    -0.03162     0.16522
 PZ  C   4  -0.00277    -0.00140    -0.00302     0.00143    -0.00235     0.01872
  
  S  C   5  -0.14662    -0.06334    -0.15981    -0.16600     0.03858    -0.19726
 PX  C   5   0.02023     0.00807     0.00926    -0.03877     0.02197    -0.15256
 PY  C   5   0.00914    -0.00058    -0.01761    -0.06153     0.01581    -0.08285
 PZ  C   5  -0.01928    -0.00919    -0.01965     0.00163    -0.00914     0.07418
  
  S  C   6  -0.12603    -0.05385    -0.10949    -0.00292    -0.03025     0.24709
 PX  C   6  -0.03564    -0.01450    -0.03768    -0.04818     0.01601    -0.09637
 PY  C   6  -0.02837    -0.01411    -0.04816    -0.08272     0.02272    -0.12134
 PZ  C   6   0.01659     0.00584     0.01190     0.00959    -0.00493     0.03449
  
  S  C   7   0.06270     0.02516     0.08138     0.13614    -0.04720     0.27703
 PX  C   7   0.00998     0.00617     0.01649     0.00868     0.00455    -0.04368
 PY  C   7  -0.09684    -0.03775    -0.07645    -0.00516    -0.01257     0.10818
 PZ  C   7  -0.03431    -0.01576    -0.03554    -0.01027    -0.00725     0.06583
  
  S  C   8   0.18184     0.08095     0.17901     0.07570     0.01297    -0.14923
 PX  C   8  -0.02512    -0.00660    -0.02137    -0.03772     0.01817    -0.11296
 PY  C   8  -0.08647    -0.03228    -0.05129     0.03031    -0.01581     0.09786
 PZ  C   8  -0.00272    -0.00488    -0.00104     0.03269    -0.01941     0.12191
  
  S  S   9  -0.01074     0.00255    -0.00007    -0.05047     0.03874    -0.27398
 PX  S   9  -0.00155    -0.00392    -0.01258    -0.01129    -0.00389     0.03790
 PY  S   9  -0.07272    -0.03415    -0.08032    -0.06140     0.00628    -0.01546
 PZ  S   9  -0.02100    -0.00785    -0.01612    -0.01141     0.00445    -0.03009
  
  S  C  10   0.12858     0.05292     0.07424    -0.05971     0.03294    -0.19471
 PX  C  10  -0.01403     0.00393     0.00441    -0.00156     0.00787    -0.04572
 PY  C  10   0.11284     0.05381     0.12829     0.06307     0.00939    -0.11435
 PZ  C  10   0.05226     0.00554     0.01531     0.00055    -0.01047     0.05308
  
  S  C  11  -0.00453    -0.04439    -0.11516    -0.10288    -0.01413     0.12584
 PX  C  11  -0.00848     0.00316    -0.00226    -0.01292     0.00581    -0.02137
 PY  C  11   0.09319     0.05098     0.09143     0.00088     0.01813    -0.11416
 PZ  C  11   0.03529     0.01458     0.03637     0.02164    -0.00478     0.01413
  
  S  C  12  -0.10540    -0.09067    -0.13660     0.01018    -0.03641     0.20130
 PX  C  12  -0.02352     0.01606     0.01945     0.00072     0.00704    -0.01071
 PY  C  12  -0.03904    -0.01488    -0.06491    -0.06650     0.00434     0.02274
 PZ  C  12   0.00399    -0.00682    -0.04749    -0.05975    -0.00375     0.04978
  
  S  C  13  -0.07609     0.02645     0.09339     0.10947     0.00388    -0.01264
 PX  C  13  -0.03584     0.06830     0.06131    -0.00794     0.01631    -0.03144
 PY  C  13  -0.05382    -0.01304    -0.07847    -0.06425     0.00885    -0.01502
 PZ  C  13  -0.05855    -0.06335    -0.12660    -0.03707    -0.01761     0.09930
  
  S  S  14  -0.03573     0.04849     0.05662    -0.00804     0.03662    -0.17377
 PX  S  14  -0.00210     0.01106     0.01254     0.00605    -0.00099     0.01076
 PY  S  14   0.06428    -0.00993    -0.00815    -0.02731     0.00115    -0.03582
 PZ  S  14  -0.00555    -0.00248    -0.01959    -0.03709     0.01194    -0.05580
  
  S  C  15   0.05623     0.09928     0.22515     0.01659     0.02849    -0.05277
 PX  C  15  -0.16475     0.16753     0.04988    -0.00766     0.01324    -0.00622
 PY  C  15  -0.04760     0.04355     0.05829     0.10139    -0.00167    -0.03920
 PZ  C  15  -0.02428     0.00910     0.03509     0.09321    -0.00837    -0.00936
  
  S  C  16  -0.21316     0.29044     0.09950    -0.00091     0.01254    -0.02499
 PX  C  16  -0.05769     0.00970    -0.07101     0.04610    -0.01774     0.00404
 PY  C  16   0.02317     0.02063     0.09720     0.02392     0.01588    -0.03214
 PZ  C  16   0.02502     0.01435     0.08669     0.01671     0.01348    -0.02105
  
  S  C  17  -0.21605     0.10275    -0.19117     0.10443    -0.04740     0.01524
 PX  C  17  -0.02859     0.04744     0.03111     0.03497     0.00186    -0.01573
 PY  C  17  -0.04162     0.10023     0.05980    -0.06847     0.01500     0.00439
 PZ  C  17  -0.03176     0.07833     0.04558    -0.06063     0.01094     0.00689
  
  S  C  18  -0.01225    -0.13257    -0.17249     0.15159    -0.05232    -0.00950
 PX  C  18  -0.09704     0.05536    -0.08438     0.09624    -0.02132    -0.01023
 PY  C  18  -0.02646     0.01100    -0.03473    -0.10137     0.01099     0.04518
 PZ  C  18  -0.01078     0.00481    -0.02033    -0.09621     0.00755     0.03951
  
  S  C  19   0.13489    -0.18521     0.02989    -0.19894     0.04405     0.06945
 PX  C  19   0.01172    -0.03726    -0.09637     0.07400    -0.04005    -0.01624
 PY  C  19   0.05804    -0.03647    -0.04816    -0.09440     0.01006     0.02387
 PZ  C  19   0.04742    -0.02621    -0.03048    -0.08632     0.01039     0.02328
  
  S  C  20   0.27795    -0.19414    -0.00644    -0.13622     0.01954     0.01167
 PX  C  20  -0.00994     0.03432     0.08447    -0.08576     0.02335     0.02656
 PY  C  20   0.02293     0.02794     0.02742     0.11726    -0.02262    -0.05209
 PZ  C  20   0.01886     0.01744     0.01265     0.10871    -0.02314    -0.03857
  
  S  C  21   0.13135    -0.09707    -0.21239     0.22217    -0.08058    -0.09697
 PX  C  21   0.13723    -0.09997     0.07779    -0.10990     0.03238     0.02966
 PY  C  21   0.03315    -0.01982     0.02246     0.03492    -0.00955    -0.01116
 PZ  C  21   0.01351    -0.00852     0.00958     0.04108    -0.01213    -0.00765
  
  S  C  22  -0.17368     0.14451    -0.19097     0.22942    -0.06638    -0.07253
 PX  C  22   0.04217    -0.04144    -0.02623    -0.02154     0.00362     0.00182
 PY  C  22   0.08134    -0.06825    -0.07538     0.07405    -0.03228    -0.03891
 PZ  C  22   0.06288    -0.05254    -0.05980     0.06329    -0.02733    -0.03120
  
  S  C  23  -0.27631     0.24087     0.12088    -0.02974     0.03169     0.04177
 PX  C  23   0.01847    -0.02200     0.08313    -0.09581     0.03278     0.03237
 PY  C  23  -0.01772     0.00518    -0.08740     0.04617    -0.01255    -0.01672
 PZ  C  23  -0.01590     0.00652    -0.08067     0.04728    -0.01456    -0.01673
  
  S  C  24  -0.08290     0.06808     0.25174    -0.11670     0.06045     0.04818
 PX  C  24   0.12095    -0.11932    -0.03712     0.03255    -0.01030    -0.02621
 PY  C  24   0.00226    -0.03318    -0.02813    -0.07557     0.02484     0.03316
 PZ  C  24  -0.00911    -0.01385    -0.02014    -0.06733     0.01803     0.03049
  
  S  C  25   0.03217     0.02041     0.04487     0.07038    -0.01092    -0.04156
 PX  C  25  -0.01123     0.03314    -0.02887     0.08260     0.01364    -0.03552
 PY  C  25  -0.04432     0.04024     0.13132     0.00240     0.02060    -0.00007
 PZ  C  25  -0.02911     0.04043     0.10881    -0.01316    -0.00276     0.00256
  
  S  O  26   0.10962    -0.09244    -0.10137    -0.00176    -0.05112    -0.01037
 PX  O  26   0.02480    -0.02398    -0.04584     0.01203     0.00000    -0.00533
 PY  O  26   0.00518     0.00456     0.01986    -0.00363    -0.00716    -0.00079
 PZ  O  26   0.00625     0.01231     0.01916    -0.00678    -0.01630    -0.00157
  
  S  N  27  -0.00994     0.12112    -0.06102     0.03017    -0.01320    -0.02766
 PX  N  27  -0.00710     0.04218     0.03328    -0.08023    -0.02850     0.02348
 PY  N  27   0.03710    -0.01339     0.03825     0.13703    -0.00779    -0.06953
 PZ  N  27   0.04742     0.01394     0.01973     0.09333    -0.05849    -0.05793
  
  S  C  28   0.03210    -0.01588    -0.01056     0.12965    -0.02785    -0.05547
 PX  C  28   0.00197    -0.05082     0.03886    -0.08630     0.05409     0.03953
 PY  C  28  -0.01452    -0.08220    -0.06217     0.13011    -0.00463    -0.02115
 PZ  C  28  -0.00793    -0.05305    -0.05813     0.10394    -0.02882    -0.01911
  
  S  O  29   0.05338    -0.03948     0.11270    -0.09473     0.07067     0.01568
 PX  O  29  -0.01360    -0.00538    -0.02642     0.02504    -0.00796    -0.00165
 PY  O  29  -0.00557    -0.02973    -0.01494     0.05375     0.01226    -0.01130
 PZ  O  29  -0.00129    -0.01871    -0.01111     0.03332    -0.00039    -0.00694
  
  S  C  30  -0.11464    -0.03314     0.00388    -0.14449     0.04951     0.09660
 PX  C  30   0.03015     0.05769     0.01530    -0.05905    -0.09698     0.00438
 PY  C  30  -0.01811     0.02519    -0.02617    -0.00958     0.07339     0.00860
 PZ  C  30   0.05169     0.13038    -0.06786    -0.09497    -0.12169     0.01142
  
  S  C  31   0.04803     0.10386    -0.03588    -0.16226    -0.25575     0.04323
 PX  C  31   0.03753     0.03081    -0.01155     0.01058    -0.04220    -0.01775
 PY  C  31  -0.06168    -0.02178     0.02666    -0.07065     0.05178     0.04426
 PZ  C  31  -0.00292     0.02916    -0.01170    -0.05075    -0.02220     0.01809
  
  S  C  32   0.16008     0.14394    -0.09877     0.03986    -0.12942    -0.04860
 PX  C  32   0.00344     0.01606    -0.00739    -0.02141    -0.02331     0.00601
 PY  C  32  -0.01823    -0.02480     0.02820    -0.02439    -0.06941     0.00425
 PZ  C  32  -0.01584     0.00209     0.01304    -0.07666    -0.13502     0.02229
  
  S  C  33   0.11020     0.08800    -0.07633     0.11662     0.12154    -0.05824
 PX  C  33   0.04181     0.05053    -0.04238    -0.00480     0.01361     0.00893
 PY  C  33  -0.05078    -0.08812     0.07953     0.03315    -0.07951    -0.03580
 PZ  C  33   0.02997     0.00023    -0.00066     0.03615    -0.04909    -0.02197
  
  S  C  34  -0.05514    -0.11437     0.10258     0.10592     0.03541    -0.05996
 PX  C  34   0.01839     0.01405    -0.01495     0.02238     0.01895    -0.01442
 PY  C  34  -0.05926    -0.08104     0.05234     0.00749     0.06077     0.02484
 PZ  C  34  -0.03757    -0.08073     0.02965     0.06354     0.13422     0.00329
  
  S  C  35  -0.16619    -0.22676     0.11680     0.06632     0.23157     0.03330
 PX  C  35  -0.01618    -0.01404     0.01893    -0.00196     0.00680     0.00260
 PY  C  35   0.00553     0.03627    -0.03910    -0.04362     0.00929     0.02587
 PZ  C  35  -0.02044     0.00491    -0.03666    -0.05068     0.02794     0.03833
  
  S  C  36   0.03318     0.06883     0.00618    -0.07775    -0.25398    -0.01444
 PX  C  36  -0.03257    -0.04559     0.02892     0.01941    -0.01848    -0.02235
 PY  C  36   0.02921     0.03334    -0.01420     0.00797     0.06069     0.01262
 PZ  C  36  -0.03201    -0.05527     0.04215     0.05420     0.04790    -0.03097
  
  S  C  37   0.14746     0.22778    -0.12731    -0.10603    -0.00263     0.06967
 PX  C  37  -0.00986    -0.01148     0.01907    -0.01182    -0.08962    -0.01266
 PY  C  37  -0.00732    -0.01090     0.00417     0.00895     0.04651     0.00667
 PZ  C  37  -0.03361    -0.04247     0.04970    -0.01500    -0.14044    -0.01916
  
  S  C  38   0.12736     0.16943    -0.13683     0.01856     0.30622     0.04573
 PX  C  38  -0.00824    -0.01550     0.01057     0.00781    -0.02558    -0.01096
 PY  C  38   0.03753     0.06733    -0.03630    -0.05299    -0.02224     0.03290
 PZ  C  38   0.03585     0.06271    -0.02893    -0.05991    -0.09222     0.02308
  
  S  C  39  -0.04128    -0.10133     0.03252     0.14689     0.22834    -0.05293
 PX  C  39  -0.04790    -0.07066     0.05024     0.00768    -0.08720    -0.01889
 PY  C  39   0.06622     0.09872    -0.06859    -0.02194     0.08303     0.02729
 PZ  C  39  -0.01528    -0.02089     0.01665    -0.01456    -0.08127    -0.00348
  
  S  C  40  -0.17196    -0.26220     0.15675     0.07117    -0.09669    -0.04856
 PX  C  40  -0.01253    -0.00679     0.00830    -0.02972    -0.03626     0.01676
 PY  C  40   0.00754     0.00830    -0.00527     0.00064    -0.02571    -0.00893
 PZ  C  40  -0.01850    -0.00313     0.00930    -0.07097    -0.11713     0.02982
  
  S  C  41  -0.10519    -0.11295     0.07827    -0.07533    -0.22081     0.01096
 PX  C  41  -0.01406    -0.01142    -0.00357    -0.00495     0.07862     0.02435
 PY  C  41   0.05657     0.07804    -0.02969    -0.00936    -0.08937    -0.02949
 PZ  C  41   0.04863     0.08895    -0.05899    -0.03208     0.06963     0.02397
  
  S  N  42   0.01483     0.05328    -0.07891    -0.04616     0.22628     0.08835
 PX  N  42   0.02031     0.01932    -0.01649     0.01455     0.07320     0.01171
 PY  N  42   0.02730     0.03674    -0.02002     0.01403    -0.04287    -0.03713
 PZ  N  42   0.08929     0.09696    -0.07342     0.05834     0.10922    -0.02622
  
  S  C  43  -0.01713    -0.01942     0.02191    -0.00968     0.04029     0.02533
 PX  C  43   0.00260    -0.00955     0.03894     0.02580    -0.15192    -0.06686
 PY  C  43   0.01154     0.02011    -0.02306    -0.00507     0.05670     0.01673
 PZ  C  43   0.04166     0.05021    -0.04250     0.01390     0.06265     0.00239
  
  S  C  44  -0.02028    -0.04078     0.08614     0.02764    -0.24115    -0.09370
 PX  C  44   0.00367     0.00181     0.00297     0.00686    -0.04264    -0.01986
 PY  C  44   0.00687     0.00959    -0.01119     0.00036     0.01410     0.00213
 PZ  C  44   0.01490     0.01746    -0.01323     0.00542     0.01970     0.00013
  
  S  C  45   0.05588     0.02548     0.06953     0.09089    -0.02209     0.11502
 PX  C  45  -0.06011    -0.02611    -0.06619    -0.07389     0.01661    -0.08288
 PY  C  45  -0.08371    -0.03659    -0.09322    -0.10210     0.02260    -0.11144
 PZ  C  45  -0.00126    -0.00058    -0.00151    -0.00141     0.00017    -0.00028
  
  S  O  46  -0.05269    -0.02190    -0.05125    -0.04397     0.00790    -0.03316
 PX  O  46   0.00959     0.00378     0.00796     0.00425    -0.00039     0.00030
 PY  O  46  -0.02223    -0.00984    -0.02544    -0.02821     0.00604    -0.02884
 PZ  O  46  -0.00130    -0.00056    -0.00139    -0.00135     0.00024    -0.00100
  
  S  O  47  -0.03364    -0.01537    -0.04201    -0.05544     0.01391    -0.07413
 PX  O  47  -0.02158    -0.00949    -0.02431    -0.02688     0.00593    -0.02921
 PY  O  47  -0.04576    -0.02103    -0.05824    -0.08043     0.02014    -0.10682
 PZ  O  47  -0.00097    -0.00047    -0.00136    -0.00202     0.00050    -0.00258
  
  S  H  48   0.00249    -0.00052    -0.01043    -0.04521     0.01744    -0.11124
  
  S  H  49  -0.05377    -0.02421    -0.05258    -0.00841    -0.01463     0.12664
  
  S  H  50   0.04463     0.01565     0.04397     0.06139    -0.02395     0.14464
  
  S  H  51   0.02238    -0.01230    -0.03248    -0.03523    -0.01051     0.07297
  
  S  H  52  -0.02788    -0.04245    -0.05133     0.02353    -0.02244     0.10177
  
  S  H  53  -0.11796     0.15402     0.06274     0.02903     0.00612    -0.02420
  
  S  H  54  -0.10817     0.04985    -0.08804     0.08403    -0.02381    -0.00215
  
  S  H  55   0.06515    -0.05081    -0.09933     0.15207    -0.05196    -0.05306
  
  S  H  56  -0.08775     0.07597    -0.09627     0.14016    -0.04191    -0.04510
  
  S  H  57  -0.13063     0.12105     0.06266     0.00301     0.00675     0.01453
  
  S  H  58   0.03096     0.07216    -0.02423    -0.10317    -0.14658     0.02581
  
  S  H  59   0.08428     0.08574    -0.05961     0.01092    -0.06366    -0.02037
  
  S  H  60  -0.06690    -0.08996     0.03787     0.02338     0.10948     0.02004
  
[...]
          COMPUTATION TIME        =  6 MINUTES AND 53.871 SECONDS




   ATOM   CHEMICAL          X               Y               Z
  NUMBER   SYMBOL      (ANGSTROMS)     (ANGSTROMS)     (ANGSTROMS)
 
     1       N          0.00000000  *   0.00000000  *   0.00000000  *
     2       C          1.15641021  *   0.00000000  *   0.00000000  *
     3       C          2.57358328  *   0.01902782  *   0.00000000  *
     4       C          3.32275188  *  -1.09964005  *  -0.04312010  *
     5       C          2.76470142  *  -2.42098549  *  -0.03848191  *
     6       C          1.66184795  *  -2.85087558  *   0.64938769  *
     7       C          1.40580443  *  -4.24055465  *   0.43008056  *
     8       C          2.32414496  *  -4.80394977  *  -0.41460365  *
     9       S          3.50546825  *  -3.68116638  *  -0.92888868  *
    10       C          2.33074051  *  -6.17423070  *  -0.81365323  *
    11       C          1.95343451  *  -7.22015047  *  -0.01752450  *
    12       C          2.04519299  *  -8.47420649  *  -0.70382345  *
    13       C          2.48598741  *  -8.32094293  *  -1.98601712  *
    14       S          2.78681821  *  -6.68580411  *  -2.38351894  *
    15       C          2.70861426  *  -9.38978731  *  -2.93738571  *
    16       C          3.98805049  *  -9.69068032  *  -3.33138300  *
    17       C          4.22702907  * -10.74507763  *  -4.23746156  *
    18       C          3.17761279  * -11.47947824  *  -4.73103702  *
    19       C          1.85024477  * -11.18116763  *  -4.34336095  *
    20       C          1.60538074  * -10.13106703  *  -3.44416204  *
    21       C          0.26758153  *  -9.83585003  *  -3.07656276  *
    22       C         -0.76778214  * -10.57171433  *  -3.58175241  *
    23       C         -0.52300311  * -11.63393326  *  -4.47955536  *
    24       C          0.76381044  * -11.93008338  *  -4.85457023  *
    25       C          1.00099538  * -13.03760173  *  -5.79800994  *
    26       O          0.09250506  * -13.71012007  *  -6.26666264  *
    27       N          2.34165556  * -13.31325150  *  -6.15879564  *
    28       C          3.44996049  * -12.58262637  *  -5.67049908  *
    29       O          4.58266171  * -12.87573925  *  -6.03043776  *
    30       C          2.59146515  * -14.39605258  *  -7.07824483  *
    31       C          3.42323939  * -15.45084759  *  -6.66953317  *
    32       C          3.69635704  * -16.50705945  *  -7.52351473  *
    33       C          3.10934270  * -16.48675216  *  -8.78587307  *
    34       C          2.26942840  * -15.41592756  *  -9.19534346  *
    35       C          2.00347942  * -14.36029597  *  -8.34117193  *
    36       C          1.85304722  * -15.69902138  * -10.54604937  *
    37       C          1.04104829  * -15.01911384  * -11.43803265  *
    38       C          0.84604894  * -15.56540267  * -12.69844530  *
    39       C          1.44954852  * -16.77248508  * -13.06231341  *
    40       C          2.26065222  * -17.47658950  * -12.18486508  *
    41       C          2.45469885  * -16.93149684  * -10.91905073  *
    42       N          3.15931207  * -17.45613104  *  -9.81129850  *
    43       C          4.19634983  * -18.48144630  *  -9.89924108  *
    44       C          5.55524013  * -17.89539231  * -10.27691189  *
    45       C          3.23399343  *   1.33237282  *   0.01972018  *
    46       O          4.43821717  *   1.53976879  *  -0.02026570  *
    47       O          2.38012087  *   2.37228692  *   0.09208609  *
    48       H          4.42118626  *  -1.03223782  *  -0.08928216  *
    49       H          1.04739730  *  -2.24187943  *   1.31041126  *
    50       H          0.56662619  *  -4.76534649  *   0.88115955  *
    51       H          1.62936696  *  -7.13482101  *   1.01709727  *
    52       H          1.79759215  *  -9.42475331  *  -0.23639394  *
    53       H          4.84170815  *  -9.12595707  *  -2.94308779  *
    54       H          5.26098319  * -10.96451300  *  -4.53308213  *
    55       H          0.06554933  *  -9.00947550  *  -2.38642848  *
    56       H         -1.80124716  * -10.34687572  *  -3.29977184  *
    57       H         -1.37357079  * -12.20861164  *  -4.86767195  *
    58       H          3.87300752  * -15.44133875  *  -5.67113484  *
    59       H          4.34998282  * -17.32219736  *  -7.20753242  *
    60       H          1.34855418  * -13.54418111  *  -8.65761630  *
    61       H          0.56931693  * -14.07734597  * -11.14682520  *
    62       H          0.21048424  * -15.04590964  * -13.42069705  *
    63       H          1.27671587  * -17.17240086  * -14.06650074  *
    64       H          2.72148049  * -18.41914827  * -12.48435233  *
    65       H          4.25210394  * -19.01290802  *  -8.92035261  *
    66       H          3.87888040  * -19.25740396  * -10.63318742  *
    67       H          5.90308352  * -17.14907369  *  -9.54754080  *
    68       H          6.32569731  * -18.67786352  * -10.32863725  *
    69       H          5.53743763  * -17.39711701  * -11.25685191  *
    70       H          2.85715318  *   3.21510091  *   0.10006012  *

                             CARTESIAN COORDINATES

   1    N        0.000000000     0.000000000     0.000000000
   2    C        1.156410208     0.000000000     0.000000000
   3    C        2.573583276     0.019027819     0.000000000
   4    C        3.322751875    -1.099640045    -0.043120097
   5    C        2.764701417    -2.420985492    -0.038481909
   6    C        1.661847953    -2.850875581     0.649387690
   7    C        1.405804428    -4.240554652     0.430080560
   8    C        2.324144959    -4.803949769    -0.414603647
   9    S        3.505468248    -3.681166384    -0.928888684
  10    C        2.330740512    -6.174230700    -0.813653227
  11    C        1.953434513    -7.220150468    -0.017524496
  12    C        2.045192991    -8.474206490    -0.703823446
  13    C        2.485987410    -8.320942925    -1.986017117
  14    S        2.786818208    -6.685804107    -2.383518936
  15    C        2.708614260    -9.389787307    -2.937385706
  16    C        3.988050491    -9.690680323    -3.331383004
  17    C        4.227029069   -10.745077630    -4.237461558
  18    C        3.177612795   -11.479478240    -4.731037023
  19    C        1.850244766   -11.181167630    -4.343360948
  20    C        1.605380736   -10.131067030    -3.444162042
  21    C        0.267581530    -9.835850028    -3.076562757
  22    C       -0.767782144   -10.571714330    -3.581752410
  23    C       -0.523003111   -11.633933260    -4.479555357
  24    C        0.763810436   -11.930083380    -4.854570233
  25    C        1.000995380   -13.037601730    -5.798009936
  26    O        0.092505065   -13.710120070    -6.266662644
  27    N        2.341655560   -13.313251500    -6.158795637
  28    C        3.449960491   -12.582626370    -5.670499083
  29    O        4.582661708   -12.875739250    -6.030437756
  30    C        2.591465152   -14.396052580    -7.078244832
  31    C        3.423239393   -15.450847590    -6.669533175
  32    C        3.696357042   -16.507059450    -7.523514730
  33    C        3.109342695   -16.486752160    -8.785873068
  34    C        2.269428397   -15.415927560    -9.195343456
  35    C        2.003479415   -14.360295970    -8.341171927
  36    C        1.853047221   -15.699021380   -10.546049370
  37    C        1.041048286   -15.019113840   -11.438032650
  38    C        0.846048937   -15.565402670   -12.698445300
  39    C        1.449548517   -16.772485080   -13.062313410
  40    C        2.260652225   -17.476589500   -12.184865080
  41    C        2.454698848   -16.931496840   -10.919050730
  42    N        3.159312069   -17.456131040    -9.811298502
  43    C        4.196349827   -18.481446300    -9.899241081
  44    C        5.555240133   -17.895392310   -10.276911890
  45    C        3.233993435     1.332372818     0.019720181
  46    O        4.438217170     1.539768787    -0.020265701
  47    O        2.380120873     2.372286922     0.092086091
  48    H        4.421186255    -1.032237815    -0.089282163
  49    H        1.047397299    -2.241879432     1.310411259
  50    H        0.566626190    -4.765346493     0.881159555
  51    H        1.629366956    -7.134821011     1.017097266
  52    H        1.797592153    -9.424753312    -0.236393938
  53    H        4.841708149    -9.125957072    -2.943087795
  54    H        5.260983194   -10.964513000    -4.533082128
  55    H        0.065549328    -9.009475499    -2.386428476
  56    H       -1.801247159   -10.346875720    -3.299771838
  57    H       -1.373570793   -12.208611640    -4.867671946
  58    H        3.873007518   -15.441338750    -5.671134836
  59    H        4.349982816   -17.322197360    -7.207532418
  60    H        1.348554182   -13.544181110    -8.657616295
  61    H        0.569316933   -14.077345970   -11.146825200
  62    H        0.210484238   -15.045909640   -13.420697050
  63    H        1.276715872   -17.172400860   -14.066500740
  64    H        2.721480490   -18.419148270   -12.484352330
  65    H        4.252103937   -19.012908020    -8.920352614
  66    H        3.878880400   -19.257403960   -10.633187420
  67    H        5.903083520   -17.149073690    -9.547540798
  68    H        6.325697313   -18.677863520   -10.328637250
  69    H        5.537437628   -17.397117010   -11.256851910
  70    H        2.857153177     3.215100912     0.100060124


           Empirical Formula: C38 H23 N3 O4 S2  =    70 atoms



      MOLECULAR POINT GROUP   :   C1  


                  EIGENVALUES  
 -48.68280 -48.04830 -46.80237 -45.55088 -43.65570 -43.54550 -42.65373 -42.31589
 -41.56503 -40.73693 -39.72324 -39.19913 -38.89656 -37.83940 -36.89952 -36.26566
 -34.08405 -33.88562 -32.69887 -32.43065 -32.00443 -30.95953 -30.54091 -30.33220
 -29.49645 -28.60743 -28.26582 -27.71734 -27.20991 -26.52312 -26.17405 -25.84784
 -24.88408 -24.79720 -24.46268 -24.32696 -24.01514 -23.58619 -22.85096 -22.72453
 -21.80189 -21.05229 -20.61772 -20.44892 -20.28912 -20.19542 -19.44262 -18.91555
 -18.78375 -18.18954 -18.01146 -17.88246 -17.83538 -17.30982 -17.09000 -16.97340
 -16.69424 -16.55005 -16.38633 -16.32390 -15.94293 -15.81937 -15.69760 -15.56111
 -15.46398 -15.37656 -15.22542 -15.00279 -14.71049 -14.67237 -14.62435 -14.56276
 -14.45839 -14.42144 -14.24761 -14.06950 -13.84323 -13.56605 -13.46894 -13.40299
 -13.31308 -13.28621 -13.03666 -12.98972 -12.87455 -12.82021 -12.72628 -12.70066
 -12.68511 -12.14444 -12.00123 -11.98532 -11.95683 -11.85821 -11.83817 -11.67463
 -11.11080 -10.83888 -10.60815 -10.35747 -10.27839 -10.26631 -10.09980 -10.04908
  -9.91334  -9.86397  -8.94357  -8.89661  -8.72300  -8.16396  -7.75722  -7.57238
  -7.24522  -1.21718  -1.08503  -0.05815   0.16497   0.19097   0.37725   0.70230
   0.74392   0.84855   1.07328   1.10326   1.49069   1.62996   1.83921   1.97647
   2.01558   2.06159   2.18929   2.27291   2.37972   2.42521   2.63416   2.76850
   2.81638   2.89930   2.93505   3.09492   3.15964   3.35182   3.42959   3.45748
   3.60402   3.64935   3.76487   3.78931   3.84330   3.89310   4.20880   4.22678
   4.23887   4.47027   4.54162   4.81109   4.92019   4.97968   5.33543   5.38986
   5.47548   5.50082   5.59219   5.71993   5.87771   6.02029   6.39569   6.46432
   6.65355   6.79496   6.88242   7.00149   7.02903   7.18553   7.58537   7.68988
   8.25987   8.33631   8.38874   8.67687   8.72241   8.83048   9.06733   9.08138
   9.17279   9.32580   9.72703   9.75329  10.13239  10.52724  10.68387  10.86103
  10.92142  11.13492  11.53352  11.64362  11.70447  11.97035  12.09228  12.40525
  12.45832  12.66777  12.72188  12.99569  13.21501  13.33559  13.75731  13.93451
  14.09349  14.18117  15.07429


              NET ATOMIC CHARGES AND DIPOLE CONTRIBUTIONS

  ATOM NO.   TYPE          CHARGE      No. of ELECS.   s-Pop       p-Pop       
    1          N          -0.398142        5.3981     1.75352     3.64462
    2          C           0.219513        3.7805     1.14830     2.63219
    3          C           0.017655        3.9823     1.00089     2.98145
    4          C           0.132895        3.8671     1.09454     2.77257
    5          C           0.014187        3.9858     1.06353     2.92229
    6          C           0.014513        3.9855     1.09489     2.89060
    7          C          -0.048019        4.0480     1.08415     2.96387
    8          C           0.072090        3.9279     1.07568     2.85223
    9          S          -0.037966        6.0380     1.77147     4.26650
   10          C           0.027096        3.9729     1.06755     2.90536
   11          C          -0.027136        4.0271     1.08948     2.93766
   12          C          -0.049391        4.0494     1.08308     2.96631
   13          C           0.048260        3.9517     1.08052     2.87122
   14          S          -0.040120        6.0401     1.77175     4.26837
   15          C           0.078074        3.9219     1.05182     2.87011
   16          C          -0.033332        4.0333     1.07687     2.95646
   17          C           0.042642        3.9574     1.09241     2.86494
   18          C          -0.012158        4.0122     1.03623     2.97593
   19          C           0.046155        3.9538     1.04501     2.90884
   20          C           0.017148        3.9829     1.03827     2.94458
   21          C           0.017519        3.9825     1.09185     2.89063
   22          C          -0.020429        4.0204     1.07916     2.94127
   23          C           0.043644        3.9564     1.09049     2.86587
   24          C          -0.003733        4.0037     1.03771     2.96602
   25          C           0.425058        3.5749     1.05437     2.52057
   26          O          -0.624268        6.6243     1.81709     4.80718
   27          N          -0.084300        5.0843     1.24422     3.84008
   28          C           0.423478        3.5765     1.05442     2.52211
   29          O          -0.626485        6.6265     1.81727     4.80921
   30          C           0.074547        3.9255     1.04203     2.88343
   31          C          -0.024874        4.0249     1.07966     2.94522
   32          C          -0.038456        4.0385     1.07763     2.96083
   33          C           0.074378        3.9256     1.05033     2.87530
   34          C          -0.013486        4.0135     1.04979     2.96370
   35          C          -0.023973        4.0240     1.07859     2.94538
   36          C          -0.016543        4.0165     1.04707     2.96947
   37          C          -0.020478        4.0205     1.07920     2.94128
   38          C          -0.044193        4.0442     1.07737     2.96682
   39          C          -0.022756        4.0228     1.08060     2.94216
   40          C          -0.041917        4.0419     1.07554     2.96638
   41          C           0.079445        3.9206     1.05222     2.86833
   42          N          -0.156195        5.1562     1.26738     3.88881
   43          C           0.080069        3.9199     1.04004     2.87989
   44          C          -0.019971        4.0200     1.05389     2.96608
   45          C           0.501746        3.4983     1.04474     2.45351
   46          O          -0.608079        6.6081     1.81656     4.79151
   47          O          -0.309379        6.3094     1.68682     4.62256
   48          H           0.065266        0.9347     0.93473
   49          H           0.046781        0.9532     0.95322
   50          H           0.037440        0.9626     0.96256
   51          H           0.037239        0.9628     0.96276
   52          H           0.035190        0.9648     0.96481
   53          H           0.029818        0.9702     0.97018
   54          H           0.039814        0.9602     0.96019
   55          H           0.037097        0.9629     0.96290
   56          H           0.030285        0.9697     0.96971
   57          H           0.040304        0.9597     0.95970
   58          H           0.027926        0.9721     0.97207
   59          H           0.029577        0.9704     0.97042
   60          H           0.032573        0.9674     0.96743
   61          H           0.023927        0.9761     0.97607
   62          H           0.016604        0.9834     0.98340
   63          H           0.019544        0.9805     0.98046
   64          H           0.027245        0.9728     0.97276
   65          H           0.019081        0.9809     0.98092
   66          H           0.020064        0.9799     0.97994
   67          H           0.012892        0.9871     0.98711
   68          H           0.006527        0.9935     0.99347
   69          H           0.012849        0.9872     0.98715
   70          H           0.247622        0.7524     0.75238
 DIPOLE           X         Y         Z       TOTAL
 POINT-CHG.    -0.129    -0.468     5.502     5.523
 HYBRID         0.002     0.267     2.486     2.501
 SUM           -0.128    -0.201     7.989     7.992


          ATOMIC ORBITAL ELECTRON POPULATIONS

     Atom    s        px        py        pz   
    1  N   1.75352   1.23109   1.23087   1.18267
    2  C   1.14830   0.95030   0.80609   0.87580
    3  C   1.00089   0.90567   0.92204   1.15375
    4  C   1.09454   0.98568   0.99580   0.79108
    5  C   1.06353   0.99665   0.90909   1.01654
    6  C   1.09489   0.94742   0.98878   0.95440
    7  C   1.08415   0.97972   0.97776   1.00639
    8  C   1.07568   0.95183   0.92578   0.97462
    9  S   1.77147   1.44128   1.17206   1.65316
   10  C   1.06755   1.03870   0.95080   0.91586
   11  C   1.08948   0.99391   0.99830   0.94545
   12  C   1.08308   1.03672   0.94849   0.98110
   13  C   1.08052   0.98655   0.89554   0.98913
   14  S   1.77175   1.82715   1.15739   1.28382
   15  C   1.05182   0.99590   0.94433   0.92987
   16  C   1.07687   0.95612   0.99632   1.00402
   17  C   1.09241   0.96494   0.96134   0.93866
   18  C   1.03623   0.97960   0.98386   1.01246
   19  C   1.04501   0.97215   0.97085   0.96584
   20  C   1.03827   0.96259   0.98412   0.99787
   21  C   1.09185   0.99192   0.95469   0.94403
   22  C   1.07916   0.95530   0.99441   0.99156
   23  C   1.09049   0.97494   0.95204   0.93889
   24  C   1.03771   0.98438   0.97748   1.00417
   25  C   1.05437   0.86574   0.85190   0.80293
   26  O   1.81709   1.57124   1.60131   1.63463
   27  N   1.24422   1.05966   1.33435   1.44607
   28  C   1.05442   0.87469   0.84748   0.79994
   29  O   1.81727   1.35997   1.77271   1.67653
   30  C   1.04203   1.01680   0.92310   0.94353
   31  C   1.07966   0.99872   0.98645   0.96004
   32  C   1.07763   1.00422   0.98011   0.97649
   33  C   1.05033   1.00159   0.94113   0.93257
   34  C   1.04979   1.00939   0.98279   0.97152
   35  C   1.07859   0.99716   0.97487   0.97335
   36  C   1.04707   1.00662   0.99443   0.96843
   37  C   1.07920   0.98965   0.95873   0.99290
   38  C   1.07737   1.00155   0.98986   0.97541
   39  C   1.08060   0.99654   0.99069   0.95492
   40  C   1.07554   1.01683   0.96744   0.98211
   41  C   1.05222   0.97423   0.97783   0.91627
   42  N   1.26738   1.41236   1.29960   1.17685
   43  C   1.04004   0.95550   0.92691   0.99748
   44  C   1.05389   0.97474   0.99507   0.99626
   45  C   1.04474   0.87901   0.90671   0.66780
   46  O   1.81656   1.27960   1.95600   1.55591
   47  O   1.68682   1.52814   1.20830   1.88612
   48  H   0.93473
   49  H   0.95322
   50  H   0.96256
   51  H   0.96276
   52  H   0.96481
   53  H   0.97018
   54  H   0.96019
   55  H   0.96290
   56  H   0.96971
   57  H   0.95970
   58  H   0.97207
   59  H   0.97042
   60  H   0.96743
   61  H   0.97607
   62  H   0.98340
   63  H   0.98046
   64  H   0.97276
   65  H   0.98092
   66  H   0.97994
   67  H   0.98711
   68  H   0.99347
   69  H   0.98715
   70  H   0.75238

 **********************
 *                    *
 * JOB ENDED NORMALLY *
 *                    *
 **********************



 TOTAL JOB TIME:           407.78 SECONDS

 == MOPAC DONE ==
