 *******************************************************************************
 ** Site#: 4824         For non-commercial use only    Version 21.013L 64BITS **
 *******************************************************************************
 ** Cite this program as: MOPAC2016, Version: 21.013L, James J. P. Stewart,   **
 ** Stewart Computational Chemistry, web: HTTP://OpenMOPAC.net. Days left:  84**
 *******************************************************************************
 **                                                                           **
 **                                MOPAC2016                                  **
 **                                                                           **
 *******************************************************************************

                              INDO CALCULATION RESULTS

 *******************************************************************************
 *  CALCULATION DONE:                                Thu Oct 21 14:51:28 2021  *
 *  INDO       - The INDO Hamiltonian to be used
 *  CIS        - C.I. USES 1 ELECTRON EXCITATIONS ONLY
 *  EPS=  8.93 - USE ANDREAS KLAMT'S COSMO IMPLICIT SOLVATION MODEL
 *  n**2 =  1.420 for COSMO-CI
 *  T=         - A TIME OF 172800.0 SECONDS REQUESTED
 *  DUMP=N     - RESTART FILE WRITTEN EVERY 7200.0 SECONDS REQUESTED
 *******************************************************************************
INDO CIS EPS=8.93 N**2=1.42
 Dye68
 Calculo de Estados Excitados
   ATOM   CHEMICAL          X               Y               Z
  NUMBER   SYMBOL      (ANGSTROMS)     (ANGSTROMS)     (ANGSTROMS)
 
     1       N          0.00000000  *   0.00000000  *   0.00000000  *
     2       C          1.15642988  *   0.00000000  *   0.00000000  *
     3       C          2.57342430  *  -0.02064245  *   0.00000000  *
     4       C          3.32470408  *   1.09574756  *   0.06751381  *
     5       C          2.77149198  *   2.41839400  *   0.09056845  *
     6       C          1.66714578  *   2.86501904  *  -0.58474099  *
     7       C          1.41674235  *   4.25142033  *  -0.33984443  *
     8       C          2.34105154  *   4.79604837  *   0.50915060  *
     9       S          3.51892659  *   3.65865684  *   1.00198663  *
    10       C          2.38348614  *   6.14693216  *   0.97099500  *
    11       C          2.51020861  *   6.56051544  *   2.26606335  *
    12       C          2.48321133  *   7.98592460  *   2.38791573  *
    13       C          2.34601404  *   8.59628291  *   1.16964319  *
    14       S          2.26077319  *   7.45581081  *  -0.13221070  *
    15       N          2.35432963  *   9.96650797  *   0.92615046  *
    16       C          3.16985026  *  10.88623384  *   1.63257586  *
    17       C          4.29683340  *  10.64668654  *   2.40873945  *
    18       C          4.94309402  *  11.75468196  *   2.94028613  *
    19       C          4.48740618  *  13.05365070  *   2.70268271  *
    20       C          3.36628950  *  13.28968511  *   1.91769369  *
    21       C          2.70078086  *  12.20188658  *   1.37967040  *
    22       C          1.53361767  *  12.08668678  *   0.53901162  *
    23       C          1.31740763  *  10.70380334  *   0.29975558  *
    24       C          0.24785947  *  10.25267144  *  -0.46317202  *
    25       C         -0.59800159  *  11.21529016  *  -0.99738999  *
    26       C         -0.38738280  *  12.57876503  *  -0.77922104  *
    27       C          0.67802624  *  13.02650609  *  -0.00909678  *
    28       C          3.23148374  *  -1.33396194  *  -0.04731501  *
    29       O          4.43508777  *  -1.54546956  *  -0.00563567  *
    30       O          2.37649237  *  -2.37078248  *  -0.14903977  *
    31       H          4.42291599  *   1.02418616  *   0.11349301  *
    32       H          1.04746141  *   2.27067910  *  -1.25405888  *
    33       H          0.57619378  *   4.78475942  *  -0.77815577  *
    34       H          2.60089659  *   5.90266796  *   3.12791733  *
    35       H          2.54937388  *   8.49837459  *   3.34538396  *
    36       H          4.66865191  *   9.63522101  *   2.58466077  *
    37       H          5.83338819  *  11.60614703  *   3.55964632  *
    38       H          5.02641876  *  13.89827131  *   3.14111148  *
    39       H          3.01190598  *  14.30510927  *   1.72396597  *
    40       H          0.07324525  *   9.18832425  *  -0.63395034  *
    41       H         -1.45180372  *  10.89682264  *  -1.60399438  *
    42       H         -1.07592288  *  13.30420388  *  -1.22170355  *
    43       H          0.84366563  *  14.09233259  *   0.16655254  *
    44       H          2.85258749  *  -3.21365438  *  -0.17512840  *
 


          CARTESIAN COORDINATES 

    NO.       ATOM           X           Y           Z

     1         N          0.0000      0.0000      0.0000
     2         C          1.1564      0.0000      0.0000
     3         C          2.5734     -0.0206      0.0000
     4         C          3.3247      1.0957      0.0675
     5         C          2.7715      2.4184      0.0906
     6         C          1.6671      2.8650     -0.5847
     7         C          1.4167      4.2514     -0.3398
     8         C          2.3411      4.7960      0.5092
     9         S          3.5189      3.6587      1.0020
    10         C          2.3835      6.1469      0.9710
    11         C          2.5102      6.5605      2.2661
    12         C          2.4832      7.9859      2.3879
    13         C          2.3460      8.5963      1.1696
    14         S          2.2608      7.4558     -0.1322
    15         N          2.3543      9.9665      0.9262
    16         C          3.1699     10.8862      1.6326
    17         C          4.2968     10.6467      2.4087
    18         C          4.9431     11.7547      2.9403
    19         C          4.4874     13.0537      2.7027
    20         C          3.3663     13.2897      1.9177
    21         C          2.7008     12.2019      1.3797
    22         C          1.5336     12.0867      0.5390
    23         C          1.3174     10.7038      0.2998
    24         C          0.2479     10.2527     -0.4632
    25         C         -0.5980     11.2153     -0.9974
    26         C         -0.3874     12.5788     -0.7792
    27         C          0.6780     13.0265     -0.0091
    28         C          3.2315     -1.3340     -0.0473
    29         O          4.4351     -1.5455     -0.0056
    30         O          2.3765     -2.3708     -0.1490
    31         H          4.4229      1.0242      0.1135
    32         H          1.0475      2.2707     -1.2541
    33         H          0.5762      4.7848     -0.7782
    34         H          2.6009      5.9027      3.1279
    35         H          2.5494      8.4984      3.3454
    36         H          4.6687      9.6352      2.5847
    37         H          5.8334     11.6061      3.5596
    38         H          5.0264     13.8983      3.1411
    39         H          3.0119     14.3051      1.7240
    40         H          0.0732      9.1883     -0.6340
    41         H         -1.4518     10.8968     -1.6040
    42         H         -1.0759     13.3042     -1.2217
    43         H          0.8437     14.0923      0.1666
    44         H          2.8526     -3.2137     -0.1751

           Empirical Formula: C24 H14 N2 O2 S2  =    44 atoms



      MOLECULAR POINT GROUP   :   C1  


      RHF CALCULATION, NO. OF DOUBLY OCCUPIED LEVELS = 72

 WARNING: INDO only performs single-point calculations

 Summary of symmetry occupancy in each shell:

 SHELL     
    1   72
    v   62
 TOTAL 134




    ROOT NO.    1           2           3           4           5           6

           -48.44290   -46.79581   -43.48639   -42.94100   -42.42842   -40.95792
  
  
  S  N   1   0.00016     0.04027     0.05115     0.01006    -0.05364     0.06104
 PX  N   1   0.00009     0.02481     0.02698     0.00527    -0.02783     0.03058
 PY  N   1   0.00003    -0.00383     0.00752     0.00130    -0.00610     0.00448
 PZ  N   1  -0.00001    -0.00038    -0.00105    -0.00018     0.00080    -0.00045
  
  S  C   2   0.00036     0.11458     0.08931     0.01722    -0.08974     0.09353
 PX  C   2   0.00011     0.04968     0.01460     0.00265    -0.01271     0.00825
 PY  C   2   0.00008    -0.02190     0.02591     0.00448    -0.02100     0.01578
 PZ  C   2  -0.00001    -0.00141    -0.00151    -0.00025     0.00111    -0.00051
  
  S  C   3   0.00052     0.22956     0.10516     0.02040    -0.10645     0.11017
 PX  C   3   0.00001     0.03184    -0.00584    -0.00090     0.00365     0.00022
 PY  C   3   0.00013    -0.07711     0.05912     0.01037    -0.04949     0.03943
 PZ  C   3  -0.00000    -0.00285     0.00104     0.00020    -0.00108     0.00137
  
  S  C   4   0.00079     0.11695     0.17355     0.03125    -0.15243     0.12933
 PX  C   4  -0.00022    -0.01845    -0.05011    -0.00889     0.04269    -0.03382
 PY  C   4   0.00024    -0.04700     0.04192     0.00625    -0.02415     0.00066
 PZ  C   4  -0.00001    -0.00309    -0.00352    -0.00065     0.00322    -0.00284
  
  S  C   5   0.00229     0.05429     0.33463     0.05404    -0.23477     0.12225
 PX  C   5  -0.00045    -0.00355    -0.05954    -0.00922     0.03786    -0.01301
 PY  C   5   0.00087    -0.01500     0.06859     0.00864    -0.02532    -0.02009
 PZ  C   5  -0.00003    -0.00344    -0.01784    -0.00320     0.01522    -0.01041
  
  S  C   6   0.00257     0.03632     0.33401     0.05243    -0.21976     0.09228
 PX  C   6   0.00054     0.00972     0.08039     0.01279    -0.05459     0.02522
 PY  C   6   0.00083    -0.00568     0.06003     0.00764    -0.02292    -0.01388
 PZ  C   6   0.00068     0.00723     0.08069     0.01233    -0.05013     0.01745
  
  S  C   7   0.00493     0.01978     0.33019     0.04533    -0.16121     0.01458
 PX  C   7   0.00134     0.00623     0.10372     0.01438    -0.05230     0.00619
 PY  C   7   0.00086    -0.00635    -0.05423    -0.01146     0.06007    -0.04124
 PZ  C   7   0.00136     0.00286     0.06020     0.00708    -0.01987    -0.00817
  
  S  C   8   0.01101     0.01713     0.35836     0.03815    -0.08917    -0.07133
 PX  C   8  -0.00019    -0.00112    -0.02375    -0.00364     0.01331    -0.00183
 PY  C   8   0.00427    -0.00669    -0.06047    -0.01783     0.10419    -0.07602
 PZ  C   8   0.00173    -0.00279    -0.03264    -0.00841     0.04589    -0.02997
  
  S  S   9   0.00373     0.01941     0.24554     0.03370    -0.12262     0.01969
 PX  S   9  -0.00169    -0.00803    -0.12603    -0.01754     0.06429    -0.00923
 PY  S   9   0.00147    -0.00534     0.00115    -0.00365     0.03020    -0.03807
 PZ  S   9  -0.00061    -0.00715    -0.08828    -0.01371     0.05637    -0.01987
  
  S  C  10   0.03633     0.00598     0.28330    -0.00429     0.18625    -0.26542
 PX  C  10   0.00032    -0.00021    -0.00259    -0.00158     0.00561    -0.00360
 PY  C  10   0.01525    -0.00218    -0.00070    -0.01478     0.10678    -0.06917
 PZ  C  10   0.00682    -0.00057     0.01788    -0.00753     0.05798    -0.05387
  
  S  C  11   0.04234     0.00291     0.22389    -0.02024     0.24103    -0.27489
 PX  C  11  -0.00144    -0.00014    -0.00951    -0.00025    -0.00960     0.01089
 PY  C  11   0.01641    -0.00038     0.02830    -0.01161     0.07716    -0.05330
 PZ  C  11  -0.01297    -0.00116    -0.07842     0.00363    -0.07409     0.08739
  
  S  C  12   0.09684     0.00142     0.18985    -0.04151     0.28382    -0.19684
 PX  C  12  -0.00175    -0.00005    -0.00519    -0.00397    -0.00896     0.00376
 PY  C  12   0.03125    -0.00057    -0.04043    -0.00658    -0.02976     0.09959
 PZ  C  12  -0.03727    -0.00052    -0.06902     0.00947    -0.10519     0.06151
  
  S  C  13   0.20859     0.00098     0.17997    -0.03389     0.32690    -0.04923
 PX  C  13   0.00061     0.00004     0.00689    -0.01494     0.00762    -0.00802
 PY  C  13   0.10138    -0.00086    -0.05712    -0.00061    -0.02588     0.19747
 PZ  C  13   0.00026     0.00018     0.02580    -0.01863     0.03345    -0.04354
  
  S  S  14   0.05963     0.00206     0.15918    -0.00498     0.18416    -0.14865
 PX  S  14   0.00048     0.00004     0.00761    -0.00469     0.01089    -0.00989
 PY  S  14   0.02577    -0.00103    -0.03059     0.00145     0.01676     0.04959
 PZ  S  14   0.03094     0.00091     0.09370    -0.00933     0.12330    -0.10423
  
  S  N  15   0.48364    -0.00075     0.05223    -0.01956     0.22377     0.32070
 PX  N  15  -0.02102     0.00006     0.00607    -0.04879    -0.00626    -0.01643
 PY  N  15   0.09484    -0.00044    -0.04467     0.00451    -0.07016     0.06281
 PZ  N  15   0.02518     0.00001     0.01291    -0.03851     0.02147     0.01166
  
  S  C  16   0.37624    -0.00083    -0.01369    -0.22320    -0.05018     0.06598
 PX  C  16  -0.10400     0.00022    -0.00067    -0.07361    -0.06353    -0.13221
 PY  C  16  -0.00503    -0.00014    -0.03705    -0.06063    -0.12498    -0.09769
 PZ  C  16  -0.07572     0.00017     0.00010    -0.05563    -0.04766    -0.10312
  
  S  C  17   0.15604    -0.00034    -0.00831    -0.26021    -0.11339    -0.12687
 PX  C  17  -0.05764     0.00011    -0.00274     0.03257    -0.00625    -0.02198
 PY  C  17   0.02990    -0.00015    -0.02078    -0.09957    -0.09192    -0.08057
 PZ  C  17  -0.03767     0.00008    -0.00152     0.01597    -0.00718    -0.02203
  
  S  C  18   0.09718    -0.00029    -0.02673    -0.26781    -0.17952    -0.20330
 PX  C  18  -0.04016     0.00012     0.00968     0.08810     0.05823     0.05697
 PY  C  18   0.00059    -0.00002    -0.00575    -0.01413    -0.02231    -0.02102
 PZ  C  18  -0.02833     0.00008     0.00678     0.06154     0.04041     0.03885
  
  S  C  19   0.09361    -0.00031    -0.03379    -0.26050    -0.19702    -0.21366
 PX  C  19  -0.02547     0.00008     0.00843     0.04931     0.04035     0.03518
 PY  C  19  -0.03474     0.00011     0.00930     0.08612     0.05730     0.05856
 PZ  C  19  -0.02046     0.00007     0.00668     0.04085     0.03267     0.02892
  
  S  C  20   0.12845    -0.00041    -0.04368    -0.22973    -0.20278    -0.18797
 PX  C  20  -0.00596     0.00001     0.00049    -0.04899    -0.02225    -0.03733
 PY  C  20  -0.06327     0.00019     0.01570     0.09389     0.07069     0.05219
 PZ  C  20  -0.00819     0.00002     0.00141    -0.02910    -0.01134    -0.02355
  
  S  C  21   0.30802    -0.00086    -0.06103    -0.16699    -0.17633    -0.05256
 PX  C  21  -0.02378     0.00005     0.00267    -0.12135    -0.04850    -0.07239
 PY  C  21  -0.11233     0.00025     0.00102     0.00539    -0.02896    -0.09296
 PZ  C  21  -0.02462     0.00006     0.00259    -0.08571    -0.03513    -0.05803
  
  S  C  22   0.30643    -0.00087    -0.08439     0.20316    -0.12333    -0.05689
 PX  C  22   0.04568    -0.00010     0.01177    -0.12371     0.01726     0.09250
 PY  C  22  -0.10461     0.00024     0.00492    -0.02670    -0.02486    -0.07738
 PZ  C  22   0.02601    -0.00005     0.00890    -0.08889     0.01109     0.05976
  
  S  C  23   0.36872    -0.00087    -0.04900     0.23391     0.00118     0.06480
 PX  C  23   0.10472    -0.00020     0.01691    -0.09509     0.05699     0.15259
 PY  C  23   0.01926    -0.00017    -0.03876     0.06669    -0.08463    -0.07392
 PZ  C  23   0.07486    -0.00014     0.01096    -0.06287     0.03731     0.10078
  
  S  C  24   0.14908    -0.00037    -0.04845     0.27730    -0.05004    -0.12827
 PX  C  24   0.04836    -0.00009     0.00149     0.01004     0.01930     0.03850
 PY  C  24   0.04134    -0.00017    -0.03159     0.11899    -0.05234    -0.07950
 PZ  C  24   0.03612    -0.00007    -0.00033     0.01327     0.01111     0.02220
  
  S  C  25   0.09450    -0.00031    -0.06254     0.29585    -0.09957    -0.20965
 PX  C  25   0.03845    -0.00012    -0.02035     0.09322    -0.02943    -0.05411
 PY  C  25   0.00873    -0.00004    -0.01055     0.03637    -0.02079    -0.03370
 PZ  C  25   0.02721    -0.00008    -0.01464     0.06664    -0.02147    -0.03943
  
  S  C  26   0.09185    -0.00032    -0.06720     0.29181    -0.11476    -0.22160
 PX  C  26   0.03112    -0.00010    -0.01854     0.07310    -0.03031    -0.04741
 PY  C  26  -0.02850     0.00009     0.01751    -0.08272     0.02614     0.05250
 PZ  C  26   0.02022    -0.00007    -0.01203     0.04675    -0.01983    -0.03049
  
  S  C  27   0.12702    -0.00043    -0.07348     0.26431    -0.12898    -0.19519
 PX  C  27   0.01773    -0.00005     0.00027    -0.03128    -0.00055     0.02853
 PY  C  27  -0.06014     0.00019     0.02872    -0.11416     0.04240     0.06117
 PZ  C  27   0.00913    -0.00002     0.00180    -0.02821     0.00195     0.02315
  
  S  C  28   0.00040     0.51322    -0.03357    -0.00441     0.01507     0.00326
 PX  C  28  -0.00000     0.01716    -0.00367    -0.00040     0.00029     0.01126
 PY  C  28  -0.00001    -0.13734     0.05362     0.00993    -0.05075     0.05475
 PZ  C  28  -0.00000    -0.00753     0.00277     0.00053    -0.00281     0.00365
  
  S  O  29   0.00028     0.41095    -0.03844    -0.00548     0.02037     0.00680
 PX  O  29  -0.00012    -0.17541     0.01805     0.00270    -0.01088     0.00178
 PY  O  29   0.00002     0.00559     0.00887     0.00181    -0.01004     0.01365
 PZ  O  29  -0.00000    -0.00763     0.00127     0.00022    -0.00103     0.00085
  
  S  O  30   0.00034     0.57201    -0.09359    -0.01623     0.07916    -0.08316
 PX  O  30   0.00009     0.15827    -0.02727    -0.00472     0.02283    -0.02198
 PY  O  30   0.00005     0.06373    -0.00148     0.00001    -0.00127     0.00393
 PZ  O  30   0.00001     0.01141    -0.00142    -0.00023     0.00103    -0.00081
  
  S  H  31   0.00025     0.05129     0.05392     0.00983    -0.04856     0.04338
  
  S  H  32   0.00065     0.01616     0.09933     0.01623    -0.07119     0.03836
  
  S  H  33   0.00199     0.00506     0.09505     0.01217    -0.03828    -0.00467
  
  S  H  34   0.01021     0.00112     0.06922    -0.00472     0.06269    -0.08155
  
  S  H  35   0.04057     0.00031     0.05172    -0.02081     0.08285    -0.04508
  
  S  H  36   0.05136    -0.00004     0.00897    -0.07366    -0.00716    -0.03224
  
  S  H  37   0.02247    -0.00007    -0.00658    -0.07429    -0.04947    -0.06178
  
  S  H  38   0.02140    -0.00007    -0.00924    -0.07163    -0.05599    -0.06529
  
  S  H  39   0.03491    -0.00012    -0.01441    -0.05485    -0.06101    -0.05934
  
  S  H  40   0.04710    -0.00006    -0.00534     0.07385     0.00316    -0.02925
  
  S  H  41   0.02174    -0.00007    -0.01651     0.08183    -0.02734    -0.06346
  
  S  H  42   0.02100    -0.00008    -0.01824     0.08036    -0.03287    -0.06767
  
  S  H  43   0.03467    -0.00012    -0.02151     0.06554    -0.04264    -0.06129
  
  S  H  44   0.00014     0.24073    -0.04242    -0.00743     0.03650    -0.03816




    ROOT NO.    7           8           9          10          11          12

           -39.68401   -39.13648   -36.41617   -36.05013   -33.29789   -32.85158
  
  
  S  N   1  -0.02107     0.39902     0.46416     0.29640     0.05770     0.04530
 PX  N   1  -0.00982     0.18722     0.17964     0.11021     0.01342     0.00951
 PY  N   1  -0.00862     0.00195    -0.00465    -0.00131     0.00864     0.00858
 PZ  N   1  -0.00055    -0.00061     0.00018    -0.00036    -0.00150    -0.00136
  
  S  C   2  -0.05318     0.47774     0.26689     0.13478    -0.03431    -0.03373
 PX  C   2  -0.02322    -0.05432    -0.29400    -0.21677    -0.09061    -0.07625
 PY  C   2  -0.03576     0.00583    -0.01699    -0.00694     0.02375     0.02399
 PZ  C   2  -0.00238    -0.00115     0.00024    -0.00077    -0.00267    -0.00236
  
  S  C   3  -0.20832     0.32290    -0.16091    -0.18179    -0.16643    -0.14321
 PX  C   3  -0.10276    -0.10195    -0.06527    -0.04457    -0.01131    -0.00777
 PY  C   3  -0.06608     0.05406    -0.07268    -0.04877     0.03336     0.03882
 PZ  C   3  -0.00708     0.00087    -0.00239    -0.00280    -0.00242    -0.00188
  
  S  C   4  -0.23538     0.21548    -0.26961    -0.21393    -0.02831    -0.00657
 PX  C   4   0.02075    -0.08919     0.05038     0.04034     0.00294    -0.00026
 PY  C   4   0.08779    -0.03603    -0.00915     0.03014     0.10523     0.09702
 PZ  C   4   0.00410    -0.00612     0.00323     0.00226    -0.00127    -0.00133
  
  S  C   5  -0.00971     0.02799    -0.17551    -0.05364     0.15712     0.14341
 PX  C   5  -0.03154     0.01637    -0.02213    -0.03690    -0.03633    -0.02686
 PY  C   5   0.10626    -0.14588     0.08882     0.09903     0.03178     0.01309
 PZ  C   5   0.00143    -0.01035     0.00977    -0.00201    -0.02525    -0.02302
  
  S  C   6   0.07630    -0.06331    -0.04114     0.06535     0.17365     0.14343
 PX  C   6   0.00730    -0.01190    -0.04489    -0.01332     0.03601     0.03209
 PY  C   6   0.06726    -0.11437     0.05332     0.05788    -0.01054    -0.02056
 PZ  C   6   0.02223    -0.02870    -0.01061     0.00987     0.02103     0.01526
  
  S  C   7   0.13606    -0.18751     0.09002     0.09906    -0.02705    -0.03762
 PX  C   7   0.04055    -0.05842     0.01682     0.02092    -0.00896    -0.01227
 PY  C   7  -0.01949     0.01402     0.03471    -0.03307    -0.12100    -0.09768
 PZ  C   7   0.02310    -0.03619     0.02437     0.00483    -0.04453    -0.04027
  
  S  C   8   0.12286    -0.18877     0.15342     0.02343    -0.23044    -0.20155
 PX  C   8  -0.01450     0.01991    -0.01497    -0.01709     0.00883     0.00814
 PY  C   8  -0.04571     0.05480     0.04044    -0.06824    -0.13423    -0.09683
 PZ  C   8  -0.02605     0.03341     0.00502    -0.03901    -0.03930    -0.02948
  
  S  S   9   0.06579    -0.10136    -0.00045     0.01073    -0.00571    -0.01171
 PX  S   9  -0.04663     0.06439    -0.01723    -0.02402     0.00096     0.00706
 PY  S   9   0.02057    -0.03022     0.06986     0.01005    -0.09145    -0.08331
 PZ  S   9  -0.02798     0.03948     0.01062    -0.01654    -0.03093    -0.02400
  
  S  C  10  -0.00931    -0.01439     0.14667    -0.12807    -0.24706    -0.16848
 PX  C  10  -0.00401     0.00567    -0.00297    -0.00591     0.00852     0.00200
 PY  C  10  -0.05292     0.07451    -0.04580    -0.03314     0.11870     0.12414
 PZ  C  10  -0.02545     0.03359    -0.00194    -0.04208     0.03834     0.02150
  
  S  C  11  -0.05756     0.06017     0.07056    -0.14464    -0.01705    -0.03073
 PX  C  11   0.00186    -0.00171    -0.00390     0.00549     0.00661    -0.00279
 PY  C  11  -0.03085     0.04305    -0.03809    -0.00612     0.12779     0.08937
 PZ  C  11   0.01278    -0.01008    -0.03343     0.04139     0.06261     0.02388
  
  S  C  12  -0.07303     0.09293    -0.06203    -0.01350     0.22974     0.09000
 PX  C  12   0.00146    -0.00176    -0.00127     0.00371     0.00799    -0.02225
 PY  C  12   0.01677    -0.01618    -0.05630     0.09782     0.04363    -0.00904
 PZ  C  12   0.02332    -0.02925     0.02029    -0.00274    -0.03225    -0.05052
  
  S  C  13  -0.05320     0.07432    -0.14671     0.14262     0.15306     0.16830
 PX  C  13  -0.00314     0.00418    -0.00577     0.00298     0.04855    -0.03999
 PY  C  13   0.03501    -0.03668    -0.07079     0.14328    -0.01532    -0.02239
 PZ  C  13  -0.01416     0.01813    -0.00680    -0.01635     0.10959    -0.02938
  
  S  S  14  -0.03246     0.03385     0.00796    -0.01710    -0.07607     0.05946
 PX  S  14  -0.00331     0.00401     0.00177    -0.00776     0.01486    -0.00719
 PY  S  14  -0.00821     0.01790    -0.06576     0.06014     0.06646     0.10053
 PZ  S  14  -0.02921     0.03403     0.00091    -0.02842     0.00764     0.04311
  
  S  N  15   0.03008    -0.02452    -0.09601     0.16358    -0.01910     0.02463
 PX  N  15  -0.00379     0.00490    -0.01081     0.00983     0.11193    -0.11595
 PY  N  15   0.02611    -0.03648     0.12496    -0.15753    -0.07428    -0.10899
 PZ  N  15  -0.00225     0.00438    -0.02123     0.02418     0.10270    -0.07835
  
  S  C  16   0.01361    -0.01531    -0.00584     0.02439     0.07645    -0.24967
 PX  C  16  -0.02205     0.02631    -0.07742     0.10512     0.03160    -0.07254
 PY  C  16  -0.00176    -0.00402     0.08728    -0.12975    -0.06539     0.07081
 PZ  C  16  -0.01738     0.02070    -0.05508     0.07202     0.02799    -0.03964
  
  S  C  17  -0.02141     0.02739    -0.14212     0.21250     0.09262    -0.34938
 PX  C  17  -0.00269     0.00262    -0.00201     0.00352    -0.03626     0.02492
 PY  C  17  -0.00660     0.00566    -0.00755     0.01441    -0.05159     0.00212
 PZ  C  17  -0.00316     0.00341    -0.00451     0.00570    -0.02295     0.02013
  
  S  C  18  -0.02752     0.03184    -0.12434     0.18633    -0.05590    -0.11504
 PX  C  18   0.00648    -0.00688     0.01624    -0.02262     0.00186     0.01368
 PY  C  18  -0.00122     0.00042     0.01687    -0.02765    -0.05714     0.16198
 PZ  C  18   0.00438    -0.00465     0.01216    -0.01747    -0.00118     0.02084
  
  S  C  19  -0.02550     0.02729    -0.05566     0.07360    -0.11884     0.24848
 PX  C  19   0.00257    -0.00170    -0.02012     0.03511     0.00081    -0.08252
 PY  C  19   0.00721    -0.00809     0.03322    -0.05162     0.00981     0.08394
 PZ  C  19   0.00228    -0.00170    -0.01222     0.02165     0.00168    -0.05334
  
  S  C  20  -0.01597     0.01295     0.06217    -0.11323    -0.03350     0.35511
 PX  C  20  -0.00704     0.00913    -0.04957     0.07566    -0.05437     0.03196
 PY  C  20   0.00307    -0.00166    -0.01537     0.02346     0.00418     0.01401
 PZ  C  20  -0.00490     0.00650    -0.03647     0.05552    -0.03790     0.02416
  
  S  C  21   0.01264    -0.02340     0.18415    -0.27692     0.03555     0.08932
 PX  C  21  -0.01236     0.01527    -0.06122     0.08872    -0.03568     0.02648
 PY  C  21  -0.01539     0.01752    -0.00899    -0.00587     0.02612     0.16548
 PZ  C  21  -0.01014     0.01250    -0.04583     0.06469    -0.02133     0.03073
  
  S  C  22   0.01026    -0.02034     0.17970    -0.27420     0.11316    -0.01142
 PX  C  22   0.01711    -0.02104     0.06704    -0.09015    -0.04169     0.02962
 PY  C  22  -0.01311     0.01498    -0.00043    -0.02024     0.14992     0.00648
 PZ  C  22   0.01100    -0.01356     0.04632    -0.06387    -0.01807     0.02233
  
  S  C  23   0.01484    -0.01792     0.00794     0.01277    -0.23342     0.11216
 PX  C  23   0.02413    -0.02790     0.06492    -0.08436     0.03671    -0.03985
 PY  C  23  -0.00071    -0.00426     0.08879    -0.13856     0.09591    -0.09596
 PZ  C  23   0.01602    -0.01860     0.04710    -0.06325     0.03889    -0.03267
  
  S  C  24  -0.02054     0.02523    -0.12950     0.20299    -0.31262     0.16809
 PX  C  24   0.00565    -0.00633     0.01104    -0.01268    -0.03053     0.03824
 PY  C  24  -0.00876     0.00886    -0.01339     0.01742     0.00329    -0.03358
 PZ  C  24   0.00332    -0.00373     0.00643    -0.00732    -0.01924     0.02443
  
  S  C  25  -0.03083     0.03600    -0.12964     0.19030    -0.10455    -0.00483
 PX  C  25  -0.00687     0.00748    -0.01889     0.02703    -0.03681     0.01775
 PY  C  25  -0.00392     0.00392     0.00722    -0.01833     0.13034    -0.08352
 PZ  C  25  -0.00501     0.00544    -0.01279     0.01781    -0.01801     0.00774
  
  S  C  26  -0.03029     0.03384    -0.06988     0.08403     0.20180    -0.14535
 PX  C  26  -0.00493     0.00458     0.01115    -0.02342     0.06021    -0.01817
 PY  C  26   0.00746    -0.00866     0.03700    -0.05772     0.08285    -0.01728
 PZ  C  26  -0.00308     0.00277     0.00972    -0.01942     0.04701    -0.01373
  
  S  C  27  -0.02037     0.01899     0.04889    -0.10379     0.31980    -0.10449
 PX  C  27   0.00710    -0.00971     0.05438    -0.08107    -0.01398     0.04898
 PY  C  27   0.00586    -0.00533    -0.00279     0.00664     0.00168     0.01404
 PZ  C  27   0.00525    -0.00702     0.03785    -0.05641    -0.00895     0.03533
  
  S  C  28  -0.13629    -0.04927     0.00691    -0.01071    -0.05598    -0.05420
 PX  C  28  -0.34204    -0.24065     0.12572     0.10577     0.06855     0.06010
 PY  C  28  -0.20181     0.08639    -0.04428    -0.06626    -0.09295    -0.08341
 PZ  C  28  -0.02711    -0.00520     0.00397     0.00127    -0.00310    -0.00292
  
  S  O  29  -0.49121    -0.34824     0.18879     0.14997     0.06639     0.05430
 PX  O  29   0.13129     0.10433    -0.04684    -0.03735    -0.01343    -0.01024
 PY  O  29  -0.08959    -0.00726    -0.00257    -0.01040    -0.02385    -0.02192
 PZ  O  29   0.00073     0.00435    -0.00203    -0.00216    -0.00214    -0.00189
  
  S  O  30   0.51743     0.07708    -0.09050    -0.04142     0.03296     0.03246
 PX  O  30   0.07895    -0.03045    -0.00088     0.00992     0.02363     0.02141
 PY  O  30   0.00859     0.04522    -0.00746    -0.01760    -0.04548    -0.04423
 PZ  O  30   0.00450     0.00174    -0.00021    -0.00048    -0.00186    -0.00188
  
  S  H  31  -0.11062     0.05053    -0.09752    -0.07853    -0.01497    -0.00629
  
  S  H  32   0.00715     0.02633    -0.00931     0.02125     0.06997     0.06116
  
  S  H  33   0.04042    -0.05685     0.04114     0.03036    -0.03215    -0.03000
  
  S  H  34  -0.01284     0.01123     0.03259    -0.05113    -0.02290    -0.03440
  
  S  H  35  -0.02119     0.02840    -0.03669     0.01912     0.11150     0.01002
  
  S  H  36  -0.00950     0.01337    -0.06881     0.09889     0.06953    -0.16255
  
  S  H  37  -0.00921     0.01108    -0.05051     0.07680    -0.02259    -0.05530
  
  S  H  38  -0.00832     0.00916    -0.02124     0.02835    -0.05336     0.12252
  
  S  H  39  -0.00480     0.00350     0.03513    -0.06289     0.00314     0.17089
  
  S  H  40  -0.00700     0.00949    -0.05892     0.09288    -0.14996     0.09797
  
  S  H  41  -0.01010     0.01220    -0.05206     0.07814    -0.05020     0.00079
  
  S  H  42  -0.00985     0.01131    -0.02668     0.03245     0.09705    -0.06800
  
  S  H  43  -0.00606     0.00527     0.03058    -0.05961     0.15439    -0.03163
  
  S  H  44   0.19766    -0.00628    -0.02462    -0.00048     0.04095     0.03938




    ROOT NO.   13          14          15          16          17          18

           -31.74915   -30.56468   -30.36396   -29.04452   -28.74957   -27.27874
  
  
  S  N   1  -0.06106     0.03592    -0.10426    -0.02848     0.00981    -0.00302
 PX  N   1  -0.01108     0.00628    -0.01897    -0.00352     0.00647     0.00481
 PY  N   1  -0.01312     0.00470    -0.00787    -0.00309    -0.02776    -0.03437
 PZ  N   1   0.00113     0.00059    -0.00312    -0.00104     0.00512     0.00449
  
  S  C   2   0.05113    -0.02440     0.06055     0.02089     0.03140     0.03199
 PX  C   2   0.10469    -0.05463     0.14887     0.04207     0.01680     0.02679
 PY  C   2  -0.03968     0.01760    -0.03733    -0.01320    -0.06744    -0.08535
 PZ  C   2   0.00167     0.00140    -0.00658    -0.00222     0.00874     0.00688
  
  S  C   3   0.18627    -0.07807     0.19201     0.04422     0.07086     0.05033
 PX  C   3  -0.00061     0.01183    -0.04147    -0.02232     0.00547    -0.02032
 PY  C   3  -0.08569     0.05439    -0.13917    -0.05178    -0.12639    -0.18806
 PZ  C   3  -0.00005     0.00290    -0.01086    -0.00393     0.00687     0.00291
  
  S  C   4  -0.06169     0.07204    -0.21333    -0.08221    -0.06252    -0.12732
 PX  C   4   0.00175     0.00719    -0.03347    -0.01264     0.05841     0.06036
 PY  C   4  -0.14749     0.07107    -0.18242    -0.03873    -0.03748     0.00448
 PZ  C   4  -0.00138     0.00546    -0.02154    -0.00541     0.02621     0.02690
  
  S  C   5  -0.20460     0.08644    -0.21809    -0.03024    -0.00174     0.07419
 PX  C   5  -0.00600     0.04217    -0.15241    -0.04771     0.08742     0.06053
 PY  C   5   0.03173    -0.03843     0.09803     0.05153     0.14827     0.19851
 PZ  C   5   0.01469     0.01382    -0.06697    -0.01347     0.10542     0.09108
  
  S  C   6  -0.09356    -0.04973     0.23340     0.06952    -0.23076    -0.13162
 PX  C   6  -0.05390     0.03203    -0.09836    -0.00893     0.07364     0.10282
 PY  C   6   0.07570    -0.04997     0.13346     0.02051     0.05521     0.06280
 PZ  C   6  -0.01503     0.00743    -0.02980     0.00261     0.07118     0.08581
  
  S  C   7   0.14079    -0.09313     0.28353     0.00061    -0.14028    -0.14426
 PX  C   7   0.01625     0.00522    -0.03718    -0.00367     0.09991     0.10347
 PY  C   7   0.07762     0.02339    -0.10576    -0.06948     0.00723    -0.05170
 PZ  C   7   0.03369     0.01046    -0.06044    -0.01430     0.08440     0.04551
  
  S  C   8   0.18064     0.00999    -0.12176    -0.04851     0.12969    -0.04411
 PX  C   8  -0.04582     0.03173    -0.10965     0.01813     0.11377     0.09505
 PY  C   8   0.04146     0.03296    -0.09892    -0.05787    -0.14800    -0.17753
 PZ  C   8  -0.03246     0.03333    -0.11930     0.02973     0.06882    -0.02999
  
  S  S   9  -0.04083     0.06473    -0.25902    -0.00038     0.34168     0.28172
 PX  S   9  -0.00658    -0.00253     0.03023    -0.01629    -0.11045    -0.08219
 PY  S   9   0.08396    -0.02105     0.02882     0.02361     0.03737    -0.07225
 PZ  S   9   0.01953    -0.00878     0.02936     0.00604    -0.05968    -0.09647
  
  S  C  10   0.04079     0.05958    -0.17022    -0.05699    -0.14681    -0.08938
 PX  C  10  -0.01959     0.00486    -0.02334     0.02150     0.04044     0.01493
 PY  C  10  -0.10098    -0.00589     0.10986    -0.01694    -0.13513     0.17995
 PZ  C  10  -0.10670    -0.00486    -0.00436     0.14954     0.11072    -0.08391
  
  S  C  11  -0.18421    -0.00864    -0.01320     0.25314     0.13170    -0.20223
 PX  C  11  -0.00123    -0.00204    -0.00409     0.00629     0.02087    -0.00351
 PY  C  11  -0.06698    -0.03879     0.12801     0.01801     0.00738     0.10954
 PZ  C  11  -0.01524    -0.02998     0.05021     0.07810     0.12677    -0.07909
  
  S  C  12  -0.10561    -0.09064     0.15346     0.13933     0.22665    -0.05552
 PX  C  12  -0.00690    -0.00756    -0.00418     0.00368     0.01489    -0.02048
 PY  C  12   0.12471    -0.01643    -0.01934    -0.10776     0.03490    -0.00244
 PZ  C  12  -0.03356    -0.00864    -0.01032     0.08891     0.09487    -0.13615
  
  S  C  13   0.18554     0.00773     0.03504    -0.16303     0.00287     0.12795
 PX  C  13  -0.00053    -0.03416    -0.00619     0.00276     0.01753    -0.01731
 PY  C  13   0.17210     0.01321    -0.09882     0.00552     0.10840    -0.18614
 PZ  C  13  -0.06154    -0.07520     0.05229     0.09716     0.14018    -0.08345
  
  S  S  14   0.08697     0.06579    -0.00552    -0.26817    -0.32103     0.27452
 PX  S  14  -0.00046    -0.00080    -0.00814     0.00222    -0.00543     0.01793
 PY  S  14   0.01718     0.01036     0.03441    -0.01362     0.06516     0.06349
 PZ  S  14  -0.00023     0.01975     0.01693    -0.06862    -0.11019     0.12415
  
  S  N  15   0.20259     0.04402    -0.12148     0.09851    -0.01852    -0.07373
 PX  N  15   0.01066    -0.12216    -0.04203    -0.01655     0.01291    -0.03891
 PY  N  15  -0.20624    -0.02485     0.01330     0.19937    -0.09283     0.04722
 PZ  N  15   0.02659    -0.09815    -0.02847     0.00958     0.05116    -0.05997
  
  S  C  16  -0.11335    -0.22505    -0.06107    -0.03641    -0.03356    -0.03086
 PX  C  16  -0.01995    -0.00021     0.02802    -0.16314     0.04723    -0.04880
 PY  C  16  -0.09613    -0.04736     0.03502    -0.03469    -0.06350     0.12555
 PZ  C  16  -0.01401    -0.00514     0.02826    -0.11956     0.04979    -0.03674
  
  S  C  17  -0.15261     0.03819     0.06932    -0.20677     0.04893    -0.05627
 PX  C  17  -0.00898     0.14957     0.04823     0.03646    -0.01784     0.05611
 PY  C  17  -0.03718     0.05000     0.01469     0.01541    -0.05898     0.07691
 PZ  C  17  -0.00756     0.10629     0.03855     0.02886    -0.00527     0.03881
  
  S  C  18  -0.06527     0.34764     0.09836     0.12053    -0.06133     0.11298
 PX  C  18   0.01426     0.05705     0.00993     0.05479    -0.00328     0.01667
 PY  C  18   0.09660     0.03678    -0.04063     0.17987    -0.02947     0.01091
 PZ  C  18   0.01671     0.04212     0.00512     0.05104    -0.00162     0.01105
  
  S  C  19   0.16829     0.18374    -0.03659     0.29203    -0.02310    -0.02290
 PX  C  19  -0.04471     0.13497     0.04101     0.07911    -0.03481     0.05916
 PY  C  19   0.06910    -0.06913    -0.03901     0.01773     0.03989    -0.07775
 PZ  C  19  -0.02744     0.09102     0.02692     0.05714    -0.02124     0.03655
  
  S  C  20   0.21624    -0.17300    -0.08760    -0.05712     0.08968    -0.11848
 PX  C  20   0.02823     0.07092    -0.01840     0.13810    -0.02661    -0.01810
 PY  C  20   0.04697     0.06880    -0.00342     0.06113     0.02633    -0.05746
 PZ  C  20   0.02348     0.05428    -0.01303     0.10173    -0.01583    -0.01730
  
  S  C  21  -0.04660    -0.22382    -0.00345    -0.13508    -0.00607     0.08364
 PX  C  21   0.02434    -0.10524    -0.05421    -0.02306    -0.00909    -0.03326
 PY  C  21   0.14812    -0.00098    -0.00625    -0.12899     0.09847    -0.07965
 PZ  C  21   0.02861    -0.07553    -0.03766    -0.02560     0.00524    -0.03180
  
  S  C  22  -0.04103     0.18151     0.13653    -0.10027     0.06804     0.02149
 PX  C  22  -0.05852    -0.11631    -0.02047     0.03094    -0.05263     0.08567
 PY  C  22   0.15151    -0.00870    -0.02306    -0.14337     0.05941    -0.05091
 PZ  C  22  -0.03039    -0.08455    -0.01526     0.01136    -0.02910     0.05471
  
  S  C  23  -0.13520     0.20680     0.11361     0.00774     0.03818    -0.03086
 PX  C  23   0.04014     0.01929    -0.05418     0.14652    -0.10098     0.07673
 PY  C  23  -0.08355     0.01719     0.05797     0.02842     0.00314     0.03769
 PZ  C  23   0.02743     0.00910    -0.03272     0.10171    -0.05706     0.04651
  
  S  C  24  -0.18448    -0.08444     0.07690    -0.17261     0.11580    -0.08370
 PX  C  24   0.01314     0.15738     0.05123    -0.03221     0.02778    -0.03724
 PY  C  24  -0.03954    -0.02358     0.00623     0.03767     0.00692    -0.00443
 PZ  C  24   0.00771     0.10625     0.03604    -0.01996     0.02307    -0.02903
  
  S  C  25  -0.07854    -0.34352    -0.11637     0.10809    -0.08184     0.09227
 PX  C  25  -0.03715     0.04910     0.04898    -0.06301     0.05899    -0.05823
 PY  C  25   0.10721     0.01174    -0.07520     0.13511    -0.09471     0.05797
 PZ  C  25  -0.01973     0.03442     0.03001    -0.03650     0.03672    -0.03806
  
  S  C  26   0.19254    -0.11331    -0.18556     0.22023    -0.17135     0.08810
 PX  C  26   0.03727     0.11877     0.04447    -0.06761     0.05759    -0.06931
 PY  C  26   0.08777     0.10932     0.00029    -0.01901    -0.00031    -0.02765
 PZ  C  26   0.03114     0.08848     0.03092    -0.04817     0.04052    -0.05014
  
  S  C  27   0.24810     0.20703    -0.00484    -0.08378     0.04048    -0.07865
 PX  C  27  -0.04273     0.05268     0.07955    -0.11897     0.08087    -0.02455
 PY  C  27   0.04249    -0.04039    -0.04263     0.00744    -0.02542     0.00579
 PZ  C  27  -0.02692     0.03404     0.05336    -0.08343     0.05631    -0.01753
  
  S  C  28   0.09230    -0.05070     0.12917     0.04219     0.09215     0.13383
 PX  C  28  -0.08373     0.03849    -0.09397    -0.02797    -0.07064    -0.09531
 PY  C  28   0.11851    -0.05249     0.12691     0.03095     0.07726     0.07249
 PZ  C  28   0.00422    -0.00158     0.00325     0.00069     0.00452     0.00367
  
  S  O  29  -0.06125     0.01915    -0.03984    -0.00510    -0.03761    -0.03084
 PX  O  29   0.00882    -0.00113     0.00095    -0.00142     0.00007    -0.00589
 PY  O  29   0.03233    -0.01415     0.03320     0.00757     0.02651     0.02535
 PZ  O  29   0.00254    -0.00096     0.00209     0.00045     0.00236     0.00232
  
  S  O  30  -0.05593     0.03160    -0.08243    -0.02749    -0.04584    -0.06903
 PX  O  30  -0.03079     0.01375    -0.03315    -0.00837    -0.02127    -0.01958
 PY  O  30   0.07789    -0.04605     0.11933     0.04478     0.09549     0.16360
 PZ  O  30   0.00357    -0.00221     0.00568     0.00234     0.00568     0.01007
  
  S  H  31  -0.02369     0.03640    -0.11609    -0.04569     0.00734    -0.02346
  
  S  H  32  -0.04635    -0.02222     0.11645     0.03029    -0.18142    -0.15324
  
  S  H  33   0.07603    -0.04418     0.14180    -0.01585    -0.13438    -0.14341
  
  S  H  34  -0.07574    -0.00441    -0.02862     0.15595     0.12457    -0.17580
  
  S  H  35  -0.03972    -0.05488     0.06682     0.08211     0.17261    -0.10278
  
  S  H  36  -0.05759     0.02741     0.04240    -0.09913     0.06050    -0.05902
  
  S  H  37  -0.02790     0.20693     0.05780     0.08770    -0.03021     0.06790
  
  S  H  38   0.09334     0.11785    -0.01768     0.18848    -0.00881    -0.02100
  
  S  H  39   0.12560    -0.06430    -0.03966    -0.03520     0.06668    -0.08736
  
  S  H  40  -0.06666    -0.04958     0.02725    -0.10920     0.04377    -0.02709
  
  S  H  41  -0.03390    -0.20258    -0.07540     0.07063    -0.06298     0.07597
  
  S  H  42   0.10619    -0.07672    -0.11390     0.13798    -0.11566     0.07119
  
  S  H  43   0.14089     0.08416    -0.01495    -0.05831     0.02058    -0.04249
  
  S  H  44  -0.06667     0.03758    -0.09681    -0.03410    -0.07009    -0.11311




    ROOT NO.   19          20          21          22          23          24

           -26.67210   -25.70101   -25.55383   -24.13005   -23.73944   -23.36064
  
  
  S  N   1   0.09137    -0.06345    -0.07653     0.12704     0.01943    -0.05669
 PX  N   1   0.00169     0.00230     0.00489    -0.02353    -0.00428     0.01563
 PY  N   1  -0.00653     0.01629     0.00839    -0.03202    -0.00758    -0.01500
 PZ  N   1   0.00565    -0.00396    -0.00339    -0.00193    -0.00102     0.00210
  
  S  C   2  -0.07582     0.05961     0.07863    -0.17872    -0.03142     0.07585
 PX  C   2  -0.12726     0.08958     0.11176    -0.20809    -0.03448     0.08327
 PY  C   2  -0.00227     0.03345     0.01384    -0.08273    -0.02019    -0.03144
 PZ  C   2   0.01117    -0.00728    -0.00682    -0.00366    -0.00205     0.00244
  
  S  C   3  -0.03828     0.01548     0.01477    -0.07266    -0.02556    -0.06289
 PX  C   3   0.14364    -0.11122    -0.14806     0.25999     0.03379    -0.17961
 PY  C   3   0.08223     0.02737    -0.02455    -0.17746    -0.05001    -0.06527
 PZ  C   3   0.01718    -0.00987    -0.01146    -0.00345    -0.00305    -0.00186
  
  S  C   4   0.23020    -0.10108    -0.15011     0.10219     0.00979    -0.03953
 PX  C   4   0.11170    -0.11008    -0.11430     0.24090     0.04228    -0.04503
 PY  C   4  -0.02290     0.02448     0.06377    -0.02201     0.02676     0.23900
 PZ  C   4   0.02466    -0.02123    -0.01641     0.01303     0.00166     0.01770
  
  S  C   5  -0.06888     0.02596     0.08096     0.00054     0.02322     0.15486
 PX  C   5   0.15124    -0.09513    -0.08737     0.07742     0.01687     0.08232
 PY  C   5  -0.07746    -0.02361     0.01342     0.07606     0.00521    -0.08191
 PZ  C   5   0.06711    -0.05474    -0.04273     0.01396    -0.00244     0.02648
  
  S  C   6  -0.20861     0.09677     0.08002     0.09339     0.02230    -0.10033
 PX  C   6  -0.04262     0.01684     0.05858    -0.05967    -0.00332     0.05956
 PY  C   6   0.10836    -0.10823    -0.12003     0.11543     0.00377    -0.04829
 PZ  C   6  -0.00636    -0.01107     0.01085    -0.03809    -0.00946     0.02340
  
  S  C   7   0.21581    -0.11410    -0.16278     0.05221    -0.00073     0.05125
 PX  C   7  -0.00626     0.00180     0.03069    -0.06737    -0.01345    -0.01250
 PY  C   7   0.16249    -0.02921    -0.02650    -0.12768    -0.01264     0.15055
 PZ  C   7   0.03265    -0.00107     0.00619    -0.08875    -0.01777     0.02002
  
  S  C   8   0.10860     0.02571     0.00009    -0.17612    -0.03230    -0.00555
 PX  C   8  -0.12772     0.05894     0.07244     0.00368    -0.00204    -0.11170
 PY  C   8   0.00507     0.06780     0.06284    -0.03267     0.01800     0.07829
 PZ  C   8  -0.13569     0.08152     0.04572     0.01654    -0.00218    -0.10468
  
  S  S   9  -0.03953    -0.01722     0.02091     0.01022    -0.00635    -0.06011
 PX  S   9   0.03253    -0.00757    -0.01184     0.03189     0.01361     0.04812
 PY  S   9  -0.05261     0.07052     0.02279    -0.09484    -0.03101    -0.15306
 PZ  S   9  -0.01152     0.02696    -0.00477    -0.01248    -0.00490    -0.02865
  
  S  C  10  -0.09105     0.07220     0.11097     0.04926     0.02971     0.01740
 PX  C  10  -0.05327     0.02265     0.01892     0.01785     0.00183    -0.05944
 PY  C  10  -0.02088    -0.08227     0.02172     0.12909     0.02696     0.03669
 PZ  C  10  -0.17386     0.03191    -0.07127     0.13434    -0.00691    -0.14840
  
  S  C  11  -0.20164     0.01390    -0.13613     0.15188    -0.00016    -0.05644
 PX  C  11  -0.00694     0.00792     0.00434     0.00194     0.00304    -0.01383
 PY  C  11   0.14260    -0.09744    -0.02062    -0.08537    -0.00684     0.12423
 PZ  C  11   0.04432    -0.02026    -0.10937    -0.06291    -0.01907     0.04308
  
  S  C  12   0.21699    -0.05247    -0.05994    -0.21388    -0.03304     0.11467
 PX  C  12   0.00019     0.00901     0.01990     0.02218     0.01783     0.00733
 PY  C  12   0.12779     0.05669     0.09252    -0.12494    -0.01017    -0.02217
 PZ  C  12  -0.01091    -0.00045    -0.07962    -0.04172     0.01118     0.09426
  
  S  C  13   0.07152     0.05007     0.00414    -0.08846    -0.03389    -0.17488
 PX  C  13   0.04432     0.02073     0.08640     0.03954     0.00277    -0.01352
 PY  C  13  -0.06022     0.10823    -0.04300     0.00627    -0.00936    -0.09226
 PZ  C  13   0.17372    -0.00521     0.06465    -0.12107    -0.02558     0.07545
  
  S  S  14  -0.00482    -0.04045     0.08357     0.05412     0.02681     0.06782
 PX  S  14  -0.00033     0.00710     0.03677     0.01157     0.01675    -0.03300
 PY  S  14  -0.07652     0.00794    -0.09773     0.01394    -0.02601    -0.14909
 PZ  S  14  -0.00829    -0.02403     0.03792     0.03106     0.01592    -0.02652
  
  S  N  15  -0.07867     0.06261    -0.04230     0.07327     0.01173    -0.01992
 PX  N  15   0.09404     0.05635     0.23417     0.15296    -0.09237    -0.03087
 PY  N  15   0.03986    -0.10328     0.05733     0.05859     0.02007     0.22628
 PZ  N  15   0.11819     0.05640     0.17016     0.04217    -0.08069    -0.01518
  
  S  C  16  -0.02322    -0.14480     0.17594     0.10363    -0.16686     0.03282
 PX  C  16  -0.08452    -0.07936     0.01000     0.00894     0.03947    -0.03183
 PY  C  16  -0.05727    -0.09217    -0.16443    -0.15155    -0.09976    -0.07700
 PZ  C  16  -0.04364    -0.05664    -0.00945    -0.04144     0.01789    -0.02978
  
  S  C  17  -0.06893     0.02257    -0.01153     0.05497     0.23871     0.08437
 PX  C  17   0.02047     0.15073    -0.14530    -0.03753     0.15408     0.02752
 PY  C  17  -0.05515    -0.06398    -0.10195    -0.08172    -0.14857    -0.10570
 PZ  C  17   0.02290     0.10317    -0.11139    -0.05167     0.09552     0.01535
  
  S  C  18   0.06929     0.20823    -0.15325    -0.04037    -0.03546    -0.03448
 PX  C  18   0.06627     0.14185    -0.01612     0.03489     0.04938     0.04684
 PY  C  18   0.07992    -0.05017     0.12433     0.01927    -0.25633    -0.05583
 PZ  C  18   0.05524     0.09730    -0.00369     0.02028     0.01669     0.03015
  
  S  C  19   0.12177    -0.03692     0.19882     0.07399    -0.10163     0.02406
 PX  C  19   0.07819     0.12264    -0.00915     0.02730    -0.11546    -0.00450
 PY  C  19   0.03004    -0.00593     0.12836     0.09567     0.17311     0.11912
 PZ  C  19   0.05854     0.08683     0.00143     0.02295    -0.07175     0.00441
  
  S  C  20  -0.04265    -0.00331     0.00939     0.01298     0.26641     0.06223
 PX  C  20   0.02342    -0.14179     0.14375     0.02931    -0.04590     0.00966
 PY  C  20   0.05517     0.07268     0.09624     0.10791     0.19185     0.12718
 PZ  C  20   0.02162    -0.09613     0.10790     0.02356    -0.02178     0.01391
  
  S  C  21  -0.00092     0.10659    -0.15471    -0.08352    -0.06687    -0.05991
 PX  C  21  -0.10638    -0.19697     0.00228    -0.04338    -0.04923    -0.03216
 PY  C  21  -0.03146     0.13830    -0.09006    -0.00432     0.16089    -0.01291
 PZ  C  21  -0.07201    -0.12966    -0.00486    -0.04309    -0.02728    -0.02629
  
  S  C  22   0.12811     0.16101     0.07339     0.01543     0.03986    -0.10024
 PX  C  22   0.02940     0.13158    -0.12790    -0.01806    -0.00588     0.05840
 PY  C  22  -0.03332     0.17761    -0.07070     0.09838    -0.14807     0.01630
 PZ  C  22   0.02388     0.10703    -0.09407    -0.01521    -0.01617     0.03886
  
  S  C  23  -0.07442    -0.19554    -0.04684    -0.11179     0.17180     0.03546
 PX  C  23  -0.00426     0.06112    -0.09232     0.01360     0.03897     0.04498
 PY  C  23   0.16888     0.01607     0.22366     0.00247     0.06161    -0.12657
 PZ  C  23   0.02304     0.05098    -0.04499    -0.00874     0.02200     0.01858
  
  S  C  24  -0.03725     0.02140    -0.03015     0.07024    -0.19557     0.15247
 PX  C  24  -0.09924    -0.18658    -0.04205    -0.09780     0.11626    -0.00770
 PY  C  24   0.07794    -0.03921     0.15127    -0.03387     0.13288    -0.15894
 PZ  C  24  -0.05989    -0.12882    -0.01898    -0.07443     0.08457    -0.01462
  
  S  C  25   0.12553     0.24163    -0.00510     0.04667     0.02793    -0.06472
 PX  C  25  -0.00518    -0.10438     0.10243    -0.00425    -0.01283    -0.03725
 PY  C  25  -0.03372    -0.11666    -0.03406    -0.12759     0.22534    -0.11057
 PZ  C  25  -0.00412    -0.07779     0.06982    -0.01118     0.00203    -0.03209
  
  S  C  26  -0.09185    -0.11960    -0.13904    -0.10407     0.10102     0.03078
 PX  C  26  -0.02701    -0.09441     0.09295     0.03681    -0.08584    -0.00924
 PY  C  26  -0.11227    -0.08530    -0.11165     0.01498    -0.14681     0.18796
 PZ  C  26  -0.02423    -0.06977     0.05887     0.02553    -0.06845     0.00341
  
  S  C  27  -0.10185    -0.01418    -0.03612     0.10348    -0.22933     0.11335
 PX  C  27   0.07704     0.17476     0.04458     0.06723    -0.01436    -0.05566
 PY  C  27  -0.07268     0.04720    -0.15212     0.04661    -0.14309     0.18876
 PZ  C  27   0.05131     0.12664     0.02258     0.04744    -0.01898    -0.02935
  
  S  C  28  -0.06200    -0.02086     0.01643     0.16434     0.04868     0.06490
 PX  C  28   0.03513     0.01701    -0.01025    -0.10342    -0.03332    -0.07141
 PY  C  28   0.01424    -0.04493    -0.04977     0.09958     0.00245    -0.14404
 PZ  C  28   0.00322    -0.00310    -0.00364    -0.00102    -0.00192    -0.00803
  
  S  O  29  -0.04564     0.05134     0.05756    -0.13693    -0.02277     0.06033
 PX  O  29   0.00549     0.00251     0.00026    -0.03347    -0.00916     0.00030
 PY  O  29   0.02076    -0.03089    -0.03586     0.08062     0.00830    -0.07534
 PZ  O  29   0.00147    -0.00191    -0.00193     0.00212    -0.00016    -0.00282
  
  S  O  30   0.06523    -0.01882    -0.04542    -0.00825    -0.01449    -0.08372
 PX  O  30  -0.00249     0.00989     0.01159    -0.01015     0.00517     0.05069
 PY  O  30  -0.11386     0.00710     0.07537     0.15785     0.07435     0.26243
 PZ  O  30  -0.00668     0.00049     0.00500     0.00792     0.00441     0.01952
  
  S  H  31   0.18126    -0.11933    -0.14725     0.20559     0.03088    -0.05923
  
  S  H  32  -0.12433     0.08508     0.05729     0.03784     0.01336    -0.06804
  
  S  H  33   0.15211    -0.06824    -0.10617     0.04396     0.00710     0.07798
  
  S  H  34  -0.13370     0.03360    -0.11450     0.07913    -0.00718    -0.05860
  
  S  H  35   0.14022    -0.00984    -0.04253    -0.16611    -0.00588     0.11271
  
  S  H  36   0.01083     0.09018     0.01047     0.05368     0.25571     0.11695
  
  S  H  37   0.07969     0.21437    -0.09817     0.00219     0.03590     0.02309
  
  S  H  38   0.11236     0.03621     0.16000     0.09996    -0.02227     0.07252
  
  S  H  39   0.00052     0.08119     0.01729     0.06581     0.25788     0.10970
  
  S  H  40  -0.05109     0.06494    -0.10199     0.07572    -0.20675     0.17979
  
  S  H  41   0.07349     0.22007    -0.06892     0.05378    -0.02209     0.01771
  
  S  H  42  -0.07489    -0.04235    -0.16675    -0.06886     0.04291     0.10040
  
  S  H  43  -0.08238     0.05281    -0.10445     0.09432    -0.20357     0.17284
  
  S  H  44   0.07850    -0.00545    -0.04947    -0.09637    -0.04469    -0.15415




    ROOT NO.   25          26          27          28          29          30

           -23.01739   -22.12519   -20.75883   -20.40314   -20.05816   -19.66456
  
  
  S  N   1   0.02156     0.10744    -0.07509    -0.03509    -0.01736     0.02831
 PX  N   1  -0.00721    -0.04042     0.02627     0.00816     0.00515    -0.01145
 PY  N   1  -0.01849     0.01366     0.00352     0.01687    -0.00274     0.02233
 PZ  N   1  -0.00654    -0.01471    -0.00325    -0.01159    -0.00418     0.00299
  
  S  C   2  -0.06110    -0.18558     0.09807     0.02911     0.01872    -0.03612
 PX  C   2  -0.05785    -0.17818     0.09375     0.03257     0.01809    -0.03072
 PY  C   2  -0.05404     0.00938    -0.00271     0.01583    -0.01176     0.04748
 PZ  C   2  -0.01243    -0.02574    -0.00082    -0.01496    -0.00536     0.00380
  
  S  C   3  -0.14145    -0.03461     0.00710    -0.00353     0.01617    -0.02836
 PX  C   3  -0.01135     0.26696    -0.14089    -0.04624    -0.01545     0.02958
 PY  C   3  -0.15004    -0.06893     0.00577    -0.00269    -0.04854     0.12922
 PZ  C   3  -0.01843    -0.03330     0.01742    -0.00229    -0.00048    -0.00036
  
  S  C   4   0.03604     0.01467     0.00356    -0.00306    -0.04029     0.08547
 PX  C   4   0.07643     0.07714     0.04710     0.03858     0.02916    -0.05920
 PY  C   4   0.24868    -0.12846     0.05761     0.01085    -0.00116    -0.02775
 PZ  C   4   0.00004    -0.05965     0.05074     0.01590     0.00993    -0.01729
  
  S  C   5   0.12966    -0.04199    -0.09542    -0.10112    -0.00751    -0.04986
 PX  C   5   0.08203    -0.14605     0.18034     0.10245     0.03865    -0.04992
 PY  C   5  -0.12361     0.03984    -0.04069    -0.03673     0.03729    -0.08584
 PZ  C   5  -0.02892    -0.14054     0.12997     0.05632     0.02681    -0.03296
  
  S  C   6   0.04313     0.22224     0.01166     0.07134     0.03892    -0.04428
 PX  C   6  -0.02200     0.00629    -0.24368    -0.20381    -0.05071     0.01339
 PY  C   6  -0.08276    -0.15085     0.07861    -0.03103    -0.01266     0.00904
 PZ  C   6  -0.06337    -0.07185    -0.14556    -0.16925    -0.05699     0.03828
  
  S  C   7   0.02819    -0.22374     0.09906    -0.01004    -0.02901     0.03723
 PX  C   7  -0.09041     0.06708    -0.22536    -0.14908    -0.04192     0.03497
 PY  C   7   0.08003    -0.09292    -0.05951    -0.02801    -0.01476     0.01432
 PZ  C   7  -0.04115    -0.00585    -0.16326    -0.13665    -0.06824     0.06789
  
  S  C   8  -0.00268     0.10154    -0.08300    -0.01446    -0.05909     0.08643
 PX  C   8  -0.05899     0.15676     0.11210     0.16551     0.06504    -0.02582
 PY  C   8   0.16844     0.13038     0.01547     0.05484     0.03879    -0.09401
 PZ  C   8   0.02515     0.10095     0.12807     0.09310    -0.01007     0.02910
  
  S  S   9  -0.07523    -0.02468     0.36142     0.34502     0.14274    -0.10080
 PX  S   9   0.07636    -0.01281     0.08883     0.08885     0.05056    -0.06431
 PY  S   9  -0.08549     0.17771    -0.00976     0.07547    -0.03357     0.13347
 PZ  S   9   0.02269     0.01549     0.07176     0.07480     0.00757     0.03119
  
  S  C  10   0.06252     0.11758     0.05927    -0.07021    -0.04835    -0.10806
 PX  C  10  -0.02567     0.04136     0.04988     0.04596     0.01419     0.00858
 PY  C  10  -0.12351    -0.11320     0.01664    -0.07974     0.00680    -0.08016
 PZ  C  10  -0.00865    -0.13358     0.15126    -0.11938    -0.16713     0.12662
  
  S  C  11   0.00966    -0.21287    -0.07915    -0.03960     0.04617     0.03966
 PX  C  11  -0.00901     0.00755    -0.00705     0.03886     0.04208     0.01076
 PY  C  11  -0.07893     0.03900    -0.03324    -0.00265    -0.01612    -0.09559
 PZ  C  11   0.02904    -0.08402    -0.24215     0.16363     0.23361     0.02883
  
  S  C  12   0.03409     0.16444    -0.02965     0.07802     0.01708    -0.06878
 PX  C  12  -0.01776    -0.00955    -0.01963     0.01879     0.05087     0.01530
 PY  C  12   0.08711     0.19132     0.09783     0.03297    -0.03330     0.02874
 PZ  C  12   0.02867     0.01104    -0.22739     0.18347     0.23277    -0.08274
  
  S  C  13   0.09160    -0.01092     0.07627    -0.00650    -0.09330     0.14487
 PX  C  13  -0.01372    -0.01229     0.01930    -0.03589     0.05582     0.02349
 PY  C  13   0.15006    -0.05359    -0.06897    -0.00735     0.07500    -0.05382
 PZ  C  13   0.04218     0.19991     0.17060    -0.11099    -0.13793    -0.08927
  
  S  S  14  -0.09936    -0.04828    -0.27813     0.26167     0.38612     0.00418
 PX  S  14  -0.00706     0.00440     0.01068    -0.00474     0.01407    -0.01302
 PY  S  14  -0.02061    -0.12891    -0.00049     0.07433    -0.04106     0.26092
 PZ  S  14  -0.04250    -0.01682     0.08631    -0.08721    -0.13444     0.00606
  
  S  N  15   0.02240    -0.08404    -0.04073    -0.06975     0.01489    -0.18628
 PX  N  15  -0.03381    -0.07263     0.03048    -0.12637     0.22219     0.08508
 PY  N  15  -0.19690     0.08506     0.04255    -0.03493    -0.01185    -0.11928
 PZ  N  15   0.03297     0.04390     0.09434    -0.12653     0.08192     0.00838
  
  S  C  16  -0.05476    -0.02131     0.01120    -0.02950     0.07541     0.07552
 PX  C  16  -0.00128    -0.05357    -0.07064     0.11738    -0.09590     0.07891
 PY  C  16   0.10016     0.03297    -0.00881     0.06240    -0.04756     0.04283
 PZ  C  16   0.03590     0.00712    -0.03139     0.09358    -0.09829     0.04740
  
  S  C  17  -0.12450    -0.01573    -0.03092     0.10009    -0.11474     0.06250
 PX  C  17  -0.02070     0.02126     0.03460    -0.05871     0.00698    -0.08720
 PY  C  17   0.12324    -0.02708    -0.01980    -0.02584    -0.05657    -0.16717
 PZ  C  17   0.00699     0.03632     0.02600    -0.03332    -0.00253    -0.08154
  
  S  C  18   0.06501     0.01368     0.04968    -0.13085     0.09818    -0.09608
 PX  C  18  -0.04239     0.02474     0.07355    -0.13108     0.17486     0.06473
 PY  C  18   0.07232    -0.00731    -0.02143     0.02401     0.05078     0.08660
 PZ  C  18  -0.02091     0.02446     0.05183    -0.08766     0.12554     0.04886
  
  S  C  19  -0.04044    -0.00859    -0.04517     0.12112    -0.07844     0.10128
 PX  C  19   0.01487     0.00655     0.02142    -0.02632     0.09941     0.15225
 PY  C  19  -0.16133     0.00739     0.00308     0.06985    -0.03670     0.14719
 PZ  C  19   0.00255     0.00879     0.01668    -0.01281     0.06656     0.11682
  
  S  C  20  -0.07266     0.00811     0.03728    -0.09066     0.04476    -0.10684
 PX  C  20  -0.03456    -0.01731    -0.06032     0.13500    -0.15692    -0.02772
 PY  C  20  -0.16419     0.00198     0.01882     0.00148    -0.01507     0.03180
 PZ  C  20  -0.03067    -0.00688    -0.03877     0.09692    -0.11659    -0.01905
  
  S  C  21   0.08853     0.03563     0.05281    -0.06832     0.13546     0.13206
 PX  C  21   0.04366    -0.00796     0.00558    -0.07003     0.04508    -0.12625
 PY  C  21   0.02400    -0.01685     0.01008    -0.07709     0.05874    -0.05795
 PZ  C  21   0.04447     0.00825     0.01353    -0.05402     0.02494    -0.09650
  
  S  C  22   0.04688    -0.05858    -0.06936     0.13416    -0.10336     0.08892
 PX  C  22  -0.03299     0.05439     0.04305    -0.00347     0.04705     0.14769
 PY  C  22   0.00653    -0.05184    -0.05295     0.01939    -0.01482    -0.03352
 PZ  C  22  -0.01228     0.04726     0.03841    -0.00658     0.02445     0.10194
  
  S  C  23  -0.01657     0.06011     0.01326     0.04374    -0.08854     0.00565
 PX  C  23  -0.04929    -0.02563    -0.07170     0.09317    -0.12473    -0.13403
 PY  C  23   0.04506    -0.04306     0.00066     0.01003     0.02334     0.05191
 PZ  C  23  -0.00901     0.00771    -0.02278     0.04943    -0.10468    -0.09468
  
  S  C  24  -0.08046     0.08558     0.08319    -0.07851     0.08241     0.08914
 PX  C  24   0.01861     0.03576     0.02193     0.00228     0.02818     0.11609
 PY  C  24   0.09278    -0.07099    -0.00796    -0.07485     0.04763    -0.12472
 PZ  C  24   0.02461     0.03053     0.02549    -0.01014     0.01263     0.06950
  
  S  C  25   0.02657    -0.07619    -0.07598     0.06256    -0.09950    -0.13274
 PX  C  25   0.02731     0.00170     0.06299    -0.14288     0.17657     0.01094
 PY  C  25   0.07448    -0.02130    -0.01346     0.01100     0.05021     0.09858
 PZ  C  25   0.02517     0.00318     0.04668    -0.10106     0.12137     0.01099
  
  S  C  26  -0.00735     0.06321     0.05823    -0.04174     0.09449     0.14051
 PX  C  26   0.00619    -0.01997     0.01160    -0.08417     0.07222    -0.12883
 PY  C  26  -0.10675     0.11816     0.07938    -0.01782     0.00548     0.09887
 PZ  C  26   0.00006    -0.00556     0.01461    -0.06095     0.04824    -0.08558
  
  S  C  27  -0.06374     0.00262    -0.02772     0.01946    -0.07248    -0.13667
 PX  C  27   0.02470    -0.07753    -0.09213     0.11299    -0.12959    -0.03673
 PY  C  27  -0.11026     0.08709     0.03539     0.01448    -0.07180    -0.01678
 PZ  C  27   0.01437    -0.04562    -0.05859     0.07792    -0.09797    -0.02704
  
  S  C  28   0.18515     0.11562    -0.06395    -0.01732    -0.01297     0.02175
 PX  C  28  -0.14637    -0.03561     0.00801    -0.00042     0.01244    -0.02145
 PY  C  28  -0.13644     0.10198    -0.03711    -0.01436     0.06775    -0.16489
 PZ  C  28  -0.01730    -0.00983     0.00710    -0.00089     0.00600    -0.01531
  
  S  O  29  -0.02864    -0.12964     0.07069     0.02001     0.01086    -0.02866
 PX  O  29  -0.03502    -0.05558     0.04694     0.01483     0.01732    -0.04519
 PY  O  29  -0.04289     0.08520    -0.03668    -0.01087     0.03073    -0.07767
 PZ  O  29  -0.00505    -0.00340     0.00393    -0.00006     0.00330    -0.00900
  
  S  O  30  -0.10177     0.01570    -0.00042    -0.00093     0.02019    -0.04982
 PX  O  30   0.07428    -0.00574    -0.00944     0.00019    -0.04676     0.12209
 PY  O  30   0.43161     0.03787    -0.02223     0.00074    -0.07604     0.16368
 PZ  O  30   0.02790    -0.00456     0.00264    -0.00022    -0.00590     0.01254
  
  S  H  31   0.05525     0.06176     0.03773     0.02916     0.00394    -0.00403
  
  S  H  32   0.07934     0.19607     0.13700     0.20726     0.07118    -0.04709
  
  S  H  33   0.09562    -0.18182     0.19805     0.10668     0.02635    -0.01788
  
  S  H  34   0.04810    -0.17156    -0.15941     0.07822     0.16725     0.08352
  
  S  H  35   0.05382     0.15396    -0.12427     0.16980     0.14687    -0.07661
  
  S  H  36  -0.13907     0.02594     0.00642     0.05609    -0.01569     0.11154
  
  S  H  37  -0.00291     0.03159     0.09174    -0.18329     0.20299     0.00158
  
  S  H  38  -0.09794     0.00404    -0.00960     0.08924    -0.00629     0.22814
  
  S  H  39  -0.13002     0.00974     0.04780    -0.08510     0.05693    -0.02963
  
  S  H  40  -0.10618     0.07850     0.03506     0.02115     0.01315     0.11919
  
  S  H  41  -0.02374    -0.03787    -0.09089     0.15238    -0.21266    -0.10027
  
  S  H  42  -0.05335     0.09644     0.05871     0.02573     0.00430     0.20819
  
  S  H  43  -0.10261     0.04719    -0.00283     0.03435    -0.10753    -0.09160
  
  S  H  44  -0.25144    -0.02395     0.01321     0.00017     0.03752    -0.07700




    ROOT NO.   31          32          33          34          35          36

           -19.17419   -18.16392   -17.86004   -17.19882   -16.80735   -16.65033
  
  
  S  N   1  -0.03734     0.03209    -0.07150     0.05368     0.04901     0.21360
 PX  N   1   0.02044    -0.01949     0.04794    -0.04644    -0.03903    -0.16987
 PY  N   1  -0.06244     0.04987    -0.04343     0.00531     0.00685     0.02189
 PZ  N   1   0.00259     0.00923    -0.00907    -0.04361    -0.00447     0.02602
  
  S  C   2   0.05334    -0.03080     0.08117    -0.08580    -0.05495    -0.21795
 PX  C   2   0.03944    -0.01879     0.04900    -0.04733    -0.02587    -0.09405
 PY  C   2  -0.11268     0.08771    -0.06955    -0.01044     0.01001     0.04362
 PZ  C   2   0.00280     0.01589    -0.01519    -0.06430    -0.00703     0.03522
  
  S  C   3   0.02339     0.03478    -0.06386    -0.01841     0.00836     0.06108
 PX  C   3  -0.05250     0.05417    -0.12398     0.08142     0.05819     0.23520
 PY  C   3  -0.24881     0.15087     0.04730    -0.14631     0.02317     0.16020
 PZ  C   3   0.00028     0.02459    -0.01881    -0.08364    -0.01056     0.04057
  
  S  C   4  -0.12277     0.00996     0.14581    -0.07556    -0.00693    -0.01542
 PX  C   4   0.09989    -0.11922     0.24735    -0.08921    -0.07221    -0.32442
 PY  C   4   0.11229    -0.12068    -0.00432     0.12428    -0.02598    -0.16758
 PZ  C   4   0.02055     0.01964    -0.02535    -0.07501    -0.01214     0.02375
  
  S  C   5   0.16224    -0.05464    -0.14051     0.06609     0.00864     0.05117
 PX  C   5   0.04030    -0.01325     0.02098    -0.01177    -0.02706    -0.10784
 PY  C   5   0.11021     0.02338    -0.01275    -0.11717    -0.01460    -0.00077
 PZ  C   5   0.01466     0.05840    -0.07924    -0.08650    -0.00497     0.06946
  
  S  C   6   0.02428    -0.02189     0.05729    -0.02481    -0.01396    -0.05267
 PX  C   6   0.08567    -0.03542    -0.04542     0.02719     0.01679     0.05526
 PY  C   6   0.00459     0.04376     0.10336    -0.28799    -0.03953     0.00918
 PZ  C   6   0.03845     0.01024    -0.05098    -0.09133     0.00716     0.11623
  
  S  C   7  -0.01601     0.01143    -0.03974    -0.00391     0.00677     0.04908
 PX  C   7  -0.02510    -0.00749     0.14789    -0.05244    -0.02341    -0.13571
 PY  C   7   0.00206    -0.03148    -0.13928     0.28942     0.04716     0.02031
 PZ  C   7  -0.02354    -0.03580     0.02596     0.05910    -0.00257    -0.05801
  
  S  C   8  -0.11360    -0.05181     0.08891     0.13846    -0.00899    -0.11900
 PX  C   8  -0.09675     0.05392     0.07937    -0.04796     0.00108     0.01491
 PY  C   8   0.13317    -0.04625    -0.06475     0.00891    -0.01918    -0.01649
 PZ  C   8  -0.01934    -0.04055    -0.01932    -0.01248    -0.00716     0.03153
  
  S  S   9  -0.09361     0.12810    -0.13717     0.10368     0.05070     0.14116
 PX  S   9   0.03635     0.01688    -0.05783     0.06758     0.01341     0.01550
 PY  S   9  -0.25669     0.00757     0.16999     0.08960     0.02053    -0.03083
 PZ  S   9  -0.06304     0.00652    -0.05171     0.06295     0.02791     0.08399
  
  S  C  10   0.14510     0.05357     0.00046    -0.14328    -0.04785     0.03267
 PX  C  10  -0.05072     0.02301     0.05406    -0.03485    -0.00780     0.00124
 PY  C  10   0.01825     0.14698     0.01817    -0.11519     0.00563     0.08163
 PZ  C  10   0.01023    -0.05737    -0.02731    -0.00697    -0.01185     0.01768
  
  S  C  11   0.01100    -0.00922    -0.01869    -0.00639     0.02512     0.00248
 PX  C  11  -0.03071     0.00579     0.02453    -0.00800     0.00202    -0.00290
 PY  C  11  -0.08686     0.14236     0.07994     0.18503    -0.01642    -0.05471
 PZ  C  11  -0.07321    -0.07470    -0.01920     0.06439     0.05903    -0.04162
  
  S  C  12  -0.02218     0.02193     0.02505     0.03195    -0.01022    -0.01706
 PX  C  12  -0.01006     0.01811     0.02132     0.00132    -0.01208    -0.00445
 PY  C  12   0.08559    -0.10797    -0.05470    -0.17908     0.00035     0.05091
 PZ  C  12   0.01852     0.04115     0.02608    -0.09491    -0.06375     0.02813
  
  S  C  13  -0.02751    -0.17304    -0.06016     0.05879     0.00363    -0.03447
 PX  C  13  -0.02298     0.01032     0.01914     0.02307     0.04201    -0.02970
 PY  C  13   0.11284     0.02062    -0.03228    -0.16292    -0.00706     0.05316
 PZ  C  13   0.07833     0.04189    -0.01632    -0.09574     0.06172     0.03675
  
  S  S  14  -0.07528    -0.03268     0.00564    -0.14027     0.06790     0.04362
 PX  S  14  -0.03199     0.01821     0.03837    -0.00632    -0.02661    -0.01268
 PY  S  14  -0.14619    -0.20523    -0.01414     0.22672    -0.01586    -0.09888
 PZ  S  14  -0.01285     0.02810     0.01502     0.10362    -0.06511    -0.02670
  
  S  N  15  -0.06093     0.07513     0.02841     0.00717    -0.01127     0.00645
 PX  N  15  -0.06514     0.00144     0.02045     0.08143     0.19860    -0.09616
 PY  N  15  -0.11978     0.07845     0.06092     0.08883     0.03992    -0.02217
 PZ  N  15   0.04706    -0.02548    -0.04551    -0.17052     0.16112     0.04276
  
  S  C  16   0.00611     0.07249     0.03855     0.09548     0.02340    -0.03522
 PX  C  16   0.09229     0.12114     0.05065     0.10827    -0.01050    -0.04341
 PY  C  16  -0.01795    -0.16967    -0.06313    -0.00995    -0.19939     0.03401
 PZ  C  16   0.11538     0.05146    -0.00130    -0.06232    -0.02732     0.04281
  
  S  C  17   0.03619    -0.02885    -0.01666    -0.00675    -0.06749     0.02018
 PX  C  17  -0.11611    -0.16875    -0.06159    -0.05539    -0.02541     0.01413
 PY  C  17  -0.08441    -0.02412    -0.00725     0.01489     0.25841    -0.08297
 PZ  C  17  -0.06613    -0.13022    -0.05696    -0.10857    -0.00405     0.03979
  
  S  C  18  -0.06498     0.02276     0.01422     0.00949     0.13553    -0.03758
 PX  C  18  -0.02470     0.02455     0.02234     0.07702    -0.08667    -0.00566
 PY  C  18   0.12837     0.20053     0.07502     0.03352    -0.03758     0.01384
 PZ  C  18   0.00071     0.02660     0.01438     0.01994    -0.06650     0.01749
  
  S  C  19   0.08019    -0.00936    -0.01295    -0.03313    -0.07041     0.03007
 PX  C  19   0.10863     0.14281     0.05650     0.09603    -0.13906     0.00609
 PY  C  19   0.00869    -0.13713    -0.05386     0.01655    -0.18400     0.02910
 PZ  C  19   0.08487     0.08938     0.03124     0.03972    -0.11346     0.02433
  
  S  C  20  -0.09407    -0.01450     0.00348     0.00382     0.09421    -0.02348
 PX  C  20  -0.03954    -0.15767    -0.06395    -0.06753     0.06591    -0.00927
 PY  C  20  -0.05479    -0.04937    -0.00763     0.07135     0.16533    -0.07971
 PZ  C  20  -0.02055    -0.12138    -0.05521    -0.08786     0.05452     0.01497
  
  S  C  21   0.06453    -0.01656    -0.01363    -0.01483    -0.19311     0.05295
 PX  C  21  -0.09324     0.02680     0.03039     0.07403    -0.06319    -0.01324
 PY  C  21   0.05286     0.19278     0.06834     0.00447     0.02528     0.01198
 PZ  C  21  -0.03685     0.01699     0.00538    -0.03689    -0.04531     0.04176
  
  S  C  22   0.09431    -0.01609    -0.02483    -0.06130     0.17068    -0.02776
 PX  C  22   0.05187    -0.04582    -0.01877     0.01207    -0.07417    -0.00149
 PY  C  22   0.05887     0.17363     0.06328     0.05752    -0.04442     0.00717
 PZ  C  22   0.06551    -0.03410    -0.02965    -0.07352    -0.05036     0.04727
  
  S  C  23   0.06352     0.09906     0.03887     0.02507     0.01125    -0.00659
 PX  C  23  -0.10559    -0.06778    -0.00683     0.04274    -0.07332    -0.00817
 PY  C  23  -0.04938    -0.19033    -0.07701    -0.08028     0.17822    -0.03757
 PZ  C  23  -0.03137    -0.07682    -0.04178    -0.09950    -0.02235     0.05447
  
  S  C  24   0.02336    -0.02502    -0.01521    -0.02676     0.05527    -0.00803
 PX  C  24   0.12863     0.18618     0.07054     0.07832     0.04881    -0.03432
 PY  C  24  -0.08163     0.01727     0.02197     0.05318    -0.22803     0.03909
 PZ  C  24   0.10207     0.12363     0.03649     0.00085     0.03028     0.00815
  
  S  C  25  -0.05089     0.02480     0.01954     0.03923    -0.11970     0.02034
 PX  C  25  -0.06979    -0.07312    -0.02167     0.00776    -0.11536     0.01949
 PY  C  25   0.11681     0.17549     0.06133     0.06075     0.02776    -0.01230
 PZ  C  25  -0.03483    -0.04473    -0.01859    -0.02194    -0.07441     0.03054
  
  S  C  26   0.06019    -0.01722    -0.01649    -0.02859     0.04935    -0.00429
 PX  C  26  -0.15751    -0.12807    -0.03181     0.01548    -0.19004     0.03608
 PY  C  26   0.00817    -0.14194    -0.06389    -0.09249     0.13701    -0.02009
 PZ  C  26  -0.10377    -0.09972    -0.03113    -0.02034    -0.12301     0.04023
  
  S  C  27  -0.08223    -0.01129     0.00796     0.02721    -0.08336     0.01430
 PX  C  27   0.07729     0.17512     0.06557     0.05959     0.11463    -0.04340
 PY  C  27  -0.00821     0.01100     0.01524     0.03766    -0.10423     0.01000
 PZ  C  27   0.06398     0.11869     0.03794     0.00316     0.07709    -0.00550
  
  S  C  28  -0.03079     0.06617    -0.21904     0.04072    -0.02051    -0.09085
 PX  C  28   0.01657     0.05396    -0.15743    -0.01698    -0.03998    -0.15896
 PY  C  28   0.28535    -0.14169    -0.08811     0.19435     0.01848     0.00841
 PZ  C  28   0.02700     0.00012    -0.02225    -0.04458    -0.01336     0.01049
  
  S  O  29   0.07098    -0.15418     0.35030     0.03188     0.06256     0.23595
 PX  O  29   0.10265    -0.19811     0.42464     0.06496     0.09000     0.33556
 PY  O  29   0.13943    -0.06905    -0.09011     0.13586     0.00596    -0.03124
 PZ  O  29   0.01801    -0.00945     0.00728    -0.02624    -0.00458     0.02634
  
  S  O  30   0.09546    -0.10513     0.12328     0.09869     0.04570     0.14659
 PX  O  30  -0.24091     0.22575    -0.17877    -0.22286    -0.07054    -0.20024
 PY  O  30  -0.24162     0.03990     0.17767    -0.03867     0.04432     0.18462
 PZ  O  30  -0.01904     0.01637    -0.00408    -0.06070    -0.01288     0.01701
  
  S  H  31   0.01284    -0.08362     0.26931    -0.11317    -0.05943    -0.25917
  
  S  H  32  -0.05004    -0.01473     0.03239     0.14420    -0.00103    -0.11902
  
  S  H  33   0.01662     0.01212    -0.17423     0.11897     0.03955     0.14349
  
  S  H  34  -0.00537    -0.11631    -0.05822    -0.04792     0.06083     0.00250
  
  S  H  35   0.03357     0.00514     0.01292    -0.12166    -0.05929     0.03556
  
  S  H  36   0.03935    -0.06229    -0.02756    -0.05074    -0.24221     0.08499
  
  S  H  37  -0.06150     0.01722     0.01995     0.06109    -0.01861    -0.01571
  
  S  H  38   0.11323    -0.00420    -0.00742     0.04625    -0.25066     0.04485
  
  S  H  39  -0.07544     0.01654     0.02198     0.08871     0.15203    -0.07471
  
  S  H  40   0.03904    -0.07446    -0.04181    -0.06599     0.20390    -0.03232
  
  S  H  41   0.00377     0.03597     0.01706     0.01028     0.04332    -0.01400
  
  S  H  42   0.14258     0.01275    -0.01609    -0.06608     0.24371    -0.04655
  
  S  H  43  -0.03534     0.04061     0.03032     0.05597    -0.10249     0.00788
  
  S  H  44   0.10376     0.00982    -0.12023    -0.01765    -0.03736    -0.14080




    ROOT NO.   37          38          39          40          41          42

           -16.39112   -16.05282   -15.97636   -15.76397   -15.44670   -15.38015
  
  
  S  N   1  -0.00037     0.01545     0.01031    -0.00143     0.03939    -0.01291
 PX  N   1   0.00210    -0.01102    -0.00999    -0.00535    -0.03710     0.01121
 PY  N   1  -0.01006    -0.02217    -0.00548     0.04190    -0.00020     0.00932
 PZ  N   1   0.01908     0.04803     0.11380     0.02865     0.00376    -0.00572
  
  S  C   2   0.00389    -0.01083    -0.01358    -0.01038    -0.02329     0.00591
 PX  C   2   0.00152    -0.00349    -0.00513    -0.00357     0.00239    -0.00140
 PY  C   2  -0.01064    -0.02528    -0.01005     0.04273     0.00629     0.00769
 PZ  C   2   0.02678     0.06714     0.16682     0.04946     0.00223    -0.00553
  
  S  C   3  -0.00033    -0.00417    -0.01141     0.00145     0.03455    -0.00945
 PX  C   3  -0.00450     0.00407     0.00630     0.01419     0.02612    -0.00524
 PY  C   3  -0.00233    -0.02626    -0.02965     0.01780     0.04977    -0.01086
 PZ  C   3   0.03401     0.08948     0.26092     0.11225    -0.01123     0.00298
  
  S  C   4   0.00378     0.00004     0.00014    -0.00941    -0.00592    -0.00054
 PX  C   4  -0.00054    -0.03672    -0.01808     0.02123    -0.03816     0.01531
 PY  C   4   0.00447     0.04319     0.02047    -0.05850    -0.06817     0.01010
 PZ  C   4   0.02578     0.04940     0.15241     0.04905     0.02030    -0.00436
  
  S  C   5   0.01911     0.04615     0.02291    -0.06656     0.01542    -0.01471
 PX  C   5  -0.01356    -0.01109    -0.02533     0.01111     0.00786    -0.00059
 PY  C   5   0.00104    -0.03741    -0.03127     0.03154     0.06539    -0.01244
 PZ  C   5   0.02217     0.01463     0.07527    -0.00081     0.06383    -0.01227
  
  S  C   6   0.00031    -0.00923     0.02866     0.03618     0.01123    -0.00011
 PX  C   6   0.00444     0.01819    -0.05043    -0.04711    -0.01000    -0.00960
 PY  C   6   0.04449     0.05300     0.01515    -0.12023     0.09093    -0.04756
 PZ  C   6   0.04467     0.04941     0.03292    -0.11716     0.04091    -0.02474
  
  S  C   7   0.00918     0.02511    -0.01418    -0.05008    -0.00460    -0.00445
 PX  C   7  -0.03327    -0.05636    -0.03345     0.14101    -0.02475     0.02328
 PY  C   7  -0.04956    -0.04446    -0.05822     0.10769    -0.09809     0.04436
 PZ  C   7  -0.00085    -0.03455     0.02734     0.04423    -0.04451     0.03286
  
  S  C   8  -0.02749    -0.00912     0.02709     0.04560    -0.04366     0.01883
 PX  C   8  -0.01489     0.03080    -0.02271    -0.02485     0.01278    -0.02471
 PY  C   8   0.00349     0.02743     0.03945    -0.00024     0.09546    -0.03471
 PZ  C   8   0.05957     0.05451     0.09300    -0.17935     0.02626    -0.02126
  
  S  S   9  -0.04305    -0.07277    -0.06740     0.10917    -0.01192     0.01979
 PX  S   9  -0.03901    -0.04425    -0.06399     0.10855     0.00075     0.01006
 PY  S   9  -0.02217     0.01064    -0.03215    -0.01953    -0.11161     0.01916
 PZ  S   9   0.02167     0.00334     0.03381    -0.02040    -0.03193     0.01426
  
  S  C  10  -0.03051     0.00962     0.02655    -0.03978     0.13179    -0.03628
 PX  C  10  -0.02107     0.07604    -0.03034    -0.01576     0.00997    -0.02102
 PY  C  10  -0.05352    -0.05518    -0.09140     0.09973    -0.01036     0.01709
 PZ  C  10   0.03948     0.03072     0.06432    -0.20312    -0.02186     0.00308
  
  S  C  11  -0.00311    -0.02809    -0.05131     0.08059    -0.04337     0.01640
 PX  C  11  -0.02360     0.07250    -0.03859     0.01915    -0.01232    -0.00989
 PY  C  11  -0.19470    -0.07536     0.00184     0.17875     0.08502    -0.00694
 PZ  C  11   0.06216    -0.02457    -0.07352     0.17462    -0.10447     0.02766
  
  S  C  12  -0.01720     0.01222     0.05326    -0.05592     0.06480    -0.02713
 PX  C  12  -0.07039     0.11437    -0.03167     0.00384     0.00859    -0.01158
 PY  C  12   0.17904     0.09215     0.04103    -0.23927    -0.04126    -0.01089
 PZ  C  12  -0.03195     0.02174     0.06807    -0.10799     0.18750    -0.04025
  
  S  C  13   0.07944     0.02691    -0.01364     0.03117    -0.00817     0.00221
 PX  C  13  -0.08327     0.18529    -0.04496     0.01299     0.02185    -0.04174
 PY  C  13  -0.05646    -0.04790    -0.07727     0.15641     0.13227    -0.03110
 PZ  C  13   0.05866    -0.03789    -0.03684     0.00511    -0.11937     0.00848
  
  S  S  14   0.14344     0.03077    -0.00686    -0.12323    -0.13795     0.01381
 PX  S  14  -0.02603     0.14378    -0.06198     0.04691     0.04771    -0.02469
 PY  S  14   0.07727     0.08872     0.12934    -0.22291    -0.04772     0.01181
 PZ  S  14  -0.07517    -0.01473    -0.00315     0.09781     0.08950     0.01103
  
  S  N  15  -0.13642    -0.01399     0.00332     0.03326     0.03651    -0.00944
 PX  N  15  -0.14165     0.22227    -0.00022    -0.01031     0.05687    -0.20288
 PY  N  15   0.01039     0.01397     0.07987    -0.18494    -0.19515     0.02804
 PZ  N  15   0.12797    -0.13416    -0.09276     0.10048    -0.23393    -0.01822
  
  S  C  16   0.16338    -0.10004     0.05952    -0.03700     0.01801    -0.04941
 PX  C  16   0.00403     0.06121     0.03541    -0.01370     0.21926     0.13523
 PY  C  16   0.07892    -0.09208     0.02156     0.03349     0.09775    -0.13097
 PZ  C  16   0.16883    -0.14708    -0.03148     0.05041    -0.02419     0.19670
  
[...]
    Config     794  -0.06780261  0.00459719
    Config     799   0.11239261  0.01263210
    Config     804  -0.04478327  0.00200554
    Config     806   0.05004143  0.00250414
    Config     815  -0.12592059  0.01585599
    Config     887  -0.04191434  0.00175681
    Config     977   0.06061008  0.00367358
    Config     987  -0.12582265  0.01583134
    Config    1003   0.05990923  0.00358912
    Config    1011  -0.04049628  0.00163995
 Total coeff printed             0.76535664
  
State  500 11.9189     CI coeff  CI percent
    Config     225  -0.05090042  0.00259085
    Config     232  -0.05164154  0.00266685
    Config     240  -0.05431617  0.00295025
    Config     243   0.04313190  0.00186036
    Config     247  -0.04742963  0.00224957
    Config     266   0.09274858  0.00860230
    Config     271   0.06870240  0.00472002
    Config     273  -0.05572971  0.00310580
    Config     282   0.04733628  0.00224072
    Config     308  -0.05338139  0.00284957
    Config     309   0.06473956  0.00419121
    Config     323  -0.04716663  0.00222469
    Config     334   0.14759966  0.02178566
    Config     336  -0.05899378  0.00348027
    Config     345  -0.06763300  0.00457422
    Config     354   0.09522701  0.00906818
    Config     359  -0.04430552  0.00196298
    Config     360   0.04880384  0.00238181
    Config     361  -0.04158185  0.00172905
    Config     370   0.06094125  0.00371384
    Config     372   0.08485005  0.00719953
    Config     383   0.05056230  0.00255655
    Config     391  -0.07220164  0.00521308
    Config     392   0.06390690  0.00408409
    Config     393   0.05187691  0.00269121
    Config     394   0.04111732  0.00169063
    Config     395  -0.04590604  0.00210736
    Config     398  -0.10553077  0.01113674
    Config     404   0.09466170  0.00896084
    Config     413  -0.05805522  0.00337041
    Config     417  -0.11406893  0.01301172
    Config     418  -0.11046447  0.01220240
    Config     421   0.06453543  0.00416482
    Config     422  -0.07077245  0.00500874
    Config     429  -0.05288222  0.00279653
    Config     430  -0.08401754  0.00705895
    Config     431  -0.04383528  0.00192153
    Config     438  -0.13200235  0.01742462
    Config     441   0.05667324  0.00321186
    Config     443  -0.09792412  0.00958913
    Config     445  -0.04633052  0.00214652
    Config     452   0.06447969  0.00415763
    Config     461   0.08283067  0.00686092
    Config     469  -0.04300476  0.00184941
    Config     470  -0.04520220  0.00204324
    Config     471  -0.04419783  0.00195345
    Config     474   0.07568252  0.00572784
    Config     480  -0.04355899  0.00189739
    Config     491  -0.08179054  0.00668969
    Config     492  -0.04378710  0.00191731
    Config     495   0.18437698  0.03399487
    Config     503  -0.20154858  0.04062183
    Config     504   0.05649660  0.00319187
    Config     507   0.04723592  0.00223123
    Config     509  -0.04448931  0.00197930
    Config     512  -0.04173637  0.00174192
    Config     522   0.06536976  0.00427321
    Config     533   0.08992203  0.00808597
    Config     538   0.06783467  0.00460154
    Config     542  -0.04270629  0.00182383
    Config     545   0.27500118  0.07562565
    Config     558  -0.08464950  0.00716554
    Config     562   0.06956624  0.00483946
    Config     567   0.07986036  0.00637768
    Config     570   0.05834874  0.00340458
    Config     571   0.08560290  0.00732786
    Config     582  -0.05454900  0.00297559
    Config     583  -0.20303171  0.04122187
    Config     601   0.04930226  0.00243071
    Config     602   0.26836004  0.07201711
    Config     609  -0.04343991  0.00188703
    Config     612  -0.04074909  0.00166049
    Config     631  -0.06034298  0.00364128
    Config     633  -0.07338052  0.00538470
    Config     645   0.04295902  0.00184548
    Config     649  -0.10243917  0.01049378
    Config     652  -0.04091120  0.00167373
    Config     653  -0.05253409  0.00275983
    Config     664   0.04478674  0.00200585
    Config     665  -0.06649268  0.00442128
    Config     681   0.04214506  0.00177621
    Config     685   0.04525963  0.00204843
    Config     689   0.04872900  0.00237452
    Config     703   0.08791733  0.00772946
    Config     704  -0.08922260  0.00796067
    Config     712   0.04332114  0.00187672
    Config     720  -0.04281034  0.00183273
    Config     730   0.04272845  0.00182572
    Config     737  -0.04739633  0.00224641
    Config     739   0.07114851  0.00506211
    Config     743  -0.04978989  0.00247903
    Config     746   0.06294179  0.00396167
    Config     751  -0.04138903  0.00171305
    Config     758  -0.06151496  0.00378409
    Config     768   0.05296285  0.00280506
    Config     772   0.04620021  0.00213446
    Config     788  -0.04454242  0.00198403
    Config     794   0.09657108  0.00932597
    Config     799  -0.09364108  0.00876865
    Config     806   0.07698377  0.00592650
    Config     815   0.09362092  0.00876488
    Config     830  -0.09080693  0.00824590
    Config     926  -0.04937364  0.00243776
    Config     977  -0.16227716  0.02633388
    Config     987   0.10443602  0.01090688
    Config    1003  -0.06426979  0.00413061
    Config    1011   0.06005042  0.00360605
    Config    1160  -0.04183584  0.00175024
 Total coeff printed             0.75508909
  

 -------------------------------------------------------------------------------
 INDO CIS EPS=8.93 N**2=1.42
 Dye68
 Calculo de Estados Excitados


     1SCF WAS SPECIFIED, SO BFGS WAS NOT USED                 
     SCF FIELD WAS ACHIEVED                                   


                              INDO CALCULATION
                                                       MOPAC2016 (Version: 21.013L)
                                                       Thu Oct 21 14:55:46 2021
                                                       No. of days remaining =  84




          FINAL HEAT OF FORMATION =    -121765.08487 KCAL/MOL = -509465.11511 KJ/MOL
          VAN DER WAALS AREA      =        415.16 SQUARE ANGSTROMS


          TOTAL ENERGY            =      -5510.44562 EV
          ELECTRONIC ENERGY       =      -8214.16733 EV  POINT GROUP:     C1  
          CORE-CORE REPULSION     =       2703.72171 EV

          DIELECTRIC ENERGY       =         -0.41035 EV
          COSMO AREA              =        415.16 SQUARE ANGSTROMS
          COSMO VOLUME            =        469.75 CUBIC ANGSTROMS

          IONIZATION POTENTIAL    =          7.167463 EV
          HOMO LUMO ENERGIES (EV) =         -7.167 -1.118
          NO. OF FILLED LEVELS    =         72
          MOLECULAR WEIGHT        =        426.5068

          MOLECULAR DIMENSIONS (Angstroms)

            Atom       Atom       Distance
            H    44    H    39    17.62212
            H    41    H    37     8.85879
            H    34    H    31     3.09568


          SCF CALCULATIONS        =          2
 
          WALL-CLOCK TIME         =  4 MINUTES AND 18.535 SECONDS
          COMPUTATION TIME        =  4 MINUTES AND 22.535 SECONDS




   ATOM   CHEMICAL          X               Y               Z
  NUMBER   SYMBOL      (ANGSTROMS)     (ANGSTROMS)     (ANGSTROMS)
 
     1       N          0.00000000  *   0.00000000  *   0.00000000  *
     2       C          1.15642988  *   0.00000000  *   0.00000000  *
     3       C          2.57342430  *  -0.02064245  *   0.00000000  *
     4       C          3.32470408  *   1.09574756  *   0.06751381  *
     5       C          2.77149198  *   2.41839400  *   0.09056845  *
     6       C          1.66714578  *   2.86501904  *  -0.58474099  *
     7       C          1.41674235  *   4.25142033  *  -0.33984443  *
     8       C          2.34105154  *   4.79604837  *   0.50915060  *
     9       S          3.51892659  *   3.65865684  *   1.00198663  *
    10       C          2.38348614  *   6.14693216  *   0.97099500  *
    11       C          2.51020861  *   6.56051544  *   2.26606335  *
    12       C          2.48321133  *   7.98592460  *   2.38791573  *
    13       C          2.34601404  *   8.59628291  *   1.16964319  *
    14       S          2.26077319  *   7.45581081  *  -0.13221070  *
    15       N          2.35432963  *   9.96650797  *   0.92615046  *
    16       C          3.16985026  *  10.88623384  *   1.63257586  *
    17       C          4.29683340  *  10.64668654  *   2.40873945  *
    18       C          4.94309402  *  11.75468196  *   2.94028613  *
    19       C          4.48740618  *  13.05365070  *   2.70268271  *
    20       C          3.36628950  *  13.28968511  *   1.91769369  *
    21       C          2.70078086  *  12.20188658  *   1.37967040  *
    22       C          1.53361767  *  12.08668678  *   0.53901162  *
    23       C          1.31740763  *  10.70380334  *   0.29975558  *
    24       C          0.24785947  *  10.25267144  *  -0.46317202  *
    25       C         -0.59800159  *  11.21529016  *  -0.99738999  *
    26       C         -0.38738280  *  12.57876503  *  -0.77922104  *
    27       C          0.67802624  *  13.02650609  *  -0.00909678  *
    28       C          3.23148374  *  -1.33396194  *  -0.04731501  *
    29       O          4.43508777  *  -1.54546956  *  -0.00563567  *
    30       O          2.37649237  *  -2.37078248  *  -0.14903977  *
    31       H          4.42291599  *   1.02418616  *   0.11349301  *
    32       H          1.04746141  *   2.27067910  *  -1.25405888  *
    33       H          0.57619378  *   4.78475942  *  -0.77815577  *
    34       H          2.60089659  *   5.90266796  *   3.12791733  *
    35       H          2.54937388  *   8.49837459  *   3.34538396  *
    36       H          4.66865191  *   9.63522101  *   2.58466077  *
    37       H          5.83338819  *  11.60614703  *   3.55964632  *
    38       H          5.02641876  *  13.89827131  *   3.14111148  *
    39       H          3.01190598  *  14.30510927  *   1.72396597  *
    40       H          0.07324525  *   9.18832425  *  -0.63395034  *
    41       H         -1.45180372  *  10.89682264  *  -1.60399438  *
    42       H         -1.07592288  *  13.30420388  *  -1.22170355  *
    43       H          0.84366563  *  14.09233259  *   0.16655254  *
    44       H          2.85258749  *  -3.21365438  *  -0.17512840  *

                             CARTESIAN COORDINATES

   1    N        0.000000000     0.000000000     0.000000000
   2    C        1.156429880     0.000000000     0.000000000
   3    C        2.573424301    -0.020642448     0.000000000
   4    C        3.324704080     1.095747560     0.067513814
   5    C        2.771491983     2.418394003     0.090568446
   6    C        1.667145780     2.865019043    -0.584740995
   7    C        1.416742346     4.251420335    -0.339844427
   8    C        2.341051539     4.796048371     0.509150604
   9    S        3.518926592     3.658656835     1.001986635
  10    C        2.383486142     6.146932160     0.970995004
  11    C        2.510208615     6.560515439     2.266063349
  12    C        2.483211329     7.985924595     2.387915734
  13    C        2.346014035     8.596282907     1.169643187
  14    S        2.260773191     7.455810805    -0.132210698
  15    N        2.354329633     9.966507969     0.926150459
  16    C        3.169850262    10.886233840     1.632575857
  17    C        4.296833404    10.646686540     2.408739447
  18    C        4.943094025    11.754681960     2.940286134
  19    C        4.487406184    13.053650700     2.702682709
  20    C        3.366289500    13.289685110     1.917693688
  21    C        2.700780863    12.201886580     1.379670402
  22    C        1.533617667    12.086686780     0.539011615
  23    C        1.317407626    10.703803340     0.299755575
  24    C        0.247859465    10.252671440    -0.463172018
  25    C       -0.598001595    11.215290160    -0.997389993
  26    C       -0.387382804    12.578765030    -0.779221041
  27    C        0.678026241    13.026506090    -0.009096783
  28    C        3.231483742    -1.333961943    -0.047315007
  29    O        4.435087769    -1.545469565    -0.005635675
  30    O        2.376492372    -2.370782483    -0.149039771
  31    H        4.422915986     1.024186156     0.113493013
  32    H        1.047461409     2.270679101    -1.254058883
  33    H        0.576193780     4.784759420    -0.778155767
  34    H        2.600896586     5.902667964     3.127917331
  35    H        2.549373875     8.498374593     3.345383961
  36    H        4.668651909     9.635221011     2.584660774
  37    H        5.833388191    11.606147030     3.559646319
  38    H        5.026418763    13.898271310     3.141111477
  39    H        3.011905985    14.305109270     1.723965972
  40    H        0.073245252     9.188324253    -0.633950335
  41    H       -1.451803717    10.896822640    -1.603994377
  42    H       -1.075922877    13.304203880    -1.221703552
  43    H        0.843665633    14.092332590     0.166552539
  44    H        2.852587489    -3.213654380    -0.175128403


           Empirical Formula: C24 H14 N2 O2 S2  =    44 atoms



      MOLECULAR POINT GROUP   :   C1  


                  EIGENVALUES  
 -48.44290 -46.79581 -43.48639 -42.94100 -42.42842 -40.95792 -39.68401 -39.13648
 -36.41617 -36.05013 -33.29789 -32.85158 -31.74915 -30.56468 -30.36396 -29.04452
 -28.74957 -27.27874 -26.67210 -25.70101 -25.55383 -24.13005 -23.73944 -23.36064
 -23.01739 -22.12519 -20.75883 -20.40314 -20.05816 -19.66456 -19.17419 -18.16392
 -17.86004 -17.19882 -16.80735 -16.65033 -16.39112 -16.05282 -15.97636 -15.76397
 -15.44670 -15.38015 -15.10238 -14.81432 -14.53745 -14.37000 -14.19266 -13.67878
 -13.47875 -13.29175 -13.06025 -13.03748 -12.99304 -12.94607 -12.81007 -12.73895
 -12.63965 -12.13554 -11.88879 -11.85728 -11.82465 -11.35511 -10.83100 -10.34049
 -10.14091 -10.02737  -9.87657  -9.10638  -8.66463  -7.92281  -7.82429  -7.16746
  -1.11833  -0.00679   0.18456   0.66650   0.72020   0.94980   1.15950   1.47905
   1.63877   1.89587   2.01608   2.14576   2.27878   2.32192   2.64331   2.78072
   2.89301   3.02924   3.14898   3.44055   3.63224   3.71609   3.86092   4.17998
   4.20058   4.24477   4.44552   4.63087   4.97074   5.28399   5.44466   5.47518
   5.56905   5.75738   5.87630   6.40372   6.40557   6.91601   7.67730   8.18713
   8.47291   8.65003   8.68405   8.91231   9.05981   9.12510   9.73713   9.90126
  10.33835  10.83010  10.86409  10.96640  11.31696  11.69524  12.01321  12.52802
  12.73679  12.97089  13.32215  14.18800  14.55572  14.82505


              NET ATOMIC CHARGES AND DIPOLE CONTRIBUTIONS

  ATOM NO.   TYPE          CHARGE      No. of ELECS.   s-Pop       p-Pop       
    1          N          -0.396831        5.3968     1.75350     3.64333
    2          C           0.218207        3.7818     1.14841     2.63338
    3          C           0.017510        3.9825     1.00079     2.98170
    4          C           0.133241        3.8668     1.09446     2.77230
    5          C           0.012119        3.9879     1.06276     2.92512
    6          C           0.016254        3.9837     1.09509     2.88866
    7          C          -0.050507        4.0505     1.08197     2.96854
    8          C           0.077526        3.9225     1.07569     2.84678
    9          S          -0.033775        6.0338     1.77169     4.26208
   10          C           0.029567        3.9704     1.06662     2.90381
   11          C          -0.033408        4.0334     1.08510     2.94831
   12          C          -0.054643        4.0546     1.08336     2.97128
   13          C           0.109139        3.8909     1.06836     2.82250
   14          S          -0.043422        6.0434     1.77654     4.26688
   15          N          -0.122284        5.1223     1.23729     3.88499
   16          C           0.075722        3.9243     1.05212     2.87216
   17          C          -0.039014        4.0390     1.07682     2.96219
   18          C          -0.023544        4.0235     1.08068     2.94286
   19          C          -0.040837        4.0408     1.07793     2.96291
   20          C          -0.019354        4.0194     1.07921     2.94014
   21          C          -0.011588        4.0116     1.04757     2.96402
   22          C          -0.010922        4.0109     1.04765     2.96327
   23          C           0.077966        3.9220     1.05116     2.87087
   24          C          -0.039804        4.0398     1.07571     2.96410
   25          C          -0.022720        4.0227     1.08047     2.94225
   26          C          -0.040579        4.0406     1.07783     2.96275
   27          C          -0.019115        4.0191     1.07924     2.93987
   28          C           0.501657        3.4983     1.04481     2.45354
   29          O          -0.608339        6.6083     1.81663     4.79171
   30          O          -0.309381        6.3094     1.68687     4.62251
   31          H           0.065016        0.9350     0.93498
   32          H           0.047367        0.9526     0.95263
   33          H           0.036522        0.9635     0.96348
   34          H           0.037152        0.9628     0.96285
   35          H           0.036632        0.9634     0.96337
   36          H           0.028604        0.9714     0.97140
   37          H           0.019815        0.9802     0.98019
   38          H           0.017363        0.9826     0.98264
   39          H           0.025300        0.9747     0.97470
   40          H           0.026725        0.9733     0.97327
   41          H           0.020012        0.9800     0.97999
   42          H           0.017608        0.9824     0.98239
   43          H           0.025443        0.9746     0.97456
   44          H           0.247600        0.7524     0.75240
 DIPOLE           X         Y         Z       TOTAL
 POINT-CHG.     0.539     4.376     0.338     4.422
 HYBRID        -0.028    -0.979     0.863     1.305
 SUM            0.511     3.397     1.201     3.639


          ATOMIC ORBITAL ELECTRON POPULATIONS

     Atom    s        px        py        pz   
    1  N   1.75350   1.23085   1.23108   1.18141
    2  C   1.14841   0.95048   0.80629   0.87661
    3  C   1.00079   0.90572   0.92245   1.15352
    4  C   1.09446   0.98586   0.99561   0.79082
    5  C   1.06276   0.99862   0.91117   1.01534
    6  C   1.09509   0.94682   0.98937   0.95247
    7  C   1.08197   0.97780   0.97981   1.01092
    8  C   1.07569   0.95131   0.92573   0.96974
    9  S   1.77169   1.43998   1.17415   1.64795
   10  C   1.06662   1.04527   0.90116   0.95738
   11  C   1.08510   1.01879   0.97715   0.95237
   12  C   1.08336   1.06100   0.97716   0.93312
   13  C   1.06836   1.01830   0.85346   0.95074
   14  S   1.77654   1.89642   1.13191   1.23855
   15  N   1.23729   1.30788   1.05993   1.51718
   16  C   1.05212   0.95689   0.95393   0.96134
   17  C   1.07682   0.98604   0.95190   1.02425
   18  C   1.08068   0.96321   0.99549   0.98416
   19  C   1.07793   0.99272   0.96080   1.00938
   20  C   1.07921   0.99206   0.95015   0.99793
   21  C   1.04757   0.98603   0.97343   1.00456
   22  C   1.04765   0.98210   0.97680   1.00437
   23  C   1.05116   0.92558   0.97061   0.97468
   24  C   1.07571   0.99941   0.94583   1.01886
   25  C   1.08047   0.96657   0.99240   0.98328
   26  C   1.07783   0.98508   0.96852   1.00914
   27  C   1.07924   0.99484   0.94659   0.99844
   28  C   1.04481   0.87879   0.90652   0.66823
   29  O   1.81663   1.28020   1.95429   1.55722
   30  O   1.68687   1.52812   1.21008   1.88431
   31  H   0.93498
   32  H   0.95263
   33  H   0.96348
   34  H   0.96285
   35  H   0.96337
   36  H   0.97140
   37  H   0.98019
   38  H   0.98264
   39  H   0.97470
   40  H   0.97327
   41  H   0.97999
   42  H   0.98239
   43  H   0.97456
   44  H   0.75240

 **********************
 *                    *
 * JOB ENDED NORMALLY *
 *                    *
 **********************



 TOTAL JOB TIME:           258.78 SECONDS

 == MOPAC DONE ==
