 *******************************************************************************
 ** Site#: 4824         For non-commercial use only    Version 21.013L 64BITS **
 *******************************************************************************
 ** Cite this program as: MOPAC2016, Version: 21.013L, James J. P. Stewart,   **
 ** Stewart Computational Chemistry, web: HTTP://OpenMOPAC.net. Days left:  84**
 *******************************************************************************
 **                                                                           **
 **                                MOPAC2016                                  **
 **                                                                           **
 *******************************************************************************

                              INDO CALCULATION RESULTS

 *******************************************************************************
 *  CALCULATION DONE:                                Thu Oct 21 14:48:58 2021  *
 *  INDO       - The INDO Hamiltonian to be used
 *  CIS        - C.I. USES 1 ELECTRON EXCITATIONS ONLY
 *  EPS=  8.93 - USE ANDREAS KLAMT'S COSMO IMPLICIT SOLVATION MODEL
 *  n**2 =  1.420 for COSMO-CI
 *  T=         - A TIME OF 172800.0 SECONDS REQUESTED
 *  DUMP=N     - RESTART FILE WRITTEN EVERY 7200.0 SECONDS REQUESTED
 *******************************************************************************
INDO CIS EPS=8.93 N**2=1.42
 Dye66
 Calculo de Estados Excitados
   ATOM   CHEMICAL          X               Y               Z
  NUMBER   SYMBOL      (ANGSTROMS)     (ANGSTROMS)     (ANGSTROMS)
 
     1       C          0.00000000  *   0.00000000  *   0.00000000  *
     2       C          1.51995676  *   0.00000000  *   0.00000000  *
     3       C          2.05969962  *   1.42810824  *   0.00000000  *
     4       C          3.58664490  *   1.42955509  *   0.00295972  *
     5       C          4.12062331  *   2.85888837  *   0.00102531  *
     6       C          5.65611643  *   2.84706934  *   0.00914003  *
     7       N          6.21365609  *   4.19797279  *   0.01028757  *
     8       C          6.15191935  *   5.06487809  *   1.12398756  *
     9       C          5.97004378  *   4.76122385  *   2.46719457  *
    10       C          6.01641711  *   5.82315776  *   3.36691745  *
    11       C          6.25921198  *   7.13732730  *   2.95333097  *
    12       C          6.44701091  *   7.43341886  *   1.60973338  *
    13       C          6.38316186  *   6.40126936  *   0.69050916  *
    14       C          6.50784613  *   6.36179875  *  -0.74364958  *
    15       C          6.34867934  *   5.00738661  *  -1.14131024  *
    16       C          6.39885873  *   4.63344300  *  -2.48095129  *
    17       C          6.62191845  *   5.64093762  *  -3.41193825  *
    18       C          6.78786879  *   6.97912008  *  -3.02677989  *
    19       C          6.73195709  *   7.34718754  *  -1.69223921  *
    20       C          6.68157347  *   5.29503415  *  -4.83064338  *
    21       C          7.76781146  *   5.73603269  *  -5.59837316  *
    22       C          7.87442674  *   5.42815939  *  -6.94511385  *
    23       C          6.85913538  *   4.65806222  *  -7.50583769  *
    24       C          5.74379098  *   4.22260265  *  -6.73790285  *
    25       C          5.65910403  *   4.53866240  *  -5.39337879  *
    26       C          4.87542512  *   3.48957948  *  -7.62570038  *
    27       C          3.66623254  *   2.84552893  *  -7.43287603  *
    28       C          3.06130501  *   2.19822847  *  -8.50869172  *
    29       C          3.68938647  *   2.19880182  *  -9.76048426  *
    30       C          4.90240707  *   2.83665332  *  -9.98213749  *
    31       C          5.48610657  *   3.49448700  *  -8.90750875  *
    32       N          6.69956575  *   4.20827880  *  -8.83000780  *
    33       C          7.59389569  *   4.44255510  *  -9.90112214  *
    34       C          8.95474723  *   4.17062023  *  -9.74053028  *
    35       C          9.82116792  *   4.40989430  * -10.79631796  *
    36       C          9.35757156  *   4.90320934  * -12.01779780  *
    37       C          7.99731870  *   5.16067147  * -12.16034537  *
    38       C          7.11227039  *   4.94132083  * -11.11110725  *
    39       C         10.35516647  *   5.13275837  * -13.12287714  *
    40       C         11.39414043  *   6.15135548  * -12.64583479  *
    41       C          9.72001138  *   5.67203454  * -14.40556223  *
    42       C         11.03722205  *   3.80304348  * -13.45645485  *
    43       C          1.74117547  *   1.51287308  *  -8.26713574  *
    44       C          1.16283067  *   0.84800363  *  -9.51758139  *
    45       C          1.93543018  *   0.42710333  *  -7.20462930  *
    46       C          0.72701754  *   2.55060791  *  -7.77671127  *
    47       C          5.82709324  *   5.53674720  *   4.78350370  *
    48       C          4.96251682  *   6.22285977  *   5.54779152  *
    49       C          4.75975172  *   5.95300690  *   6.97965966  *
    50       O          3.79775655  *   6.25852791  *   7.66330371  *
    51       O          5.79118641  *   5.28981971  *   7.55034335  *
    52       C          4.13460948  *   7.25256583  *   5.02658108  *
    53       N          3.45575760  *   8.09202634  *   4.61330099  *
    54       H          6.43029759  *   4.71533480  *   5.19475942  *
    55       H         -0.41721739  *   0.50724445  *  -0.88188037  *
    56       H         -0.40891316  *  -1.02080294  *  -0.00114905  *
    57       H         -0.41721334  *   0.50522441  *   0.88305795  *
    58       H          1.90224909  *  -0.56117605  *   0.87888702  *
    59       H          1.90237193  *  -0.56122865  *  -0.87880948  *
    60       H          1.67367351  *   1.98470437  *  -0.88009918  *
    61       H          1.67016094  *   1.98611302  *   0.87769314  *
    62       H          3.97068842  *   0.87334323  *   0.88437485  *
    63       H          3.97445495  *   0.86999367  *  -0.87468643  *
    64       H          3.74389491  *   3.41759621  *  -0.88175658  *
    65       H          3.73536631  *   3.42375017  *   0.87658052  *
    66       H          6.04789777  *   2.30272372  *   0.89990704  *
    67       H          6.05881595  *   2.29252926  *  -0.86952670  *
    68       H          5.78781537  *   3.73996084  *   2.80784183  *
    69       H          6.31804651  *   7.94143451  *   3.69315710  *
    70       H          6.63661361  *   8.45789905  *   1.27863764  *
    71       H          6.28177722  *   3.59474090  *  -2.79552348  *
    72       H          6.94981290  *   7.74361706  *  -3.79217401  *
    73       H          6.85745446  *   8.38857717  *  -1.38471370  *
    74       H          8.55534748  *   6.33039116  *  -5.12317438  *
    75       H          8.71538776  *   5.78817164  *  -7.54136683  *
    76       H          4.80131208  *   4.20854742  *  -4.80161585  *
    77       H          3.22033040  *   2.86433194  *  -6.43485856  *
    78       H          3.24315540  *   1.68818676  * -10.61862955  *
    79       H          5.38174853  *   2.80811225  * -10.96307968  *
    80       H          9.33672833  *   3.76079511  *  -8.79991659  *
    81       H         10.88356183  *   4.19301807  * -10.64461841  *
    82       H          7.57696011  *   5.54830766  * -13.09259120  *
    83       H          6.04944711  *   5.17278905  * -11.23732682  *
    84       H         10.92653723  *   7.09894839  * -12.34250062  *
    85       H         11.98216228  *   5.80077939  * -11.78654234  *
    86       H         12.12378564  *   6.39318344  * -13.43258858  *
    87       H          9.22935618  *   6.64455572  * -14.25671681  *
    88       H         10.46925563  *   5.83076532  * -15.19625279  *
    89       H          8.97623614  *   4.98263763  * -14.83005274  *
    90       H         11.74443977  *   3.90250451  * -14.29299200  *
    91       H         11.61674790  *   3.39094555  * -12.61896609  *
    92       H         10.30838816  *   3.03225689  * -13.74500708  *
    93       H          0.97050394  *   1.56722498  * -10.32652429  *
    94       H          1.81673943  *   0.05992753  *  -9.91758436  *
    95       H          0.19721223  *   0.36109673  *  -9.31180025  *
    96       H          2.24437955  *   0.82653098  *  -6.22895055  *
    97       H          1.01076545  *  -0.13927936  *  -7.02030514  *
    98       H          2.70221897  *  -0.30183768  *  -7.50328211  *
    99       H          0.61161946  *   3.37655602  *  -8.49294880  *
   100       H         -0.27158833  *   2.11372958  *  -7.62930856  *
   101       H          1.00194695  *   3.00482416  *  -6.81490441  *
   102       H          5.62752485  *   5.13533228  *   8.49167033  *
 


          CARTESIAN COORDINATES 

    NO.       ATOM           X           Y           Z

     1         C          0.0000      0.0000      0.0000
     2         C          1.5200      0.0000      0.0000
     3         C          2.0597      1.4281      0.0000
     4         C          3.5866      1.4296      0.0030
     5         C          4.1206      2.8589      0.0010
     6         C          5.6561      2.8471      0.0091
     7         N          6.2137      4.1980      0.0103
     8         C          6.1519      5.0649      1.1240
     9         C          5.9700      4.7612      2.4672
    10         C          6.0164      5.8232      3.3669
    11         C          6.2592      7.1373      2.9533
    12         C          6.4470      7.4334      1.6097
    13         C          6.3832      6.4013      0.6905
    14         C          6.5078      6.3618     -0.7436
    15         C          6.3487      5.0074     -1.1413
    16         C          6.3989      4.6334     -2.4810
    17         C          6.6219      5.6409     -3.4119
    18         C          6.7879      6.9791     -3.0268
    19         C          6.7320      7.3472     -1.6922
    20         C          6.6816      5.2950     -4.8306
    21         C          7.7678      5.7360     -5.5984
    22         C          7.8744      5.4282     -6.9451
    23         C          6.8591      4.6581     -7.5058
    24         C          5.7438      4.2226     -6.7379
    25         C          5.6591      4.5387     -5.3934
    26         C          4.8754      3.4896     -7.6257
    27         C          3.6662      2.8455     -7.4329
    28         C          3.0613      2.1982     -8.5087
    29         C          3.6894      2.1988     -9.7605
    30         C          4.9024      2.8367     -9.9821
    31         C          5.4861      3.4945     -8.9075
    32         N          6.6996      4.2083     -8.8300
    33         C          7.5939      4.4426     -9.9011
    34         C          8.9547      4.1706     -9.7405
    35         C          9.8212      4.4099    -10.7963
    36         C          9.3576      4.9032    -12.0178
    37         C          7.9973      5.1607    -12.1603
    38         C          7.1123      4.9413    -11.1111
    39         C         10.3552      5.1328    -13.1229
    40         C         11.3941      6.1514    -12.6458
    41         C          9.7200      5.6720    -14.4056
    42         C         11.0372      3.8030    -13.4565
    43         C          1.7412      1.5129     -8.2671
    44         C          1.1628      0.8480     -9.5176
    45         C          1.9354      0.4271     -7.2046
    46         C          0.7270      2.5506     -7.7767
    47         C          5.8271      5.5367      4.7835
    48         C          4.9625      6.2229      5.5478
    49         C          4.7598      5.9530      6.9797
    50         O          3.7978      6.2585      7.6633
    51         O          5.7912      5.2898      7.5503
    52         C          4.1346      7.2526      5.0266
    53         N          3.4558      8.0920      4.6133
    54         H          6.4303      4.7153      5.1948
    55         H         -0.4172      0.5072     -0.8819
    56         H         -0.4089     -1.0208     -0.0011
    57         H         -0.4172      0.5052      0.8831
    58         H          1.9022     -0.5612      0.8789
    59         H          1.9024     -0.5612     -0.8788
    60         H          1.6737      1.9847     -0.8801
    61         H          1.6702      1.9861      0.8777
    62         H          3.9707      0.8733      0.8844
    63         H          3.9745      0.8700     -0.8747
    64         H          3.7439      3.4176     -0.8818
    65         H          3.7354      3.4238      0.8766
    66         H          6.0479      2.3027      0.8999
    67         H          6.0588      2.2925     -0.8695
    68         H          5.7878      3.7400      2.8078
    69         H          6.3180      7.9414      3.6932
    70         H          6.6366      8.4579      1.2786
    71         H          6.2818      3.5947     -2.7955
    72         H          6.9498      7.7436     -3.7922
    73         H          6.8575      8.3886     -1.3847
    74         H          8.5553      6.3304     -5.1232
    75         H          8.7154      5.7882     -7.5414
    76         H          4.8013      4.2085     -4.8016
    77         H          3.2203      2.8643     -6.4349
    78         H          3.2432      1.6882    -10.6186
    79         H          5.3817      2.8081    -10.9631
    80         H          9.3367      3.7608     -8.7999
    81         H         10.8836      4.1930    -10.6446
    82         H          7.5770      5.5483    -13.0926
    83         H          6.0494      5.1728    -11.2373
    84         H         10.9265      7.0989    -12.3425
    85         H         11.9822      5.8008    -11.7865
    86         H         12.1238      6.3932    -13.4326
    87         H          9.2294      6.6446    -14.2567
    88         H         10.4693      5.8308    -15.1963
    89         H          8.9762      4.9826    -14.8301
    90         H         11.7444      3.9025    -14.2930
    91         H         11.6167      3.3909    -12.6190
    92         H         10.3084      3.0323    -13.7450
    93         H          0.9705      1.5672    -10.3265
    94         H          1.8167      0.0599     -9.9176
    95         H          0.1972      0.3611     -9.3118
    96         H          2.2444      0.8265     -6.2290
    97         H          1.0108     -0.1393     -7.0203
    98         H          2.7022     -0.3018     -7.5033
    99         H          0.6116      3.3766     -8.4929
   100         H         -0.2716      2.1137     -7.6293
   101         H          1.0019      3.0048     -6.8149
   102         H          5.6275      5.1353      8.4917

           Empirical Formula: C48 H49 N3 O2  =   102 atoms



      MOLECULAR POINT GROUP   :   C1  


      RHF CALCULATION, NO. OF DOUBLY OCCUPIED LEVELS = 134

 WARNING: INDO only performs single-point calculations

 Summary of symmetry occupancy in each shell:

 SHELL     
    1  134
    v  127
 TOTAL 261




    ROOT NO.    1           2           3           4           5           6

           -48.68050   -48.55874   -46.81623   -45.51812   -44.96824   -44.04999
  
  
  S  C   1   0.00283     0.00434    -0.00067     0.00032     0.00159    -0.00595
 PX  C   1   0.00125     0.00192    -0.00029     0.00013     0.00063    -0.00230
 PY  C   1   0.00045     0.00068    -0.00010     0.00004     0.00020    -0.00068
 PZ  C   1   0.00000     0.00000     0.00000     0.00000    -0.00000    -0.00002
  
  S  C   2   0.00660     0.01005    -0.00144     0.00064     0.00306    -0.01088
 PX  C   2   0.00136     0.00205    -0.00025     0.00009     0.00038    -0.00108
 PY  C   2   0.00219     0.00333    -0.00045     0.00019     0.00087    -0.00294
 PZ  C   2   0.00000     0.00001     0.00000     0.00001     0.00000    -0.00007
  
  S  C   3   0.01421     0.02152    -0.00275     0.00112     0.00501    -0.01644
 PX  C   3   0.00495     0.00745    -0.00085     0.00031     0.00126    -0.00362
 PY  C   3   0.00108     0.00159    -0.00010     0.00001    -0.00006     0.00061
 PZ  C   3   0.00002     0.00005     0.00002     0.00002     0.00005    -0.00030
  
  S  C   4   0.02867     0.04311    -0.00493     0.00180     0.00747    -0.02195
 PX  C   4   0.00490     0.00725    -0.00063     0.00015     0.00039    -0.00006
 PY  C   4   0.00929     0.01390    -0.00142     0.00047     0.00179    -0.00461
 PZ  C   4   0.00004     0.00013     0.00008     0.00005     0.00019    -0.00108
  
  S  C   5   0.06618     0.09886    -0.00987     0.00316     0.01193    -0.02997
 PX  C   5   0.02522     0.03753    -0.00351     0.00096     0.00321    -0.00588
 PY  C   5   0.00927     0.01369    -0.00094     0.00019     0.00036     0.00057
 PZ  C   5   0.00043     0.00096     0.00033     0.00023     0.00091    -0.00500
  
  S  C   6   0.11781     0.17537    -0.01675     0.00476     0.01669    -0.03484
 PX  C   6   0.00694     0.01013    -0.00081     0.00003    -0.00026     0.00309
 PY  C   6   0.05386     0.08019    -0.00731     0.00196     0.00637    -0.01113
 PZ  C   6  -0.00030     0.00034     0.00088     0.00054     0.00221    -0.01239
  
  S  N   7   0.26381     0.39199    -0.03475     0.00900     0.02870    -0.04801
 PX  N   7  -0.01412    -0.02131     0.00205    -0.00082    -0.00311     0.00897
 PY  N   7   0.05559     0.08226    -0.00606     0.00131     0.00320    -0.00193
 PZ  N   7  -0.00219    -0.00152     0.00255     0.00138     0.00608    -0.03673
  
  S  C   8   0.20564     0.30806    -0.00839     0.00967     0.03548    -0.15848
 PX  C   8   0.00676     0.00996    -0.00102     0.00010     0.00012     0.00104
 PY  C   8   0.00083     0.00129     0.00638     0.00025     0.00165    -0.03007
 PZ  C   8  -0.06971    -0.10266     0.01868    -0.00097    -0.00023    -0.04877
  
  S  C   9   0.08789     0.13346     0.02333     0.00654     0.02777    -0.18132
 PX  C   9   0.00539     0.00816    -0.00029     0.00036     0.00146    -0.00920
 PY  C   9   0.01907     0.02922     0.01082     0.00184     0.00837    -0.06702
 PZ  C   9  -0.03439    -0.05151     0.01231    -0.00149    -0.00489     0.00931
  
  S  C  10   0.06095     0.09351     0.06157     0.00591     0.02735    -0.21665
 PX  C  10   0.00227     0.00343    -0.00546     0.00017     0.00062    -0.00299
 PY  C  10   0.00157     0.00243     0.00380     0.00021     0.00111    -0.01190
 PZ  C  10  -0.02303    -0.03493     0.01668    -0.00173    -0.00699     0.04145
  
  S  C  11   0.05442     0.08329     0.03793     0.00508     0.02317    -0.18214
 PX  C  11  -0.00135    -0.00211    -0.00474    -0.00018    -0.00090     0.00813
 PY  C  11  -0.01936    -0.02964    -0.01224    -0.00179    -0.00807     0.06107
 PZ  C  11  -0.01700    -0.02572     0.00794    -0.00118    -0.00473     0.02889
  
  S  C  12   0.07034     0.10623     0.01379     0.00470     0.01990    -0.14211
 PX  C  12  -0.00449    -0.00687    -0.00179    -0.00041    -0.00179     0.01296
 PY  C  12  -0.03380    -0.05113    -0.00438    -0.00225    -0.00929     0.06067
 PZ  C  12  -0.00692    -0.00967     0.00785     0.00057     0.00342    -0.03286
  
  S  C  13   0.16794     0.24996    -0.00485     0.00646     0.02286    -0.11290
 PX  C  13  -0.00637    -0.00974    -0.00033    -0.00050    -0.00202     0.01080
 PY  C  13  -0.05957    -0.08888     0.00705    -0.00224    -0.00728     0.01678
 PZ  C  13  -0.02285    -0.03153     0.01304     0.00185     0.01017    -0.08667
  
  S  C  14   0.17146     0.24374    -0.02198    -0.00277    -0.01815     0.12727
 PX  C  14  -0.01027    -0.01570     0.00108    -0.00067    -0.00249     0.00885
 PY  C  14  -0.05861    -0.08603     0.00822    -0.00120    -0.00304    -0.00523
 PZ  C  14   0.02137     0.03879     0.00096     0.00580     0.02366    -0.11012
  
  S  C  15   0.20995     0.29798    -0.03038    -0.00262    -0.01763     0.14383
 PX  C  15  -0.00455    -0.00786     0.00052    -0.00096    -0.00399     0.01602
 PY  C  15   0.00634     0.00601    -0.00054    -0.00264    -0.01176     0.05249
 PZ  C  15   0.06640     0.10692    -0.00726     0.00721     0.02660    -0.09589
  
  S  C  16   0.10187     0.11660    -0.01622    -0.01420    -0.05549     0.24001
 PX  C  16   0.00067    -0.00063    -0.00017    -0.00085    -0.00391     0.01473
 PY  C  16   0.02465     0.02733    -0.00422    -0.00494    -0.02100     0.09372
 PZ  C  16   0.02708     0.05268    -0.00471     0.00485     0.01469    -0.02477
  
  S  C  17   0.09073     0.06608    -0.01304    -0.02562    -0.09593     0.33771
 PX  C  17  -0.00135    -0.00257     0.00029     0.00011    -0.00080    -0.00094
 PY  C  17  -0.00052     0.00491    -0.00040     0.00117     0.00147     0.00710
 PZ  C  17   0.01259     0.04012    -0.00405     0.00406     0.00987     0.02312
  
  S  C  18   0.06833     0.06737    -0.01109    -0.01523    -0.06240     0.25612
 PX  C  18  -0.00446    -0.00564     0.00080     0.00068     0.00266    -0.01392
 PY  C  18  -0.02406    -0.02236     0.00384     0.00568     0.02229    -0.08658
 PZ  C  18   0.01476     0.02784    -0.00308     0.00070     0.00018     0.02941
  
  S  C  19   0.07614     0.09791    -0.01186    -0.00816    -0.03717     0.18694
 PX  C  19  -0.00574    -0.00804     0.00084     0.00025     0.00122    -0.00769
 PY  C  19  -0.03586    -0.04691     0.00583     0.00332     0.01508    -0.07816
 PZ  C  19   0.00575     0.01340     0.00010     0.00279     0.01100    -0.04355
  
  S  C  20   0.10481    -0.02307    -0.00607    -0.04222    -0.13869     0.29323
 PX  C  20  -0.00147    -0.00016     0.00010     0.00170    -0.00210     0.00018
 PY  C  20  -0.00739     0.00808    -0.00031     0.00338     0.00531     0.00331
 PZ  C  20  -0.02302     0.03177    -0.00161     0.00884     0.02473     0.01107
  
  S  C  21   0.08953    -0.03810    -0.00316    -0.03043    -0.11828     0.19917
 PX  C  21  -0.02933     0.01273     0.00100     0.01215     0.03682    -0.06243
 PY  C  21  -0.02136     0.01254     0.00033     0.00717     0.02457    -0.03071
 PZ  C  21  -0.01466     0.01721    -0.00083     0.00068     0.01099     0.01765
  
  S  C  22   0.12585    -0.07813    -0.00107    -0.01538    -0.11654     0.10531
 PX  C  22  -0.04852     0.03084     0.00031     0.01301     0.04100    -0.03205
 PY  C  22  -0.03183     0.02188    -0.00007     0.00262     0.01976    -0.00184
 PZ  C  22  -0.00847     0.01107    -0.00087    -0.01495    -0.01717     0.06095
  
  S  C  23   0.29647    -0.20231     0.00055    -0.03587    -0.16028     0.01011
 PX  C  23  -0.06299     0.04455    -0.00039     0.02578     0.01343     0.01972
 PY  C  23  -0.05163     0.03818    -0.00062     0.00831     0.00401     0.04070
 PZ  C  23  -0.05834     0.04721    -0.00142    -0.02062    -0.01082     0.10475
  
  S  C  24   0.24381    -0.16158    -0.00028    -0.07580    -0.11570     0.06761
 PX  C  24   0.03465    -0.02157    -0.00032     0.00067    -0.04994     0.02611
 PY  C  24  -0.00184     0.00437    -0.00054     0.00341    -0.02941     0.03683
 PZ  C  24  -0.08257     0.06375    -0.00135     0.01214    -0.00078     0.07974
  
  S  C  25   0.11467    -0.05414    -0.00313    -0.04831    -0.10986     0.19013
 PX  C  25   0.02796    -0.01212    -0.00099    -0.00903    -0.04216     0.06322
 PY  C  25   0.00577     0.00133    -0.00074    -0.00173    -0.01982     0.03930
 PZ  C  25  -0.03776     0.03337    -0.00090     0.01306     0.01687     0.01362
  
  S  C  26   0.24154    -0.17047     0.00155    -0.11179     0.06567    -0.03052
 PX  C  26   0.07334    -0.05119     0.00030     0.00686    -0.08353    -0.02910
 PY  C  26   0.03002    -0.02033    -0.00001     0.00928    -0.05892    -0.00838
 PZ  C  26  -0.04331     0.03258    -0.00064     0.01837    -0.03897     0.03063
  
  S  C  27   0.10909    -0.07800     0.00100    -0.12048     0.22693     0.03391
 PX  C  27   0.03307    -0.02322     0.00017    -0.00251    -0.03723    -0.02080
 PY  C  27   0.01038    -0.00697    -0.00002     0.00858    -0.04306    -0.01239
 PZ  C  27  -0.03101     0.02295    -0.00042     0.03603    -0.07808    -0.00156
  
  S  C  28   0.09089    -0.06630     0.00115    -0.15169     0.36186     0.06999
 PX  C  28   0.02450    -0.01760     0.00020    -0.00169    -0.02875    -0.02720
 PY  C  28   0.01407    -0.01008     0.00011    -0.00241    -0.01292    -0.01323
 PZ  C  28   0.00029    -0.00008    -0.00002    -0.00552     0.01328     0.00849
  
  S  C  29   0.08286    -0.06047     0.00102    -0.10258     0.23144     0.02174
 PX  C  29   0.01664    -0.01201     0.00015     0.00266    -0.02084    -0.01972
 PY  C  29   0.01789    -0.01296     0.00018    -0.00926     0.01101    -0.00846
 PZ  C  29   0.02848    -0.02071     0.00033    -0.03793     0.07951     0.01026
  
  S  C  30   0.12277    -0.08900     0.00129    -0.06325     0.12835    -0.03355
 PX  C  30   0.01223    -0.00865     0.00006     0.02499    -0.05085    -0.01973
 PY  C  30   0.02270    -0.01628     0.00018     0.00587    -0.01613    -0.01528
 PZ  C  30   0.05198    -0.03748     0.00049    -0.03323     0.04568    -0.01181
  
  S  C  31   0.29382    -0.21032     0.00240    -0.07424     0.03871    -0.10407
 PX  C  31   0.05836    -0.04141     0.00036     0.03534    -0.08776    -0.04231
 PY  C  31   0.05067    -0.03579     0.00029     0.01391    -0.05716    -0.02670
 PZ  C  31   0.06509    -0.04556     0.00030    -0.02861    -0.02222    -0.00851
  
  S  N  32   0.38702    -0.27624     0.00295     0.02385    -0.12046    -0.17021
 PX  N  32  -0.04397     0.03123    -0.00028     0.03816     0.00213     0.01398
 PY  N  32  -0.01032     0.00764    -0.00013     0.01130    -0.00758     0.00801
 PZ  N  32   0.05228    -0.03589     0.00008    -0.03971    -0.03345     0.00281
  
  S  C  33   0.18859    -0.13631     0.00194     0.19950    -0.01161    -0.08723
 PX  C  33  -0.04215     0.03010    -0.00028     0.05333     0.02703     0.03224
 PY  C  33  -0.01087     0.00779    -0.00008     0.01368     0.00640     0.00854
 PZ  C  33   0.05043    -0.03558     0.00024    -0.06091    -0.04419    -0.03047
  
  S  C  34   0.09400    -0.06827     0.00112     0.20803     0.02395    -0.02453
 PX  C  34  -0.04058     0.02926    -0.00038    -0.02247     0.01196     0.02460
 PY  C  34   0.00897    -0.00656     0.00013     0.03345     0.00656     0.00017
 PZ  C  34  -0.00157     0.00170    -0.00020    -0.08420    -0.03039    -0.00945
  
  S  C  35   0.05127    -0.03796     0.00090     0.28487     0.07946     0.02891
 PX  C  35  -0.02177     0.01601    -0.00032    -0.07014    -0.01225     0.00729
 PY  C  35   0.00344    -0.00259     0.00008     0.03220     0.01088     0.00631
 PZ  C  35   0.00039    -0.00005    -0.00009    -0.06254    -0.02731    -0.02110
  
  S  C  36   0.04978    -0.03721     0.00103     0.38539     0.12523     0.06734
 PX  C  36  -0.00903     0.00661    -0.00010     0.00536     0.01040     0.02007
 PY  C  36  -0.00270     0.00198    -0.00004    -0.00383     0.00087     0.00352
 PZ  C  36   0.01183    -0.00866     0.00014     0.00887    -0.00745    -0.01883
  
  S  C  37   0.05033    -0.03737     0.00090     0.27125     0.07808     0.02251
 PX  C  37   0.00446    -0.00344     0.00015     0.07672     0.02716     0.02008
 PY  C  37  -0.00791     0.00584    -0.00013    -0.03020    -0.00711     0.00097
 PZ  C  37   0.02028    -0.01491     0.00029     0.05436     0.00797    -0.01094
  
  S  C  38   0.09396    -0.06867     0.00121     0.20263     0.03472    -0.03357
 PX  C  38   0.01135    -0.00855     0.00025     0.09163     0.02286     0.00674
 PY  C  38  -0.01652     0.01200    -0.00018    -0.01508     0.00002     0.00947
 PZ  C  38   0.03666    -0.02641     0.00033     0.00239    -0.01470    -0.02575
  
  S  C  39   0.02510    -0.01908     0.00071     0.35916     0.13788     0.10755
 PX  C  39  -0.00338     0.00252    -0.00006    -0.01823    -0.00456     0.00023
 PY  C  39  -0.00106     0.00079    -0.00002    -0.00724    -0.00210    -0.00069
 PZ  C  39   0.00457    -0.00341     0.00009     0.02909     0.00803     0.00196
  
  S  C  40   0.01347    -0.01027     0.00040     0.21155     0.08272     0.06703
 PX  C  40  -0.00448     0.00340    -0.00012    -0.06224    -0.02366    -0.01810
 PY  C  40  -0.00403     0.00307    -0.00012    -0.06014    -0.02320    -0.01833
 PZ  C  40  -0.00026     0.00022    -0.00002    -0.01705    -0.00772    -0.00761
  
  S  C  41   0.01289    -0.00984     0.00039     0.20663     0.08138     0.06606
 PX  C  41   0.00093    -0.00073     0.00004     0.02695     0.01147     0.01073
 PY  C  41  -0.00191     0.00146    -0.00006    -0.02965    -0.01156    -0.00921
 PZ  C  41   0.00514    -0.00391     0.00015     0.07411     0.02843     0.02198
  
  S  C  42   0.01346    -0.01026     0.00040     0.21153     0.08277     0.06699
 PX  C  42  -0.00320     0.00243    -0.00009    -0.04213    -0.01584    -0.01177
 PY  C  42   0.00438    -0.00335     0.00013     0.07202     0.02838     0.02318
 PZ  C  42   0.00263    -0.00199     0.00006     0.02859     0.01011     0.00672
  
  S  C  43   0.04573    -0.03379     0.00076    -0.14112     0.39479     0.11516
 PX  C  43   0.00902    -0.00657     0.00011    -0.01185     0.02348     0.00113
 PY  C  43   0.00506    -0.00367     0.00006    -0.00690     0.01373     0.00116
 PZ  C  43  -0.00028     0.00025    -0.00001    -0.00066     0.00162     0.00199
  
  S  C  44   0.02312    -0.01719     0.00042    -0.08087     0.23331     0.07046
 PX  C  44   0.00559    -0.00413     0.00009    -0.01498     0.04067     0.01051
 PY  C  44   0.00495    -0.00367     0.00008    -0.01523     0.04261     0.01209
 PZ  C  44   0.00665    -0.00495     0.00012    -0.02511     0.07283     0.02282
  
  S  C  45   0.02490    -0.01840     0.00043    -0.08347     0.23687     0.07225
 PX  C  45   0.00136    -0.00096     0.00001     0.00073    -0.00528    -0.00317
 PY  C  45   0.00876    -0.00645     0.00014    -0.02639     0.07279     0.02127
 PZ  C  45  -0.00652     0.00486    -0.00012     0.02253    -0.06459    -0.01923
  
  S  C  46   0.02493    -0.01843     0.00043    -0.08347     0.23683     0.07224
 PX  C  46   0.00931    -0.00685     0.00014    -0.02607     0.07068     0.01986
 PY  C  46  -0.00518     0.00386    -0.00010     0.02067    -0.06064    -0.01918
 PZ  C  46  -0.00275     0.00207    -0.00005     0.00981    -0.02855    -0.00831
  
  S  C  47   0.02288     0.03567     0.13235     0.00232     0.01211    -0.11304
 PX  C  47  -0.00061    -0.00103    -0.02858     0.00001    -0.00020     0.00478
 PY  C  47   0.00321     0.00502     0.02038     0.00037     0.00197    -0.01973
 PZ  C  47  -0.00829    -0.01266     0.04152    -0.00120    -0.00539     0.04189
  
  S  C  48   0.01437     0.02279     0.23078     0.00075     0.00528    -0.06171
 PX  C  48   0.00201     0.00313     0.00294     0.00027     0.00135    -0.01208
 PY  C  48  -0.00078    -0.00126    -0.02516     0.00006     0.00016    -0.00081
 PZ  C  48  -0.00340    -0.00511     0.07792    -0.00103    -0.00461     0.03855
  
  S  C  49   0.01040     0.01716     0.51062    -0.00187    -0.00623     0.03449
 PX  C  49   0.00099     0.00159     0.02612    -0.00001     0.00012    -0.00236
 PY  C  49  -0.00062    -0.00104    -0.04674     0.00024     0.00094    -0.00717
 PZ  C  49   0.00021     0.00055     0.12923    -0.00095    -0.00405     0.03378
  
  S  O  50   0.00652     0.01092     0.40964    -0.00185    -0.00683     0.04595
 PX  O  50   0.00234     0.00392     0.14848    -0.00067    -0.00250     0.01687
 PY  O  50  -0.00080    -0.00135    -0.05454     0.00026     0.00099    -0.00702
 PZ  O  50  -0.00142    -0.00235    -0.07579     0.00029     0.00099    -0.00552
  
  S  O  51   0.00981     0.01634     0.56930    -0.00244    -0.00882     0.05795
 PX  O  51  -0.00252    -0.00422    -0.15289     0.00067     0.00245    -0.01628
 PY  O  51   0.00132     0.00220     0.07412    -0.00030    -0.00107     0.00659
 PZ  O  51  -0.00048    -0.00074     0.00718    -0.00016    -0.00078     0.00763
  
  S  C  52   0.00920     0.01451     0.10183     0.00083     0.00495    -0.05372
 PX  C  52   0.00296     0.00463     0.02208     0.00028     0.00147    -0.01391
 PY  C  52  -0.00230    -0.00363    -0.03218    -0.00013    -0.00081     0.00847
 PZ  C  52  -0.00097    -0.00144     0.02891    -0.00030    -0.00130     0.01019
  
  S  N  53   0.00381     0.00601     0.03417     0.00046     0.00263    -0.02896
 PX  N  53   0.00170     0.00267     0.01160     0.00020     0.00112    -0.01159
 PY  N  53  -0.00162    -0.00256    -0.01489    -0.00018    -0.00106     0.01149
 PZ  N  53   0.00022     0.00036     0.00944    -0.00000     0.00009    -0.00192
  
  S  H  54   0.00803     0.01253     0.06006     0.00071     0.00379    -0.03572
  
  S  H  55   0.00125     0.00191    -0.00029     0.00013     0.00069    -0.00255
  
  S  H  56   0.00087     0.00134    -0.00022     0.00010     0.00053    -0.00201
  
  S  H  57   0.00125     0.00191    -0.00029     0.00014     0.00069    -0.00257
  
  S  H  58   0.00288     0.00439    -0.00062     0.00028     0.00131    -0.00463
  
  S  H  59   0.00288     0.00437    -0.00062     0.00027     0.00131    -0.00454
  
  S  H  60   0.00636     0.00960    -0.00122     0.00047     0.00213    -0.00680
  
  S  H  61   0.00638     0.00965    -0.00118     0.00049     0.00219    -0.00721
  
  S  H  62   0.01234     0.01858    -0.00205     0.00079     0.00327    -0.00987
  
  S  H  63   0.01231     0.01843    -0.00215     0.00072     0.00303    -0.00849
  
  S  H  64   0.03068     0.04539    -0.00467     0.00117     0.00440    -0.00880
  
  S  H  65   0.03129     0.04688    -0.00397     0.00159     0.00600    -0.01764
  
  S  H  66   0.04231     0.06330    -0.00537     0.00199     0.00723    -0.01981
  
  S  H  67   0.04290     0.06301    -0.00653     0.00128     0.00438    -0.00450
  
  S  H  68   0.02924     0.04436     0.00866     0.00211     0.00890    -0.05484
  
  S  H  69   0.01355     0.02085     0.01904     0.00141     0.00669    -0.05651
  
  S  H  70   0.01911     0.02863     0.00323     0.00105     0.00437    -0.03289
  
  S  H  71   0.03613     0.03739    -0.00541    -0.00566    -0.01973     0.07614
  
  S  H  72   0.02008     0.01414    -0.00291    -0.00594    -0.02361     0.08442
  
  S  H  73   0.02047     0.02682    -0.00281    -0.00193    -0.00902     0.04549
  
  S  H  74   0.02442    -0.00590    -0.00138    -0.00837    -0.03541     0.07216
  
  S  H  75   0.04173    -0.02712    -0.00015     0.00630    -0.03248     0.02062
  
  S  H  76   0.03489    -0.01177    -0.00142    -0.01694    -0.02785     0.06767
  
  S  H  77   0.03311    -0.02319     0.00024    -0.04365     0.08670     0.02322
  
  S  H  78   0.02181    -0.01601     0.00030    -0.03513     0.08847     0.01446
  
  S  H  79   0.04086    -0.02968     0.00044    -0.00628     0.03111    -0.01620
  
  S  H  80   0.03910    -0.02802     0.00037     0.05371    -0.00273    -0.01106
  
  S  H  81   0.01415    -0.01052     0.00027     0.10145     0.03166     0.01735
  
  S  H  82   0.01366    -0.01019     0.00027     0.09284     0.02993     0.01364
  
  S  H  83   0.03914    -0.02847     0.00045     0.05061     0.00748    -0.01822
  
  S  H  84   0.00580    -0.00441     0.00017     0.08580     0.03320     0.02644
  
  S  H  85   0.00624    -0.00474     0.00018     0.08982     0.03450     0.02728
  
  S  H  86   0.00451    -0.00345     0.00014     0.07890     0.03153     0.02651
  
  S  H  87   0.00571    -0.00435     0.00017     0.08545     0.03326     0.02638
  
  S  H  88   0.00440    -0.00337     0.00014     0.07822     0.03142     0.02647
  
  S  H  89   0.00572    -0.00435     0.00017     0.08542     0.03327     0.02636
  
  S  H  90   0.00451    -0.00345     0.00014     0.07889     0.03154     0.02650
  
  S  H  91   0.00622    -0.00473     0.00018     0.08982     0.03454     0.02726
  
  S  H  92   0.00579    -0.00441     0.00017     0.08579     0.03324     0.02641
  
  S  H  93   0.01015    -0.00754     0.00018    -0.03337     0.09549     0.02807
  
  S  H  94   0.01015    -0.00754     0.00018    -0.03339     0.09554     0.02809
  
  S  H  95   0.00796    -0.00593     0.00015    -0.03070     0.09011     0.02833
  
  S  H  96   0.01185    -0.00868     0.00018    -0.03569     0.09870     0.02975
  
  S  H  97   0.00834    -0.00619     0.00015    -0.03111     0.09025     0.02854
  
  S  H  98   0.01068    -0.00788     0.00018    -0.03385     0.09524     0.02844
  
  S  H  99   0.01070    -0.00790     0.00018    -0.03384     0.09520     0.02843
  
  S  H 100   0.00834    -0.00619     0.00015    -0.03110     0.09022     0.02853
  
  S  H 101   0.01188    -0.00871     0.00018    -0.03571     0.09872     0.02976
  
  S  H 102   0.00385     0.00644     0.23943    -0.00108    -0.00402     0.02758




    ROOT NO.    7           8           9          10          11          12

           -43.30496   -42.41064   -41.84871   -41.34591   -40.06691   -39.70653
  
  
  S  C   1  -0.05684     0.14656     0.10095     0.14055     0.06441     0.08242
 PX  C   1  -0.02129     0.05261     0.03517     0.04756     0.01998     0.02486
 PY  C   1  -0.00604     0.01409     0.00902     0.01169     0.00428     0.00506
 PZ  C   1   0.00000     0.00001     0.00000    -0.00000    -0.00001     0.00001
  
  S  C   2  -0.09887     0.23873     0.15726     0.20991     0.08533     0.10522
 PX  C   2  -0.00745     0.01017     0.00308    -0.00058    -0.00592    -0.00959
 PY  C   2  -0.02524     0.05641     0.03505     0.04403     0.01455     0.01659
 PZ  C   2   0.00002     0.00006     0.00001    -0.00001    -0.00002     0.00003
  
  S  C   3  -0.13738     0.29739     0.18101     0.22324     0.07042     0.07934
 PX  C   3  -0.02548     0.03985     0.01700     0.01145    -0.00744    -0.01348
 PY  C   3   0.00935    -0.03175    -0.02469    -0.03738    -0.01960    -0.02559
 PZ  C   3   0.00009     0.00024     0.00003    -0.00008    -0.00006     0.00013
  
  S  C   4  -0.16585     0.30102     0.15846     0.16507     0.02078     0.01010
 PX  C   4   0.00638    -0.03757    -0.03223    -0.05053    -0.02570    -0.03265
 PY  C   4  -0.02839     0.03412     0.00947    -0.00169    -0.01335    -0.02009
 PZ  C   4   0.00057     0.00040    -0.00015    -0.00064    -0.00025     0.00042
  
  S  C   5  -0.18968     0.24979     0.09227     0.04815    -0.04013    -0.06530
 PX  C   5  -0.02800    -0.00545    -0.02418    -0.04986    -0.02769    -0.03437
 PY  C   5   0.01802    -0.05612    -0.03750    -0.04694    -0.01051    -0.00869
 PZ  C   5   0.00213     0.00268    -0.00025    -0.00248    -0.00107     0.00186
  
  S  C   6  -0.20789     0.16613     0.00980    -0.07832    -0.08542    -0.11569
 PX  C   6   0.01783    -0.05097    -0.03015    -0.03279    -0.00171     0.00158
 PY  C   6  -0.05097    -0.00411    -0.03258    -0.06370    -0.02602    -0.02913
 PZ  C   6   0.00606     0.00604    -0.00086    -0.00629    -0.00224     0.00602
  
  S  N   7  -0.23562     0.02648    -0.10016    -0.20759    -0.08011    -0.09087
 PX  N   7   0.03310    -0.03038    -0.00079     0.01761     0.01782     0.02132
 PY  N   7   0.01886    -0.06892    -0.03174    -0.01412     0.03030     0.04650
 PZ  N   7   0.02019     0.02050    -0.00198    -0.02015    -0.00831     0.02049
  
  S  C   8   0.06790     0.01434    -0.04588    -0.10414    -0.01792     0.08219
 PX  C   8   0.00593    -0.01482    -0.00571    -0.00109     0.00694     0.01123
 PY  C   8   0.11303    -0.02956     0.01455     0.04690     0.03795     0.07535
 PZ  C   8   0.13832     0.04699     0.05394     0.06571     0.00255     0.03302
  
  S  C   9   0.21130     0.07631     0.03376     0.00156    -0.02291     0.04685
 PX  C   9   0.01318    -0.00180    -0.00112    -0.00188     0.00181     0.01353
 PY  C   9   0.11840     0.01139     0.01926     0.02481     0.00865     0.03914
 PZ  C   9   0.03825     0.00237     0.02309     0.04279     0.00464    -0.03298
  
  S  C  10   0.34754     0.08979     0.08238     0.08430    -0.01490    -0.02749
 PX  C  10   0.00273    -0.00272    -0.00272    -0.00379     0.00372     0.02905
 PY  C  10   0.02983    -0.00036     0.00660     0.01293     0.00532    -0.00456
 PZ  C  10  -0.04506    -0.00191     0.00495     0.01393    -0.01045    -0.09960
  
  S  C  11   0.30096     0.05833     0.06288     0.07147     0.00732     0.04011
 PX  C  11  -0.01410    -0.00536    -0.00500    -0.00554     0.00292     0.01942
 PY  C  11  -0.09351    -0.02211    -0.01881    -0.01715     0.00261    -0.00965
 PZ  C  11  -0.03867     0.00433     0.00304     0.00433    -0.01394    -0.08445
  
  S  C  12   0.23730     0.00998     0.03114     0.04805     0.03706     0.13962
 PX  C  12  -0.01869    -0.00414    -0.00310    -0.00236    -0.00002    -0.00478
 PY  C  12  -0.08575    -0.00593    -0.00657    -0.00558    -0.00877    -0.05240
 PZ  C  12   0.04763     0.02731     0.01591     0.00844    -0.01122    -0.01010
  
  S  C  13   0.15605    -0.05981    -0.02126    -0.00014     0.05555     0.15762
 PX  C  13  -0.00517    -0.00544     0.00095     0.00627     0.00345    -0.00208
 PY  C  13   0.03504     0.01037     0.02963     0.05097     0.01114     0.00437
 PZ  C  13   0.10983     0.05874     0.02667     0.00371    -0.01563     0.04092
  
  S  C  14   0.02371    -0.17979    -0.00347     0.12645     0.10482     0.04849
 PX  C  14   0.00666    -0.00172     0.00679     0.01426     0.00358    -0.00145
 PY  C  14   0.04213     0.01954     0.02631     0.03832     0.00812     0.01320
 PZ  C  14  -0.00285     0.03813    -0.04190    -0.10701    -0.02402     0.04499
  
  S  C  15  -0.08892    -0.13262    -0.02442     0.04687     0.03765    -0.04677
 PX  C  15   0.01676    -0.01722     0.00582     0.02239     0.01163     0.00651
 PY  C  15   0.05844    -0.07067     0.01791     0.08521     0.05404     0.03884
 PZ  C  15  -0.06653     0.01711    -0.06432    -0.13060    -0.02387     0.01629
  
  S  C  16   0.01873    -0.08136     0.05830     0.14444     0.01208    -0.05765
 PX  C  16   0.00930    -0.00866     0.00520     0.01331     0.00430     0.00141
 PY  C  16   0.03142    -0.05661     0.02802     0.08688     0.02972    -0.00297
 PZ  C  16  -0.05147    -0.03019    -0.02148    -0.00285     0.02258    -0.01534
  
  S  C  17   0.11592    -0.05545     0.10377     0.17203    -0.01451    -0.03000
 PX  C  17   0.00270     0.00254     0.00092    -0.00370    -0.00084     0.00221
 PY  C  17   0.00291    -0.02604     0.00572     0.03369     0.02368     0.00336
 PZ  C  17  -0.02407    -0.08666     0.00694     0.10154     0.06486    -0.01725
  
  S  C  18   0.08063    -0.10878     0.08397     0.20979     0.05245    -0.01795
 PX  C  18  -0.00251     0.00914    -0.00391    -0.01439    -0.00492     0.00191
 PY  C  18  -0.02473     0.02494    -0.02592    -0.05302    -0.00274     0.01029
 PZ  C  18  -0.00354    -0.05839     0.00691     0.07012     0.04662    -0.00239
  
  S  C  19   0.05616    -0.14996     0.05414     0.21220     0.10163     0.00979
 PX  C  19  -0.00114     0.00844    -0.00097    -0.00844    -0.00525    -0.00102
 PY  C  19  -0.01248     0.05957    -0.01735    -0.07458    -0.03347     0.00414
 PZ  C  19  -0.00672     0.00276    -0.01944    -0.03337     0.00302     0.02063
  
  S  C  20   0.17031     0.15758     0.06449    -0.10416    -0.14335     0.01784
 PX  C  20   0.00224     0.00193     0.00528    -0.00826     0.00180     0.00205
 PY  C  20  -0.00295    -0.02097     0.00940     0.02622     0.01077    -0.00302
 PZ  C  20  -0.02070    -0.07879     0.02180     0.11098     0.03149    -0.02070
  
  S  C  21   0.13556     0.16204     0.04551    -0.16166    -0.11295     0.02880
 PX  C  21  -0.04195    -0.05095    -0.00744     0.04351     0.03516    -0.00758
 PY  C  21  -0.02460    -0.03905    -0.00171     0.04285     0.02066    -0.00665
 PZ  C  21  -0.00160    -0.02960     0.00844     0.05555    -0.00242    -0.00807
  
  S  C  22   0.08954     0.13640     0.03841    -0.18673    -0.02950     0.02283
 PX  C  22  -0.02890    -0.04914     0.00471     0.05369     0.00308    -0.00594
 PY  C  22  -0.00541    -0.01329    -0.00017     0.02159    -0.01541     0.00015
 PZ  C  22   0.04163     0.05594    -0.00482    -0.04111    -0.06305     0.01336
  
  S  C  23   0.03917     0.09723    -0.02270    -0.13457     0.12278    -0.00319
 PX  C  23   0.00772    -0.00672     0.05761    -0.03064    -0.02413     0.00453
 PY  C  23   0.02481     0.02561     0.02882    -0.04059    -0.04959     0.01058
 PZ  C  23   0.07191     0.10285    -0.01141    -0.08182    -0.13093     0.02867
  
  S  C  24   0.07129     0.14746    -0.09733    -0.09796    -0.02733     0.01782
 PX  C  24   0.02486     0.03938     0.01701    -0.06474     0.02765     0.00140
 PY  C  24   0.02745     0.03614     0.02219    -0.05522    -0.00745     0.00528
 PZ  C  24   0.04701     0.04726     0.04712    -0.06398    -0.08618     0.01567
  
  S  C  25   0.12726     0.16713    -0.00090    -0.13023    -0.12778     0.02488
 PX  C  25   0.04362     0.05435     0.01397    -0.05529    -0.03121     0.00786
 PY  C  25   0.02378     0.02121     0.01630    -0.02075    -0.01723     0.00267
 PZ  C  25  -0.00721    -0.03963     0.03202     0.04571     0.00248    -0.01029
  
  S  C  26  -0.01434     0.01977    -0.17488     0.12943    -0.14334     0.01819
 PX  C  26  -0.00662     0.00837    -0.01295    -0.02593     0.11475    -0.01460
 PY  C  26   0.00276     0.01384     0.00158    -0.03456     0.07698    -0.00856
 PZ  C  26   0.02400     0.03344     0.03105    -0.07048     0.03849    -0.00048
  
  S  C  27   0.00542     0.00855    -0.08411     0.09300    -0.20091     0.02637
 PX  C  27  -0.00882     0.00030    -0.05714     0.05341    -0.06850     0.00813
 PY  C  27  -0.00342     0.00310    -0.02433     0.01599    -0.01536     0.00196
 PZ  C  27   0.00592     0.01061     0.03028    -0.05261     0.08585    -0.00969
  
  S  C  28   0.01507    -0.00106    -0.00950     0.04106    -0.13689     0.01786
 PX  C  28  -0.01560    -0.01169    -0.07753     0.09994    -0.15620     0.01815
 PY  C  28  -0.00752    -0.00485    -0.04133     0.05103    -0.08050     0.00950
 PZ  C  28   0.00505     0.00665     0.01052    -0.02163     0.03091    -0.00305
  
  S  C  29  -0.00692    -0.02132    -0.06143     0.12011    -0.23475     0.02742
 PX  C  29  -0.01161    -0.01153    -0.03926     0.05757    -0.07973     0.00845
 PY  C  29  -0.00670    -0.00731    -0.02867     0.04222    -0.06394     0.00709
 PZ  C  29   0.00020    -0.00167    -0.02202     0.03144    -0.06217     0.00770
  
  S  C  30  -0.03469    -0.05214    -0.08182     0.16794    -0.22945     0.02247
 PX  C  30  -0.00843    -0.01097     0.02405    -0.02152     0.07854    -0.01134
 PY  C  30  -0.00839    -0.01040     0.00172     0.00565     0.02344    -0.00436
 PZ  C  30  -0.01074    -0.01036    -0.04813     0.06287    -0.07460     0.00760
  
  S  C  31  -0.06447    -0.06392    -0.12551     0.17394    -0.05365    -0.00313
 PX  C  31  -0.01821    -0.02164     0.04901    -0.05052     0.18526    -0.02619
 PY  C  31  -0.00983    -0.00608     0.01536    -0.03002     0.11759    -0.01594
 PZ  C  31   0.00269     0.02572    -0.05573     0.00112     0.03707    -0.00276
  
  S  N  32  -0.09313    -0.11422     0.04465     0.02744     0.29134    -0.04941
 PX  N  32   0.00479    -0.01289     0.07812    -0.04494    -0.00521     0.00212
 PY  N  32   0.00560     0.00400     0.02525    -0.02721     0.00927     0.00044
 PZ  N  32   0.01288     0.04633    -0.07266    -0.01106     0.04776    -0.00249
  
  S  C  33  -0.06872    -0.16108     0.27789    -0.04585    -0.00326    -0.00459
 PX  C  33   0.01518     0.00505     0.05127    -0.03260    -0.09156     0.01655
 PY  C  33   0.00411     0.00146     0.01370    -0.00881    -0.02407     0.00433
 PZ  C  33  -0.01028     0.00770    -0.05314     0.00996     0.13030    -0.01986
  
  S  C  34  -0.03037    -0.10289     0.24032    -0.06556    -0.09914     0.01470
 PX  C  34   0.01715     0.03614    -0.05762     0.00956    -0.01867     0.00416
 PY  C  34  -0.00236    -0.01229     0.03365    -0.01007    -0.02244     0.00353
 PZ  C  34   0.00162     0.02330    -0.06528     0.01285     0.07930    -0.01183
  
  S  C  35   0.00106    -0.04088     0.13595    -0.04191    -0.13035     0.02088
 PX  C  35   0.01159     0.04461    -0.10750     0.02619     0.07210    -0.01070
 PY  C  35   0.00253     0.00241    -0.00044    -0.00060    -0.00740     0.00125
 PZ  C  35  -0.01191    -0.02562     0.04910    -0.01187    -0.00863     0.00105
  
  S  C  36   0.02447     0.01513     0.02070    -0.01338    -0.08801     0.01468
 PX  C  36   0.01693     0.05172    -0.11437     0.02465     0.07582    -0.01098
 PY  C  36   0.00335     0.01110    -0.02596     0.00636     0.01724    -0.00261
 PZ  C  36  -0.01695    -0.05462     0.12598    -0.03013    -0.08287     0.01242
  
  S  C  37  -0.00379    -0.05091     0.14330    -0.03300    -0.14443     0.02162
 PX  C  37   0.01020     0.01683    -0.02079    -0.00008    -0.00482     0.00155
 PY  C  37   0.00327     0.01377    -0.03292     0.00716     0.02498    -0.00363
 PZ  C  37  -0.01337    -0.04651     0.10575    -0.02295    -0.06927     0.00990
  
  S  C  38  -0.03891    -0.11833     0.23454    -0.03572    -0.12313     0.01497
 PX  C  38  -0.00285    -0.02786     0.08529    -0.02660    -0.07083     0.01131
 PY  C  38   0.00752     0.01682    -0.02448     0.00026     0.00238     0.00053
 PZ  C  38  -0.01653    -0.02935     0.03381     0.00010     0.03366    -0.00679
  
  S  C  39   0.06227     0.14105    -0.27357     0.05595     0.12680    -0.01779
 PX  C  39   0.00210     0.01063    -0.02822     0.00696     0.02804    -0.00438
 PY  C  39   0.00011     0.00182    -0.00576     0.00170     0.00648    -0.00106
 PZ  C  39  -0.00117    -0.00982     0.02918    -0.00825    -0.03095     0.00501
  
  S  C  40   0.04011     0.09476    -0.18881     0.03931     0.09812    -0.01407
 PX  C  40  -0.01027    -0.02252     0.04257    -0.00847    -0.01751     0.00237
 PY  C  40  -0.01071    -0.02441     0.04734    -0.00955    -0.02218     0.00309
 PZ  C  40  -0.00527    -0.01467     0.03240    -0.00754    -0.02180     0.00332
  
  S  C  41   0.03969     0.09461    -0.19068     0.04094     0.09998    -0.01456
 PX  C  41   0.00715     0.01905    -0.04073     0.00895     0.02642    -0.00394
 PY  C  41  -0.00543    -0.01258     0.02479    -0.00518    -0.01195     0.00170
 PZ  C  41   0.01260     0.02809    -0.05387     0.01099     0.02303    -0.00318
  
  S  C  42   0.04007     0.09468    -0.18884     0.03946     0.09798    -0.01407
 PX  C  42  -0.00650    -0.01373     0.02529    -0.00496    -0.00885     0.00115
 PY  C  42   0.01396     0.03319    -0.06646     0.01398     0.03450    -0.00496
 PZ  C  42   0.00323     0.00519    -0.00689     0.00062    -0.00227     0.00055
  
  S  C  43   0.04278     0.02070     0.14200    -0.15934     0.20248    -0.02257
 PX  C  43  -0.00153    -0.00226    -0.01844     0.02760    -0.05880     0.00740
 PY  C  43  -0.00051    -0.00075    -0.00965     0.01383    -0.03047     0.00390
 PZ  C  43   0.00135     0.00199     0.00320    -0.00687     0.01099    -0.00114
  
  S  C  44   0.02687     0.01258     0.10025    -0.11373     0.15951    -0.01853
 PX  C  44   0.00337     0.00091     0.00914    -0.00773     0.00377    -0.00025
 PY  C  44   0.00434     0.00182     0.01417    -0.01502     0.01739    -0.00190
 PZ  C  44   0.00902     0.00484     0.03337    -0.03945     0.05647    -0.00650
  
  S  C  45   0.02799     0.01507     0.09736    -0.11422     0.15664    -0.01775
 PX  C  45  -0.00173    -0.00114    -0.01053     0.01374    -0.02557     0.00316
 PY  C  45   0.00792     0.00416     0.02404    -0.02726     0.03186    -0.00339
 PZ  C  45  -0.00725    -0.00333    -0.02616     0.02940    -0.03967     0.00454
  
  S  C  46   0.02800     0.01506     0.09728    -0.11421     0.15654    -0.01775
 PX  C  46   0.00712     0.00352     0.01968    -0.02130     0.02093    -0.00206
 PY  C  46  -0.00762    -0.00402    -0.02909     0.03433    -0.04996     0.00580
 PZ  C  46  -0.00305    -0.00114    -0.01186     0.01281    -0.01770     0.00207
  
  S  C  47   0.20638     0.06661     0.06911     0.08196    -0.02731    -0.15293
 PX  C  47  -0.01276    -0.00551    -0.00718    -0.01034     0.00486     0.05101
 PY  C  47   0.03959     0.01108     0.01381     0.01848    -0.00491    -0.05489
 PZ  C  47  -0.06606    -0.01751    -0.01513    -0.01437     0.00211     0.00791
  
  S  C  48   0.12832     0.04524     0.05254     0.06901    -0.02786    -0.27343
 PX  C  48   0.02126     0.00644     0.00613     0.00626    -0.00011     0.06603
 PY  C  48   0.00195    -0.00001     0.00096     0.00237    -0.00149    -0.06171
 PZ  C  48  -0.06783    -0.02040    -0.02142    -0.02558     0.00747     0.04509
  
  S  C  49  -0.04465    -0.00960    -0.00728    -0.00565    -0.00179    -0.09940
 PX  C  49   0.00504     0.00205     0.00150     0.00030     0.00437     0.24961
 PY  C  49   0.01286     0.00400     0.00501     0.00740    -0.00515    -0.14995
 PZ  C  49  -0.06179    -0.02055    -0.02300    -0.02957     0.01155     0.07962
  
  S  O  50  -0.07169    -0.02053    -0.01963    -0.02076    -0.00002    -0.32310
 PX  O  50  -0.02655    -0.00764    -0.00756    -0.00852     0.00156    -0.04962
 PY  O  50   0.01158     0.00348     0.00369     0.00451    -0.00146    -0.00251
 PZ  O  50   0.00685     0.00136     0.00057    -0.00055     0.00241     0.09902
  
  S  O  51  -0.09074    -0.02558    -0.02732    -0.03501     0.01826     0.43066
 PX  O  51   0.02551     0.00721     0.00750     0.00923    -0.00387    -0.06471
 PY  O  51  -0.00963    -0.00249    -0.00241    -0.00279     0.00111     0.02356
 PZ  O  51  -0.01517    -0.00556    -0.00642    -0.00851     0.00384     0.03497
  
  S  C  52   0.11145     0.03844     0.04689     0.06459    -0.02852    -0.37874
 PX  C  52   0.02545     0.00746     0.00761     0.00846    -0.00121     0.01449
 PY  C  52  -0.01585    -0.00517    -0.00498    -0.00520     0.00100    -0.00973
 PZ  C  52  -0.01726    -0.00454    -0.00484    -0.00581     0.00100    -0.00453
  
  S  N  53   0.06216     0.02208     0.02841     0.04107    -0.01999    -0.28960
 PX  N  53   0.02378     0.00796     0.00987     0.01375    -0.00595    -0.08123
 PY  N  53  -0.02425    -0.00854    -0.01074    -0.01524     0.00722     0.10190
 PZ  N  53   0.00534     0.00238     0.00337     0.00527    -0.00322    -0.05244
  
  S  H  54   0.06443     0.02202     0.02189     0.02511    -0.00907    -0.02900
  
  S  H  55  -0.02440     0.06274     0.04316     0.06003     0.02748     0.03514
  
  S  H  56  -0.01958     0.05163     0.03609     0.05094     0.02422     0.03134
  
  S  H  57  -0.02438     0.06273     0.04314     0.06001     0.02746     0.03514
  
  S  H  58  -0.04144     0.09937     0.06513     0.08653     0.03476     0.04275
  
  S  H  59  -0.04147     0.09931     0.06513     0.08655     0.03479     0.04271
  
  S  H  60  -0.05802     0.12435     0.07540     0.09270     0.02903     0.03253
  
  S  H  61  -0.05780     0.12452     0.07537     0.09251     0.02894     0.03270
  
  S  H  62  -0.06945     0.12628     0.06605     0.06827     0.00834     0.00424
  
  S  H  63  -0.07009     0.12565     0.06615     0.06894     0.00860     0.00369
  
  S  H  64  -0.08081     0.10136     0.03811     0.02146    -0.01555    -0.02757
  
  S  H  65  -0.07625     0.10554     0.03778     0.01769    -0.01707    -0.02439
  
  S  H  66  -0.07549     0.07346     0.00836    -0.02734    -0.03410    -0.04226
  
  S  H  67  -0.08241     0.06651     0.00943    -0.02027    -0.03190    -0.04888
  
  S  H  68   0.04831     0.03583     0.01187    -0.00449    -0.01603    -0.00450
  
  S  H  69   0.09961     0.02224     0.02540     0.03099    -0.00098    -0.02151
  
  S  H  70   0.06562    -0.00344     0.00959     0.02051     0.01619     0.04349
  
  S  H  71  -0.00069    -0.00246     0.01818     0.02553    -0.01513    -0.02586
  
  S  H  72   0.03301    -0.02026     0.02923     0.05437     0.00561    -0.00360
  
  S  H  73   0.02156    -0.04285     0.01519     0.06162     0.03328     0.01075
  
  S  H  74   0.04410     0.04101     0.02173    -0.03515    -0.03579     0.00717
  
  S  H  75   0.01892     0.02672     0.02735    -0.05599     0.00075     0.00516
  
  S  H  76   0.03884     0.04471     0.00068    -0.02308    -0.04720     0.00499
  
  S  H  77   0.00879     0.01066    -0.01239     0.00559    -0.03975     0.00624
  
  S  H  78   0.00132    -0.00514    -0.00309     0.02017    -0.05189     0.00615
  
  S  H  79  -0.01479    -0.02580    -0.00709     0.04717    -0.06139     0.00505
  
  S  H  80  -0.00970    -0.02926     0.07121    -0.02493    -0.01069     0.00203
  
  S  H  81   0.00628     0.00297     0.01056    -0.00693    -0.02409     0.00430
  
  S  H  82   0.00361    -0.00273     0.01639    -0.00355    -0.03147     0.00477
  
  S  H  83  -0.01649    -0.04099     0.06508    -0.00130    -0.02784     0.00213
  
  S  H  84   0.01560     0.03624    -0.07146     0.01475     0.03593    -0.00512
  
  S  H  85   0.01596     0.03659    -0.07127     0.01435     0.03492    -0.00490
  
  S  H  86   0.01637     0.04028    -0.08250     0.01767     0.04686    -0.00686
  
  S  H  87   0.01555     0.03627    -0.07221     0.01545     0.03602    -0.00522
  
  S  H  88   0.01640     0.04064    -0.08389     0.01833     0.04803    -0.00710
  
  S  H  89   0.01554     0.03625    -0.07222     0.01548     0.03599    -0.00522
  
  S  H  90   0.01636     0.04026    -0.08250     0.01771     0.04682    -0.00686
  
  S  H  91   0.01594     0.03655    -0.07129     0.01443     0.03485    -0.00490
  
  S  H  92   0.01557     0.03618    -0.07147     0.01486     0.03583    -0.00512
  
  S  H  93   0.01043     0.00449     0.03828    -0.04223     0.05735    -0.00665
  
  S  H  94   0.01044     0.00449     0.03832    -0.04227     0.05742    -0.00666
  
  S  H  95   0.01120     0.00568     0.04390    -0.05150     0.07668    -0.00902
  
  S  H  96   0.01143     0.00663     0.03631    -0.04303     0.05574    -0.00613
  
  S  H  97   0.01139     0.00631     0.04261    -0.05100     0.07475    -0.00866
  
  S  H  98   0.01082     0.00562     0.03697    -0.04274     0.05741    -0.00648
  
  S  H  99   0.01082     0.00561     0.03691    -0.04271     0.05733    -0.00648
  
  S  H 100   0.01140     0.00630     0.04257    -0.05100     0.07472    -0.00866
  
  S  H 101   0.01147     0.00659     0.03624    -0.04304     0.05564    -0.00612
  
  S  H 102  -0.04468    -0.01320    -0.01427    -0.01830     0.00893     0.17430




    ROOT NO.   13          14          15          16          17          18

           -39.31945   -38.08578   -36.59748   -36.42507   -35.68098   -34.37697
  
  
  S  C   1   0.11666     0.24213    -0.18829    -0.05395    -0.19238    -0.09535
 PX  C   1   0.03405     0.06246    -0.03954    -0.01100    -0.03384    -0.01146
 PY  C   1   0.00653     0.00906    -0.00244    -0.00054     0.00062     0.00265
 PZ  C   1   0.00001    -0.00002     0.00000    -0.00001     0.00000    -0.00002
  
  S  C   2   0.14281     0.25521    -0.15876    -0.04415    -0.13664    -0.04931
 PX  C   2  -0.01659    -0.05384     0.05889     0.01741     0.06998     0.04088
 PY  C   2   0.02039     0.02184     0.00190     0.00116     0.01349     0.01444
 PZ  C   2   0.00003    -0.00006     0.00001    -0.00004     0.00000    -0.00007
  
  S  C   3   0.09625     0.10071     0.00246     0.00310     0.04611     0.04848
 PX  C   3  -0.02472    -0.08213     0.08197     0.02386     0.08888     0.04349
 PY  C   3  -0.03683    -0.07705     0.05504     0.01549     0.05028     0.01893
 PZ  C   3   0.00009    -0.00024     0.00005    -0.00013    -0.00002    -0.00025
  
  S  C   4  -0.00831    -0.13490     0.16791     0.04926     0.18698     0.08976
 PX  C   4  -0.04479    -0.07320     0.02566     0.00615     0.00186    -0.01732
 PY  C   4  -0.03207    -0.07769     0.05317     0.01463     0.04197     0.00844
 PZ  C   4   0.00031    -0.00064    -0.00010    -0.00049    -0.00039    -0.00099
  
  S  C   5  -0.10735    -0.26197     0.17070     0.04602     0.12806     0.02155
 PX  C   5  -0.04360    -0.04203    -0.02072    -0.00808    -0.05238    -0.04295
 PY  C   5  -0.00493     0.03392    -0.05487    -0.01676    -0.06458    -0.03192
 PZ  C   5   0.00140    -0.00288    -0.00005    -0.00193    -0.00167    -0.00327
  
  S  C   6  -0.15833    -0.22365     0.02892     0.00234    -0.06160    -0.08262
 PX  C   6   0.01035     0.06574    -0.06893    -0.01946    -0.06743    -0.02272
 PY  C   6  -0.02893     0.01926    -0.06159    -0.01991    -0.07227    -0.03245
 PZ  C   6   0.00547    -0.00540     0.00135    -0.00518    -0.00256    -0.00640
  
  S  N   7  -0.08410     0.06769    -0.13300    -0.04444    -0.11996    -0.03834
 PX  N   7   0.02993     0.04492    -0.00224     0.00250     0.02037     0.02097
 PY  N   7   0.07703     0.15056    -0.01061    -0.00176     0.07282     0.07681
 PZ  N   7   0.01990    -0.01847     0.01007    -0.01895    -0.01651    -0.00866
  
  S  C   8   0.09337     0.01563    -0.01143    -0.05652    -0.08480    -0.00190
 PX  C   8   0.01757     0.02783     0.00399    -0.00053     0.01517     0.01645
 PY  C   8   0.08857     0.02020     0.07637     0.00556     0.06133     0.05430
 PZ  C   8   0.00418    -0.15086     0.02522    -0.00233    -0.07858    -0.06666
  
  S  C   9   0.00094    -0.15049    -0.07809    -0.01839    -0.13991    -0.10268
 PX  C   9   0.01384    -0.00382     0.00547    -0.00465    -0.00918    -0.00056
 PY  C   9   0.03278    -0.03674     0.01084    -0.00311    -0.02004    -0.00459
 PZ  C   9  -0.05047     0.00122    -0.05127     0.03295     0.04032    -0.00424
  
  S  C  10  -0.09311    -0.10994    -0.14492     0.03779    -0.03574    -0.06356
 PX  C  10   0.02658    -0.02043     0.01888    -0.00673    -0.01615    -0.00472
 PY  C  10   0.01060     0.01312     0.04805    -0.00417     0.01381     0.02445
 PZ  C  10  -0.11416     0.08432    -0.09968     0.04239     0.09303     0.02891
  
  S  C  11   0.02306    -0.10566     0.05417    -0.00368    -0.04449    -0.01543
 PX  C  11   0.01786    -0.00912     0.00953    -0.00179    -0.00046     0.00268
 PY  C  11   0.00757     0.03833     0.04021    -0.00611     0.02008     0.02012
 PZ  C  11  -0.09070     0.05125    -0.08814     0.02322     0.02912    -0.00698
  
  S  C  12   0.14946    -0.08355     0.18737    -0.01999     0.01363     0.04071
 PX  C  12  -0.00460     0.00778    -0.00535     0.00286     0.00829     0.00186
 PY  C  12  -0.05337     0.02556    -0.03449     0.01144     0.01321    -0.00738
 PZ  C  12  -0.02103    -0.04985    -0.01625    -0.00889    -0.06354    -0.02995
  
  S  C  13   0.19595     0.07809     0.15186    -0.01067     0.11944     0.10301
 PX  C  13  -0.00141     0.00507     0.00403     0.00503     0.01400     0.00253
 PY  C  13  -0.00380    -0.06195     0.05910     0.01564     0.02312    -0.01015
 PZ  C  13   0.02449    -0.12062     0.03139    -0.03367    -0.11403    -0.03357
  
  S  C  14   0.08016     0.14042     0.08504     0.08276     0.24607     0.04032
 PX  C  14  -0.00417    -0.01284     0.00505     0.00460     0.00369    -0.01044
 PY  C  14   0.00444    -0.06371     0.05557     0.01257     0.03381    -0.02662
 PZ  C  14   0.06682     0.07455     0.01786    -0.03809     0.01601     0.08253
  
  S  C  15  -0.03570     0.09874    -0.06616     0.04142     0.01266    -0.00078
 PX  C  15   0.00749     0.00572     0.00441     0.00567     0.01186    -0.00001
 PY  C  15   0.04944     0.04165     0.05170     0.03422     0.11360     0.01971
 PZ  C  15   0.04316     0.12467    -0.01650    -0.02452     0.05983     0.05360
  
  S  C  16  -0.08505    -0.09649    -0.06383     0.00334    -0.18194    -0.01128
 PX  C  16   0.00061    -0.00335    -0.00067    -0.00383    -0.00193    -0.00191
 PY  C  16  -0.00877    -0.02074     0.00272     0.01207    -0.00052    -0.01470
 PZ  C  16  -0.00939     0.04181    -0.00460     0.03923     0.06623    -0.04052
  
  S  C  17  -0.06481    -0.15210    -0.04739    -0.08114    -0.21438     0.02645
 PX  C  17   0.00278     0.00095     0.00130    -0.01428     0.01590    -0.00816
 PY  C  17   0.00365    -0.00176     0.02061     0.00805     0.06541    -0.04252
 PZ  C  17  -0.02146    -0.00719     0.01268     0.07621     0.04466    -0.06984
  
  S  C  18  -0.04197    -0.10825     0.02054     0.00163    -0.00025    -0.07934
 PX  C  18   0.00319     0.00463    -0.00043    -0.00659     0.00425     0.00125
 PY  C  18   0.01925     0.03586     0.01803     0.01811     0.06091    -0.00713
 PZ  C  18  -0.00168     0.00844     0.03029     0.06510     0.08315    -0.04511
  
  S  C  19   0.00685    -0.01857     0.09182     0.09209     0.19114    -0.07959
 PX  C  19  -0.00183    -0.00410    -0.00362    -0.00566    -0.00924    -0.00169
 PY  C  19   0.00555    -0.00177    -0.00792    -0.02715    -0.03258     0.01400
 PZ  C  19   0.03371     0.05202     0.02408     0.01026     0.05715     0.04263
  
  S  C  20   0.00936    -0.04055    -0.03969    -0.14497    -0.11982     0.11882
 PX  C  20   0.00321     0.00321    -0.00219    -0.05199     0.05730    -0.03870
 PY  C  20  -0.00626    -0.01780    -0.00425    -0.03820     0.00873    -0.02319
 PZ  C  20  -0.03652    -0.07533    -0.02193    -0.02072    -0.13063     0.01448
  
  S  C  21   0.03567     0.02962    -0.01714    -0.18901     0.13335    -0.03044
 PX  C  21  -0.00868    -0.00504     0.00293     0.01338     0.01470    -0.03611
 PY  C  21  -0.01005    -0.01663    -0.00131     0.00621    -0.02283    -0.00466
 PZ  C  21  -0.01739    -0.04539    -0.01317    -0.00395    -0.11760     0.06223
  
  S  C  22   0.03838     0.06736     0.00005    -0.15466     0.26006    -0.15820
 PX  C  22  -0.01075    -0.02122    -0.00614    -0.00904    -0.03304    -0.00016
 PY  C  22  -0.00191    -0.00771    -0.00308    -0.00943    -0.01397     0.01400
 PZ  C  22   0.01642     0.01864     0.00115    -0.01849     0.02450     0.03195
  
  S  C  23   0.01007     0.04501     0.02005     0.03658     0.11740    -0.10547
 PX  C  23   0.00477    -0.00080    -0.01984    -0.15345     0.09701    -0.06977
 PY  C  23   0.01323     0.01541    -0.00643    -0.07634     0.07274    -0.02694
 PZ  C  23   0.03752     0.05679     0.01793     0.04573     0.05997     0.01791
  
  S  C  24   0.03181     0.07515     0.05704     0.30911    -0.05077     0.03910
 PX  C  24   0.00571     0.01258    -0.00416    -0.05972     0.06566    -0.01564
 PY  C  24   0.00850     0.01197    -0.00478    -0.05263     0.04493     0.00393
 PZ  C  24   0.01791     0.01543    -0.01022    -0.06914     0.02252     0.04126
  
  S  C  25   0.02990     0.03240     0.00722     0.09029    -0.10245     0.13035
 PX  C  25   0.00981     0.00755    -0.00723    -0.05136     0.01886     0.01804
 PY  C  25   0.00160    -0.00731    -0.01061    -0.05706    -0.00019     0.01538
 PZ  C  25  -0.02007    -0.04974    -0.02872    -0.10082    -0.06049     0.02072
  
  S  C  26   0.01842     0.03350     0.04559     0.28095    -0.09471    -0.02274
 PX  C  26  -0.01276    -0.00517     0.00855     0.06486    -0.03591     0.04169
 PY  C  26  -0.00622     0.00180     0.00912     0.06119    -0.02588     0.02595
 PZ  C  26   0.00420     0.01775     0.01570     0.08972    -0.01924    -0.00051
  
  S  C  27   0.02547     0.02988     0.02356     0.12812    -0.02016    -0.10071
 PX  C  27   0.00726     0.00837     0.00874     0.05335    -0.01859     0.00730
 PY  C  27   0.00210     0.00457     0.00698     0.04574    -0.01975     0.01179
 PZ  C  27  -0.00743    -0.00084     0.00699     0.05396    -0.03226     0.02565
  
  S  C  28   0.01635     0.01099    -0.00593    -0.06329     0.05967    -0.08274
 PX  C  28   0.01495     0.00780    -0.00273    -0.02907     0.02416    -0.02336
 PY  C  28   0.00806     0.00570     0.00203     0.00751     0.00301    -0.02060
 PZ  C  28  -0.00166     0.00447     0.01270     0.08513    -0.03771    -0.02740
  
  S  C  29   0.02184     0.00192    -0.02980    -0.21648     0.11448    -0.00681
 PX  C  29   0.00596    -0.00114    -0.00667    -0.04201     0.01121     0.01741
 PY  C  29   0.00539     0.00084    -0.00346    -0.02403     0.00941     0.00062
 PZ  C  29   0.00684     0.00546     0.00166     0.00238     0.01040    -0.03697
  
  S  C  30   0.01299    -0.01818    -0.04069    -0.25212     0.07429     0.08350
 PX  C  30  -0.01166    -0.01259    -0.00099     0.01586    -0.03712     0.03802
 PY  C  30  -0.00533    -0.00772    -0.00150     0.00395    -0.02128     0.02427
 PZ  C  30   0.00513    -0.00027    -0.00179    -0.01117     0.00234    -0.01192
  
  S  C  31  -0.01223    -0.03278    -0.01448    -0.04674    -0.04848     0.08185
 PX  C  31  -0.02641    -0.02774    -0.00736    -0.01211    -0.03752     0.03433
 PY  C  31  -0.01517    -0.01133     0.00429     0.04508    -0.03719     0.01549
 PZ  C  31   0.00058     0.01802     0.03215     0.19386    -0.05238    -0.04977
  
  S  N  32  -0.05707    -0.07912    -0.04025    -0.17828    -0.02280     0.01088
 PX  N  32   0.00281    -0.00004    -0.01409    -0.10557     0.06659    -0.07913
 PY  N  32   0.00194     0.00500    -0.00104    -0.02109     0.03080    -0.03120
 PZ  N  32   0.00241     0.02287     0.02936     0.15654    -0.00889    -0.06892
  
  S  C  33  -0.01021    -0.03178    -0.03377    -0.18178     0.02459     0.00604
 PX  C  33   0.02020     0.03340     0.02282     0.10700     0.01632    -0.13592
 PY  C  33   0.00523     0.00821     0.00528     0.02614    -0.00244     0.03468
 PZ  C  33  -0.02134    -0.02745    -0.01907    -0.10765     0.03448    -0.10548
  
  S  C  34   0.01516     0.01683     0.00527     0.00837     0.04428    -0.28249
 PX  C  34   0.00591     0.01332     0.01374     0.07447    -0.00877    -0.06139
 PY  C  34   0.00387     0.00511     0.00297     0.01399     0.00107    -0.00483
 PZ  C  34  -0.01254    -0.01673    -0.01406    -0.08132     0.02256     0.01343
  
  S  C  35   0.02351     0.03563     0.02852     0.14636     0.00332    -0.30241
 PX  C  35  -0.01117    -0.01350    -0.00835    -0.04362     0.00583    -0.00998
 PY  C  35   0.00148     0.00251     0.00250     0.01466    -0.00494     0.01634
 PZ  C  35   0.00078    -0.00066    -0.00351    -0.02511     0.01607    -0.04679
  
  S  C  36   0.01714     0.02830     0.02627     0.14669    -0.03008    -0.00314
 PX  C  36  -0.01123    -0.01284    -0.00819    -0.04725     0.02038    -0.15150
 PY  C  36  -0.00280    -0.00383    -0.00286    -0.01425    -0.00219     0.06086
 PZ  C  36   0.01315     0.01709     0.01211     0.06259    -0.00154    -0.11043
  
  S  C  37   0.02287     0.02915     0.02213     0.12997    -0.05361     0.30589
 PX  C  37   0.00253     0.00680     0.00770     0.04105    -0.00141    -0.05615
 PY  C  37  -0.00373    -0.00438    -0.00293    -0.01605     0.00327     0.00679
 PZ  C  37   0.00996     0.01067     0.00598     0.03259    -0.00799     0.00231
  
  S  C  38   0.01221     0.00224    -0.00564    -0.01895    -0.03601     0.29009
 PX  C  38   0.01262     0.01812     0.01336     0.07086    -0.00948     0.00408
 PY  C  38   0.00146     0.00492     0.00499     0.02604    -0.00217     0.01210
 PZ  C  38  -0.00900    -0.01782    -0.01617    -0.08724     0.01533    -0.06071
  
  S  C  39  -0.01765    -0.01912    -0.01157    -0.06117     0.00921     0.00530
 PX  C  39  -0.00485    -0.00727    -0.00668    -0.03894     0.01415    -0.09366
 PY  C  39  -0.00124    -0.00215    -0.00220    -0.01177    -0.00025     0.04651
 PZ  C  39   0.00574     0.00957     0.00941     0.05139    -0.00488    -0.09399
  
  S  C  40  -0.01431    -0.01693    -0.01198    -0.06645     0.01769    -0.09004
 PX  C  40   0.00225     0.00201     0.00071     0.00315     0.00057    -0.01280
 PY  C  40   0.00303     0.00308     0.00165     0.00916    -0.00356     0.03386
 PZ  C  40   0.00361     0.00525     0.00461     0.02503    -0.00263    -0.03553
  
  S  C  41  -0.01509    -0.01929    -0.01499    -0.07919     0.00257     0.20573
 PX  C  41  -0.00418    -0.00564    -0.00467    -0.02634     0.00711    -0.02776
 PY  C  41   0.00171     0.00193     0.00121     0.00634    -0.00064    -0.00314
 PZ  C  41  -0.00309    -0.00306    -0.00143    -0.00666    -0.00110     0.02123
  
  S  C  42  -0.01433    -0.01702    -0.01203    -0.06649     0.01718    -0.08961
 PX  C  42   0.00103     0.00065    -0.00017    -0.00167     0.00186    -0.01814
 PY  C  42  -0.00506    -0.00602    -0.00422    -0.02287     0.00415    -0.00057
 PZ  C  42   0.00081     0.00209     0.00259     0.01401    -0.00007    -0.04736
  
  S  C  43  -0.01795    -0.00917     0.00126     0.01792    -0.01712     0.01686
 PX  C  43   0.00664     0.00474    -0.00145    -0.01895     0.02139    -0.03738
 PY  C  43   0.00359     0.00318     0.00090     0.00120     0.00600    -0.02579
 PZ  C  43  -0.00067     0.00172     0.00611     0.04243    -0.02173    -0.01687
  
  S  C  44  -0.01560    -0.01163    -0.00600    -0.02881     0.00049     0.06799
 PX  C  44  -0.00009    -0.00037    -0.00212    -0.01580     0.00996    -0.00367
 PY  C  44  -0.00150    -0.00098    -0.00083    -0.00531     0.00259     0.00038
 PZ  C  44  -0.00534    -0.00287     0.00124     0.01261    -0.01081     0.00913
  
  S  C  45  -0.01429    -0.00649     0.00567     0.04921    -0.03578     0.01507
 PX  C  45   0.00281     0.00212    -0.00007    -0.00400     0.00663    -0.01448
 PY  C  45  -0.00249    -0.00037     0.00188     0.01325    -0.00617    -0.00737
 PZ  C  45   0.00375     0.00253     0.00099     0.00441     0.00013    -0.00974
  
  S  C  46  -0.01428    -0.00644     0.00583     0.05025    -0.03634     0.01505
 PX  C  46  -0.00134     0.00030     0.00130     0.00788    -0.00159    -0.01164
 PY  C  46   0.00482     0.00288    -0.00047    -0.00715     0.00806    -0.01241
 PZ  C  46   0.00179     0.00166     0.00160     0.00979    -0.00361    -0.00845
  
  S  C  47  -0.27058     0.07348    -0.27308     0.09791     0.15516     0.03525
 PX  C  47   0.04062    -0.04178     0.02570    -0.01246    -0.04231    -0.02628
 PY  C  47  -0.04285     0.03330    -0.02495     0.01316     0.03494     0.01966
 PZ  C  47  -0.02554     0.05920     0.01625     0.00102     0.05017     0.04761
  
  S  C  48  -0.20085     0.16573    -0.16712     0.07020     0.18392     0.09503
 PX  C  48  -0.08750    -0.00198    -0.06665     0.02414     0.03367     0.00651
 PY  C  48   0.04296     0.01827     0.06964    -0.02406    -0.03323    -0.00787
 PZ  C  48   0.07790    -0.02843     0.02997    -0.01108    -0.01204     0.00588
  
  S  C  49   0.09943    -0.01408    -0.05242     0.02008     0.04564     0.02733
 PX  C  49  -0.30384     0.09413     0.04971    -0.01385     0.00310     0.01153
 PY  C  49   0.12058    -0.02067    -0.03269     0.01138     0.01776     0.00739
 PZ  C  49   0.13970    -0.09549     0.06545    -0.02931    -0.09160    -0.05434
  
  S  O  50   0.51384    -0.18248    -0.07458     0.01943    -0.01723    -0.02493
 PX  O  50   0.11189    -0.04292    -0.00550     0.00021    -0.01142    -0.00825
 PY  O  50  -0.02966     0.01694    -0.00137     0.00133     0.00838     0.00585
 PZ  O  50  -0.09909     0.02130     0.02543    -0.00877    -0.01419    -0.00712
  
  S  O  51  -0.29260     0.05383     0.14036    -0.04911    -0.07487    -0.02580
 PX  O  51   0.01984     0.00403    -0.01794     0.00661     0.01244     0.00463
 PY  O  51  -0.01565     0.00364     0.00093     0.00010     0.00327     0.00350
 PZ  O  51   0.03158    -0.02357     0.04522    -0.01823    -0.04565    -0.02541
  
  S  C  52  -0.12224     0.27384     0.27845    -0.09136    -0.07207    -0.00010
 PX  C  52  -0.02422    -0.04285    -0.17555     0.06454     0.10055     0.03680
 PY  C  52   0.00515     0.05702     0.21503    -0.07816    -0.12320    -0.04633
 PZ  C  52   0.03840    -0.03395    -0.09228     0.03327     0.05615     0.02524
  
  S  N  53  -0.08766     0.27338     0.47020    -0.16415    -0.20675    -0.05928
 PX  N  53  -0.02940     0.07118     0.10697    -0.03663    -0.04327    -0.01114
 PY  N  53   0.03011    -0.08732    -0.13252     0.04577     0.05369     0.01348
 PZ  N  53  -0.00486     0.04184     0.06843    -0.02387    -0.02747    -0.00594
  
  S  H  54  -0.10818     0.02148    -0.10732     0.03704     0.05590     0.00997
  
  S  H  55   0.04975     0.10339    -0.08076    -0.02315    -0.08291    -0.04150
  
  S  H  56   0.04490     0.09706    -0.07965    -0.02297    -0.08435    -0.04416
  
  S  H  57   0.04974     0.10335    -0.08074    -0.02316    -0.08290    -0.04153
  
  S  H  58   0.05779     0.10198    -0.06243    -0.01734    -0.05311    -0.01876
  
  S  H  59   0.05777     0.10206    -0.06245    -0.01730    -0.05311    -0.01867
  
  S  H  60   0.03944     0.04147     0.00047     0.00119     0.01791     0.01918
  
  S  H  61   0.03958     0.04127     0.00037     0.00097     0.01771     0.01875
  
  S  H  62  -0.00349    -0.05578     0.06766     0.01958     0.07440     0.03469
  
  S  H  63  -0.00392    -0.05504     0.06773     0.02015     0.07472     0.03586
  
  S  H  64  -0.04411    -0.10239     0.06708     0.01949     0.05124     0.01130
  
  S  H  65  -0.04164    -0.10643     0.06661     0.01663     0.04853     0.00663
  
  S  H  66  -0.06137    -0.10139     0.01710     0.00045    -0.02414    -0.03799
  
  S  H  67  -0.06730    -0.09603     0.01578     0.00540    -0.02354    -0.03049
  
  S  H  68  -0.02831    -0.05903    -0.05149    -0.00091    -0.04979    -0.04920
  
  S  H  69  -0.02188    -0.01159     0.01517     0.00265    -0.00342    -0.00117
  
  S  H  70   0.04951    -0.01957     0.07700    -0.00153     0.02610     0.02026
  
  S  H  71  -0.03786    -0.04642    -0.03057    -0.00874    -0.10042     0.00926
  
  S  H  72  -0.01206    -0.04173     0.00499    -0.02014    -0.00643    -0.02434
  
  S  H  73   0.01199    -0.00320     0.04578     0.03212     0.08459    -0.02465
  
  S  H  74   0.00666    -0.00425    -0.01039    -0.08557     0.03590    -0.01676
  
  S  H  75   0.00956     0.01765    -0.00357    -0.07706     0.10508    -0.09117
  
  S  H  76   0.00364    -0.00162    -0.00039     0.04726    -0.07813     0.05815
  
  S  H  77   0.00716     0.01247     0.01339     0.08085    -0.02456    -0.03638
  
  S  H  78   0.00481    -0.00158    -0.01306    -0.09221     0.04681     0.01083
  
  S  H  79   0.00140    -0.01187    -0.01969    -0.11629     0.02603     0.06228
  
  S  H  80   0.00241     0.00296    -0.00179    -0.02380     0.03428    -0.14543
  
  S  H  81   0.00527     0.00965     0.00869     0.04325     0.00708    -0.16322
  
  S  H  82   0.00512     0.00671     0.00553     0.03488    -0.02151     0.16925
  
  S  H  83   0.00017    -0.00714    -0.00876    -0.04121    -0.01348     0.14657
  
  S  H  84  -0.00518    -0.00602    -0.00418    -0.02303     0.00576    -0.02575
  
  S  H  85  -0.00487    -0.00527    -0.00334    -0.01919     0.00839    -0.07721
  
  S  H  86  -0.00715    -0.00918    -0.00722    -0.04015     0.00939    -0.02812
  
  S  H  87  -0.00538    -0.00683    -0.00526    -0.02722    -0.00151     0.10841
  
  S  H  88  -0.00748    -0.01007    -0.00836    -0.04519     0.00448     0.07770
  
  S  H  89  -0.00539    -0.00685    -0.00528    -0.02727    -0.00158     0.10844
  
  S  H  90  -0.00715    -0.00920    -0.00724    -0.04016     0.00921    -0.02794
  
  S  H  91  -0.00488    -0.00531    -0.00336    -0.01917     0.00812    -0.07701
  
  S  H  92  -0.00519    -0.00607    -0.00421    -0.02305     0.00544    -0.02550
  
  S  H  93  -0.00563    -0.00467    -0.00375    -0.02144     0.00586     0.02897
  
  S  H  94  -0.00563    -0.00468    -0.00378    -0.02161     0.00594     0.02901
  
  S  H  95  -0.00767    -0.00548    -0.00147    -0.00308    -0.00676     0.03541
  
  S  H  96  -0.00470    -0.00104     0.00414     0.03118    -0.01824    -0.00361
  
  S  H  97  -0.00715    -0.00380     0.00228     0.02205    -0.01861     0.01598
  
  S  H  98  -0.00521    -0.00246     0.00163     0.01482    -0.01126     0.00566
  
  S  H  99  -0.00520    -0.00243     0.00174     0.01547    -0.01160     0.00563
  
  S  H 100  -0.00716    -0.00380     0.00234     0.02239    -0.01880     0.01599
  
  S  H 101  -0.00470    -0.00102     0.00422     0.03171    -0.01850    -0.00365
  
  S  H 102  -0.08250     0.00335     0.07351    -0.02714    -0.05201    -0.02367




    ROOT NO.   19          20          21          22          23          24

           -33.85621   -33.51945   -33.12107   -32.68544   -32.09469   -31.56302
[...]
   3    C        2.059699617     1.428108237     0.000000000
   4    C        3.586644902     1.429555092     0.002959718
   5    C        4.120623311     2.858888373     0.001025309
   6    C        5.656116427     2.847069338     0.009140026
   7    N        6.213656087     4.197972785     0.010287565
   8    C        6.151919351     5.064878094     1.123987560
   9    C        5.970043783     4.761223849     2.467194574
  10    C        6.016417106     5.823157755     3.366917453
  11    C        6.259211978     7.137327298     2.953330971
  12    C        6.447010908     7.433418862     1.609733377
  13    C        6.383161859     6.401269358     0.690509162
  14    C        6.507846128     6.361798750    -0.743649581
  15    C        6.348679339     5.007386608    -1.141310243
  16    C        6.398858733     4.633443002    -2.480951291
  17    C        6.621918450     5.640937624    -3.411938254
  18    C        6.787868786     6.979120079    -3.026779888
  19    C        6.731957093     7.347187545    -1.692239211
  20    C        6.681573468     5.295034150    -4.830643377
  21    C        7.767811455     5.736032691    -5.598373160
  22    C        7.874426744     5.428159393    -6.945113846
  23    C        6.859135377     4.658062224    -7.505837689
  24    C        5.743790981     4.222602652    -6.737902855
  25    C        5.659104026     4.538662396    -5.393378792
  26    C        4.875425117     3.489579475    -7.625700379
  27    C        3.666232536     2.845528931    -7.432876032
  28    C        3.061305006     2.198228470    -8.508691718
  29    C        3.689386465     2.198801819    -9.760484259
  30    C        4.902407073     2.836653321    -9.982137489
  31    C        5.486106568     3.494487004    -8.907508750
  32    N        6.699565748     4.208278802    -8.830007803
  33    C        7.593895691     4.442555103    -9.901122138
  34    C        8.954747234     4.170620232    -9.740530283
  35    C        9.821167923     4.409894299   -10.796317960
  36    C        9.357571560     4.903209336   -12.017797800
  37    C        7.997318699     5.160671465   -12.160345370
  38    C        7.112270392     4.941320835   -11.111107250
  39    C       10.355166470     5.132758375   -13.122877140
  40    C       11.394140430     6.151355485   -12.645834790
  41    C        9.720011377     5.672034539   -14.405562230
  42    C       11.037222050     3.803043477   -13.456454850
  43    C        1.741175469     1.512873077    -8.267135740
  44    C        1.162830674     0.848003630    -9.517581392
  45    C        1.935430185     0.427103333    -7.204629296
  46    C        0.727017544     2.550607912    -7.776711268
  47    C        5.827093237     5.536747202     4.783503697
  48    C        4.962516816     6.222859767     5.547791515
  49    C        4.759751716     5.953006896     6.979659656
  50    O        3.797756548     6.258527912     7.663303715
  51    O        5.791186409     5.289819705     7.550343347
  52    C        4.134609484     7.252565827     5.026581077
  53    N        3.455757603     8.092026340     4.613300987
  54    H        6.430297586     4.715334799     5.194759423
  55    H       -0.417217391     0.507244446    -0.881880374
  56    H       -0.408913162    -1.020802941    -0.001149047
  57    H       -0.417213338     0.505224414     0.883057955
  58    H        1.902249088    -0.561176047     0.878887021
  59    H        1.902371927    -0.561228654    -0.878809476
  60    H        1.673673505     1.984704370    -0.880099183
  61    H        1.670160943     1.986113018     0.877693140
  62    H        3.970688415     0.873343231     0.884374853
  63    H        3.974454948     0.869993666    -0.874686431
  64    H        3.743894905     3.417596210    -0.881756579
  65    H        3.735366312     3.423750174     0.876580518
  66    H        6.047897774     2.302723719     0.899907044
  67    H        6.058815949     2.292529259    -0.869526703
  68    H        5.787815369     3.739960838     2.807841833
  69    H        6.318046514     7.941434506     3.693157095
  70    H        6.636613612     8.457899053     1.278637639
  71    H        6.281777216     3.594740901    -2.795523479
  72    H        6.949812904     7.743617057    -3.792174013
  73    H        6.857454456     8.388577170    -1.384713700
  74    H        8.555347479     6.330391157    -5.123174382
  75    H        8.715387764     5.788171638    -7.541366827
  76    H        4.801312077     4.208547420    -4.801615854
  77    H        3.220330397     2.864331942    -6.434858561
  78    H        3.243155404     1.688186758   -10.618629550
  79    H        5.381748530     2.808112246   -10.963079680
  80    H        9.336728332     3.760795113    -8.799916590
  81    H       10.883561830     4.193018072   -10.644618410
  82    H        7.576960112     5.548307661   -13.092591200
  83    H        6.049447106     5.172789046   -11.237326820
  84    H       10.926537230     7.098948387   -12.342500620
  85    H       11.982162280     5.800779393   -11.786542340
  86    H       12.123785640     6.393183441   -13.432588580
  87    H        9.229356179     6.644555716   -14.256716810
  88    H       10.469255630     5.830765319   -15.196252790
  89    H        8.976236136     4.982637628   -14.830052740
  90    H       11.744439770     3.902504506   -14.292992000
  91    H       11.616747900     3.390945553   -12.618966090
  92    H       10.308388160     3.032256891   -13.745007080
  93    H        0.970503943     1.567224982   -10.326524290
  94    H        1.816739425     0.059927530    -9.917584358
  95    H        0.197212230     0.361096733    -9.311800253
  96    H        2.244379545     0.826530985    -6.228950554
  97    H        1.010765452    -0.139279355    -7.020305137
  98    H        2.702218968    -0.301837675    -7.503282112
  99    H        0.611619455     3.376556021    -8.492948805
 100    H       -0.271588327     2.113729579    -7.629308562
 101    H        1.001946952     3.004824160    -6.814904406
 102    H        5.627524846     5.135332281     8.491670333


           Empirical Formula: C48 H49 N3 O2  =   102 atoms



      MOLECULAR POINT GROUP   :   C1  


                  EIGENVALUES  
 -48.68050 -48.55874 -46.81623 -45.51812 -44.96824 -44.04999 -43.30496 -42.41064
 -41.84871 -41.34591 -40.06691 -39.70653 -39.31945 -38.08578 -36.59748 -36.42507
 -35.68098 -34.37697 -33.85621 -33.51945 -33.12107 -32.68544 -32.09469 -31.56302
 -31.30666 -31.29187 -30.65181 -30.56028 -30.12402 -29.87633 -28.74514 -28.20078
 -27.58910 -26.42632 -25.89068 -25.66291 -25.58021 -25.28285 -24.91896 -24.75310
 -24.50188 -24.31227 -24.02245 -23.74692 -23.34823 -23.21286 -22.06904 -21.72674
 -21.58032 -20.94165 -20.80663 -20.37907 -20.34068 -19.95456 -19.53628 -19.12478
 -18.92863 -18.88541 -18.86703 -18.80989 -18.39866 -18.20800 -18.12624 -17.63374
 -17.50664 -17.27116 -17.16786 -17.03662 -16.66634 -16.62879 -16.40768 -16.30766
 -16.21331 -16.14355 -16.10715 -16.03782 -15.89380 -15.84850 -15.66555 -15.58224
 -15.46050 -15.33159 -15.14560 -15.06492 -14.93342 -14.72131 -14.43302 -14.29864
 -14.25005 -14.04861 -13.97857 -13.94899 -13.89970 -13.69445 -13.65757 -13.55792
 -13.49228 -13.38429 -13.35440 -13.23830 -13.18371 -13.16312 -13.13569 -13.03438
 -12.71225 -12.63031 -12.56519 -12.47624 -12.45314 -12.41075 -12.37049 -12.20100
 -12.12059 -11.99689 -11.91888 -11.84715 -11.72395 -11.70013 -11.52803 -11.32076
 -11.02716 -10.93277 -10.84345 -10.23827  -9.94580  -9.44354  -9.10137  -9.08371
  -8.76728  -8.50353  -7.83282  -7.74707  -7.53983  -7.11860  -0.85253   0.13050
   0.20893   0.66608   0.70282   0.74862   0.78464   0.85986   1.05660   1.20682
   1.46140   1.63037   1.75416   2.12776   2.47042   2.69069   2.73429   2.82339
   2.87539   2.93379   2.97490   3.04979   3.13453   3.20074   3.28217   3.37842
   3.42318   3.46771   3.53437   3.58093   3.73850   3.82272   3.86920   3.87114
   3.98589   4.00988   4.16237   4.18920   4.26777   4.29645   4.31473   4.40420
   4.41573   4.46681   4.48984   4.57356   4.79852   4.94872   5.10942   5.28652
   5.32272   5.34047   5.58837   5.70763   5.75959   5.76250   5.89719   6.22097
   6.24780   6.31409   6.38309   6.40324   6.61272   6.63654   6.64388   6.65543
   6.66251   6.73956   6.76254   6.78176   6.81248   6.82602   6.84588   6.88691
   6.90431   6.96244   7.02463   7.09576   7.14232   7.15023   7.16975   7.18214
   7.36807   7.37509   7.38507   7.45634   8.01043   8.20499   8.51000   8.60130
   8.61397   8.66006   9.02862   9.04473   9.22985   9.27832   9.29242   9.47780
   9.73537   9.78524   9.82760   9.98209   9.99954  10.08721  10.44922  10.89857
  10.93785  11.01422  11.05040  11.34495  11.52536  11.67924  11.72633  11.94585
  12.28478  12.50786  12.59151  12.69958  12.80233  12.94808  13.09680  13.16114
  13.80340  14.03870  14.78748  14.98043  15.40518


              NET ATOMIC CHARGES AND DIPOLE CONTRIBUTIONS

  ATOM NO.   TYPE          CHARGE      No. of ELECS.   s-Pop       p-Pop       
    1          C          -0.027804        4.0278     1.05491     2.97289
    2          C          -0.006635        4.0066     1.04471     2.96192
    3          C          -0.007790        4.0078     1.05025     2.95754
    4          C          -0.010964        4.0110     1.05088     2.96009
    5          C          -0.004060        4.0041     1.05243     2.95163
    6          C           0.073336        3.9267     1.04937     2.87729
    7          N          -0.162087        5.1621     1.27120     3.89089
    8          C           0.079608        3.9204     1.05369     2.86670
    9          C          -0.033388        4.0334     1.07631     2.95708
   10          C           0.017209        3.9828     1.03918     2.94361
   11          C          -0.031416        4.0314     1.07956     2.95186
   12          C          -0.019782        4.0198     1.08067     2.93911
   13          C          -0.005142        4.0051     1.04939     2.95576
   14          C          -0.026759        4.0268     1.04525     2.98151
   15          C           0.079539        3.9205     1.05735     2.86311
   16          C          -0.056795        4.0568     1.07673     2.98007
   17          C           0.030750        3.9692     1.05185     2.91740
   18          C          -0.055747        4.0557     1.07853     2.97722
   19          C          -0.017129        4.0171     1.08266     2.93447
   20          C           0.006975        3.9930     1.04703     2.94599
   21          C          -0.033799        4.0338     1.08147     2.95233
   22          C          -0.042544        4.0425     1.07940     2.96315
   23          C           0.070045        3.9300     1.04939     2.88056
   24          C          -0.017443        4.0174     1.05155     2.96589
   25          C          -0.031497        4.0315     1.07997     2.95152
   26          C          -0.018201        4.0182     1.05125     2.96695
   27          C          -0.039156        4.0392     1.08149     2.95767
   28          C           0.010197        3.9898     1.05959     2.93021
   29          C          -0.045159        4.0452     1.08174     2.96342
   30          C          -0.043924        4.0439     1.07987     2.96406
   31          C           0.065514        3.9345     1.04835     2.88614
   32          N          -0.136357        5.1364     1.22749     3.90887
   33          C           0.084870        3.9151     1.03627     2.87886
   34          C          -0.033010        4.0330     1.08221     2.95080
   35          C          -0.035078        4.0351     1.08341     2.95167
   36          C           0.022171        3.9778     1.05896     2.91887
   37          C          -0.039597        4.0396     1.08187     2.95773
   38          C          -0.033290        4.0333     1.08266     2.95063
   39          C           0.041102        3.9589     0.99575     2.96314
   40          C          -0.018229        4.0182     1.06169     2.95654
   41          C          -0.021402        4.0214     1.06255     2.95885
   42          C          -0.018240        4.0182     1.06170     2.95654
   43          C           0.040018        3.9600     0.99637     2.96361
   44          C          -0.021516        4.0215     1.06289     2.95863
   45          C          -0.018444        4.0184     1.06209     2.95635
   46          C          -0.018557        4.0186     1.06215     2.95641
   47          C           0.131806        3.8682     1.10552     2.76268
   48          C           0.019865        3.9801     1.00278     2.97736
   49          C           0.507145        3.4929     1.04599     2.44686
   50          O          -0.600353        6.6004     1.81508     4.78527
   51          O          -0.308527        6.3085     1.68838     4.62014
   52          C           0.215779        3.7842     1.15165     2.63258
   53          N          -0.396515        5.3965     1.75335     3.64317
   54          H           0.072859        0.9271     0.92714
   55          H           0.007734        0.9923     0.99227
   56          H           0.000175        0.9998     0.99983
   57          H           0.007962        0.9920     0.99204
   58          H           0.006527        0.9935     0.99347
   59          H           0.006240        0.9938     0.99376
   60          H           0.007146        0.9929     0.99285
   61          H           0.007579        0.9924     0.99242
   62          H           0.008917        0.9911     0.99108
   63          H           0.008217        0.9918     0.99178
   64          H           0.010814        0.9892     0.98919
   65          H           0.012205        0.9878     0.98779
   66          H           0.019846        0.9802     0.98015
   67          H           0.019977        0.9800     0.98002
   68          H           0.035695        0.9643     0.96430
   69          H           0.027249        0.9728     0.97275
   70          H           0.027577        0.9724     0.97242
   71          H           0.028310        0.9717     0.97169
   72          H           0.018281        0.9817     0.98172
   73          H           0.024575        0.9754     0.97543
   74          H           0.020724        0.9793     0.97928
   75          H           0.027073        0.9729     0.97293
   76          H           0.025531        0.9745     0.97447
   77          H           0.024186        0.9758     0.97581
   78          H           0.021161        0.9788     0.97884
   79          H           0.026496        0.9735     0.97350
   80          H           0.027527        0.9725     0.97247
   81          H           0.023465        0.9765     0.97654
   82          H           0.024564        0.9754     0.97544
   83          H           0.027502        0.9725     0.97250
   84          H           0.005815        0.9942     0.99419
   85          H           0.007223        0.9928     0.99278
   86          H           0.003094        0.9969     0.99691
   87          H           0.005603        0.9944     0.99440
   88          H           0.002367        0.9976     0.99763
   89          H           0.005806        0.9942     0.99419
   90          H           0.003006        0.9970     0.99699
   91          H           0.007220        0.9928     0.99278
   92          H           0.005910        0.9941     0.99409
   93          H           0.005253        0.9947     0.99475
   94          H           0.004938        0.9951     0.99506
   95          H           0.001738        0.9983     0.99826
   96          H           0.006640        0.9934     0.99336
   97          H           0.002424        0.9976     0.99758
   98          H           0.005034        0.9950     0.99497
   99          H           0.005399        0.9946     0.99460
  100          H           0.002364        0.9976     0.99764
  101          H           0.006678        0.9933     0.99332
  102          H           0.247786        0.7522     0.75221
 DIPOLE           X         Y         Z       TOTAL
 POINT-CHG.     6.380    -5.643    -4.933     9.843
 HYBRID         0.016    -1.040     0.961     1.416
 SUM            6.396    -6.682    -3.972    10.067


          ATOMIC ORBITAL ELECTRON POPULATIONS

     Atom    s        px        py        pz   
    1  C   1.05491   0.99087   0.98879   0.99323
    2  C   1.04471   0.99082   0.98517   0.98593
    3  C   1.05025   0.98954   0.98050   0.98749
    4  C   1.05088   0.99137   0.98055   0.98817
    5  C   1.05243   0.97237   0.98834   0.99091
    6  C   1.04937   0.99269   0.88697   0.99763
    7  N   1.27120   1.66957   1.11375   1.10757
    8  C   1.05369   0.98510   0.96093   0.92067
    9  C   1.07631   1.04719   0.94848   0.96141
   10  C   1.03918   1.00161   0.99092   0.95107
   11  C   1.07956   1.03238   0.95047   0.96901
   12  C   1.08067   0.99817   0.95108   0.98987
   13  C   1.04939   1.01393   0.97609   0.96573
   14  C   1.04525   1.04902   0.97541   0.95708
   15  C   1.05735   0.98036   0.96693   0.91583
   16  C   1.07673   1.07391   0.94693   0.95923
   17  C   1.05185   0.95017   0.99102   0.97621
   18  C   1.07853   1.05688   0.95823   0.96211
   19  C   1.08266   0.98913   0.94982   0.99552
   20  C   1.04703   0.98832   0.99035   0.96733
   21  C   1.08147   0.97580   0.99654   0.97999
   22  C   1.07940   0.96931   1.01394   0.97989
   23  C   1.04939   0.99536   0.99089   0.89432
   24  C   1.05155   0.99186   1.01209   0.96194
   25  C   1.07997   0.97368   1.00393   0.97391
   26  C   1.05125   0.97377   1.00693   0.98625
   27  C   1.08149   0.98741   1.01838   0.95189
   28  C   1.05959   0.96449   0.97758   0.98815
   29  C   1.08174   0.99307   1.01329   0.95706
   30  C   1.07987   0.99452   1.02165   0.94789
   31  C   1.04835   0.91156   0.97689   0.99768
   32  N   1.22749   1.24054   1.55495   1.11338
   33  C   1.03627   0.95112   0.99827   0.92947
   34  C   1.08221   0.97437   1.01268   0.96375
   35  C   1.08341   0.94970   1.01433   0.98764
   36  C   1.05896   0.97762   0.96552   0.97573
   37  C   1.08187   0.97560   1.01811   0.96402
   38  C   1.08266   0.95024   1.01394   0.98645
   39  C   0.99575   0.99501   0.98874   0.97939
   40  C   1.06169   0.97975   0.98594   0.99085
   41  C   1.06255   0.99021   0.98700   0.98165
   42  C   1.06170   0.98529   0.97955   0.99170
   43  C   0.99637   0.98174   0.98541   0.99646
   44  C   1.06289   0.98808   0.98611   0.98443
   45  C   1.06209   0.99094   0.98426   0.98116
   46  C   1.06215   0.98244   0.98535   0.98863
   47  C   1.10552   0.86702   0.89658   0.99907
   48  C   1.00278   1.05164   1.01584   0.90988
   49  C   1.04599   0.81457   0.70262   0.92967
   50  O   1.81508   1.44649   1.60141   1.73737
   51  O   1.68838   1.53872   1.74042   1.34101
   52  C   1.15165   0.88559   0.91644   0.83055
   53  N   1.75335   1.21093   1.20513   1.22711
   54  H   0.92714
   55  H   0.99227
   56  H   0.99983
   57  H   0.99204
   58  H   0.99347
   59  H   0.99376
   60  H   0.99285
   61  H   0.99242
   62  H   0.99108
   63  H   0.99178
   64  H   0.98919
   65  H   0.98779
   66  H   0.98015
   67  H   0.98002
   68  H   0.96430
   69  H   0.97275
   70  H   0.97242
   71  H   0.97169
   72  H   0.98172
   73  H   0.97543
   74  H   0.97928
   75  H   0.97293
   76  H   0.97447
   77  H   0.97581
   78  H   0.97884
   79  H   0.97350
   80  H   0.97247
   81  H   0.97654
   82  H   0.97544
   83  H   0.97250
   84  H   0.99419
   85  H   0.99278
   86  H   0.99691
   87  H   0.99440
   88  H   0.99763
   89  H   0.99419
   90  H   0.99699
   91  H   0.99278
   92  H   0.99409
   93  H   0.99475
   94  H   0.99506
   95  H   0.99826
   96  H   0.99336
   97  H   0.99758
   98  H   0.99497
   99  H   0.99460
  100  H   0.99764
  101  H   0.99332
  102  H   0.75221

 **********************
 *                    *
 * JOB ENDED NORMALLY *
 *                    *
 **********************



 TOTAL JOB TIME:           599.92 SECONDS

 == MOPAC DONE ==
