 *******************************************************************************
 ** Site#: 4824         For non-commercial use only    Version 21.013L 64BITS **
 *******************************************************************************
 ** Cite this program as: MOPAC2016, Version: 21.013L, James J. P. Stewart,   **
 ** Stewart Computational Chemistry, web: HTTP://OpenMOPAC.net. Days left:  84**
 *******************************************************************************
 **                                                                           **
 **                                MOPAC2016                                  **
 **                                                                           **
 *******************************************************************************

                              INDO CALCULATION RESULTS

 *******************************************************************************
 *  CALCULATION DONE:                                Thu Oct 21 15:52:13 2021  *
 *  INDO       - The INDO Hamiltonian to be used
 *  CIS        - C.I. USES 1 ELECTRON EXCITATIONS ONLY
 *  EPS=  8.93 - USE ANDREAS KLAMT'S COSMO IMPLICIT SOLVATION MODEL
 *  n**2 =  1.420 for COSMO-CI
 *  T=         - A TIME OF 172800.0 SECONDS REQUESTED
 *  DUMP=N     - RESTART FILE WRITTEN EVERY 7200.0 SECONDS REQUESTED
 *******************************************************************************
INDO CIS EPS=8.93 N**2=1.42
 Dye70
 Calculo de Estados Excitados
   ATOM   CHEMICAL          X               Y               Z
  NUMBER   SYMBOL      (ANGSTROMS)     (ANGSTROMS)     (ANGSTROMS)
 
     1       N          0.01748121  *  -0.37133293  *   1.07247660  *
     2       C          1.01194596  *  -0.20839806  *   0.50520143  *
     3       C          2.21993822  *   0.00893225  *  -0.20332056  *
     4       C          2.99700119  *  -0.99541907  *  -0.65344963  *
     5       C          2.71124795  *  -2.37982811  *  -0.41237622  *
     6       C          2.18030709  *  -2.92735094  *   0.72507059  *
     7       C          2.05482971  *  -4.34784385  *   0.62444233  *
     8       C          2.49518216  *  -4.81661566  *  -0.58380521  *
     9       S          3.06710768  *  -3.56233542  *  -1.59562682  *
    10       C          2.49967357  *  -6.17578001  *  -1.02054806  *
    11       C          3.50501166  *  -6.81026809  *  -1.69687835  *
    12       C          3.17994651  *  -8.17337419  *  -1.98445656  *
    13       C          1.94262078  *  -8.51452534  *  -1.51327107  *
    14       S          1.16542538  *  -7.20782560  *  -0.72466985  *
    15       C          1.31096948  *  -9.78992908  *  -1.62704202  *
    16       C          0.02469524  * -10.03443922  *  -2.01268507  *
    17       C         -0.29541562  * -11.42967363  *  -1.99177228  *
    18       C          0.77350030  * -12.18808303  *  -1.59729403  *
    19       S          2.17457590  * -11.22804092  *  -1.25647064  *
    20       N          0.82060583  * -13.57924276  *  -1.53701490  *
    21       C          0.23435004  * -14.43106982  *  -2.50231823  *
    22       C         -0.21874869  * -14.13041039  *  -3.78248615  *
    23       C         -0.69761396  * -15.17708431  *  -4.55338833  *
    24       C         -0.72960181  * -16.48858797  *  -4.04529718  *
    25       C         -0.27612978  * -16.79675339  *  -2.76129822  *
    26       C          0.21362182  * -15.75587016  *  -1.99269705  *
    27       C          0.75445662  * -15.70736912  *  -0.65592624  *
    28       C          1.08935618  * -14.35422576  *  -0.38404288  *
    29       C          1.61594686  * -13.96353233  *   0.84242881  *
    30       C          1.81299712  * -14.94690628  *   1.79800534  *
    31       C          1.50360870  * -16.29095316  *   1.52117044  *
    32       C          0.97338677  * -16.69011610  *   0.29285607  *
    33       N          1.73395242  * -17.26447463  *   2.52154637  *
    34       C          0.80460318  * -18.22471729  *   2.96894585  *
    35       C         -0.52003110  * -18.42206789  *   2.59043809  *
    36       C         -1.20692506  * -19.45254661  *   3.21372203  *
    37       C         -0.60325770  * -20.25650708  *   4.18597995  *
    38       C          0.71208414  * -20.04781006  *   4.57383047  *
    39       C          1.42333852  * -19.02572433  *   3.96684437  *
    40       C          2.76954925  * -18.53821621  *   4.13166357  *
    41       C          2.93869454  * -17.45477651  *   3.22708559  *
    42       C          4.14949291  * -16.77762576  *   3.11612237  *
    43       C          5.18111240  * -17.19025147  *   3.94543558  *
    44       C          5.02060468  * -18.24433124  *   4.85035221  *
    45       C          3.81813451  * -18.92908088  *   4.94801605  *
    46       N         -1.23388128  * -17.52613341  *  -4.86456632  *
    47       C         -2.47088268  * -17.51951793  *  -5.53881701  *
    48       C         -3.47024125  * -16.55100396  *  -5.55136883  *
    49       C         -4.60055151  * -16.82092291  *  -6.30749744  *
    50       C         -4.73921983  * -18.01473371  *  -7.02256547  *
    51       C         -3.74896079  * -18.98586920  *  -6.99636768  *
    52       C         -2.60800246  * -18.74311793  *  -6.24935729  *
    53       C         -1.41999436  * -19.51891840  *  -5.99650831  *
    54       C         -0.58757422  * -18.74746455  *  -5.14083784  *
    55       C          0.65892349  * -19.20595644  *  -4.72495828  *
    56       C          1.04711007  * -20.46218368  *  -5.16455333  *
    57       C          0.22980914  * -21.23592723  *  -5.99494003  *
    58       C         -1.00561259  * -20.77082168  *  -6.42092112  *
    59       C          2.60690244  *   1.40078743  *  -0.47378395  *
    60       O          3.58552225  *   1.77277077  *  -1.10546486  *
    61       O          1.76655864  *   2.31403308  *   0.05153178  *
    62       H          3.90131097  *  -0.77748773  *  -1.24320865  *
    63       H          1.90423717  *  -2.37991805  *   1.62476906  *
    64       H          1.65802620  *  -4.96205878  *   1.42974056  *
    65       H          4.45067635  *  -6.35830274  *  -1.98699757  *
    66       H          3.85223226  *  -8.83769486  *  -2.52247620  *
    67       H         -0.69679775  *  -9.27472771  *  -2.30579950  *
    68       H         -1.27880621  * -11.81411326  *  -2.25434592  *
    69       H         -0.18398988  * -13.11134565  *  -4.17550036  *
    70       H         -1.04311577  * -14.97729578  *  -5.57402787  *
    71       H         -0.30853890  * -17.81481525  *  -2.36221551  *
    72       H          1.85611886  * -12.91851952  *   1.05360923  *
    73       H          2.20404608  * -14.66680121  *   2.78272237  *
    74       H          0.74240134  * -17.73635916  *   0.07187920  *
    75       H         -1.00461039  * -17.78725908  *   1.84610694  *
    76       H         -2.24980695  * -19.64107962  *   2.93952648  *
    77       H         -1.18240598  * -21.06015664  *   4.64901953  *
    78       H          1.18456261  * -20.66822301  *   5.33933535  *
    79       H          4.28914670  * -15.96645783  *   2.39909549  *
    80       H          6.14774804  * -16.67973705  *   3.88896952  *
    81       H          5.86089394  * -18.53402300  *   5.48721921  *
    82       H          3.69157400  * -19.75906673  *   5.64751531  *
    83       H         -3.37765654  * -15.62476367  *  -4.98125654  *
    84       H         -5.40714195  * -16.08182595  *  -6.34400202  *
    85       H         -5.64715749  * -18.18418646  *  -7.60784908  *
    86       H         -3.85756694  * -19.92366742  *  -7.54675889  *
    87       H          1.31060198  * -18.60068309  *  -4.09182001  *
    88       H          2.01961669  * -20.85857330  *  -4.85563796  *
    89       H          0.57564607  * -22.22266445  *  -6.31496429  *
    90       H         -1.64336694  * -21.36907725  *  -7.07630580  *
    91       H          2.05865692  *   3.21449029  *  -0.15271369  *
 


          CARTESIAN COORDINATES 

    NO.       ATOM           X           Y           Z

     1         N          0.0175     -0.3713      1.0725
     2         C          1.0119     -0.2084      0.5052
     3         C          2.2199      0.0089     -0.2033
     4         C          2.9970     -0.9954     -0.6534
     5         C          2.7112     -2.3798     -0.4124
     6         C          2.1803     -2.9274      0.7251
     7         C          2.0548     -4.3478      0.6244
     8         C          2.4952     -4.8166     -0.5838
     9         S          3.0671     -3.5623     -1.5956
    10         C          2.4997     -6.1758     -1.0205
    11         C          3.5050     -6.8103     -1.6969
    12         C          3.1799     -8.1734     -1.9845
    13         C          1.9426     -8.5145     -1.5133
    14         S          1.1654     -7.2078     -0.7247
    15         C          1.3110     -9.7899     -1.6270
    16         C          0.0247    -10.0344     -2.0127
    17         C         -0.2954    -11.4297     -1.9918
    18         C          0.7735    -12.1881     -1.5973
    19         S          2.1746    -11.2280     -1.2565
    20         N          0.8206    -13.5792     -1.5370
    21         C          0.2344    -14.4311     -2.5023
    22         C         -0.2187    -14.1304     -3.7825
    23         C         -0.6976    -15.1771     -4.5534
    24         C         -0.7296    -16.4886     -4.0453
    25         C         -0.2761    -16.7968     -2.7613
    26         C          0.2136    -15.7559     -1.9927
    27         C          0.7545    -15.7074     -0.6559
    28         C          1.0894    -14.3542     -0.3840
    29         C          1.6159    -13.9635      0.8424
    30         C          1.8130    -14.9469      1.7980
    31         C          1.5036    -16.2910      1.5212
    32         C          0.9734    -16.6901      0.2929
    33         N          1.7340    -17.2645      2.5215
    34         C          0.8046    -18.2247      2.9689
    35         C         -0.5200    -18.4221      2.5904
    36         C         -1.2069    -19.4525      3.2137
    37         C         -0.6033    -20.2565      4.1860
    38         C          0.7121    -20.0478      4.5738
    39         C          1.4233    -19.0257      3.9668
    40         C          2.7695    -18.5382      4.1317
    41         C          2.9387    -17.4548      3.2271
    42         C          4.1495    -16.7776      3.1161
    43         C          5.1811    -17.1903      3.9454
    44         C          5.0206    -18.2443      4.8504
    45         C          3.8181    -18.9291      4.9480
    46         N         -1.2339    -17.5261     -4.8646
    47         C         -2.4709    -17.5195     -5.5388
    48         C         -3.4702    -16.5510     -5.5514
    49         C         -4.6006    -16.8209     -6.3075
    50         C         -4.7392    -18.0147     -7.0226
    51         C         -3.7490    -18.9859     -6.9964
    52         C         -2.6080    -18.7431     -6.2494
    53         C         -1.4200    -19.5189     -5.9965
    54         C         -0.5876    -18.7475     -5.1408
    55         C          0.6589    -19.2060     -4.7250
    56         C          1.0471    -20.4622     -5.1646
    57         C          0.2298    -21.2359     -5.9949
    58         C         -1.0056    -20.7708     -6.4209
    59         C          2.6069      1.4008     -0.4738
    60         O          3.5855      1.7728     -1.1055
    61         O          1.7666      2.3140      0.0515
    62         H          3.9013     -0.7775     -1.2432
    63         H          1.9042     -2.3799      1.6248
    64         H          1.6580     -4.9621      1.4297
    65         H          4.4507     -6.3583     -1.9870
    66         H          3.8522     -8.8377     -2.5225
    67         H         -0.6968     -9.2747     -2.3058
    68         H         -1.2788    -11.8141     -2.2543
    69         H         -0.1840    -13.1113     -4.1755
    70         H         -1.0431    -14.9773     -5.5740
    71         H         -0.3085    -17.8148     -2.3622
    72         H          1.8561    -12.9185      1.0536
    73         H          2.2040    -14.6668      2.7827
    74         H          0.7424    -17.7364      0.0719
    75         H         -1.0046    -17.7873      1.8461
    76         H         -2.2498    -19.6411      2.9395
    77         H         -1.1824    -21.0602      4.6490
    78         H          1.1846    -20.6682      5.3393
    79         H          4.2891    -15.9665      2.3991
    80         H          6.1477    -16.6797      3.8890
    81         H          5.8609    -18.5340      5.4872
    82         H          3.6916    -19.7591      5.6475
    83         H         -3.3777    -15.6248     -4.9813
    84         H         -5.4071    -16.0818     -6.3440
    85         H         -5.6472    -18.1842     -7.6078
    86         H         -3.8576    -19.9237     -7.5468
    87         H          1.3106    -18.6007     -4.0918
    88         H          2.0196    -20.8586     -4.8556
    89         H          0.5756    -22.2227     -6.3150
    90         H         -1.6434    -21.3691     -7.0763
    91         H          2.0587      3.2145     -0.1527

           Empirical Formula: C52 H30 N4 O2 S3  =    91 atoms



      MOLECULAR POINT GROUP   :   C1  


      RHF CALCULATION, NO. OF DOUBLY OCCUPIED LEVELS = 144

 WARNING: INDO only performs single-point calculations

 Summary of symmetry occupancy in each shell:

 SHELL     
    1  144
    v  130
 TOTAL 274




    ROOT NO.    1           2           3           4           5           6

           -48.90681   -48.58968   -48.11952   -46.79145   -43.63083   -43.28226
  
  
  S  N   1   0.00000    -0.00000     0.00001     0.04032     0.04057     0.00722
 PX  N   1   0.00000    -0.00000     0.00001     0.02090     0.01979     0.00349
 PY  N   1  -0.00000     0.00000    -0.00000     0.00726    -0.00300    -0.00045
 PZ  N   1  -0.00000     0.00000    -0.00000    -0.01191    -0.00993    -0.00177
  
  S  C   2   0.00001    -0.00000     0.00002     0.11473     0.07117     0.01252
 PX  C   2   0.00000    -0.00000     0.00001     0.03976     0.01382     0.00233
 PY  C   2  -0.00000     0.00000    -0.00000     0.02848    -0.01932    -0.00316
 PZ  C   2  -0.00000     0.00000    -0.00000    -0.02353    -0.00527    -0.00091
  
  S  C   3   0.00001    -0.00000     0.00003     0.22986     0.08344     0.01477
 PX  C   3   0.00000    -0.00000     0.00000     0.01693     0.00267     0.00049
 PY  C   3  -0.00000     0.00000    -0.00001     0.08066    -0.04852    -0.00801
 PZ  C   3   0.00000    -0.00000    -0.00000    -0.01249     0.00111     0.00014
  
  S  C   4   0.00002    -0.00000     0.00005     0.11731     0.14045     0.02365
 PX  C   4  -0.00000     0.00000    -0.00001    -0.02143    -0.02805    -0.00476
 PY  C   4  -0.00001     0.00000    -0.00002     0.04409    -0.04030    -0.00617
 PZ  C   4   0.00000    -0.00000     0.00001     0.01264     0.02251     0.00377
  
  S  C   5   0.00006    -0.00000     0.00014     0.05475     0.27746     0.04371
 PX  C   5  -0.00001     0.00000    -0.00001    -0.00358    -0.02588    -0.00404
 PY  C   5  -0.00002     0.00000    -0.00005     0.01459    -0.06452    -0.00898
 PZ  C   5   0.00001    -0.00000     0.00002     0.00504     0.03706     0.00589
  
  S  C   6   0.00007    -0.00000     0.00015     0.03667     0.27837     0.04312
 PX  C   6   0.00001    -0.00000     0.00002     0.00382     0.03080     0.00478
 PY  C   6  -0.00002     0.00000    -0.00005     0.00648    -0.04666    -0.00635
 PZ  C   6  -0.00002     0.00000    -0.00005    -0.01122    -0.09274    -0.01427
  
  S  C   7   0.00013    -0.00000     0.00028     0.02003     0.28296     0.04047
 PX  C   7   0.00002    -0.00000     0.00004     0.00294     0.04253     0.00613
 PY  C   7  -0.00002     0.00000    -0.00004     0.00701     0.04955     0.00919
 PZ  C   7  -0.00005     0.00000    -0.00010    -0.00562    -0.08991    -0.01241
  
  S  C   8   0.00030    -0.00000     0.00062     0.01737     0.32124     0.04031
 PX  C   8   0.00001    -0.00000     0.00001    -0.00052    -0.00662    -0.00124
 PY  C   8  -0.00013     0.00000    -0.00024     0.00669     0.03702     0.01036
 PZ  C   8  -0.00004     0.00000    -0.00007     0.00309     0.03167     0.00626
  
  S  S   9   0.00010    -0.00000     0.00022     0.01964     0.21102     0.03021
 PX  S   9  -0.00002     0.00000    -0.00004    -0.00399    -0.05062    -0.00742
 PY  S   9  -0.00005     0.00000    -0.00010     0.00466    -0.01612    -0.00037
 PZ  S   9   0.00004    -0.00000     0.00008     0.01047     0.11915     0.01779
  
  S  C  10   0.00103    -0.00001     0.00196     0.00623     0.30323     0.02024
 PX  C  10   0.00002     0.00000     0.00005     0.00014     0.01736     0.00089
 PY  C  10  -0.00045     0.00000    -0.00082     0.00207    -0.02730     0.00497
 PZ  C  10  -0.00016     0.00000    -0.00030     0.00072    -0.01434     0.00158
  
  S  C  11   0.00117    -0.00001     0.00219     0.00312     0.25764     0.01149
 PX  C  11  -0.00045     0.00000    -0.00084    -0.00099    -0.09065    -0.00363
 PY  C  11  -0.00034     0.00000    -0.00061     0.00050    -0.02468     0.00183
 PZ  C  11   0.00009    -0.00000     0.00018     0.00063     0.03459     0.00232
  
  S  C  12   0.00240    -0.00002     0.00421     0.00181     0.24268     0.00373
 PX  C  12  -0.00096     0.00001    -0.00166    -0.00043    -0.06537     0.00016
 PY  C  12  -0.00030     0.00001    -0.00044     0.00061     0.05543     0.00414
 PZ  C  12   0.00031    -0.00000     0.00057     0.00040     0.04865     0.00131
  
  S  C  13   0.00569    -0.00004     0.00944     0.00165     0.25706    -0.00406
 PX  C  13  -0.00119     0.00001    -0.00180     0.00036     0.03841     0.00421
 PY  C  13  -0.00222     0.00002    -0.00343     0.00059     0.04564     0.00759
 PZ  C  13  -0.00035     0.00001    -0.00057     0.00003    -0.00476     0.00090
  
  S  S  14   0.00187    -0.00001     0.00325     0.00237     0.19788     0.00587
 PX  S  14   0.00049    -0.00000     0.00092     0.00122     0.10668     0.00446
 PY  S  14  -0.00090     0.00001    -0.00149     0.00072    -0.00425     0.00442
 PZ  S  14  -0.00058     0.00000    -0.00101    -0.00028    -0.05109    -0.00034
  
  S  C  15   0.01994    -0.00015     0.03079     0.00057     0.18595    -0.02870
 PX  C  15  -0.00478     0.00008    -0.00728     0.00009    -0.00632     0.00805
 PY  C  15  -0.00805     0.00004    -0.01192     0.00020     0.00702     0.00960
 PZ  C  15  -0.00089     0.00006    -0.00139     0.00000    -0.00449     0.00218
  
  S  C  16   0.02349    -0.00038     0.03565     0.00028     0.14155    -0.03470
 PX  C  16   0.00549     0.00000     0.00857     0.00011     0.04523    -0.00782
 PY  C  16  -0.01016     0.00022    -0.01488     0.00002    -0.02211     0.01200
 PZ  C  16   0.00233     0.00005     0.00364     0.00003     0.01607    -0.00278
  
  S  C  17   0.05620    -0.00118     0.07925     0.00014     0.11762    -0.04713
 PX  C  17   0.01823    -0.00004     0.02632     0.00005     0.04444    -0.01326
 PY  C  17  -0.02174     0.00048    -0.02831     0.00005     0.01957     0.00314
 PZ  C  17   0.00552     0.00033     0.00813     0.00001     0.01145    -0.00020
  
  S  C  18   0.12391    -0.00019     0.16925     0.00009     0.11152    -0.04165
 PX  C  18  -0.00805     0.00076    -0.01103    -0.00000    -0.00953     0.01205
 PY  C  18  -0.06157    -0.00021    -0.08009     0.00009     0.03706    -0.00549
 PZ  C  18   0.00024     0.00122    -0.00005    -0.00001    -0.00812     0.01514
  
  S  S  19   0.03444     0.00044     0.04914     0.00020     0.10145    -0.01828
 PX  S  19  -0.01922    -0.00007    -0.02779    -0.00007    -0.05216     0.01336
 PY  S  19  -0.01310    -0.00040    -0.01713     0.00011     0.02856    -0.00543
 PZ  S  19  -0.00376     0.00028    -0.00589    -0.00003    -0.01915     0.00730
  
  S  N  20   0.29806     0.00085     0.38737    -0.00008     0.03307    -0.02147
 PX  N  20  -0.02358     0.00177    -0.03038     0.00001    -0.00320     0.01935
 PY  N  20  -0.05978    -0.00025    -0.07016     0.00004     0.02766    -0.00914
 PZ  N  20   0.00840     0.00454     0.01025    -0.00001    -0.00569     0.04406
  
  S  C  21   0.24713    -0.02522     0.28393    -0.00008    -0.00739    -0.17399
 PX  C  21   0.02687     0.00599     0.04270    -0.00001     0.00272     0.03318
 PY  C  21  -0.00890     0.00992     0.00848     0.00001     0.02250     0.04141
 PZ  C  21   0.06927     0.01096     0.10154    -0.00003     0.00076     0.06574
  
  S  C  22   0.11514    -0.03430     0.10299    -0.00003    -0.00479    -0.20423
 PX  C  22   0.00964     0.00283     0.01765    -0.00000     0.00210     0.00334
 PY  C  22  -0.03119     0.01740    -0.01375     0.00001     0.01255     0.07872
 PZ  C  22   0.03940    -0.00099     0.05175    -0.00001     0.00213    -0.02625
  
  S  C  23   0.11169    -0.07739     0.02445    -0.00002    -0.01698    -0.22402
 PX  C  23   0.00622     0.00460     0.01702    -0.00001    -0.00191    -0.02469
 PY  C  23  -0.02795     0.03479     0.02170     0.00000     0.00471     0.02843
 PZ  C  23   0.03212    -0.00844     0.03096    -0.00001    -0.00659    -0.07722
  
  S  C  24   0.17542    -0.16170    -0.03527    -0.00002    -0.02392    -0.25203
 PX  C  24  -0.00720     0.02239     0.02877    -0.00001    -0.00268    -0.01812
 PY  C  24  -0.01756     0.04588     0.05659    -0.00001    -0.00353    -0.04259
 PZ  C  24  -0.01079     0.03651     0.04766    -0.00001    -0.00485    -0.02775
  
  S  C  25   0.13344    -0.07437     0.04811    -0.00004    -0.02774    -0.19249
 PX  C  25   0.00019     0.01230     0.01892    -0.00000    -0.00155     0.00937
 PY  C  25   0.03745    -0.00177     0.04820    -0.00002    -0.00905    -0.07069
 PZ  C  25  -0.01983     0.03649     0.02932    -0.00000     0.00039     0.05535
  
  S  C  26   0.21502    -0.02622     0.21978    -0.00009    -0.03689    -0.12875
 PX  C  26   0.01569     0.00848     0.02830    -0.00001    -0.00102     0.04240
 PY  C  26   0.06456     0.00267     0.09046    -0.00003     0.00000    -0.00854
 PZ  C  26   0.01117     0.02088     0.03241    -0.00001    -0.00194     0.10979
  
  S  C  27   0.21381     0.02862     0.21870    -0.00009    -0.05201     0.16792
 PX  C  27   0.00115     0.00793    -0.00458     0.00000    -0.00409     0.04749
 PY  C  27   0.06287    -0.00070     0.08677    -0.00003    -0.00205     0.01348
 PZ  C  27  -0.02362     0.02125    -0.04930     0.00001    -0.00909     0.11472
  
  S  C  28   0.24253     0.02735     0.27801    -0.00009    -0.02981     0.18537
 PX  C  28  -0.02914     0.00317    -0.04048     0.00001    -0.00141     0.02381
 PY  C  28  -0.01589    -0.00956    -0.00202     0.00001     0.02424    -0.05982
 PZ  C  28  -0.06835     0.01237    -0.10361     0.00003    -0.01234     0.08670
  
  S  C  29   0.11082     0.03559     0.09758    -0.00004    -0.03052     0.22290
 PX  C  29  -0.01776    -0.00192    -0.02117     0.00001     0.00262    -0.01867
 PY  C  29  -0.03435    -0.01804    -0.01840     0.00001     0.01962    -0.09668
 PZ  C  29  -0.03210     0.00194    -0.04674     0.00001    -0.00110    -0.00794
  
  S  C  30   0.10910     0.07934     0.02297    -0.00002    -0.04114     0.25699
 PX  C  30  -0.01318    -0.00467    -0.01095     0.00001     0.00645    -0.03671
 PY  C  30  -0.03023    -0.03645     0.01890     0.00000     0.00776    -0.04184
 PZ  C  30  -0.02646    -0.00256    -0.03371     0.00001     0.01418    -0.08240
  
  S  C  31   0.17195     0.16533    -0.03525    -0.00002    -0.04910     0.29441
 PX  C  31   0.00253     0.01047    -0.01362     0.00000     0.00260    -0.00873
 PY  C  31  -0.01637    -0.04380     0.05198    -0.00001    -0.00836     0.04553
 PZ  C  31   0.01329     0.04504    -0.05658     0.00001     0.00999    -0.04196
  
  S  C  32   0.13164     0.07669     0.04755    -0.00004    -0.04797     0.23261
 PX  C  32   0.00926     0.01297    -0.00636    -0.00000    -0.00358     0.03068
 PY  C  32   0.03859     0.00521     0.04502    -0.00002    -0.01732     0.08740
 PZ  C  32   0.01250     0.03662    -0.03760     0.00001    -0.00263     0.04560
  
  S  N  33   0.26141     0.34897    -0.22047     0.00002    -0.01417     0.11417
 PX  N  33   0.00609     0.01068    -0.00943     0.00000     0.00266    -0.01234
 PY  N  33  -0.02579    -0.04374     0.03840    -0.00001    -0.00998     0.05967
 PZ  N  33   0.02481     0.04294    -0.03812     0.00001     0.01047    -0.05973
  
  S  C  34   0.18830     0.26232    -0.17885     0.00002     0.00991    -0.05818
 PX  C  34   0.06173     0.08672    -0.05947     0.00001    -0.00004     0.01332
 PY  C  34   0.02474     0.03007    -0.01545    -0.00000    -0.00859     0.06198
 PZ  C  34   0.00500     0.01171    -0.01306     0.00000     0.00816    -0.05207
  
  S  C  35   0.07744     0.10669    -0.07211     0.00001     0.00777    -0.06109
 PX  C  35   0.03423     0.04720    -0.03166     0.00000     0.00081    -0.00428
 PY  C  35   0.00093    -0.00140     0.00389    -0.00000    -0.00534     0.03760
 PZ  C  35   0.01288     0.02071    -0.01696     0.00000     0.00548    -0.03703
  
  S  C  36   0.04498     0.06532    -0.04786     0.00001     0.01260    -0.09435
 PX  C  36   0.02160     0.03144    -0.02304     0.00000     0.00534    -0.03870
 PY  C  36   0.00658     0.00889    -0.00583     0.00000     0.00022    -0.00215
 PZ  C  36   0.00328     0.00547    -0.00469     0.00000     0.00216    -0.01495
  
  S  C  37   0.04232     0.06271    -0.04720     0.00001     0.01442    -0.10558
 PX  C  37   0.01257     0.01862    -0.01399     0.00000     0.00371    -0.02594
 PY  C  37   0.01567     0.02300    -0.01706     0.00000     0.00432    -0.03121
 PZ  C  37  -0.00848    -0.01236     0.00908    -0.00000    -0.00221     0.01638
  
  S  C  38   0.05866     0.08673    -0.06492     0.00001     0.01712    -0.11967
 PX  C  38   0.00186     0.00259    -0.00170     0.00000    -0.00099     0.01022
 PY  C  38   0.02255     0.03295    -0.02418     0.00000     0.00456    -0.03023
 PZ  C  38  -0.01939    -0.02836     0.02090    -0.00000    -0.00451     0.03146
  
  S  C  39   0.14698     0.21235    -0.15309     0.00002     0.02244    -0.14042
 PX  C  39   0.01136     0.01608    -0.01106     0.00000    -0.00109     0.01557
 PY  C  39   0.04555     0.06403    -0.04406     0.00001     0.00056     0.00425
 PZ  C  39  -0.03583    -0.05025     0.03453    -0.00000    -0.00090     0.00258
  
  S  C  40   0.14681     0.21245    -0.15336     0.00002     0.02333    -0.13368
 PX  C  40  -0.02962    -0.04150     0.02841    -0.00000     0.00135    -0.01013
 PY  C  40   0.03044     0.04284    -0.02953     0.00000     0.00143    -0.00380
 PZ  C  40  -0.04101    -0.05766     0.03970    -0.00000    -0.00079    -0.00042
  
  S  C  41   0.18772     0.26259    -0.17956     0.00002     0.01127    -0.04863
 PX  C  41  -0.06301    -0.08613     0.05656    -0.00001     0.00442    -0.03498
 PY  C  41  -0.02019    -0.03230     0.02669    -0.00000    -0.00748     0.04569
 PZ  C  41  -0.00976    -0.00929     0.00144     0.00000     0.00841    -0.05459
  
  S  C  42   0.07660     0.10703    -0.07310     0.00001     0.00941    -0.04976
 PX  C  42  -0.02940    -0.03958     0.02529    -0.00000     0.00157    -0.01401
 PY  C  42  -0.02055    -0.03086     0.02349    -0.00000    -0.00562     0.03301
 PZ  C  42   0.00690     0.01198    -0.01082     0.00000     0.00558    -0.03453
  
  S  C  43   0.04463     0.06550    -0.04836     0.00001     0.01401    -0.08386
 PX  C  43  -0.02103    -0.03059     0.02226    -0.00000    -0.00513     0.02980
 PY  C  43  -0.00839    -0.01282     0.01002    -0.00000    -0.00354     0.02169
 PZ  C  43  -0.00133    -0.00142     0.00045     0.00000     0.00098    -0.00670
  
  S  C  44   0.04212     0.06283    -0.04752     0.00001     0.01571    -0.09573
 PX  C  44  -0.01739    -0.02581     0.01937    -0.00000    -0.00541     0.03247
 PY  C  44   0.00477     0.00696    -0.00508     0.00000     0.00132    -0.00762
 PZ  C  44  -0.01207    -0.01782     0.01325    -0.00000    -0.00362     0.02148
  
  S  C  45   0.05850     0.08683    -0.06519     0.00001     0.01826    -0.11090
 PX  C  45  -0.01145    -0.01660     0.01199    -0.00000    -0.00103     0.00560
 PY  C  45   0.01753     0.02583    -0.01916     0.00000     0.00486    -0.02861
 PZ  C  45  -0.02109    -0.03096     0.02284    -0.00000    -0.00491     0.02875
  
  S  N  46   0.26727    -0.34255    -0.22368     0.00002    -0.00691    -0.09765
 PX  N  46  -0.01326     0.02204     0.02016    -0.00000    -0.00293    -0.02441
 PY  N  46  -0.02759     0.04505     0.04101    -0.00001    -0.00496    -0.05486
 PZ  N  46  -0.02117     0.03512     0.03211    -0.00001    -0.00438    -0.04134
  
  S  C  47   0.19202    -0.25789    -0.18226     0.00002     0.00636     0.03987
 PX  C  47   0.05760    -0.07429    -0.04887     0.00000    -0.00342    -0.03970
 PY  C  47  -0.03427     0.05005     0.04006    -0.00001    -0.00353    -0.03746
 PZ  C  47   0.01373    -0.01488    -0.00636    -0.00000    -0.00359    -0.03935
  
  S  C  48   0.07835    -0.10509    -0.07417     0.00001     0.00556     0.04068
 PX  C  48   0.02362    -0.02965    -0.01851     0.00000    -0.00149    -0.01964
 PY  C  48  -0.02878     0.04062     0.03101    -0.00000    -0.00312    -0.02814
 PZ  C  48  -0.00325     0.00628     0.00668    -0.00000    -0.00238    -0.02411
  
  S  C  49   0.04566    -0.06434    -0.04909     0.00001     0.00770     0.06989
 PX  C  49   0.01874    -0.02600    -0.01935     0.00000     0.00225     0.01929
 PY  C  49  -0.01338     0.01934     0.01531    -0.00000    -0.00257    -0.02454
 PZ  C  49   0.00293    -0.00368    -0.00230     0.00000    -0.00014    -0.00241
  
  S  C  50   0.04310    -0.06172    -0.04825     0.00001     0.00847     0.08011
 PX  C  50   0.01887    -0.02686    -0.02079     0.00000     0.00306     0.02854
 PY  C  50   0.00221    -0.00301    -0.00218     0.00000     0.00031     0.00210
 PZ  C  50   0.01149    -0.01629    -0.01254     0.00000     0.00184     0.01681
  
  S  C  51   0.05985    -0.08530    -0.06618     0.00001     0.00965     0.09320
 PX  C  51   0.01656    -0.02315    -0.01743     0.00000     0.00117     0.01157
 PY  C  51   0.01769    -0.02508    -0.01929     0.00000     0.00283     0.02549
 PZ  C  51   0.01837    -0.02587    -0.01970     0.00000     0.00214     0.01984
  
  S  C  52   0.15018    -0.20866    -0.15569     0.00002     0.01202     0.11291
 PX  C  52   0.03853    -0.05188    -0.03677     0.00000    -0.00076    -0.00692
 PY  C  52   0.02896    -0.03916    -0.02794     0.00000     0.00118     0.00463
 PZ  C  52   0.03641    -0.04914    -0.03497     0.00000     0.00023    -0.00088
  
  S  C  53   0.15032    -0.20852    -0.15541     0.00002     0.01055     0.12091
 PX  C  53   0.00158    -0.00203    -0.00145     0.00000     0.00024     0.01287
 PY  C  53   0.05334    -0.07201    -0.05121     0.00001     0.00039    -0.00686
 PZ  C  53   0.02832    -0.03811    -0.02706     0.00000     0.00028     0.00311
  
  S  C  54   0.19254    -0.25756    -0.18154     0.00002     0.00411     0.05122
 PX  C  54  -0.05504     0.07554     0.05502    -0.00001    -0.00141    -0.00318
 PY  C  54   0.03914    -0.04765    -0.02793     0.00000    -0.00445    -0.06121
 PZ  C  54  -0.00973     0.01690     0.01612    -0.00000    -0.00330    -0.03488
  
  S  C  55   0.07912    -0.10470    -0.07319     0.00001     0.00286     0.05415
 PX  C  55  -0.03409     0.04590     0.03268    -0.00000    -0.00094    -0.01299
 PY  C  55   0.00754    -0.00699    -0.00148    -0.00000    -0.00275    -0.03516
 PZ  C  55  -0.01344     0.02020     0.01657    -0.00000    -0.00212    -0.02614
  
  S  C  56   0.04597    -0.06411    -0.04858     0.00001     0.00538     0.08234
 PX  C  56  -0.01983     0.02790     0.02134    -0.00000    -0.00228    -0.03259
 PY  C  56   0.01140    -0.01518    -0.01073     0.00000     0.00043     0.00827
 PZ  C  56  -0.00458     0.00697     0.00584    -0.00000    -0.00102    -0.01326
  
  S  C  57   0.04326    -0.06156    -0.04791     0.00001     0.00636     0.09177
 PX  C  57  -0.00817     0.01169     0.00914    -0.00000    -0.00113    -0.01453
 PY  C  57   0.01990    -0.02809    -0.02157     0.00000     0.00238     0.03386
 PZ  C  57   0.00581    -0.00810    -0.00613     0.00000     0.00060     0.00947
  
  S  C  58   0.05997    -0.08514    -0.06588     0.00001     0.00778     0.10358
 PX  C  58   0.00456    -0.00652    -0.00515     0.00000     0.00089     0.01626
 PY  C  58   0.02570    -0.03603    -0.02730     0.00000     0.00225     0.02710
 PZ  C  58   0.01572    -0.02209    -0.01684     0.00000     0.00163     0.02269
  
  S  C  59   0.00001    -0.00000     0.00003     0.51321    -0.02955    -0.00410
 PX  C  59  -0.00000     0.00000    -0.00000    -0.00243     0.00273     0.00056
 PY  C  59  -0.00000     0.00000     0.00000     0.13844    -0.04341    -0.00738
 PZ  C  59   0.00000    -0.00000     0.00000    -0.00041    -0.00085    -0.00021
  
  S  O  60   0.00001    -0.00000     0.00002     0.41109    -0.03313    -0.00483
 PX  O  60  -0.00000     0.00000    -0.00001    -0.14572     0.01374     0.00208
 PY  O  60  -0.00000     0.00000    -0.00000    -0.02922    -0.00483    -0.00095
 PZ  O  60   0.00000    -0.00000     0.00000     0.09371    -0.00865    -0.00131
  
  S  O  61   0.00001    -0.00000     0.00003     0.57173    -0.07721    -0.01255
 PX  O  61   0.00000    -0.00000     0.00001     0.13961    -0.01891    -0.00306
 PY  O  61  -0.00000     0.00000    -0.00000    -0.04194    -0.00146    -0.00037
 PZ  O  61  -0.00000     0.00000    -0.00000    -0.08924     0.01223     0.00198
  
  S  H  62   0.00001    -0.00000     0.00002     0.05134     0.04346     0.00738
  
  S  H  63   0.00002    -0.00000     0.00004     0.01627     0.08207     0.01301
  
  S  H  64   0.00005    -0.00000     0.00011     0.00513     0.08281     0.01132
  
  S  H  65   0.00028    -0.00000     0.00054     0.00116     0.07641     0.00419
  
  S  H  66   0.00097    -0.00001     0.00165     0.00045     0.06874     0.00016
  
  S  H  67   0.00562    -0.00012     0.00864     0.00011     0.04435    -0.00962
  
  S  H  68   0.02391    -0.00099     0.03238     0.00003     0.03192    -0.01959
  
  S  H  69   0.03563    -0.00826     0.03644    -0.00000     0.00567    -0.05804
  
  S  H  70   0.03751    -0.03383    -0.00540    -0.00000    -0.00427    -0.06465
  
  S  H  71   0.04604    -0.03068     0.00417    -0.00001    -0.00933    -0.04784
  
  S  H  72   0.03310     0.00855     0.03299    -0.00001    -0.00350     0.05799
  
  S  H  73   0.03659     0.03456    -0.00566    -0.00000    -0.01112     0.07392
  
  S  H  74   0.04550     0.03162     0.00422    -0.00001    -0.01427     0.06054
  
  S  H  75   0.02867     0.03569    -0.02051     0.00000    -0.00091     0.00026
  
  S  H  76   0.01042     0.01506    -0.01100     0.00000     0.00322    -0.02481
  
  S  H  77   0.00955     0.01428    -0.01089     0.00000     0.00390    -0.02897
  
  S  H  78   0.01580     0.02355    -0.01784     0.00000     0.00527    -0.03656
  
  S  H  79   0.02780     0.03598    -0.02145     0.00000    -0.00020     0.00457
  
  S  H  80   0.01031     0.01512    -0.01115     0.00000     0.00362    -0.02187
  
  S  H  81   0.00951     0.01431    -0.01097     0.00000     0.00425    -0.02630
  
  S  H  82   0.01577     0.02357    -0.01789     0.00000     0.00555    -0.03445
  
  S  H  83   0.02841    -0.03529    -0.02172     0.00000     0.00029    -0.00450
  
  S  H  84   0.01055    -0.01485    -0.01132     0.00000     0.00201     0.01821
  
  S  H  85   0.00973    -0.01406    -0.01114     0.00000     0.00229     0.02201
  
  S  H  86   0.01613    -0.02315    -0.01816     0.00000     0.00289     0.02905
  
  S  H  87   0.02925    -0.03500    -0.02081     0.00000    -0.00090     0.00060
  
  S  H  88   0.01065    -0.01478    -0.01116     0.00000     0.00135     0.02169
  
  S  H  89   0.00976    -0.01402    -0.01106     0.00000     0.00172     0.02517
  
  S  H  90   0.01615    -0.02311    -0.01810     0.00000     0.00244     0.03154
  
  S  H  91   0.00000    -0.00000     0.00001     0.24056    -0.03489    -0.00571




    ROOT NO.    7           8           9          10          11          12

           -42.99775   -42.89645   -42.89520   -42.41934   -41.55431   -40.96378
  
  
  S  N   1  -0.04076    -0.00406     0.00078    -0.04515     0.04420     0.00319
 PX  N   1  -0.01952    -0.00194     0.00037    -0.02122     0.02014     0.00142
 PY  N   1   0.00221     0.00021    -0.00004     0.00170    -0.00066    -0.00000
 PZ  N   1   0.00999     0.00100    -0.00019     0.01106    -0.01076    -0.00077
  
  S  C   2  -0.06994    -0.00695     0.00133    -0.07550     0.07041     0.00488
 PX  C   2  -0.01248    -0.00122     0.00023    -0.01214     0.00903     0.00050
 PY  C   2   0.01661     0.00162    -0.00031     0.01590    -0.01233    -0.00075
 PZ  C   2   0.00495     0.00049    -0.00009     0.00497    -0.00384    -0.00022
  
  S  C   3  -0.08273    -0.00822     0.00157    -0.08940     0.08293     0.00573
 PX  C   3  -0.00280    -0.00028     0.00005    -0.00318     0.00333     0.00028
 PY  C   3   0.04257     0.00415    -0.00080     0.04154    -0.03305    -0.00204
 PZ  C   3  -0.00059    -0.00005     0.00001    -0.00018    -0.00056    -0.00009
  
  S  C   4  -0.12745    -0.01250     0.00239    -0.12764     0.10556     0.00672
 PX  C   4   0.02583     0.00254    -0.00049     0.02625    -0.02220    -0.00143
 PY  C   4   0.03046     0.00289    -0.00055     0.02448    -0.01157    -0.00026
 PZ  C   4  -0.02022    -0.00198     0.00038    -0.02004     0.01626     0.00101
  
  S  C   5  -0.22232    -0.02133     0.00408    -0.19537     0.12609     0.00633
 PX  C   5   0.02033     0.00194    -0.00037     0.01738    -0.01043    -0.00047
 PY  C   5   0.04014     0.00365    -0.00070     0.02355     0.00122     0.00100
 PZ  C   5  -0.03010    -0.00289     0.00055    -0.02661     0.01698     0.00082
  
  S  C   6  -0.21588    -0.02059     0.00394    -0.18238     0.10720     0.00476
 PX  C   6  -0.02401    -0.00229     0.00044    -0.02036     0.01203     0.00054
 PY  C   6   0.02770     0.00249    -0.00048     0.01486     0.00307     0.00084
 PZ  C   6   0.07104     0.00676    -0.00129     0.05911    -0.03357    -0.00143
  
  S  C   7  -0.18834    -0.01746     0.00334    -0.13253     0.04843     0.00073
 PX  C   7  -0.02870    -0.00267     0.00051    -0.02053     0.00785     0.00014
 PY  C   7  -0.05214    -0.00518     0.00099    -0.05458     0.04159     0.00218
 PZ  C   7   0.05571     0.00509    -0.00097     0.03522    -0.00797     0.00023
  
  S  C   8  -0.16315    -0.01424     0.00272    -0.07036    -0.02425    -0.00378
 PX  C   8   0.00707     0.00070    -0.00013     0.00724    -0.00506    -0.00023
 PY  C   8  -0.06993    -0.00727     0.00139    -0.08823     0.07514     0.00402
 PZ  C   8  -0.03648    -0.00365     0.00070    -0.03874     0.02816     0.00134
  
  S  S   9  -0.14089    -0.01308     0.00250    -0.10041     0.03994     0.00095
 PX  S   9   0.03534     0.00331    -0.00063     0.02638    -0.01149    -0.00031
 PY  S   9  -0.00700    -0.00097     0.00019    -0.02185     0.02922     0.00201
 PZ  S   9  -0.08616    -0.00811     0.00155    -0.06708     0.03258     0.00109
  
  S  C  10   0.00110     0.00345    -0.00067     0.16256    -0.22279    -0.01391
 PX  C  10   0.00311     0.00056    -0.00011     0.01597    -0.02179    -0.00140
 PY  C  10  -0.05782    -0.00654     0.00125    -0.09480     0.08138     0.00397
 PZ  C  10  -0.02194    -0.00254     0.00049    -0.03922     0.03656     0.00191
  
  S  C  11   0.04984     0.00822    -0.00158     0.20743    -0.24474    -0.01439
 PX  C  11  -0.02060    -0.00320     0.00062    -0.07562     0.08530     0.00488
 PY  C  11  -0.02859    -0.00331     0.00064    -0.04933     0.03995     0.00178
 PZ  C  11   0.00028     0.00042    -0.00008     0.01944    -0.02714    -0.00172
  
  S  C  12   0.09703     0.01275    -0.00245     0.23422    -0.21494    -0.01068
 PX  C  12  -0.03300    -0.00406     0.00078    -0.06352     0.04478     0.00166
 PY  C  12   0.00203     0.00103    -0.00020     0.04820    -0.07778    -0.00523
 PZ  C  12   0.01596     0.00222    -0.00043     0.04540    -0.04636    -0.00247
  
  S  C  13   0.14837     0.01756    -0.00337     0.24541    -0.13606    -0.00322
 PX  C  13  -0.00454     0.00028    -0.00006     0.04039    -0.07745    -0.00537
 PY  C  13  -0.02131    -0.00114     0.00022     0.04376    -0.11288    -0.00842
 PZ  C  13  -0.00744    -0.00077     0.00015    -0.00612    -0.00294    -0.00040
  
  S  S  14   0.05486     0.00777    -0.00149     0.15657    -0.14827    -0.00752
 PX  S  14   0.02289     0.00363    -0.00070     0.08767    -0.10002    -0.00573
 PY  S  14  -0.03345    -0.00340     0.00065    -0.02875    -0.00544    -0.00155
 PZ  S  14  -0.02355    -0.00300     0.00058    -0.05171     0.04423     0.00208
  
  S  C  15   0.24524     0.02452    -0.00470     0.14751     0.18524     0.02062
 PX  C  15  -0.04203    -0.00366     0.00070     0.00613    -0.08200    -0.00590
 PY  C  15  -0.04590    -0.00362     0.00070     0.02695    -0.11104    -0.00831
 PZ  C  15  -0.01049    -0.00098     0.00018    -0.00225    -0.01514    -0.00067
  
  S  C  16   0.23826     0.02292    -0.00436     0.09241     0.25635     0.02131
 PX  C  16   0.06721     0.00662    -0.00127     0.03378     0.06044     0.00693
 PY  C  16  -0.06190    -0.00551     0.00104    -0.00028    -0.09117    -0.00522
 PZ  C  16   0.02648     0.00257    -0.00050     0.01084     0.02678     0.00337
  
  S  C  17   0.24296     0.02208    -0.00413     0.02984     0.27440     0.01206
 PX  C  17   0.09063     0.00835    -0.00159     0.01295     0.09915     0.00873
 PY  C  17   0.02219     0.00274    -0.00057     0.03760     0.04209     0.00958
 PZ  C  17   0.02543     0.00235    -0.00049     0.00133     0.02590     0.00591
  
  S  C  18   0.26764     0.02305    -0.00450    -0.03910     0.24505     0.02069
 PX  C  18  -0.02153    -0.00191     0.00025     0.00136    -0.02699     0.00705
 PY  C  18   0.03869     0.00488    -0.00086     0.08110     0.09861     0.00726
 PZ  C  18  -0.01280    -0.00126     0.00001    -0.00468    -0.02039     0.01193
  
  S  S  19   0.17892     0.01670    -0.00329     0.04790     0.17073     0.02290
 PX  S  19  -0.10493    -0.00967     0.00189    -0.01857    -0.11642    -0.01247
 PY  S  19   0.02103     0.00271    -0.00045     0.04193     0.01321    -0.00227
 PZ  S  19  -0.03363    -0.00325     0.00060    -0.00993    -0.03578    -0.00066
  
  S  N  20   0.16767     0.01229    -0.00261    -0.18566     0.01070     0.00856
 PX  N  20  -0.00913    -0.00078    -0.00017     0.01280    -0.00122     0.01725
 PY  N  20   0.05532     0.00469    -0.00092     0.01859     0.08798     0.00640
 PZ  N  20   0.00006    -0.00028    -0.00099    -0.00462    -0.01360     0.04168
  
  S  C  21  -0.03778    -0.00425     0.00536    -0.04157    -0.05031    -0.14867
 PX  C  21   0.03403     0.00330    -0.00127    -0.04033    -0.00981     0.02894
 PY  C  21   0.09016     0.00623    -0.00354    -0.05302     0.04408     0.04025
 PZ  C  21   0.05527     0.00565    -0.00248    -0.07774    -0.03275     0.05750
  
  S  C  22  -0.08628    -0.01287     0.00439     0.05771     0.00728    -0.17039
 PX  C  22   0.01255     0.00284     0.00087    -0.01445    -0.00167    -0.00008
 PY  C  22   0.07012     0.00765    -0.00270    -0.04522     0.01578     0.06041
 PZ  C  22   0.00701     0.00236     0.00184    -0.01732    -0.00498    -0.02559
  
  S  C  23  -0.15035    -0.02797    -0.00008     0.12675     0.02104    -0.12061
 PX  C  23  -0.01403     0.00474     0.00512     0.00573    -0.00642    -0.03212
 PY  C  23   0.03265     0.00554     0.00015    -0.03491    -0.01470    -0.03069
 PZ  C  23  -0.04943    -0.00145     0.00523     0.03124    -0.00829    -0.06846
  
  S  C  24  -0.19896    -0.01678     0.01272     0.18623     0.05748    -0.01810
 PX  C  24  -0.01214     0.01152     0.00925    -0.00180    -0.01814    -0.05053
 PY  C  24  -0.01845    -0.01409    -0.00736    -0.00378    -0.03145    -0.10831
 PZ  C  24  -0.01966     0.00658     0.00629    -0.00305    -0.03168    -0.08008
  
  S  C  25  -0.17022     0.00148     0.01877     0.12398    -0.01391    -0.09433
 PX  C  25   0.00307     0.00233     0.00056    -0.01161    -0.01549    -0.01448
 PY  C  25  -0.04960    -0.00992    -0.00102     0.02279    -0.02269    -0.07201
 PZ  C  25   0.03180    -0.00071    -0.00614    -0.04039    -0.02902    -0.00468
  
  S  C  26  -0.13345    -0.00544     0.00793     0.03134    -0.09911    -0.11357
 PX  C  26   0.02062     0.00157    -0.00191    -0.02638    -0.01393     0.02975
 PY  C  26   0.02087    -0.00202    -0.00156    -0.04705    -0.02472    -0.01318
 PZ  C  26   0.04420     0.00309    -0.00591    -0.04564    -0.02233     0.08038
  
  S  C  27  -0.09065    -0.00453    -0.00595     0.02997    -0.10366     0.09821
 PX  C  27  -0.00272    -0.00154    -0.00084     0.01329     0.00453     0.03352
 PY  C  27   0.02000    -0.00148     0.00145    -0.04343    -0.02650     0.01920
 PZ  C  27  -0.01489    -0.00213    -0.00503     0.05298     0.02456     0.07688
  
  S  C  28   0.00291    -0.00292    -0.00420    -0.04175    -0.07017     0.14453
 PX  C  28  -0.00893    -0.00162     0.00032     0.02551     0.01340     0.01881
 PY  C  28   0.06382     0.00485     0.00112    -0.04554     0.03886    -0.02686
 PZ  C  28  -0.04697    -0.00552    -0.00053     0.08647     0.02332     0.06025
  
  S  C  29  -0.03538    -0.00990    -0.00005     0.05693    -0.01327     0.16565
 PX  C  29  -0.00012    -0.00069     0.00182     0.00246     0.00554    -0.01537
 PY  C  29   0.03930     0.00577     0.00006    -0.04265     0.01349    -0.05686
 PZ  C  29  -0.01642    -0.00276     0.00266     0.02465     0.00965    -0.01595
  
  S  C  30  -0.07964    -0.02098     0.00941     0.12445     0.01977     0.11521
 PX  C  30   0.01207    -0.00209     0.00580    -0.01441     0.00299    -0.02223
 PY  C  30   0.02132     0.00499    -0.00280    -0.03643    -0.02222     0.02470
 PZ  C  30   0.02297     0.00054     0.00510    -0.02459     0.01659    -0.06975
  
  S  C  31  -0.11161    -0.01335    -0.00645     0.18272     0.07481     0.01689
 PX  C  31   0.00530    -0.01039     0.01528     0.00079     0.01167    -0.02011
 PY  C  31  -0.00747    -0.00834     0.00930    -0.00349    -0.03948     0.09628
 PZ  C  31   0.01388    -0.00319     0.00671     0.00372     0.04653    -0.09189
  
  S  C  32  -0.10456     0.00019    -0.01851     0.12156    -0.00955     0.08458
 PX  C  32  -0.00683    -0.00355     0.00228     0.01701     0.01075     0.00482
 PY  C  32  -0.02864    -0.00657     0.00266     0.02502    -0.02410     0.06632
 PZ  C  32  -0.00814     0.00125    -0.00664     0.03572     0.03842    -0.01424
  
  S  N  33  -0.05461    -0.00681    -0.00358     0.14243     0.16693    -0.24174
 PX  N  33   0.00988    -0.03279     0.04795    -0.00753    -0.00039    -0.00688
 PY  N  33  -0.01991    -0.01532     0.01697     0.03216     0.00351     0.03111
 PZ  N  33   0.02351    -0.00204     0.00785    -0.03344    -0.00358    -0.02939
  
  S  C  34   0.00080     0.13377    -0.18755    -0.01686     0.01521    -0.04708
 PX  C  34  -0.00187    -0.05045     0.06989     0.03372     0.05949    -0.11170
 PY  C  34  -0.02140    -0.04841     0.06292     0.06211     0.06437    -0.09085
 PZ  C  34   0.01953     0.02220    -0.02690    -0.04273    -0.03224     0.03292
  
  S  C  35   0.00330     0.15813    -0.22052    -0.05274    -0.05887     0.09628
 PX  C  35  -0.00278     0.02494    -0.03560     0.00279     0.00826    -0.01597
 PY  C  35  -0.01125    -0.04137     0.05548     0.03583     0.03633    -0.05318
 PZ  C  35   0.00987     0.04729    -0.06419    -0.03204    -0.02909     0.04047
  
  S  C  36   0.01846     0.16777    -0.23078    -0.08999    -0.09935     0.15757
 PX  C  36   0.00786     0.06466    -0.08881    -0.03471    -0.03524     0.05258
 PY  C  36  -0.00091     0.01129    -0.01598    -0.00118    -0.00133     0.00230
 PZ  C  36   0.00435     0.01763    -0.02377    -0.01404    -0.01396     0.02046
  
  S  C  37   0.02414     0.16511    -0.22587    -0.10056    -0.10795     0.16702
 PX  C  37   0.00661     0.03374    -0.04580    -0.02285    -0.02165     0.02983
 PY  C  37   0.00665     0.05042    -0.06913    -0.02825    -0.02880     0.04305
 PZ  C  37  -0.00299    -0.03008     0.04145     0.01509     0.01612    -0.02519
  
  S  C  38   0.03163     0.14893    -0.20159    -0.10715    -0.10458     0.14836
 PX  C  38   0.00012    -0.03764     0.05273     0.01310     0.01904    -0.03592
 PY  C  38   0.00795     0.03381    -0.04563    -0.02346    -0.01834     0.02072
 PZ  C  38  -0.00702    -0.04670     0.06387     0.02666     0.02470    -0.03419
  
  S  C  39   0.04117     0.11312    -0.14960    -0.09759    -0.06061     0.04668
 PX  C  39   0.00357    -0.08383     0.11818     0.02149     0.03220    -0.06110
 PY  C  39  -0.00103    -0.02322     0.03211     0.01921     0.03646    -0.06990
 PZ  C  39   0.00272    -0.01581     0.02289    -0.00818    -0.01878     0.03615
  
  S  C  40   0.06776    -0.10020     0.15544    -0.09655    -0.06280     0.04438
 PX  C  40   0.01736    -0.07905     0.11497    -0.02586    -0.04493     0.08042
 PY  C  40   0.00552    -0.03522     0.05050     0.00269     0.00908    -0.01920
 PZ  C  40   0.00243    -0.00272     0.00456    -0.01344    -0.02776     0.05275
  
  S  C  41   0.03476    -0.12975     0.18909    -0.01575     0.01391    -0.04806
 PX  C  41   0.02656    -0.05927     0.08946    -0.05544    -0.07978     0.13291
 PY  C  41  -0.01852     0.00403    -0.00984     0.03132     0.01639    -0.00187
 PZ  C  41   0.02772    -0.02909     0.04716    -0.05144    -0.04914     0.06041
  
  S  C  42   0.04342    -0.15251     0.22346    -0.05143    -0.06037     0.09526
 PX  C  42   0.00597     0.00476    -0.00513    -0.01824    -0.02347     0.03595
 PY  C  42  -0.02021     0.04678    -0.07018     0.02868     0.02653    -0.03219
 PZ  C  42   0.02061    -0.04147     0.06288    -0.03316    -0.03412     0.04581
  
  S  C  43   0.05929    -0.15839     0.23559    -0.08844    -0.10250     0.15442
 PX  C  43  -0.02085     0.05641    -0.08380     0.02931     0.03140    -0.04455
 PY  C  43  -0.01355     0.02995    -0.04510     0.02129     0.02256    -0.03097
 PZ  C  43   0.00331    -0.00312     0.00516    -0.00667    -0.00705     0.00926
  
  S  C  44   0.06372    -0.15448     0.23118    -0.09898    -0.11158     0.16314
 PX  C  44  -0.02058     0.04698    -0.07054     0.03114     0.03190    -0.04283
 PY  C  44   0.00602    -0.01887     0.02783    -0.00826    -0.01003     0.01582
 PZ  C  44  -0.01470     0.03822    -0.05693     0.02147     0.02344    -0.03362
  
  S  C  45   0.06700    -0.13702     0.20735    -0.10573    -0.10787     0.14480
 PX  C  45   0.00065    -0.01732     0.02452    -0.00064    -0.00850     0.02082
 PY  C  45   0.01925    -0.04968     0.07402    -0.02756    -0.02877     0.03953
 PZ  C  45  -0.01736     0.03783    -0.05694     0.02501     0.02266    -0.02707
  
  S  N  46  -0.09694    -0.00826     0.00700     0.14513     0.12869     0.25867
 PX  N  46  -0.02364     0.04012     0.03070     0.01692     0.00109    -0.01643
 PY  N  46  -0.03886    -0.03167    -0.01731     0.03508     0.00325    -0.03471
 PZ  N  46  -0.03378     0.00718     0.00895     0.02782     0.00184    -0.02607
  
  S  C  47   0.04592    -0.18526    -0.13422    -0.01578     0.01047     0.05146
 PX  C  47  -0.04854     0.08535     0.06581     0.06436     0.06434     0.14057
 PY  C  47  -0.02810    -0.00870    -0.00266     0.02479     0.00296    -0.02319
 PZ  C  47  -0.03977     0.04106     0.03365     0.04669     0.03591     0.06459
  
  S  C  48   0.05883    -0.21804    -0.15912    -0.05214    -0.04685    -0.10197
 PX  C  48  -0.01954     0.01240     0.01121     0.02643     0.02375     0.04767
 PY  C  48  -0.03128     0.07534     0.05636     0.02861     0.01957     0.03132
 PZ  C  48  -0.02622     0.04744     0.03637     0.02848     0.02288     0.04299
  
  S  C  49   0.08645    -0.22684    -0.16890    -0.08982    -0.07971    -0.16554
 PX  C  49   0.02400    -0.06734    -0.04989    -0.02318    -0.01907    -0.03760
 PY  C  49  -0.02805     0.06199     0.04672     0.02921     0.02381     0.04533
 PZ  C  49  -0.00181    -0.00328    -0.00204     0.00287     0.00232     0.00393
  
  S  C  50   0.09474    -0.22139    -0.16618    -0.10055    -0.08682    -0.17493
 PX  C  50   0.03277    -0.07383    -0.05553    -0.03347    -0.02661    -0.04994
 PY  C  50   0.00384    -0.01780    -0.01288    -0.00362    -0.00419    -0.01055
 PZ  C  50   0.02004    -0.04993    -0.03730    -0.02032    -0.01685    -0.03303
  
  S  C  51   0.10235    -0.19655    -0.14975    -0.10743    -0.08387    -0.15524
 PX  C  51   0.00862     0.00432     0.00200    -0.00724     0.00024     0.01006
 PY  C  51   0.03107    -0.08292    -0.06166    -0.03099    -0.02594    -0.05080
 PZ  C  51   0.02116    -0.04144    -0.03148    -0.02038    -0.01361    -0.02139
  
  S  C  52   0.10743    -0.14395    -0.11334    -0.09813    -0.04887    -0.04761
 PX  C  52  -0.01987     0.09705     0.07031     0.02654     0.03636     0.09053
 PY  C  52   0.01026    -0.07561    -0.05386    -0.00167     0.00128     0.00713
 PZ  C  52  -0.00509     0.01309     0.00991     0.01321     0.02025     0.05292
  
  S  C  53   0.08435     0.16032     0.10144    -0.09962    -0.04627    -0.04975
 PX  C  53   0.00176     0.10818     0.07505    -0.01623    -0.01625    -0.04332
 PY  C  53  -0.00543    -0.05765    -0.03923     0.02559     0.03518     0.09395
 PZ  C  53  -0.00217     0.02860     0.02027     0.00477     0.00949     0.02529
  
  S  C  54   0.01653     0.19057     0.13095    -0.01746     0.01196     0.05032
 PX  C  54  -0.00303     0.05130     0.03579    -0.01613    -0.03118    -0.09044
 PY  C  54  -0.04903    -0.08833    -0.05523     0.07624     0.06257     0.12830
 PZ  C  54  -0.02850    -0.01894    -0.00978     0.03215     0.01572     0.01761
  
  S  C  55   0.02411     0.22496     0.15343    -0.05410    -0.04513    -0.10315
 PX  C  55  -0.00481    -0.05130    -0.03517     0.00750     0.00146    -0.00095
 PY  C  55  -0.02705    -0.05795    -0.03699     0.04094     0.03165     0.06545
 PZ  C  55  -0.01779    -0.05679    -0.03741     0.02619     0.01717     0.03304
  
  S  C  56   0.05101     0.23837     0.15947    -0.09205    -0.07597    -0.16846
 PX  C  56  -0.02065    -0.08583    -0.05717     0.03457     0.02618     0.05454
 PY  C  56   0.00352     0.03429     0.02340    -0.00774    -0.00601    -0.01292
 PZ  C  56  -0.00939    -0.02797    -0.01832     0.01459     0.01084     0.02233
  
  S  C  57   0.06036     0.23447     0.15565    -0.10279    -0.08248    -0.17843
 PX  C  57  -0.01021    -0.02716    -0.01765     0.01492     0.01014     0.01852
 PY  C  57   0.02163     0.08725     0.05803    -0.03591    -0.02713    -0.05623
 PZ  C  57   0.00553     0.03000     0.02018    -0.01029    -0.00840    -0.01874
  
  S  C  58   0.07161     0.21132     0.13821    -0.10945    -0.07994    -0.15846
 PX  C  58   0.00879     0.06604     0.04485    -0.01989    -0.01817    -0.04392
 PY  C  58   0.01865     0.04316     0.02778    -0.02394    -0.01279    -0.01744
 PZ  C  58   0.01430     0.05784     0.03849    -0.02301    -0.01637    -0.03262
  
  S  C  59   0.01871     0.00172    -0.00033     0.01261    -0.00324     0.00016
 PX  C  59  -0.00357    -0.00037     0.00007    -0.00513     0.00785     0.00083
 PY  C  59   0.04033     0.00398    -0.00076     0.04230    -0.03895    -0.00275
 PZ  C  59   0.00147     0.00016    -0.00003     0.00245    -0.00430    -0.00048
  
  S  O  60   0.02300     0.00215    -0.00041     0.01704    -0.00505     0.00034
 PX  O  60  -0.01030    -0.00098     0.00019    -0.00866     0.00496     0.00017
 PY  O  60   0.00572     0.00058    -0.00011     0.00714    -0.00827    -0.00069
 PZ  O  60   0.00645     0.00061    -0.00012     0.00538    -0.00301    -0.00010
  
  S  O  61   0.06648     0.00650    -0.00124     0.06643    -0.05953    -0.00432
 PX  O  61   0.01610     0.00157    -0.00030     0.01582    -0.01353    -0.00093
 PY  O  61   0.00253     0.00027    -0.00005     0.00363    -0.00448    -0.00036
 PZ  O  61  -0.01042    -0.00102     0.00019    -0.01025     0.00878     0.00060
  
  S  H  62  -0.04001    -0.00393     0.00075    -0.04061     0.03444     0.00225
  
  S  H  63  -0.06656    -0.00640     0.00123    -0.05920     0.03897     0.00198
  
  S  H  64  -0.05041    -0.00459     0.00088    -0.03127     0.00653    -0.00025
  
  S  H  65   0.00851     0.00178    -0.00034     0.05416    -0.06923    -0.00424
  
  S  H  66   0.03303     0.00413    -0.00079     0.06811    -0.05410    -0.00236
  
  S  H  67   0.06793     0.00665    -0.00127     0.03273     0.06762     0.00565
  
  S  H  68   0.06898     0.00601    -0.00109     0.00184     0.07729    -0.00259
  
  S  H  69  -0.00443    -0.00254     0.00044     0.00957     0.01766    -0.04898
  
  S  H  70  -0.04336    -0.01608    -0.00549     0.04200     0.01372    -0.02309
  
  S  H  71  -0.05374     0.00826     0.01017     0.04246    -0.00128    -0.01172
  
  S  H  72   0.00376    -0.00205     0.00041     0.00962     0.00503     0.04975
  
  S  H  73  -0.02257    -0.01173     0.01063     0.04126     0.01474     0.02254
  
  S  H  74  -0.03633     0.00578    -0.01253     0.04173     0.00177     0.00905
  
  S  H  75  -0.00696     0.04268    -0.06100    -0.00141    -0.00920     0.02158
  
  S  H  76   0.00465     0.04650    -0.06404    -0.02477    -0.02896     0.04764
  
  S  H  77   0.00677     0.04557    -0.06230    -0.02868    -0.03206     0.05101
  
  S  H  78   0.01097     0.03679    -0.04909    -0.03347    -0.03309     0.04672
  
  S  H  79   0.00512    -0.04285     0.06109    -0.00113    -0.00843     0.02280
  
  S  H  80   0.01601    -0.04401     0.06537    -0.02435    -0.02981     0.04682
  
  S  H  81   0.01765    -0.04260     0.06379    -0.02823    -0.03312     0.04985
  
  S  H  82   0.01958    -0.03310     0.05087    -0.03311    -0.03394     0.04578
  
  S  H  83   0.00387    -0.06107    -0.04296    -0.00112    -0.00631    -0.02423
  
  S  H  84   0.02321    -0.06303    -0.04684    -0.02473    -0.02317    -0.05018
  
  S  H  85   0.02628    -0.06106    -0.04587    -0.02868    -0.02577    -0.05346
  
  S  H  86   0.03068    -0.04756    -0.03698    -0.03366    -0.02635    -0.04906
  
  S  H  87  -0.00651     0.06081     0.04292    -0.00155    -0.00729    -0.02332
  
  S  H  88   0.01335     0.06607     0.04428    -0.02534    -0.02216    -0.05095
  
  S  H  89   0.01683     0.06469     0.04291    -0.02930    -0.02449    -0.05448
  
  S  H  90   0.02319     0.05214     0.03341    -0.03415    -0.02532    -0.04990
  
  S  H  91   0.03040     0.00297    -0.00057     0.03063    -0.02756    -0.00198




    ROOT NO.   13          14          15          16          17          18

           -40.22908   -39.69183   -39.15748   -36.65884   -36.33544   -36.31564
  
  
  S  N   1  -0.03320    -0.03607     0.39847    -0.12503    -0.00472     0.53355
 PX  N   1  -0.01431    -0.01573     0.16128    -0.04229    -0.00155     0.17491
 PY  N   1  -0.00032     0.00635     0.02458    -0.00848    -0.00030     0.03347
 PZ  N   1   0.00794     0.00897    -0.09158     0.02439     0.00089    -0.09996
  
  S  C   2  -0.04842    -0.07235     0.47687    -0.08102    -0.00258     0.28866
 PX  C   2  -0.00340    -0.02328    -0.04635     0.06257     0.00268    -0.30554
 PY  C   2   0.00693     0.03307    -0.01291     0.00504     0.00027    -0.03153
 PZ  C   2   0.00161     0.01371     0.02633    -0.03509    -0.00153     0.17398
  
  S  C   3  -0.05941    -0.22261     0.31678     0.02318     0.00192    -0.22462
 PX  C   3  -0.00540    -0.09142    -0.08299     0.01701     0.00067    -0.07653
 PY  C   3   0.01775     0.05533    -0.06722    -0.01542    -0.00066     0.07453
 PZ  C   3   0.00288     0.05627     0.05115    -0.00889    -0.00037     0.04183
  
  S  C   4  -0.06290    -0.24682     0.21016     0.05995     0.00290    -0.33261
 PX  C   4   0.01310     0.03262    -0.07832    -0.00741    -0.00045     0.05256
 PY  C   4  -0.00555    -0.08421     0.01961    -0.01174    -0.00005     0.00210
 PZ  C   4  -0.00869    -0.01768     0.05033     0.00601     0.00031    -0.03497
  
  S  C   5  -0.03541    -0.01544     0.03227     0.05891     0.00159    -0.17497
 PX  C   5   0.00165    -0.01117    -0.00357     0.00061     0.00014    -0.01639
 PY  C   5  -0.02067    -0.11504     0.14345     0.01277     0.00110    -0.12846
 PZ  C   5  -0.00352     0.01252     0.00359     0.00349    -0.00008     0.01024
  
  S  C   6  -0.01625     0.07471    -0.05700     0.03184     0.00011    -0.00328
 PX  C   6  -0.00191     0.00512    -0.01224     0.00837     0.00022    -0.02460
 PY  C   6  -0.01519    -0.07145     0.11119     0.00900     0.00068    -0.07953
 PZ  C   6   0.00410    -0.02367     0.03003    -0.01364    -0.00024     0.02467
  
  S  C   7   0.01836     0.14247    -0.18258    -0.01164    -0.00108     0.12681
 PX  C   7   0.00256     0.02064    -0.02826    -0.00040    -0.00010     0.01134
 PY  C   7  -0.01049     0.02183    -0.01637     0.02133     0.00015    -0.01187
 PZ  C   7  -0.00871    -0.04284     0.05971     0.00769     0.00030    -0.03353
  
  S  C   8   0.04654     0.13363    -0.18885    -0.05396    -0.00134     0.14447
 PX  C   8   0.00044    -0.00750     0.00910    -0.00088     0.00008    -0.01046
 PY  C   8  -0.01881     0.04300    -0.04797     0.03328     0.00010    -0.00238
 PZ  C   8  -0.00401     0.03007    -0.03673     0.00821    -0.00018     0.02379
  
  S  S   9   0.00724     0.06887    -0.09856     0.00361    -0.00005     0.00647
 PX  S   9  -0.00191    -0.02329     0.02897    -0.00029     0.00011    -0.01313
 PY  S   9  -0.01636    -0.02794     0.03726     0.02626     0.00063    -0.06786
 PZ  S   9   0.00161     0.04899    -0.06381     0.00678    -0.00009     0.01263
  
  S  C  10   0.08673     0.00424    -0.02821    -0.09108    -0.00071     0.05967
 PX  C  10   0.00877    -0.00496     0.00473    -0.01224    -0.00005    -0.00299
 PY  C  10  -0.01331     0.05396    -0.07124    -0.00478    -0.00051     0.05873
 PZ  C  10  -0.00790     0.02175    -0.02807     0.00349    -0.00018     0.02375
  
  S  C  11   0.08031    -0.04635     0.04428    -0.06998    -0.00013    -0.01572
 PX  C  11  -0.02594     0.01724    -0.01716     0.01775    -0.00002     0.00562
 PY  C  11  -0.00409     0.02683    -0.03677    -0.01344    -0.00030     0.03675
 PZ  C  11   0.01090     0.00065    -0.00393    -0.01273    -0.00010     0.00943
  
  S  C  12   0.04282    -0.06897     0.08347     0.00793     0.00041    -0.06379
 PX  C  12  -0.00128     0.01655    -0.02111    -0.01980    -0.00022     0.01447
 PY  C  12   0.03413    -0.01516     0.01402    -0.04045    -0.00005    -0.00596
 PZ  C  12   0.01173    -0.01266     0.01442    -0.00397     0.00001    -0.00875
  
  S  C  13  -0.01806    -0.05821     0.07681     0.09318     0.00081    -0.05292
 PX  C  13   0.03498    -0.01928     0.02099    -0.03084    -0.00031    -0.01977
 PY  C  13   0.05819    -0.02154     0.02003    -0.06076     0.00008    -0.01376
 PZ  C  13   0.00497     0.00179    -0.00325    -0.00888    -0.00025     0.00408
  
  S  S  14   0.03289    -0.02780     0.02776    -0.00471     0.00030    -0.00315
 PX  S  14   0.03080    -0.01955     0.01926    -0.02090    -0.00005    -0.00603
 PY  S  14   0.01889     0.01642    -0.02587    -0.03953    -0.00047     0.02712
 PZ  S  14  -0.00703     0.01531    -0.01870    -0.00491    -0.00025     0.01281
  
  S  C  15  -0.17272     0.01063     0.00421     0.17717     0.00011     0.01209
 PX  C  15   0.04577    -0.01731     0.01847    -0.02082    -0.00231    -0.02172
 PY  C  15   0.04639    -0.02497     0.02848     0.01083     0.00179    -0.02496
 PZ  C  15   0.01029    -0.00261     0.00241    -0.00767    -0.00168    -0.00336
  
  S  C  16  -0.18713     0.03431    -0.02643     0.13755     0.00811     0.04119
 PX  C  16  -0.04971     0.00549    -0.00191     0.04761    -0.00204     0.00533
 PY  C  16   0.04299    -0.01678     0.01815     0.01129    -0.00324    -0.01543
 PZ  C  16  -0.01960     0.00317    -0.00213     0.01549    -0.00163     0.00334
  
  S  C  17  -0.12005     0.03878    -0.03880    -0.02437     0.01670     0.02578
 PX  C  17  -0.04358     0.01316    -0.01265    -0.00116    -0.00275     0.00779
 PY  C  17  -0.07358     0.00947    -0.00585     0.09805    -0.00344     0.02416
 PZ  C  17  -0.00763     0.00314    -0.00319    -0.00231    -0.00698     0.00149
  
  S  C  18   0.01057     0.02392    -0.02972    -0.18381    -0.01863    -0.01843
 PX  C  18   0.00771    -0.00422     0.00486     0.01212    -0.01768    -0.00306
 PY  C  18  -0.16168     0.02374    -0.01738     0.14636     0.01202     0.04459
 PZ  C  18   0.01326    -0.00341     0.00334     0.00207    -0.02371    -0.00283
  
  S  S  19  -0.08930     0.01830    -0.01426     0.02219    -0.01953     0.00644
 PX  S  19   0.05725    -0.01590     0.01492    -0.00734     0.00724    -0.01087
 PY  S  19  -0.04814    -0.00022     0.00500     0.08004     0.01193     0.00743
 PZ  S  19   0.02073    -0.00438     0.00359    -0.01052    -0.00396    -0.00369
  
  S  N  20   0.28676    -0.02609     0.01313    -0.21370    -0.02771    -0.05740
 PX  N  20  -0.01789     0.00162    -0.00077     0.00785    -0.02772     0.00154
 PY  N  20  -0.02632     0.01287    -0.01489    -0.15750    -0.01471    -0.02369
 PZ  N  20   0.00788    -0.00211     0.00229     0.02063    -0.06442     0.00194
  
  S  C  21   0.03024    -0.00724     0.00629    -0.01082     0.14069    -0.00362
 PX  C  21   0.06907    -0.00829     0.00607     0.00882    -0.02085    -0.00318
 PY  C  21   0.09697    -0.00457    -0.00099    -0.15144    -0.01791    -0.03359
 PZ  C  21   0.12887    -0.01723     0.01377     0.07466    -0.04638     0.00552
  
  S  C  22  -0.12242     0.01527    -0.01265    -0.14489     0.14511    -0.01971
 PX  C  22   0.02106    -0.00233     0.00156     0.00182     0.01096    -0.00030
 PY  C  22   0.07537    -0.00616     0.00310    -0.00871    -0.02321    -0.00395
 PZ  C  22   0.01993    -0.00241     0.00163     0.00184     0.03546     0.00035
  
  S  C  23  -0.16093     0.01910    -0.01463    -0.14772     0.00517    -0.02571
 PX  C  23  -0.02537     0.00230    -0.00139     0.00392     0.03763     0.00340
 PY  C  23  -0.00125    -0.00018     0.00009     0.00493     0.08187     0.00517
 PZ  C  23  -0.06566     0.00632    -0.00400    -0.00182     0.04896     0.00381
  
  S  C  24  -0.11743     0.01510    -0.01157    -0.10451    -0.16160    -0.02539
 PX  C  24  -0.04151     0.00318    -0.00147     0.02919     0.04193     0.00945
 PY  C  24  -0.08482     0.00752    -0.00458    -0.00743     0.09639     0.00504
 PZ  C  24  -0.06729     0.00479    -0.00182     0.06832     0.06528     0.01968
  
  S  C  25  -0.16044     0.01384    -0.00687     0.11148    -0.03044     0.02758
 PX  C  25  -0.00697    -0.00061     0.00129     0.04322     0.02930     0.01033
 PY  C  25  -0.06337     0.00450    -0.00172     0.04204     0.06036     0.01263
 PZ  C  25   0.01166    -0.00365     0.00408     0.09146     0.05927     0.02132
  
  S  C  26  -0.09386    -0.00110     0.00793     0.28153     0.08501     0.06077
 PX  C  26   0.03873    -0.00548     0.00457     0.03070    -0.00977     0.00367
 PY  C  26   0.06851    -0.00949     0.00732    -0.01282     0.02889    -0.00800
 PZ  C  26   0.06671    -0.00931     0.00790     0.08011    -0.03431     0.01264
  
  S  C  27  -0.09575     0.00035     0.00656     0.28692    -0.02683     0.06277
 PX  C  27  -0.02052     0.00317    -0.00277    -0.03018    -0.02312    -0.00502
 PY  C  27   0.06338    -0.00892     0.00700    -0.00991    -0.03838    -0.00781
 PZ  C  27  -0.08057     0.01224    -0.01042    -0.07622    -0.03969    -0.00996
  
  S  C  28   0.02889    -0.00722     0.00700     0.02455    -0.14211     0.00118
 PX  C  28  -0.04133     0.00616    -0.00520    -0.03744    -0.02236    -0.00463
 PY  C  28   0.08812    -0.00493    -0.00001    -0.14408    -0.01694    -0.03357
 PZ  C  28  -0.14736     0.01902    -0.01452    -0.04305    -0.04912     0.00174
  
  S  C  29  -0.12353     0.01551    -0.01217    -0.10972    -0.16290    -0.01509
 PX  C  29  -0.00031     0.00033    -0.00040    -0.00615     0.01591    -0.00131
 PY  C  29   0.07560    -0.00750     0.00461    -0.00643     0.02165    -0.00488
 PZ  C  29  -0.03346     0.00421    -0.00317    -0.01301     0.03097    -0.00097
  
  S  C  30  -0.16334     0.02094    -0.01640    -0.15002    -0.02987    -0.02537
 PX  C  30   0.02522    -0.00269     0.00176    -0.00391     0.01376    -0.00252
 PY  C  30   0.00418    -0.00117     0.00114     0.02316    -0.07364     0.00740
 PZ  C  30   0.06683    -0.00693     0.00448    -0.00915     0.05875    -0.00676
  
  S  C  31  -0.11935     0.01711    -0.01396    -0.14046     0.13603    -0.02995
 PX  C  31   0.01952    -0.00146     0.00051    -0.03202     0.00879    -0.00854
 PY  C  31  -0.08113     0.00797    -0.00506     0.00237    -0.08692     0.00655
 PZ  C  31   0.08342    -0.00703     0.00343    -0.07662     0.06232    -0.02300
  
  S  C  32  -0.16294     0.01604    -0.00927     0.09390     0.05576     0.02658
 PX  C  32  -0.00956     0.00195    -0.00194    -0.03479     0.00663    -0.00734
 PY  C  32  -0.06536     0.00567    -0.00285     0.04093    -0.04408     0.01261
 PZ  C  32  -0.00074     0.00312    -0.00415    -0.11052     0.04685    -0.02531
  
  S  N  33   0.15938    -0.01210     0.00566    -0.07692     0.11565    -0.02518
 PX  N  33   0.01366    -0.00165     0.00122     0.00636    -0.02884     0.00168
 PY  N  33  -0.05578     0.00735    -0.00603    -0.09725     0.09460    -0.02392
 PZ  N  33   0.05640    -0.00727     0.00581     0.08011    -0.10351     0.01999
  
  S  C  34   0.05362    -0.00567     0.00387     0.02007     0.00708     0.00229
 PX  C  34   0.10288    -0.01053     0.00728     0.08586    -0.10782     0.02225
 PY  C  34   0.05710    -0.00436     0.00212    -0.01874     0.04016    -0.00683
 PZ  C  34  -0.00490    -0.00084     0.00136     0.05221    -0.08595     0.01534
  
  S  C  35  -0.08248     0.00840    -0.00593    -0.10191     0.15952    -0.02971
 PX  C  35   0.01416    -0.00139     0.00091     0.00936    -0.00391     0.00217
 PY  C  35   0.03558    -0.00307     0.00184     0.01666    -0.00947     0.00407
 PZ  C  35  -0.02424     0.00199    -0.00115    -0.01183     0.00448    -0.00294
  
  S  C  36  -0.12313     0.01189    -0.00800    -0.11544     0.14127    -0.03168
 PX  C  36  -0.03732     0.00335    -0.00209    -0.01921     0.01988    -0.00480
 PY  C  36  -0.00288     0.00034    -0.00027    -0.00802     0.01969    -0.00280
 PZ  C  36  -0.01319     0.00111    -0.00064    -0.00127    -0.00945     0.00039
  
  S  C  37  -0.12377     0.01148    -0.00739    -0.07550     0.06325    -0.01823
 PX  C  37  -0.01771     0.00131    -0.00060     0.01427    -0.02896     0.00521
 PY  C  37  -0.03060     0.00276    -0.00173    -0.01823     0.01991    -0.00478
 PZ  C  37   0.01944    -0.00188     0.00128     0.02221    -0.03026     0.00646
  
  S  C  38  -0.09483     0.00765    -0.00410     0.02203    -0.07085     0.01068
 PX  C  38   0.03348    -0.00363     0.00270     0.05362    -0.06465     0.01498
 PY  C  38  -0.00736     0.00014     0.00027     0.02216    -0.03185     0.00657
 PZ  C  38   0.02122    -0.00171     0.00094     0.00345     0.00018     0.00063
  
  S  C  39   0.01273    -0.00425     0.00468     0.14849    -0.20782     0.04288
 PX  C  39   0.05576    -0.00590     0.00427     0.06858    -0.08050     0.01847
 PY  C  39   0.06399    -0.00650     0.00443     0.03708    -0.03087     0.00784
 PZ  C  39  -0.03285     0.00323    -0.00210    -0.00343    -0.00857     0.00103
  
  S  C  40   0.01240    -0.00444     0.00496     0.15919    -0.20420     0.04529
 PX  C  40  -0.07539     0.00768    -0.00530    -0.06361     0.08492    -0.01660
 PY  C  40   0.01689    -0.00158     0.00092    -0.01622     0.02681    -0.00621
 PZ  C  40  -0.04864     0.00485    -0.00321    -0.01460     0.01352    -0.00200
  
  S  C  41   0.05384    -0.00563     0.00372    -0.00283    -0.00203    -0.00343
 PX  C  41  -0.11183     0.01068    -0.00692    -0.06153     0.07389    -0.01531
 PY  C  41  -0.02031     0.00353    -0.00336    -0.08907     0.09945    -0.02430
 PZ  C  41  -0.03158     0.00166    -0.00017     0.04965    -0.05832     0.01444
  
  S  C  42  -0.08234     0.00845    -0.00611    -0.12755     0.14956    -0.03613
 PX  C  42  -0.02752     0.00238    -0.00136    -0.00187     0.01206    -0.00048
 PY  C  42   0.01942    -0.00136     0.00060    -0.00094    -0.00643     0.00009
 PZ  C  42  -0.03108     0.00248    -0.00132    -0.00328     0.01187    -0.00101
  
  S  C  43  -0.12363     0.01166    -0.00766    -0.10560     0.14460    -0.02964
 PX  C  43   0.03301    -0.00293     0.00182     0.02022    -0.02510     0.00552
 PY  C  43   0.02165    -0.00176     0.00094    -0.00415     0.00025    -0.00158
 PZ  C  43  -0.00581     0.00038    -0.00011     0.01201    -0.01103     0.00372
  
  S  C  44  -0.12446     0.01114    -0.00684    -0.04665     0.07382    -0.01143
 PX  C  44   0.02848    -0.00221     0.00111    -0.01097     0.01340    -0.00390
 PY  C  44  -0.01380     0.00141    -0.00102    -0.02555     0.03473    -0.00771
 PZ  C  44   0.02538    -0.00228     0.00144     0.01862    -0.02619     0.00537
  
  S  C  45  -0.09544     0.00733    -0.00358     0.04994    -0.06069     0.01731
 PX  C  45  -0.02516     0.00296    -0.00232    -0.04997     0.07045    -0.01431
 PY  C  45  -0.02818     0.00239    -0.00140    -0.01060     0.01777    -0.00296
 PZ  C  45   0.01474    -0.00089     0.00025    -0.01251     0.01476    -0.00364
  
  S  N  46   0.15667    -0.01073     0.00473    -0.05684    -0.13655    -0.02117
 PX  N  46  -0.02854     0.00325    -0.00237    -0.02125    -0.06197    -0.00656
 PY  N  46  -0.05792     0.00692    -0.00538    -0.08132    -0.12201    -0.02216
 PZ  N  46  -0.04583     0.00526    -0.00390    -0.04327    -0.09906    -0.01278
  
  S  C  47   0.05300    -0.00499     0.00308    -0.00555    -0.00099    -0.00334
 PX  C  47   0.10251    -0.00842     0.00487     0.02496     0.05153     0.00678
 PY  C  47  -0.04163     0.00515    -0.00415    -0.08313    -0.14775    -0.02508
 PZ  C  47   0.03481    -0.00204     0.00063    -0.02615    -0.04884    -0.00863
  
  S  C  48  -0.08090     0.00750    -0.00512    -0.09788    -0.17992    -0.03085
 PX  C  48   0.03202    -0.00240     0.00122    -0.00117     0.01391     0.00013
 PY  C  48   0.01640    -0.00096     0.00035    -0.00168     0.00504    -0.00001
 PZ  C  48   0.02716    -0.00197     0.00099     0.00121     0.01143     0.00067
  
  S  C  49  -0.12154     0.01031    -0.00635    -0.07642    -0.16912    -0.02472
 PX  C  49  -0.02591     0.00211    -0.00127    -0.01599    -0.02967    -0.00500
 PY  C  49   0.02939    -0.00218     0.00112    -0.00222     0.00353    -0.00081
 PZ  C  49   0.00186    -0.00005    -0.00006    -0.00934    -0.01396    -0.00303
  
  S  C  50  -0.12237     0.00984    -0.00563    -0.03014    -0.08300    -0.00905
 PX  C  50  -0.03135     0.00227    -0.00113     0.00360     0.00487     0.00152
 PY  C  50  -0.01000     0.00103    -0.00078    -0.02264    -0.04845    -0.00779
 PZ  C  50  -0.02253     0.00179    -0.00103    -0.01000    -0.02321    -0.00330
  
  S  C  51  -0.09382     0.00646    -0.00291     0.04093     0.07533     0.01506
 PX  C  51   0.01655    -0.00198     0.00157     0.03356     0.07525     0.01105
 PY  C  51  -0.03500     0.00279    -0.00161    -0.01410    -0.03695    -0.00475
 PZ  C  51  -0.00948     0.00039     0.00001     0.01102     0.02152     0.00355
  
  S  C  52   0.01223    -0.00396     0.00418     0.11903     0.24203     0.03823
 PX  C  52   0.07753    -0.00707     0.00454     0.04119     0.08805     0.01205
 PY  C  52   0.00505    -0.00034     0.00007    -0.02147    -0.05269    -0.00821
 PZ  C  52   0.04494    -0.00405     0.00254     0.01227     0.02104     0.00254
  
  S  C  53   0.01246    -0.00376     0.00388     0.10781     0.24325     0.03579
 PX  C  53  -0.03640     0.00355    -0.00249    -0.04301    -0.08392    -0.01352
 PY  C  53   0.07903    -0.00729     0.00473     0.04086     0.05846     0.01025
 PZ  C  53   0.02104    -0.00183     0.00109    -0.00178    -0.01601    -0.00196
  
  S  C  54   0.05262    -0.00502     0.00324     0.01847    -0.00471     0.00243
 PX  C  54  -0.08388     0.00811    -0.00548    -0.06495    -0.13710    -0.01981
 PY  C  54   0.07971    -0.00592     0.00306    -0.00150    -0.02795    -0.00263
 PZ  C  54  -0.00524     0.00142    -0.00142    -0.03335    -0.09029    -0.01151
  
  S  C  55  -0.08119     0.00745    -0.00493    -0.07104    -0.18375    -0.02436
 PX  C  55  -0.00397     0.00045    -0.00033    -0.00400    -0.00217    -0.00092
 PY  C  55   0.04075    -0.00320     0.00185     0.01749     0.01504     0.00445
 PZ  C  55   0.01768    -0.00129     0.00071     0.00820     0.00490     0.00208
  
  S  C  56  -0.12116     0.01057    -0.00672    -0.08674    -0.16773    -0.02678
 PX  C  56   0.03531    -0.00285     0.00167     0.01327     0.01743     0.00344
 PY  C  56  -0.00980     0.00087    -0.00056    -0.00768    -0.02842    -0.00311
 PZ  C  56   0.01353    -0.00105     0.00059     0.00335    -0.00567     0.00028
  
  S  C  57  -0.12178     0.01021    -0.00624    -0.06036    -0.07893    -0.01592
 PX  C  57   0.00876    -0.00046     0.00010    -0.01325    -0.03924    -0.00530
 PY  C  57  -0.03620     0.00290    -0.00170    -0.01366    -0.02033    -0.00371
 PZ  C  57  -0.01378     0.00123    -0.00081    -0.01394    -0.03140    -0.00470
  
  S  C  58  -0.09331     0.00681    -0.00348     0.01169     0.07907     0.00836
 PX  C  58  -0.03442     0.00321    -0.00217    -0.03549    -0.06549    -0.01098
 PY  C  58  -0.00208    -0.00044     0.00064     0.02494     0.05481     0.00832
 PZ  C  58  -0.01963     0.00150    -0.00084    -0.00614    -0.00710    -0.00160
  
  S  C  59  -0.00886    -0.13364    -0.05502    -0.00502    -0.00002     0.00126
 PX  C  59  -0.01910    -0.30234    -0.20196    -0.02235    -0.00107     0.12244
 PY  C  59   0.03071     0.15946    -0.11277    -0.00628    -0.00076     0.08997
 PZ  C  59   0.01170     0.19051     0.13015     0.01471     0.00070    -0.08080
  
  S  O  60  -0.02311    -0.47633    -0.36745    -0.04290    -0.00203     0.23277
 PX  O  60   0.00272     0.09472     0.09003     0.00864     0.00043    -0.04930
 PY  O  60   0.01055     0.10567     0.02523     0.00277     0.00001    -0.00079
 PZ  O  60  -0.00192    -0.06237    -0.05810    -0.00550    -0.00027     0.03127
  
  S  O  61   0.05710     0.51493     0.09579     0.02822     0.00087    -0.09654
 PX  O  61   0.01055     0.06771    -0.01773     0.00228    -0.00001     0.00153
 PY  O  61   0.00398     0.00400    -0.04862     0.00125    -0.00012     0.01509
 PZ  O  61  -0.00685    -0.04390     0.01157    -0.00138     0.00001    -0.00153
  
  S  H  62  -0.02250    -0.11340     0.04745     0.02150     0.00105    -0.12059
  
  S  H  63  -0.01110     0.00476     0.02755     0.00830     0.00001     0.00130
  
  S  H  64   0.00838     0.04288    -0.05597    -0.00908    -0.00044     0.05047
  
  S  H  65   0.02534    -0.00892     0.00609    -0.02732    -0.00012     0.00171
  
  S  H  66   0.00636    -0.02039     0.02594     0.01168     0.00012    -0.02232
  
  S  H  67  -0.05618     0.00824    -0.00523     0.05271     0.00376     0.01208
  
  S  H  68  -0.02498     0.01083    -0.01170    -0.03080     0.01323     0.00404
  
  S  H  69  -0.02827     0.00562    -0.00575    -0.07730     0.05293    -0.01139
  
  S  H  70  -0.04220     0.00579    -0.00491    -0.07183    -0.02250    -0.01479
  
  S  H  71  -0.04654     0.00402    -0.00184     0.05093    -0.03494     0.01118
  
  S  H  72  -0.02685     0.00465    -0.00438    -0.06013    -0.06384    -0.01016
  
  S  H  73  -0.04275     0.00625    -0.00536    -0.07601     0.00824    -0.01546
  
[...]
    79       H          4.28914670  * -15.96645783  *   2.39909549  *
    80       H          6.14774804  * -16.67973705  *   3.88896952  *
    81       H          5.86089394  * -18.53402300  *   5.48721921  *
    82       H          3.69157400  * -19.75906673  *   5.64751531  *
    83       H         -3.37765654  * -15.62476367  *  -4.98125654  *
    84       H         -5.40714195  * -16.08182595  *  -6.34400202  *
    85       H         -5.64715749  * -18.18418646  *  -7.60784908  *
    86       H         -3.85756694  * -19.92366742  *  -7.54675889  *
    87       H          1.31060198  * -18.60068309  *  -4.09182001  *
    88       H          2.01961669  * -20.85857330  *  -4.85563796  *
    89       H          0.57564607  * -22.22266445  *  -6.31496429  *
    90       H         -1.64336694  * -21.36907725  *  -7.07630580  *
    91       H          2.05865692  *   3.21449029  *  -0.15271369  *

                             CARTESIAN COORDINATES

   1    N        0.017481206    -0.371332926     1.072476603
   2    C        1.011945963    -0.208398058     0.505201429
   3    C        2.219938225     0.008932254    -0.203320565
   4    C        2.997001188    -0.995419068    -0.653449630
   5    C        2.711247946    -2.379828112    -0.412376218
   6    C        2.180307088    -2.927350939     0.725070594
   7    C        2.054829706    -4.347843850     0.624442333
   8    C        2.495182158    -4.816615660    -0.583805208
   9    S        3.067107677    -3.562335422    -1.595626817
  10    C        2.499673570    -6.175780009    -1.020548056
  11    C        3.505011656    -6.810268091    -1.696878349
  12    C        3.179946511    -8.173374186    -1.984456556
  13    C        1.942620783    -8.514525335    -1.513271066
  14    S        1.165425382    -7.207825596    -0.724669846
  15    C        1.310969484    -9.789929077    -1.627042020
  16    C        0.024695235   -10.034439220    -2.012685075
  17    C       -0.295415617   -11.429673630    -1.991772279
  18    C        0.773500298   -12.188083030    -1.597294031
  19    S        2.174575897   -11.228040920    -1.256470636
  20    N        0.820605828   -13.579242760    -1.537014900
  21    C        0.234350037   -14.431069820    -2.502318230
  22    C       -0.218748694   -14.130410390    -3.782486149
  23    C       -0.697613965   -15.177084310    -4.553388326
  24    C       -0.729601813   -16.488587970    -4.045297183
  25    C       -0.276129776   -16.796753390    -2.761298224
  26    C        0.213621823   -15.755870160    -1.992697052
  27    C        0.754456622   -15.707369120    -0.655926239
  28    C        1.089356179   -14.354225760    -0.384042884
  29    C        1.615946861   -13.963532330     0.842428807
  30    C        1.812997120   -14.946906280     1.798005343
  31    C        1.503608696   -16.290953160     1.521170435
  32    C        0.973386770   -16.690116100     0.292856074
  33    N        1.733952424   -17.264474630     2.521546370
  34    C        0.804603178   -18.224717290     2.968945847
  35    C       -0.520031101   -18.422067890     2.590438091
  36    C       -1.206925064   -19.452546610     3.213722033
  37    C       -0.603257698   -20.256507080     4.185979955
  38    C        0.712084135   -20.047810060     4.573830465
  39    C        1.423338523   -19.025724330     3.966844375
  40    C        2.769549248   -18.538216210     4.131663570
  41    C        2.938694536   -17.454776510     3.227085593
  42    C        4.149492909   -16.777625760     3.116122367
  43    C        5.181112402   -17.190251470     3.945435583
  44    C        5.020604681   -18.244331240     4.850352211
  45    C        3.818134513   -18.929080880     4.948016049
  46    N       -1.233881278   -17.526133410    -4.864566323
  47    C       -2.470882682   -17.519517930    -5.538817007
  48    C       -3.470241248   -16.551003960    -5.551368833
  49    C       -4.600551507   -16.820922910    -6.307497439
  50    C       -4.739219833   -18.014733710    -7.022565474
  51    C       -3.748960786   -18.985869200    -6.996367679
  52    C       -2.608002463   -18.743117930    -6.249357287
  53    C       -1.419994357   -19.518918400    -5.996508313
  54    C       -0.587574224   -18.747464550    -5.140837842
  55    C        0.658923486   -19.205956440    -4.724958284
  56    C        1.047110070   -20.462183680    -5.164553329
  57    C        0.229809138   -21.235927230    -5.994940031
  58    C       -1.005612588   -20.770821680    -6.420921117
  59    C        2.606902443     1.400787434    -0.473783949
  60    O        3.585522252     1.772770774    -1.105464861
  61    O        1.766558644     2.314033081     0.051531784
  62    H        3.901310975    -0.777487733    -1.243208647
  63    H        1.904237167    -2.379918047     1.624769058
  64    H        1.658026203    -4.962058783     1.429740562
  65    H        4.450676352    -6.358302735    -1.986997574
  66    H        3.852232260    -8.837694857    -2.522476200
  67    H       -0.696797752    -9.274727709    -2.305799502
  68    H       -1.278806212   -11.814113260    -2.254345923
  69    H       -0.183989879   -13.111345650    -4.175500358
  70    H       -1.043115768   -14.977295780    -5.574027866
  71    H       -0.308538899   -17.814815250    -2.362215515
  72    H        1.856118858   -12.918519520     1.053609226
  73    H        2.204046078   -14.666801210     2.782722374
  74    H        0.742401345   -17.736359160     0.071879202
  75    H       -1.004610393   -17.787259080     1.846106938
  76    H       -2.249806950   -19.641079620     2.939526478
  77    H       -1.182405982   -21.060156640     4.649019529
  78    H        1.184562610   -20.668223010     5.339335354
  79    H        4.289146696   -15.966457830     2.399095486
  80    H        6.147748036   -16.679737050     3.888969524
  81    H        5.860893940   -18.534023000     5.487219215
  82    H        3.691574001   -19.759066730     5.647515312
  83    H       -3.377656537   -15.624763670    -4.981256543
  84    H       -5.407141948   -16.081825950    -6.344002019
  85    H       -5.647157489   -18.184186460    -7.607849084
  86    H       -3.857566942   -19.923667420    -7.546758886
  87    H        1.310601983   -18.600683090    -4.091820011
  88    H        2.019616690   -20.858573300    -4.855637964
  89    H        0.575646074   -22.222664450    -6.314964290
  90    H       -1.643366944   -21.369077250    -7.076305799
  91    H        2.058656921     3.214490290    -0.152713685


           Empirical Formula: C52 H30 N4 O2 S3  =    91 atoms



      MOLECULAR POINT GROUP   :   C1  


                  EIGENVALUES  
 -48.90681 -48.58968 -48.11952 -46.79145 -43.63083 -43.28226 -42.99775 -42.89645
 -42.89520 -42.41934 -41.55431 -40.96378 -40.22908 -39.69183 -39.15748 -36.65884
 -36.33544 -36.31564 -35.72115 -34.05273 -33.52410 -33.18804 -32.80646 -32.41682
 -31.85114 -31.42117 -30.89030 -30.48053 -30.45751 -30.02192 -29.67450 -29.12592
 -29.04058 -28.51631 -27.81308 -27.05431 -26.58744 -26.37414 -26.13178 -25.87258
 -25.73393 -25.42023 -24.91339 -24.68016 -23.89003 -23.76452 -23.72579 -23.62606
 -23.28809 -23.12946 -22.92255 -22.09728 -21.67822 -21.02108 -20.61654 -20.33029
 -20.30373 -20.18922 -20.05390 -19.91247 -19.47269 -19.29073 -18.96771 -18.61191
 -17.98737 -17.78737 -17.59969 -17.11389 -16.90414 -16.85084 -16.74521 -16.63906
 -16.60291 -16.54258 -16.23241 -16.12198 -16.02184 -15.95094 -15.92936 -15.84394
 -15.67418 -15.53431 -15.36985 -15.34287 -15.28514 -15.02225 -14.89999 -14.87836
 -14.85063 -14.80843 -14.72102 -14.51433 -14.40792 -14.24344 -14.01200 -13.94983
 -13.73639 -13.50667 -13.38232 -13.28055 -13.03230 -13.01082 -12.98241 -12.97207
 -12.94975 -12.94031 -12.86306 -12.83373 -12.74718 -12.69169 -12.61572 -12.56702
 -12.51179 -12.16809 -12.13838 -12.04530 -11.85603 -11.83011 -11.82556 -11.81002
 -11.78076 -11.60439 -11.16363 -10.98129 -10.84227 -10.33858 -10.11890 -10.08773
 -10.04962 -10.00145  -9.98195  -9.86796  -9.14207  -9.07185  -9.04937  -8.94508
  -8.28021  -7.99562  -7.82572  -7.78101  -7.77826  -7.39501  -7.29293  -6.96479
  -1.18222  -0.27241   0.06859   0.18265   0.19068   0.37405   0.57603   0.73078
   0.73269   0.75634   0.88122   1.12232   1.15979   1.28073   1.42186   1.50947
   1.51886   1.62665   1.84522   2.01055   2.11795   2.14715   2.22262   2.30108
   2.50972   2.56166   2.59372   2.74510   2.79319   2.83133   2.90695   2.95678
   3.04339   3.09135   3.11242   3.15068   3.35697   3.45749   3.46379   3.50337
   3.58217   3.66124   3.73514   3.74147   3.77677   3.88170   3.88688   3.99436
   4.09348   4.22871   4.22896   4.22950   4.30693   4.31816   4.43277   4.54950
   4.72664   4.99105   5.17429   5.19321   5.28170   5.43059   5.49449   5.49518
   5.56157   5.59567   5.62649   5.67999   5.76268   5.89768   5.89779   6.14879
   6.32602   6.41442   6.46789   6.46817   6.48548   6.85507   7.33249   7.33842
   7.67890   8.12489   8.34116   8.62262   8.63144   8.67346   8.67489   8.71582
   8.72175   8.72868   8.99388   9.07898   9.12080   9.19453   9.42368   9.61148
   9.77471   9.77493  10.23192  10.34650  10.41361  10.52026  10.80900  10.84523
  10.86251  10.94468  10.96256  11.08189  11.33480  11.33751  11.43152  11.68834
  11.71011  12.02395  12.47333  12.60437  12.71656  12.75005  12.77982  12.97022
  13.04437  13.06108  13.61697  13.71918  14.14015  14.19855  14.91709  14.91902
  14.95320  15.43901


              NET ATOMIC CHARGES AND DIPOLE CONTRIBUTIONS

  ATOM NO.   TYPE          CHARGE      No. of ELECS.   s-Pop       p-Pop       
    1          N          -0.397704        5.3977     1.75350     3.64421
    2          C           0.218207        3.7818     1.14882     2.63298
    3          C           0.017226        3.9828     1.00109     2.98169
    4          C           0.132553        3.8674     1.09469     2.77276
    5          C           0.011833        3.9882     1.06334     2.92482
    6          C           0.015161        3.9848     1.09510     2.88974
    7          C          -0.049429        4.0494     1.08284     2.96658
    8          C           0.073625        3.9264     1.07571     2.85066
    9          S          -0.035931        6.0359     1.77174     4.26419
   10          C           0.032239        3.9678     1.06749     2.90027
   11          C          -0.029417        4.0294     1.08754     2.94188
   12          C          -0.045890        4.0459     1.08472     2.96117
   13          C           0.046737        3.9533     1.07130     2.88196
   14          S          -0.044563        6.0446     1.77270     4.27186
   15          C           0.031858        3.9681     1.06839     2.89975
   16          C          -0.040650        4.0407     1.08441     2.95624
   17          C          -0.053183        4.0532     1.08364     2.96954
   18          C           0.105385        3.8946     1.06773     2.82689
   19          S          -0.047783        6.0478     1.77689     4.27090
   20          N          -0.122275        5.1223     1.23261     3.88967
   21          C           0.068212        3.9318     1.04968     2.88211
   22          C          -0.034036        4.0340     1.07863     2.95541
   23          C          -0.030254        4.0303     1.08113     2.94913
   24          C           0.079066        3.9209     1.03914     2.88180
   25          C          -0.030248        4.0302     1.07957     2.95068
   26          C          -0.010217        4.0102     1.04920     2.96102
   27          C          -0.009319        4.0093     1.04938     2.95994
   28          C           0.069856        3.9301     1.04880     2.88134
   29          C          -0.034972        4.0350     1.07747     2.95751
   30          C          -0.030436        4.0304     1.08089     2.94955
   31          C           0.079716        3.9203     1.03893     2.88135
   32          C          -0.029446        4.0294     1.07963     2.94981
   33          N          -0.132560        5.1326     1.22809     3.90447
   34          C           0.078459        3.9215     1.05060     2.87094
   35          C          -0.042171        4.0422     1.07637     2.96580
   36          C          -0.024246        4.0242     1.08066     2.94359
   37          C          -0.045255        4.0453     1.07745     2.96780
   38          C          -0.021234        4.0212     1.07922     2.94201
   39          C          -0.017148        4.0171     1.04761     2.96953
   40          C          -0.017082        4.0171     1.04768     2.96940
   41          C           0.078288        3.9217     1.05057     2.87114
   42          C          -0.042717        4.0427     1.07636     2.96636
   43          C          -0.024318        4.0243     1.08058     2.94373
   44          C          -0.045137        4.0451     1.07743     2.96771
   45          C          -0.021172        4.0212     1.07923     2.94194
   46          N          -0.132996        5.1330     1.22814     3.90486
   47          C           0.077847        3.9222     1.05064     2.87151
   48          C          -0.042822        4.0428     1.07637     2.96645
   49          C          -0.024422        4.0244     1.08059     2.94383
   50          C          -0.045259        4.0453     1.07748     2.96778
   51          C          -0.021217        4.0212     1.07926     2.94196
   52          C          -0.017246        4.0172     1.04772     2.96952
   53          C          -0.017403        4.0174     1.04766     2.96974
   54          C           0.078149        3.9219     1.05062     2.87123
   55          C          -0.042269        4.0423     1.07642     2.96585
   56          C          -0.024263        4.0243     1.08067     2.94359
   57          C          -0.045106        4.0451     1.07749     2.96762
   58          C          -0.021060        4.0211     1.07923     2.94183
   59          C           0.501143        3.4989     1.04439     2.45447
   60          O          -0.606670        6.6067     1.81658     4.79009
   61          O          -0.308949        6.3089     1.68703     4.62192
   62          H           0.065086        0.9349     0.93491
   63          H           0.047487        0.9525     0.95251
   64          H           0.036474        0.9635     0.96353
   65          H           0.035528        0.9645     0.96447
   66          H           0.032927        0.9671     0.96707
   67          H           0.034998        0.9650     0.96500
   68          H           0.035621        0.9644     0.96438
   69          H           0.030267        0.9697     0.96973
   70          H           0.028307        0.9717     0.97169
   71          H           0.031672        0.9683     0.96833
   72          H           0.028274        0.9717     0.97173
   73          H           0.028043        0.9720     0.97196
   74          H           0.032245        0.9678     0.96776
   75          H           0.028028        0.9720     0.97197
   76          H           0.019297        0.9807     0.98070
   77          H           0.016203        0.9838     0.98380
   78          H           0.023571        0.9764     0.97643
   79          H           0.027703        0.9723     0.97230
   80          H           0.019129        0.9809     0.98087
   81          H           0.016315        0.9837     0.98369
   82          H           0.023615        0.9764     0.97638
   83          H           0.027917        0.9721     0.97208
   84          H           0.019088        0.9809     0.98091
   85          H           0.016405        0.9836     0.98359
   86          H           0.023718        0.9763     0.97628
   87          H           0.028253        0.9717     0.97175
   88          H           0.019215        0.9808     0.98079
   89          H           0.016426        0.9836     0.98357
   90          H           0.023733        0.9763     0.97627
   91          H           0.247371        0.7526     0.75263
 DIPOLE           X         Y         Z       TOTAL
 POINT-CHG.     1.506    -2.346    -0.719     2.879
 HYBRID         0.288     1.263    -0.321     1.335
 SUM            1.794    -1.083    -1.040     2.339


          ATOMIC ORBITAL ELECTRON POPULATIONS

     Atom    s        px        py        pz   
    1  N   1.75350   1.22185   1.23116   1.19121
    2  C   1.14882   0.92938   0.80922   0.89438
    3  C   1.00109   0.97918   0.91510   1.08741
    4  C   1.09469   0.92833   0.99630   0.84814
    5  C   1.06334   1.05424   0.90915   0.96143
    6  C   1.09510   0.93919   0.99322   0.95734
    7  C   1.08284   1.03096   0.96911   0.96652
    8  C   1.07571   0.96805   0.91720   0.96542
    9  S   1.77174   1.78522   1.14096   1.33801
   10  C   1.06749   0.94705   0.92625   1.02698
   11  C   1.08754   0.95333   0.99506   0.99348
   12  C   1.08472   0.96545   0.97948   1.01625
   13  C   1.07130   0.98205   0.91225   0.98766
   14  S   1.77270   1.34634   1.19570   1.72983
   15  C   1.06839   0.97449   0.89508   1.03018
   16  C   1.08441   0.95988   0.96941   1.02694
   17  C   1.08364   0.94035   0.98317   1.04602
   18  C   1.06773   0.94357   0.86129   1.02202
   19  S   1.77689   1.27888   1.14490   1.84712
   20  N   1.23261   1.64468   1.06227   1.18271
   21  C   1.04968   0.98327   0.95979   0.93905
   22  C   1.07863   1.02550   0.95536   0.97455
   23  C   1.08113   1.01790   0.97412   0.95711
   24  C   1.03914   0.99562   0.92990   0.95628
   25  C   1.07957   1.02639   0.95199   0.97230
   26  C   1.04920   1.01139   0.97679   0.97284
   27  C   1.04938   1.01249   0.97866   0.96880
   28  C   1.04880   1.00544   0.96599   0.90991
   29  C   1.07747   1.02098   0.95161   0.98491
   30  C   1.08089   1.01678   0.97129   0.96148
   31  C   1.03893   1.00849   0.93656   0.93630
   32  C   1.07963   1.02405   0.95014   0.97562
   33  N   1.22809   1.16137   1.34567   1.39743
   34  C   1.05060   0.94080   0.94307   0.98708
   35  C   1.07637   0.96903   0.99782   0.99894
   36  C   1.08066   0.95057   0.99941   0.99360
   37  C   1.07745   0.98199   0.98143   1.00438
   38  C   1.07922   0.98722   0.98111   0.97368
   39  C   1.04761   0.97281   0.99086   1.00586
   40  C   1.04768   0.96441   1.00267   1.00232
   41  C   1.05057   0.90581   0.99553   0.96980
   42  C   1.07636   0.98051   0.98732   0.99853
   43  C   1.08058   0.95698   0.98577   1.00098
   44  C   1.07743   0.96647   1.00565   0.99559
   45  C   1.07923   0.99476   0.96942   0.97775
   46  N   1.22814   1.21633   1.19305   1.49548
   47  C   1.05064   0.90326   0.99753   0.97072
   48  C   1.07637   0.99053   0.96112   1.01480
   49  C   1.08059   0.96898   0.97300   1.00185
   50  C   1.07748   0.96548   0.99728   1.00502
   51  C   1.07926   0.99474   0.96020   0.98701
   52  C   1.04772   0.96898   0.99062   1.00992
   53  C   1.04766   0.98519   0.96985   1.01470
   54  C   1.05062   0.96905   0.90924   0.99293
   55  C   1.07642   0.96835   0.98468   1.01283
   56  C   1.08067   0.95688   0.99296   0.99375
   57  C   1.07749   0.99477   0.95734   1.01551
   58  C   1.07923   0.98031   0.97971   0.98181
   59  C   1.04439   0.80731   0.92074   0.72642
   60  O   1.81658   1.39285   1.91294   1.48430
   61  O   1.68703   1.61492   1.23141   1.77559
   62  H   0.93491
   63  H   0.95251
   64  H   0.96353
   65  H   0.96447
   66  H   0.96707
   67  H   0.96500
   68  H   0.96438
   69  H   0.96973
   70  H   0.97169
   71  H   0.96833
   72  H   0.97173
   73  H   0.97196
   74  H   0.96776
   75  H   0.97197
   76  H   0.98070
   77  H   0.98380
   78  H   0.97643
   79  H   0.97230
   80  H   0.98087
   81  H   0.98369
   82  H   0.97638
   83  H   0.97208
   84  H   0.98091
   85  H   0.98359
   86  H   0.97628
   87  H   0.97175
   88  H   0.98079
   89  H   0.98357
   90  H   0.97627
   91  H   0.75263

 **********************
 *                    *
 * JOB ENDED NORMALLY *
 *                    *
 **********************



 TOTAL JOB TIME:           660.08 SECONDS

 == MOPAC DONE ==
