 *******************************************************************************
 ** Site#: 4824         For non-commercial use only    Version 21.013L 64BITS **
 *******************************************************************************
 ** Cite this program as: MOPAC2016, Version: 21.013L, James J. P. Stewart,   **
 ** Stewart Computational Chemistry, web: HTTP://OpenMOPAC.net. Days left:  84**
 *******************************************************************************
 **                                                                           **
 **                                MOPAC2016                                  **
 **                                                                           **
 *******************************************************************************

                              INDO CALCULATION RESULTS

 *******************************************************************************
 *  CALCULATION DONE:                                Thu Oct 21 14:52:28 2021  *
 *  INDO       - The INDO Hamiltonian to be used
 *  CIS        - C.I. USES 1 ELECTRON EXCITATIONS ONLY
 *  EPS=  8.93 - USE ANDREAS KLAMT'S COSMO IMPLICIT SOLVATION MODEL
 *  n**2 =  1.420 for COSMO-CI
 *  T=         - A TIME OF 172800.0 SECONDS REQUESTED
 *  DUMP=N     - RESTART FILE WRITTEN EVERY 7200.0 SECONDS REQUESTED
 *******************************************************************************
INDO CIS EPS=8.93 N**2=1.42
 Dye71
 Calculo de Estados Excitados
   ATOM   CHEMICAL          X               Y               Z
  NUMBER   SYMBOL      (ANGSTROMS)     (ANGSTROMS)     (ANGSTROMS)
 
     1       C          0.00000000  *   0.00000000  *   0.00000000  *
     2       C          1.51999605  *   0.00000000  *   0.00000000  *
     3       C          2.06139727  *   1.42738430  *   0.00000000  *
     4       C          3.58833069  *   1.42834601  *  -0.00884226  *
     5       C          4.12797619  *   2.85715001  *   0.02594131  *
     6       C          5.65143836  *   2.86051269  *  -0.06328055  *
     7       C          6.24848199  *   4.22063806  *   0.28581097  *
     8       C          5.72903306  *   5.31865986  *  -0.65272154  *
     9       N          6.52902266  *   6.54068051  *  -0.55872735  *
    10       C          7.84372146  *   6.60228539  *  -1.05514398  *
    11       C          8.47233836  *   5.76872302  *  -1.98120838  *
    12       C          9.75720429  *   6.09823300  *  -2.37146700  *
    13       C         10.40944939  *   7.23049267  *  -1.85730255  *
    14       C          9.78662455  *   8.05622669  *  -0.92405462  *
    15       C          8.50531960  *   7.73515899  *  -0.50974035  *
    16       C          7.59118091  *   8.34546006  *   0.42512622  *
    17       C          6.38856937  *   7.57393659  *   0.40253064  *
    18       C          5.28832655  *   7.92517841  *   1.18206345  *
    19       C          4.02510539  *   7.19510703  *   1.17507685  *
    20       C          3.04331316  *   7.51851192  *   0.24038386  *
    21       C          1.83248939  *   6.83964017  *   0.25050268  *
    22       C          1.59706820  *   5.83945706  *   1.19073964  *
    23       C          2.57609250  *   5.52604433  *   2.12840019  *
    24       C          3.79017000  *   6.20207016  *   2.12233984  *
    25       C          0.28494132  *   5.12637968  *   1.19049568  *
    26       C         -0.78100059  *   6.01796916  *   1.80999925  *
    27       C          5.43153785  *   9.04167751  *   1.99031279  *
    28       C          6.64320025  *   9.80184125  *   2.02881643  *
    29       C          7.73359985  *   9.46335507  *   1.23622821  *
    30       C          8.98571591  *  10.21141042  *   1.20501728  *
    31       C          9.11059332  *  11.32071603  *   0.37104554  *
    32       C         10.32454058  *  11.98951321  *   0.29226271  *
    33       C         11.41464973  *  11.55556618  *   1.04281495  *
    34       C         11.28154065  *  10.45669850  *   1.88589710  *
    35       C         10.06844312  *   9.78424821  *   1.96942445  *
    36       C         12.72248962  *  12.26421139  *   0.91138405  *
    37       C         13.37147780  *  11.89134111  *  -0.41366397  *
    38       N          6.45861488  *  10.92810042  *   2.87639683  *
    39       C          5.17781854  *  10.78932141  *   3.46653775  *
    40       C          4.50539320  *   9.67655810  *   2.89863415  *
    41       C          3.19596344  *   9.40209589  *   3.25981335  *
    42       C          2.57906812  *  10.22360332  *   4.19289327  *
    43       C          3.25441807  *  11.30758389  *   4.75816215  *
    44       C          4.56133730  *  11.60993239  *   4.40724658  *
    45       C          7.53640320  *  11.60773974  *   3.60209039  *
    46       C          7.99081372  *  10.82171952  *   4.83948721  *
    47       C          8.82533168  *  11.68842307  *   5.77749800  *
    48       C         10.09649483  *  12.20902970  *   5.11080501  *
    49       C         11.02331860  *  12.83684896  *   6.15000657  *
    50       C         12.24654609  *  13.49091614  *   5.51133731  *
    51       C         13.24434187  *  12.45907534  *   4.99439720  *
    52       C         14.46623433  *  13.14271112  *   4.40099113  *
    53       C         11.74782423  *   7.55147805  *  -2.29054329  *
    54       C         12.73968010  *   8.07525678  *  -1.49761093  *
    55       C         13.93443703  *   8.30212407  *  -2.23163805  *
    56       C         13.81198534  *   7.93342209  *  -3.55611667  *
    57       S         12.25472306  *   7.33493441  *  -3.89595971  *
    58       C         14.88269495  *   8.06633569  *  -4.49241122  *
    59       C         14.90090263  *   7.58227727  *  -5.75359289  *
    60       C         16.08311564  *   7.81195093  *  -6.59156147  *
    61       O         17.09712325  *   8.41956072  *  -6.27533652  *
    62       O         15.99179964  *   7.27862525  *  -7.82706762  *
    63       C         13.83786009  *   6.84674885  *  -6.32986839  *
    64       N         12.98523436  *   6.24210238  *  -6.82590768  *
    65       H         15.76376546  *   8.61689229  *  -4.12056922  *
    66       H         -0.41722419  *   0.50430782  *  -0.88354875  *
    67       H         -0.40915956  *  -1.02070743  *   0.00203119  *
    68       H         -0.41714600  *   0.50795896  *   0.88148533  *
    69       H          1.90198237  *  -0.56170109  *   0.87868354  *
    70       H          1.90245882  *  -0.56112222  *  -0.87882024  *
    71       H          1.66846342  *   1.98646008  *  -0.87552398  *
    72       H          1.67867170  *   1.98385859  *   0.88206906  *
    73       H          3.97815789  *   0.84652304  *   0.85317697  *
    74       H          3.96988772  *   0.89386054  *  -0.90440035  *
    75       H          3.68872184  *   3.44631744  *  -0.80663797  *
    76       H          3.78892542  *   3.37565356  *   0.94867602  *
    77       H          6.08125346  *   2.09419483  *   0.61776183  *
    78       H          5.97795285  *   2.54055144  *  -1.07584656  *
    79       H          6.02864287  *   4.48646856  *   1.34177184  *
    80       H          7.35779405  *   4.15997562  *   0.23916363  *
    81       H          5.74171999  *   4.97748474  *  -1.71497846  *
    82       H          4.66257088  *   5.55939989  *  -0.44574339  *
    83       H          7.97657449  *   4.88581664  *  -2.38940707  *
    84       H         10.27534468  *   5.45607877  *  -3.09196273  *
    85       H         10.29042048  *   8.94714663  *  -0.53760161  *
    86       H          3.22779792  *   8.30719080  *  -0.49548850  *
    87       H          1.06184947  *   7.09410895  *  -0.48364443  *
    88       H          2.39642625  *   4.74876628  *   2.87746722  *
    89       H          4.55712069  *   5.96133332  *   2.86486750  *
    90       H          0.00124269  *   4.83801933  *   0.15515041  *
    91       H          0.34602998  *   4.15833648  *   1.73255157  *
    92       H         -0.90116191  *   6.96323144  *   1.26121931  *
    93       H         -1.76587425  *   5.52945225  *   1.82270215  *
    94       H         -0.54312264  *   6.28275666  *   2.85023657  *
    95       H          8.25545160  *  11.65621037  *  -0.22381407  *
    96       H         10.42325990  *  12.85802369  *  -0.36622177  *
    97       H         12.13060689  *  10.10916989  *   2.48237125  *
    98       H          9.96656539  *   8.91336955  *   2.62421304  *
    99       H         12.57561669  *  13.36388904  *   0.98013614  *
   100       H         13.40395585  *  12.03081120  *   1.75802108  *
   101       H         12.75713626  *  12.18986956  *  -1.27545513  *
   102       H         14.35113345  *  12.37433741  *  -0.53908171  *
   103       H         13.53564776  *  10.80683699  *  -0.50406279  *
   104       H          2.65770422  *   8.55805343  *   2.81994448  *
   105       H          1.54699543  *  10.02101176  *   4.49183178  *
   106       H          2.73962965  *  11.93285991  *   5.49452955  *
   107       H          5.07486435  *  12.46276360  *   4.85431920  *
   108       H          8.38365884  *  11.79359977  *   2.90502752  *
   109       H          7.17126760  *  12.62358568  *   3.88212147  *
   110       H          7.11207372  *  10.42301300  *   5.39222797  *
   111       H          8.55751992  *   9.91783951  *   4.53013333  *
   112       H          8.21858813  *  12.53467158  *   6.16501173  *
   113       H          9.08042356  *  11.09667378  *   6.68342842  *
   114       H         10.60904069  *  11.38812786  *   4.56623373  *
   115       H          9.84719740  *  12.95497037  *   4.32703676  *
   116       H         10.46517863  *  13.59544778  *   6.74062719  *
   117       H         11.33783201  *  12.08079181  *   6.90021172  *
   118       H         11.94018031  *  14.17771188  *   4.69427122  *
   119       H         12.74340810  *  14.15251026  *   6.25378942  *
   120       H         13.55052052  *  11.77037357  *   5.81011434  *
   121       H         12.77490467  *  11.80107058  *   4.23319865  *
   122       H         14.20718205  *  13.80420563  *   3.56131414  *
   123       H         14.99883826  *  13.76068355  *   5.13815870  *
   124       H         15.19525671  *  12.41523734  *   4.01526007  *
   125       H         12.64549651  *   8.28656660  *  -0.43500788  *
   126       H         14.83567056  *   8.71470819  *  -1.78126504  *
   127       H         16.79249200  *   7.45551988  *  -8.34161509  *
 


          CARTESIAN COORDINATES 

    NO.       ATOM           X           Y           Z

     1         C          0.0000      0.0000      0.0000
     2         C          1.5200      0.0000      0.0000
     3         C          2.0614      1.4274      0.0000
     4         C          3.5883      1.4283     -0.0088
     5         C          4.1280      2.8572      0.0259
     6         C          5.6514      2.8605     -0.0633
     7         C          6.2485      4.2206      0.2858
     8         C          5.7290      5.3187     -0.6527
     9         N          6.5290      6.5407     -0.5587
    10         C          7.8437      6.6023     -1.0551
    11         C          8.4723      5.7687     -1.9812
    12         C          9.7572      6.0982     -2.3715
    13         C         10.4094      7.2305     -1.8573
    14         C          9.7866      8.0562     -0.9241
    15         C          8.5053      7.7352     -0.5097
    16         C          7.5912      8.3455      0.4251
    17         C          6.3886      7.5739      0.4025
    18         C          5.2883      7.9252      1.1821
    19         C          4.0251      7.1951      1.1751
    20         C          3.0433      7.5185      0.2404
    21         C          1.8325      6.8396      0.2505
    22         C          1.5971      5.8395      1.1907
    23         C          2.5761      5.5260      2.1284
    24         C          3.7902      6.2021      2.1223
    25         C          0.2849      5.1264      1.1905
    26         C         -0.7810      6.0180      1.8100
    27         C          5.4315      9.0417      1.9903
    28         C          6.6432      9.8018      2.0288
    29         C          7.7336      9.4634      1.2362
    30         C          8.9857     10.2114      1.2050
    31         C          9.1106     11.3207      0.3710
    32         C         10.3245     11.9895      0.2923
    33         C         11.4146     11.5556      1.0428
    34         C         11.2815     10.4567      1.8859
    35         C         10.0684      9.7842      1.9694
    36         C         12.7225     12.2642      0.9114
    37         C         13.3715     11.8913     -0.4137
    38         N          6.4586     10.9281      2.8764
    39         C          5.1778     10.7893      3.4665
    40         C          4.5054      9.6766      2.8986
    41         C          3.1960      9.4021      3.2598
    42         C          2.5791     10.2236      4.1929
    43         C          3.2544     11.3076      4.7582
    44         C          4.5613     11.6099      4.4072
    45         C          7.5364     11.6077      3.6021
    46         C          7.9908     10.8217      4.8395
    47         C          8.8253     11.6884      5.7775
    48         C         10.0965     12.2090      5.1108
    49         C         11.0233     12.8368      6.1500
    50         C         12.2465     13.4909      5.5113
    51         C         13.2443     12.4591      4.9944
    52         C         14.4662     13.1427      4.4010
    53         C         11.7478      7.5515     -2.2905
    54         C         12.7397      8.0753     -1.4976
    55         C         13.9344      8.3021     -2.2316
    56         C         13.8120      7.9334     -3.5561
    57         S         12.2547      7.3349     -3.8960
    58         C         14.8827      8.0663     -4.4924
    59         C         14.9009      7.5823     -5.7536
    60         C         16.0831      7.8120     -6.5916
    61         O         17.0971      8.4196     -6.2753
    62         O         15.9918      7.2786     -7.8271
    63         C         13.8379      6.8467     -6.3299
    64         N         12.9852      6.2421     -6.8259
    65         H         15.7638      8.6169     -4.1206
    66         H         -0.4172      0.5043     -0.8835
    67         H         -0.4092     -1.0207      0.0020
    68         H         -0.4171      0.5080      0.8815
    69         H          1.9020     -0.5617      0.8787
    70         H          1.9025     -0.5611     -0.8788
    71         H          1.6685      1.9865     -0.8755
    72         H          1.6787      1.9839      0.8821
    73         H          3.9782      0.8465      0.8532
    74         H          3.9699      0.8939     -0.9044
    75         H          3.6887      3.4463     -0.8066
    76         H          3.7889      3.3757      0.9487
    77         H          6.0813      2.0942      0.6178
    78         H          5.9780      2.5406     -1.0758
    79         H          6.0286      4.4865      1.3418
    80         H          7.3578      4.1600      0.2392
    81         H          5.7417      4.9775     -1.7150
    82         H          4.6626      5.5594     -0.4457
    83         H          7.9766      4.8858     -2.3894
    84         H         10.2753      5.4561     -3.0920
    85         H         10.2904      8.9471     -0.5376
    86         H          3.2278      8.3072     -0.4955
    87         H          1.0618      7.0941     -0.4836
    88         H          2.3964      4.7488      2.8775
    89         H          4.5571      5.9613      2.8649
    90         H          0.0012      4.8380      0.1552
    91         H          0.3460      4.1583      1.7326
    92         H         -0.9012      6.9632      1.2612
    93         H         -1.7659      5.5295      1.8227
    94         H         -0.5431      6.2828      2.8502
    95         H          8.2555     11.6562     -0.2238
    96         H         10.4233     12.8580     -0.3662
    97         H         12.1306     10.1092      2.4824
    98         H          9.9666      8.9134      2.6242
    99         H         12.5756     13.3639      0.9801
   100         H         13.4040     12.0308      1.7580
   101         H         12.7571     12.1899     -1.2755
   102         H         14.3511     12.3743     -0.5391
   103         H         13.5356     10.8068     -0.5041
   104         H          2.6577      8.5581      2.8199
   105         H          1.5470     10.0210      4.4918
   106         H          2.7396     11.9329      5.4945
   107         H          5.0749     12.4628      4.8543
   108         H          8.3837     11.7936      2.9050
   109         H          7.1713     12.6236      3.8821
   110         H          7.1121     10.4230      5.3922
   111         H          8.5575      9.9178      4.5301
   112         H          8.2186     12.5347      6.1650
   113         H          9.0804     11.0967      6.6834
   114         H         10.6090     11.3881      4.5662
   115         H          9.8472     12.9550      4.3270
   116         H         10.4652     13.5954      6.7406
   117         H         11.3378     12.0808      6.9002
   118         H         11.9402     14.1777      4.6943
   119         H         12.7434     14.1525      6.2538
   120         H         13.5505     11.7704      5.8101
   121         H         12.7749     11.8011      4.2332
   122         H         14.2072     13.8042      3.5613
   123         H         14.9988     13.7607      5.1382
   124         H         15.1953     12.4152      4.0153
   125         H         12.6455      8.2866     -0.4350
   126         H         14.8357      8.7147     -1.7813
   127         H         16.7925      7.4555     -8.3416

           Empirical Formula: C58 H63 N3 O2 S  =   127 atoms



      MOLECULAR POINT GROUP   :   C1  


      RHF CALCULATION, NO. OF DOUBLY OCCUPIED LEVELS = 164

 WARNING: INDO only performs single-point calculations

 Summary of symmetry occupancy in each shell:

 SHELL     
    1  164
    v  155
 TOTAL 319




    ROOT NO.    1           2           3           4           5           6

           -49.17283   -48.00803   -46.75414   -45.35191   -44.76579   -43.75692
  
  
  S  C   1   0.00124    -0.00201    -0.00006     0.01002     0.00963    -0.00938
 PX  C   1   0.00054    -0.00087    -0.00002     0.00394     0.00367    -0.00364
 PY  C   1   0.00022    -0.00032    -0.00001     0.00142     0.00135    -0.00097
 PZ  C   1   0.00001    -0.00000    -0.00000     0.00007     0.00009     0.00004
  
  S  C   2   0.00284    -0.00447    -0.00012     0.01887     0.01722    -0.01732
 PX  C   2   0.00057    -0.00084    -0.00002     0.00214     0.00153    -0.00181
 PY  C   2   0.00099    -0.00148    -0.00004     0.00566     0.00505    -0.00450
 PZ  C   2   0.00001    -0.00000    -0.00000     0.00012     0.00016     0.00008
  
  S  C   3   0.00645    -0.00939    -0.00022     0.03233     0.02794    -0.02542
 PX  C   3   0.00217    -0.00309    -0.00006     0.00718     0.00503    -0.00614
 PY  C   3   0.00074    -0.00076    -0.00001     0.00101     0.00063     0.00158
 PZ  C   3   0.00005    -0.00001    -0.00000     0.00065     0.00082     0.00038
  
  S  C   4   0.01204    -0.01716    -0.00036     0.04313     0.03251    -0.03584
 PX  C   4   0.00167    -0.00224    -0.00003     0.00017    -0.00194    -0.00094
 PY  C   4   0.00416    -0.00551    -0.00011     0.01090     0.00741    -0.00726
 PZ  C   4   0.00004     0.00001    -0.00000     0.00070     0.00083     0.00019
  
  S  C   5   0.02724    -0.03575    -0.00066     0.06449     0.04207    -0.04725
 PX  C   5   0.00737    -0.00987    -0.00014     0.00737     0.00003    -0.01009
 PY  C   5   0.00446    -0.00448    -0.00006     0.00286     0.00079     0.00264
 PZ  C   5  -0.00029     0.00078     0.00000     0.00165     0.00260     0.00189
  
  S  C   6   0.03865    -0.05100    -0.00081     0.06074     0.02736    -0.05551
 PX  C   6  -0.00036     0.00053     0.00005    -0.01015    -0.00956     0.00537
 PY  C   6   0.01438    -0.01779    -0.00025     0.01331     0.00272    -0.01159
 PZ  C   6   0.00017    -0.00001    -0.00001     0.00250     0.00238    -0.00092
  
  S  C   7   0.08305    -0.10192    -0.00137     0.06787     0.01044    -0.07002
 PX  C   7  -0.00355     0.00383     0.00014    -0.01672    -0.01274     0.00854
 PY  C   7   0.02854    -0.03188    -0.00036     0.00503    -0.00880    -0.00952
 PZ  C   7  -0.01633     0.02118     0.00024    -0.00712     0.00429     0.01208
  
  S  C   8   0.14720    -0.17256    -0.00216     0.08003    -0.00682    -0.09035
 PX  C   8   0.04063    -0.05104    -0.00047    -0.00641    -0.02936    -0.02152
 PY  C   8   0.04497    -0.04819    -0.00053     0.00431    -0.01450    -0.01494
 PZ  C   8   0.01695    -0.01710    -0.00029     0.01764     0.00864    -0.01258
  
  S  N   9   0.31734    -0.35375    -0.00372     0.03692    -0.09912    -0.13550
 PX  N   9   0.04964    -0.05840    -0.00027    -0.03166    -0.04036     0.00122
 PY  N   9   0.03057    -0.02212    -0.00014    -0.01849    -0.01320    -0.00102
 PZ  N   9   0.03176    -0.02687    -0.00042     0.01091     0.00132    -0.02072
  
  S  C  10   0.24220    -0.27974    -0.00111    -0.06362    -0.11595     0.05212
 PX  C  10  -0.05320     0.05757     0.00156    -0.03779     0.01097     0.10884
 PY  C  10   0.03833    -0.03522    -0.00010    -0.02307    -0.01331     0.00562
 PZ  C  10   0.05554    -0.05566    -0.00085     0.00314    -0.01432    -0.05062
  
  S  C  11   0.09750    -0.12467     0.00080    -0.05761    -0.06573     0.13839
 PX  C  11  -0.01254     0.01371     0.00086    -0.02007    -0.00014     0.06157
 PY  C  11   0.03244    -0.04005     0.00036    -0.02599    -0.02210     0.05267
 PZ  C  11   0.03138    -0.03789    -0.00017    -0.00860    -0.01630     0.00777
  
  S  C  12   0.06084    -0.08081     0.00293    -0.07677    -0.05033     0.22572
 PX  C  12  -0.01580     0.02047     0.00068     0.00661     0.01213     0.00057
 PY  C  12   0.01584    -0.02018     0.00098    -0.02378    -0.01125     0.06604
 PZ  C  12   0.01977    -0.02534     0.00040    -0.02086    -0.01427     0.04853
  
  S  C  13   0.06457    -0.08181     0.00615    -0.10693    -0.04080     0.32163
 PX  C  13  -0.02383     0.02981     0.00178     0.01723     0.01792    -0.00303
 PY  C  13  -0.00236     0.00556     0.00059    -0.00384     0.00968     0.00254
 PZ  C  13   0.01051    -0.01109    -0.00029    -0.01274    -0.00141     0.00754
  
  S  C  14   0.09154    -0.09577     0.00330    -0.12534    -0.01801     0.22035
 PX  C  14  -0.03250     0.03347     0.00104     0.01498     0.01345     0.01504
 PY  C  14  -0.01989     0.03161    -0.00060     0.01324     0.03094    -0.06860
 PZ  C  14   0.00171     0.00688    -0.00089     0.00110     0.01737    -0.05684
  
  S  C  15   0.20850    -0.21029     0.00015    -0.11968    -0.06576     0.09539
 PX  C  15  -0.06717     0.06534     0.00146    -0.01656     0.02628     0.08202
 PY  C  15  -0.02974     0.04937     0.00016    -0.00354     0.03831    -0.02519
 PZ  C  15   0.00992     0.00627    -0.00060     0.00582     0.01737    -0.06071
  
  S  C  16   0.24863    -0.14751    -0.00131    -0.08129    -0.01113    -0.06303
 PX  C  16  -0.03825     0.01110     0.00064    -0.03600     0.01460     0.03538
 PY  C  16  -0.04264     0.08403     0.00070    -0.01557     0.04824     0.00627
 PZ  C  16  -0.01556     0.06106     0.00024     0.00538     0.03126    -0.01253
  
  S  C  17   0.28387    -0.20863    -0.00272     0.03389    -0.02849    -0.10951
 PX  C  17   0.04719    -0.05875    -0.00025    -0.05007    -0.04448    -0.01208
 PY  C  17  -0.01458     0.06659     0.00055    -0.01503     0.02002     0.01327
 PZ  C  17  -0.03580     0.08073     0.00055     0.01323     0.03740     0.01550
  
  S  C  18   0.18872    -0.02872    -0.00163     0.13138     0.08052    -0.03978
 PX  C  18   0.03978    -0.01818    -0.00017    -0.04514    -0.04414    -0.03630
 PY  C  18   0.01533     0.04404     0.00029    -0.01895    -0.02052    -0.00004
 PZ  C  18  -0.00649     0.04234     0.00030     0.00606     0.00397     0.01596
  
  S  C  19   0.11084    -0.03574    -0.00165     0.25613     0.23589     0.05009
 PX  C  19   0.01854    -0.00801    -0.00004    -0.04705    -0.06696    -0.04062
 PY  C  19   0.00625     0.01251     0.00012    -0.02546    -0.03564    -0.01264
 PZ  C  19  -0.00251     0.01255     0.00009     0.00263     0.00238     0.00703
  
  S  C  20   0.06296    -0.02406    -0.00115     0.21410     0.21872     0.06595
 PX  C  20   0.01655    -0.00680    -0.00017     0.00286    -0.00977    -0.01450
 PY  C  20  -0.01006     0.00885     0.00028    -0.05766    -0.06471    -0.02186
 PZ  C  20   0.01770    -0.00327    -0.00031     0.06439     0.06513     0.02169
  
  S  C  21   0.03723    -0.01682    -0.00089     0.20518     0.23146     0.08735
 PX  C  21   0.01446    -0.00652    -0.00028     0.05243     0.05261     0.01465
 PY  C  21  -0.00228     0.00248     0.00009    -0.02534    -0.03168    -0.01330
 PZ  C  21   0.01039    -0.00387    -0.00025     0.06033     0.06803     0.02643
  
  S  C  22   0.03532    -0.01706    -0.00093     0.22834     0.26552     0.10542
 PX  C  22   0.01267    -0.00589    -0.00027     0.05142     0.05206     0.01457
 PY  C  22   0.00690    -0.00222    -0.00015     0.03226     0.03434     0.01249
 PZ  C  22  -0.00001     0.00049     0.00000     0.00097     0.00106     0.00070
  
  S  C  23   0.03835    -0.01786    -0.00091     0.20639     0.23052     0.08374
 PX  C  23   0.00661    -0.00311    -0.00009     0.00750     0.00158    -0.00521
 PY  C  23   0.01248    -0.00384    -0.00026     0.05817     0.06247     0.02299
 PZ  C  23  -0.01114     0.00625     0.00027    -0.06002    -0.06727    -0.02402
  
  S  C  24   0.06475    -0.02456    -0.00118     0.21818     0.22035     0.06390
 PX  C  24   0.00175    -0.00097     0.00010    -0.04729    -0.06054    -0.02950
 PY  C  24   0.01595     0.00008    -0.00019     0.03149     0.02540     0.00630
 PZ  C  24  -0.02001     0.01165     0.00038    -0.06392    -0.06425    -0.01608
  
  S  C  25   0.01204    -0.00655    -0.00039     0.11115     0.13834     0.06165
 PX  C  25   0.00417    -0.00222    -0.00012     0.02858     0.03325     0.01280
 PY  C  25   0.00302    -0.00136    -0.00009     0.02611     0.03213     0.01463
 PZ  C  25   0.00031    -0.00008    -0.00001     0.00403     0.00524     0.00265
  
  S  C  26   0.00620    -0.00322    -0.00022     0.06519     0.08306     0.03919
 PX  C  26   0.00271    -0.00134    -0.00009     0.02508     0.03113     0.01399
 PY  C  26  -0.00053     0.00039     0.00002    -0.00701    -0.00920    -0.00435
 PZ  C  26  -0.00093     0.00052     0.00003    -0.00959    -0.01214    -0.00558
  
  S  C  27   0.24104     0.15780    -0.00045     0.08917    -0.01002    -0.01107
 PX  C  27   0.03834     0.01333    -0.00000    -0.03044    -0.01408    -0.02491
 PY  C  27   0.03979     0.08550     0.00046    -0.01375    -0.04750     0.01226
 PZ  C  27   0.01254     0.06008     0.00036     0.00265    -0.03028     0.02076
  
  S  C  28   0.27681     0.22245     0.00026    -0.01771    -0.02821    -0.03580
 PX  C  28  -0.04438    -0.05969     0.00003    -0.05128     0.04331    -0.01543
 PY  C  28   0.01477     0.06845     0.00046    -0.01204    -0.02107     0.01418
 PZ  C  28   0.03022     0.08077     0.00035     0.01280    -0.03602     0.01794
  
  S  C  29   0.18992     0.03875     0.00007    -0.12213     0.07984    -0.05945
 PX  C  29  -0.03849    -0.02041     0.00039    -0.04971     0.04407     0.01088
 PY  C  29  -0.01686     0.04286     0.00041    -0.01879     0.02036     0.00655
 PZ  C  29   0.00544     0.04425     0.00015     0.00875    -0.00547    -0.00020
  
  S  C  30   0.11200     0.03959     0.00121    -0.25500     0.23523    -0.04802
 PX  C  30  -0.01745    -0.00922     0.00035    -0.05143     0.06761    -0.00064
 PY  C  30  -0.00856     0.01093     0.00015    -0.02295     0.03456    -0.00586
 PZ  C  30   0.00324     0.01405    -0.00003     0.00550    -0.00603    -0.00415
  
  S  C  31   0.06333     0.02597     0.00107    -0.21449     0.21826    -0.03800
 PX  C  31   0.00106    -0.00053     0.00033    -0.05749     0.06890    -0.00729
 PY  C  31  -0.01962    -0.00387    -0.00021     0.04070    -0.03397     0.00505
 PZ  C  31   0.01772     0.01155     0.00025    -0.05174     0.05131    -0.01124
  
  S  C  32   0.03744     0.01678     0.00112    -0.20797     0.23196    -0.03517
 PX  C  32  -0.00451    -0.00215     0.00007    -0.00312     0.00912     0.00048
 PY  C  32  -0.01434    -0.00526    -0.00037     0.06691    -0.07089     0.00977
 PZ  C  32   0.00995     0.00561     0.00026    -0.05194     0.05734    -0.00988
  
  S  C  33   0.03561     0.01648     0.00136    -0.23264     0.26657    -0.03782
 PX  C  33  -0.01254    -0.00565    -0.00019     0.05229    -0.05345     0.00997
 PY  C  33  -0.00720    -0.00246    -0.00019     0.03115    -0.03143     0.00356
 PZ  C  33   0.00082     0.00121    -0.00005     0.00015    -0.00120    -0.00183
  
  S  C  34   0.03872     0.01736     0.00118    -0.20962     0.23096    -0.03388
 PX  C  34  -0.01600    -0.00709    -0.00028     0.06094    -0.06162     0.01060
 PY  C  34   0.00297     0.00292     0.00015    -0.03130     0.03861    -0.00739
 PZ  C  34  -0.00798    -0.00181    -0.00032     0.04985    -0.05578     0.00545
  
  S  C  35   0.06568     0.02519     0.00115    -0.21996     0.22025    -0.03630
 PX  C  35  -0.01828    -0.00735     0.00001     0.00855     0.00282     0.00398
 PY  C  35   0.01113     0.00966     0.00031    -0.06379     0.07121    -0.01327
 PZ  C  35  -0.01453    -0.00008    -0.00033     0.05747    -0.05791     0.00520
  
  S  C  36   0.01227     0.00614     0.00085    -0.11498     0.14005    -0.01658
 PX  C  36  -0.00435    -0.00213    -0.00014     0.03190    -0.03731     0.00621
 PY  C  36  -0.00285    -0.00121    -0.00020     0.02279    -0.02677     0.00240
 PZ  C  36  -0.00033     0.00013    -0.00013     0.00656    -0.00852    -0.00112
  
  S  C  37   0.00662     0.00281     0.00090    -0.06909     0.08464    -0.00255
 PX  C  37  -0.00227    -0.00100    -0.00011     0.02043    -0.02470     0.00328
 PY  C  37  -0.00022     0.00017    -0.00020     0.00007     0.00095    -0.00370
 PZ  C  37   0.00195     0.00103     0.00007    -0.02015     0.02505    -0.00409
  
  S  N  38   0.30329     0.36572     0.00112    -0.01717    -0.09855     0.00139
 PX  N  38  -0.02876    -0.03670     0.00002    -0.03493     0.03365    -0.01600
 PY  N  38  -0.06061    -0.06343    -0.00010    -0.00964     0.01984    -0.00093
 PZ  N  38   0.00734     0.02032     0.00011    -0.00098    -0.01120     0.00418
  
  S  C  39   0.22978     0.28679     0.00070     0.06131    -0.11274     0.05337
 PX  C  39   0.05192     0.06141     0.00023    -0.02713    -0.01095    -0.02231
 PY  C  39  -0.03728    -0.03782    -0.00001    -0.01916     0.01156    -0.00644
 PZ  C  39  -0.05161    -0.05550    -0.00010    -0.00547     0.01496     0.00397
  
  S  C  40   0.19751     0.21561     0.00019     0.10866    -0.06356     0.05907
 PX  C  40   0.06569     0.06967     0.00015    -0.00647    -0.02547    -0.01340
 PY  C  40   0.02677     0.04866     0.00024    -0.00403    -0.03675     0.01163
 PZ  C  40  -0.00880     0.00666     0.00012    -0.00081    -0.01684     0.01484
  
  S  C  41   0.08295     0.09302    -0.00002     0.09425    -0.01750     0.06394
 PX  C  41   0.03313     0.03748     0.00003     0.02093    -0.01331     0.01171
 PY  C  41   0.01690     0.02950     0.00012     0.00588    -0.02851     0.01474
 PZ  C  41  -0.00121     0.00677     0.00008    -0.00431    -0.01634     0.00661
  
  S  C  42   0.05408     0.07289     0.00010     0.06156    -0.03632     0.05766
 PX  C  42   0.02564     0.03485     0.00006     0.02363    -0.01862     0.02224
 PY  C  42   0.00250     0.00586     0.00004    -0.00117    -0.00842     0.00281
 PZ  C  42  -0.00950    -0.01096     0.00000    -0.01151     0.00172    -0.00774
  
  S  C  43   0.05473     0.07782     0.00016     0.05122    -0.04658     0.05462
 PX  C  43   0.01612     0.02269     0.00006     0.00928    -0.01253     0.01021
 PY  C  43  -0.01392    -0.01892    -0.00003    -0.01481     0.01006    -0.01385
 PZ  C  43  -0.01825    -0.02515    -0.00005    -0.01624     0.01376    -0.01581
  
  S  C  44   0.09174     0.12626     0.00033     0.04539    -0.06346     0.05130
 PX  C  44   0.01288     0.01557     0.00008    -0.01387    -0.00034    -0.01236
 PY  C  44  -0.03113    -0.04141    -0.00009    -0.01930     0.02073    -0.01824
 PZ  C  44  -0.02929    -0.03819    -0.00010    -0.01010     0.01666    -0.00941
  
  S  C  45   0.14471     0.18294     0.00081    -0.06441    -0.01221    -0.01988
 PX  C  45  -0.04090    -0.05411    -0.00012    -0.01317     0.03194    -0.00763
 PY  C  45  -0.04255    -0.05132    -0.00019     0.01042     0.00869     0.00298
 PZ  C  45  -0.01929    -0.01877    -0.00007     0.00531    -0.00088    -0.00053
  
  S  C  46   0.08370     0.11030     0.00055    -0.05643     0.00478    -0.02379
 PX  C  46  -0.01650    -0.02140    -0.00004    -0.00832     0.01525    -0.00581
 PY  C  46   0.00867     0.01327     0.00008    -0.01011     0.00257    -0.00502
 PZ  C  46  -0.02774    -0.03329    -0.00014     0.00952     0.00327     0.00132
  
  S  C  47   0.03855     0.05483     0.00036    -0.05324     0.02335    -0.02988
 PX  C  47  -0.00523    -0.00692    -0.00001    -0.00462     0.00795    -0.00438
 PY  C  47  -0.00345    -0.00433    -0.00002     0.00071     0.00150    -0.00067
 PZ  C  47  -0.01286    -0.01719    -0.00011     0.01384    -0.00514     0.00599
  
  S  C  48   0.02689     0.03830     0.00033    -0.05908     0.03949    -0.03578
 PX  C  48  -0.00758    -0.01049    -0.00005     0.00403     0.00252     0.00063
 PY  C  48  -0.00350    -0.00434    -0.00003     0.00345    -0.00108     0.00025
 PZ  C  48  -0.00050     0.00061     0.00000    -0.00155     0.00048    -0.00373
  
  S  C  49   0.01220     0.01883     0.00020    -0.04234     0.03376    -0.03124
 PX  C  49  -0.00270    -0.00394    -0.00002     0.00213     0.00085     0.00045
 PY  C  49  -0.00185    -0.00265    -0.00002     0.00378    -0.00223     0.00193
 PZ  C  49  -0.00307    -0.00446    -0.00005     0.01011    -0.00829     0.00665
  
  S  C  50   0.00686     0.01077     0.00015    -0.03524     0.03278    -0.02726
 PX  C  50  -0.00170    -0.00261    -0.00002     0.00364    -0.00179     0.00253
 PY  C  50  -0.00177    -0.00266    -0.00004     0.00831    -0.00763     0.00592
 PZ  C  50  -0.00024    -0.00018    -0.00001     0.00170    -0.00209     0.00056
  
  S  C  51   0.00502     0.00747     0.00014    -0.03188     0.03233    -0.02281
 PX  C  51  -0.00159    -0.00236    -0.00003     0.00595    -0.00489     0.00412
 PY  C  51   0.00041     0.00084     0.00001    -0.00345     0.00343    -0.00350
 PZ  C  51   0.00004     0.00038    -0.00001     0.00080    -0.00155    -0.00094
  
  S  C  52   0.00221     0.00323     0.00008    -0.01845     0.02011    -0.01291
 PX  C  52  -0.00092    -0.00135    -0.00003     0.00644    -0.00670     0.00449
 PY  C  52  -0.00027    -0.00034    -0.00001     0.00207    -0.00227     0.00117
 PZ  C  52   0.00020     0.00045     0.00000    -0.00116     0.00093    -0.00177
  
  S  C  53   0.02278    -0.02984     0.01536    -0.07415    -0.00941     0.35857
 PX  C  53  -0.00776     0.00979     0.00565     0.00504     0.00692     0.04265
 PY  C  53  -0.00090     0.00185     0.00168    -0.00296     0.00391     0.01997
 PZ  C  53   0.00432    -0.00470    -0.00104    -0.00967     0.00038     0.01449
  
  S  C  54   0.01228    -0.01518     0.01614    -0.05733     0.00315     0.30890
 PX  C  54  -0.00433     0.00498     0.00137     0.00971     0.00113    -0.01599
 PY  C  54  -0.00131     0.00224    -0.00122     0.00417     0.00277    -0.03065
 PZ  C  54  -0.00185     0.00340    -0.00712     0.01374     0.00235    -0.11233
  
  S  C  55   0.00576    -0.00794     0.02493    -0.04058     0.00273     0.28107
 PX  C  55  -0.00261     0.00349    -0.00291     0.01546    -0.00049    -0.09640
 PY  C  55  -0.00085     0.00138    -0.00318     0.00555     0.00092    -0.04445
 PZ  C  55  -0.00033     0.00086    -0.00871     0.00432     0.00123    -0.04866
  
  S  C  56   0.00465    -0.00696     0.04757    -0.03514     0.00034     0.27350
 PX  C  56  -0.00139     0.00196     0.00843     0.00779     0.00034    -0.04610
 PY  C  56  -0.00003     0.00009    -0.00029    -0.00034     0.00039     0.00233
 PZ  C  56   0.00168    -0.00235    -0.00999    -0.01141     0.00038     0.07318
  
  S  S  57   0.00743    -0.01067     0.02240    -0.03516    -0.00361     0.22862
 PX  S  57  -0.00108     0.00136     0.01140    -0.00327     0.00195     0.04772
 PY  S  57   0.00059    -0.00082     0.00407    -0.00580     0.00054     0.04353
 PZ  S  57   0.00445    -0.00631     0.00300    -0.02027    -0.00208     0.12183
  
  S  C  58   0.00140    -0.00238     0.11266    -0.01251     0.00029     0.12527
 PX  C  58  -0.00048     0.00073     0.01359     0.00470    -0.00003    -0.03862
 PY  C  58  -0.00007     0.00014    -0.01164     0.00059     0.00006    -0.00787
 PZ  C  58   0.00043    -0.00058    -0.04583    -0.00437     0.00014     0.02854
  
  S  C  59   0.00067    -0.00141     0.22533    -0.00340     0.00005     0.05767
 PX  C  59  -0.00006     0.00003     0.06627     0.00237    -0.00002    -0.01784
 PY  C  59   0.00004    -0.00008     0.00971    -0.00028     0.00002     0.00361
 PZ  C  59   0.00019    -0.00025    -0.05422    -0.00360     0.00006     0.03102
  
  S  C  60   0.00045    -0.00134     0.51325     0.00682    -0.00007    -0.02403
 PX  C  60  -0.00000    -0.00009     0.08615     0.00231    -0.00002    -0.01719
 PY  C  60   0.00000    -0.00000    -0.00311    -0.00023     0.00002     0.00303
 PZ  C  60   0.00001     0.00009    -0.11085    -0.00336     0.00006     0.02834
  
  S  O  61   0.00032    -0.00100     0.41147     0.00595    -0.00003    -0.02331
 PX  O  61  -0.00011     0.00035    -0.13448    -0.00177     0.00001     0.00547
 PY  O  61  -0.00006     0.00021    -0.09092    -0.00141     0.00001     0.00644
 PZ  O  61  -0.00003     0.00012    -0.06792    -0.00145     0.00002     0.00971
  
  S  O  62   0.00035    -0.00121     0.57449     0.01047    -0.00015    -0.06261
 PX  O  62   0.00004    -0.00016     0.08502     0.00177    -0.00002    -0.01209
 PY  O  62   0.00005    -0.00018     0.08811     0.00160    -0.00002    -0.00937
 PZ  O  62   0.00009    -0.00028     0.12015     0.00190    -0.00003    -0.00911
  
  S  C  63   0.00039    -0.00081     0.11214    -0.00257    -0.00002     0.04018
 PX  C  63   0.00008    -0.00018     0.04931     0.00028     0.00000     0.00099
 PY  C  63   0.00008    -0.00016     0.02346    -0.00045     0.00002     0.00632
 PZ  C  63   0.00012    -0.00020     0.00000    -0.00151     0.00002     0.01484
  
  S  N  64   0.00015    -0.00031     0.03923    -0.00121    -0.00003     0.01967
 PX  N  64   0.00006    -0.00012     0.02040    -0.00035    -0.00001     0.00658
 PY  N  64   0.00004    -0.00009     0.01231    -0.00035    -0.00000     0.00574
 PZ  N  64   0.00004    -0.00008     0.00648    -0.00050    -0.00000     0.00669
  
  S  H  65   0.00053    -0.00090     0.05233    -0.00457     0.00021     0.04616
  
  S  H  66   0.00055    -0.00089    -0.00002     0.00439     0.00423    -0.00400
  
  S  H  67   0.00037    -0.00062    -0.00002     0.00326     0.00316    -0.00321
  
  S  H  68   0.00057    -0.00089    -0.00003     0.00455     0.00442    -0.00391
  
  S  H  69   0.00123    -0.00193    -0.00005     0.00793     0.00718    -0.00733
  
  S  H  70   0.00122    -0.00193    -0.00005     0.00782     0.00703    -0.00741
  
  S  H  71   0.00300    -0.00425    -0.00010     0.01448     0.01260    -0.01054
  
  S  H  72   0.00321    -0.00435    -0.00011     0.01639     0.01494    -0.00957
  
  S  H  73   0.00496    -0.00710    -0.00015     0.01776     0.01331    -0.01508
  
  S  H  74   0.00504    -0.00728    -0.00015     0.01741     0.01274    -0.01544
  
  S  H  75   0.01450    -0.01832    -0.00033     0.03162     0.02081    -0.02064
  
  S  H  76   0.01476    -0.01762    -0.00034     0.03791     0.02868    -0.01715
  
  S  H  77   0.01291    -0.01735    -0.00028     0.02255     0.01086    -0.02104
  
  S  H  78   0.01644    -0.02192    -0.00033     0.02377     0.00955    -0.02309
  
  S  H  79   0.03716    -0.04281    -0.00061     0.03480     0.01115    -0.02850
  
  S  H  80   0.04049    -0.04989    -0.00058     0.02184    -0.00379    -0.02692
  
  S  H  81   0.05334    -0.06488    -0.00077     0.02756    -0.00539    -0.03194
  
  S  H  82   0.06058    -0.06445    -0.00097     0.06078     0.02891    -0.03033
  
  S  H  83   0.03308    -0.04274     0.00004    -0.00983    -0.01988     0.02835
  
  S  H  84   0.01449    -0.01994     0.00132    -0.02185    -0.01340     0.07559
  
  S  H  85   0.03363    -0.02331     0.00170    -0.06925     0.02781     0.07284
  
  S  H  86   0.02397    -0.00825    -0.00037     0.06152     0.05925     0.01481
  
  S  H  87   0.00931    -0.00433    -0.00024     0.05814     0.06752     0.02694
  
  S  H  88   0.00997    -0.00505    -0.00025     0.05857     0.06664     0.02451
  
  S  H  89   0.02543    -0.00875    -0.00040     0.06447     0.06043     0.01345
  
  S  H  90   0.00459    -0.00262    -0.00015     0.04288     0.05351     0.02373
  
  S  H  91   0.00465    -0.00271    -0.00015     0.04290     0.05333     0.02318
  
  S  H  92   0.00307    -0.00151    -0.00010     0.03037     0.03836     0.01795
  
  S  H  93   0.00178    -0.00097    -0.00007     0.02052     0.02658     0.01285
  
  S  H  94   0.00292    -0.00140    -0.00010     0.02898     0.03659     0.01716
  
  S  H  95   0.02413     0.00963     0.00029    -0.06103     0.05898    -0.01190
  
  S  H  96   0.00937     0.00431     0.00033    -0.05916     0.06786    -0.01006
  
  S  H  97   0.01012     0.00489     0.00037    -0.06005     0.06724    -0.00969
  
  S  H  98   0.02598     0.00923     0.00033    -0.06484     0.06037    -0.01117
  
  S  H  99   0.00462     0.00245     0.00030    -0.04411     0.05405    -0.00707
  
  S  H 100   0.00476     0.00259     0.00033    -0.04484     0.05457    -0.00704
  
  S  H 101   0.00326     0.00131     0.00043    -0.03206     0.03892    -0.00095
  
  S  H 102   0.00191     0.00083     0.00033    -0.02183     0.02708    -0.00027
  
  S  H 103   0.00342     0.00093     0.00090    -0.03237     0.03774     0.00692
  
  S  H 104   0.02985     0.02184    -0.00016     0.05444     0.02525     0.02613
  
  S  H 105   0.01251     0.01671     0.00002     0.01721    -0.00755     0.01601
  
  S  H 106   0.01249     0.01833     0.00004     0.01276    -0.01198     0.01456
  
  S  H 107   0.03116     0.04335     0.00014     0.00809    -0.01949     0.01247
  
  S  H 108   0.05910     0.06789     0.00041    -0.05306     0.02515    -0.01589
  
  S  H 109   0.05181     0.06805     0.00030    -0.02208    -0.00718    -0.00630
  
  S  H 110   0.04129     0.05454     0.00024    -0.01728    -0.00601    -0.00625
  
  S  H 111   0.03780     0.04653     0.00025    -0.02966     0.00838    -0.01187
  
  S  H 112   0.01649     0.02368     0.00015    -0.02088     0.00807    -0.01187
  
  S  H 113   0.01292     0.01872     0.00013    -0.01994     0.00949    -0.01190
  
  S  H 114   0.01416     0.01854     0.00019    -0.03366     0.02545    -0.01724
  
  S  H 115   0.01438     0.01967     0.00017    -0.02899     0.01946    -0.01609
  
  S  H 116   0.00510     0.00794     0.00008    -0.01640     0.01251    -0.01228
  
  S  H 117   0.00502     0.00778     0.00008    -0.01756     0.01400    -0.01306
  
  S  H 118   0.00323     0.00493     0.00007    -0.01574     0.01462    -0.01170
  
  S  H 119   0.00219     0.00354     0.00005    -0.01247     0.01184    -0.01011
  
  S  H 120   0.00205     0.00311     0.00005    -0.01274     0.01277    -0.00939
  
  S  H 121   0.00359     0.00458     0.00010    -0.02049     0.02105    -0.01149
  
  S  H 122   0.00112     0.00150     0.00005    -0.00944     0.01049    -0.00580
  
  S  H 123   0.00082     0.00126     0.00003    -0.00696     0.00753    -0.00527
  
  S  H 124   0.00082     0.00111     0.00003    -0.00725     0.00811    -0.00463
  
  S  H 125   0.00621    -0.00616     0.00420    -0.02489     0.00592     0.09412
  
  S  H 126   0.00150    -0.00193     0.00888    -0.01159     0.00196     0.07741
  
  S  H 127   0.00014    -0.00050     0.24231     0.00453    -0.00006    -0.02781




    ROOT NO.    7           8           9          10          11          12

           -43.33443   -43.00628   -42.48454   -42.09940   -41.45047   -40.32423
  
  
  S  C   1   0.05256     0.11282    -0.04108    -0.05202     0.13836     0.14783
 PX  C   1   0.01967     0.04170    -0.01481    -0.01823     0.04716     0.04650
 PY  C   1   0.00563     0.01155    -0.00395    -0.00494     0.01156     0.01052
 PZ  C   1   0.00001    -0.00004     0.00001    -0.00007    -0.00004     0.00011
  
  S  C   2   0.09136     0.19234    -0.06739    -0.08175     0.20890     0.19945
 PX  C   2   0.00687     0.01263    -0.00312    -0.00197     0.00068    -0.01177
 PY  C   2   0.02339     0.04783    -0.01599    -0.01878     0.04420     0.03571
 PZ  C   2   0.00000    -0.00009     0.00002    -0.00011    -0.00008     0.00015
  
  S  C   3   0.12755     0.25836    -0.08475    -0.09715     0.22545     0.17313
 PX  C   3   0.02353     0.04432    -0.01192    -0.00926     0.01413    -0.01455
 PY  C   3  -0.00810    -0.02057     0.00880     0.01145    -0.03693    -0.04342
 PZ  C   3   0.00002    -0.00040     0.00011    -0.00053    -0.00031     0.00072
  
  S  C   4   0.15237     0.29635    -0.08781    -0.08608     0.17667     0.06248
 PX  C   4  -0.00664    -0.01849     0.00983     0.01668    -0.04694    -0.05946
 PY  C   4   0.02640     0.04618    -0.01059    -0.00636     0.00155    -0.02812
 PZ  C   4   0.00049     0.00073    -0.00031    -0.00068     0.00067     0.00058
  
  S  C   5   0.16993     0.30632    -0.07618    -0.05450     0.07098    -0.07961
 PX  C   5   0.01770     0.02543    -0.00016     0.01189    -0.03692    -0.06088
 PY  C   5  -0.01703    -0.04061     0.01531     0.01905    -0.04736    -0.02973
 PZ  C   5  -0.00227    -0.00488     0.00081    -0.00076    -0.00019     0.00224
  
  S  C   6   0.15841     0.26982    -0.05209    -0.01443    -0.02694    -0.16833
 PX  C   6  -0.02668    -0.05181     0.01637     0.01445    -0.02724     0.00277
 PY  C   6   0.02060     0.02612     0.00139     0.01255    -0.03903    -0.04471
 PZ  C   6   0.00373     0.00688    -0.00228    -0.00074     0.00092    -0.00521
  
  S  C   7   0.13764     0.20421    -0.01759     0.03775    -0.12825    -0.17980
 PX  C   7  -0.02477    -0.04274     0.01163    -0.00040     0.00368     0.03206
 PY  C   7  -0.00993    -0.03064     0.01429     0.02446    -0.03625     0.01822
 PZ  C   7  -0.02089    -0.02774    -0.00208    -0.00760     0.02812     0.02277
  
  S  C   8   0.11639     0.14064     0.00962     0.08613    -0.19087    -0.12425
 PX  C   8   0.01417     0.00840     0.01601     0.01959    -0.04959     0.00565
 PY  C   8  -0.01990    -0.04748     0.01469     0.03329    -0.02887     0.04830
 PZ  C   8   0.01344     0.02008    -0.00684     0.01463    -0.01490    -0.02200
  
  S  N   9   0.05563     0.01502     0.04912     0.14140    -0.21262     0.07448
 PX  N   9  -0.00645    -0.02266     0.02496    -0.02020    -0.00025     0.05968
 PY  N   9  -0.03964    -0.05115    -0.00963     0.00171     0.05732     0.07210
 PZ  N   9  -0.00974    -0.00980    -0.01502     0.03054     0.00591     0.01480
  
  S  C  10   0.03399    -0.02820     0.12066    -0.10538    -0.05397     0.03089
 PX  C  10  -0.00852    -0.01400     0.02772    -0.12832     0.09208    -0.06378
 PY  C  10  -0.02416    -0.03280     0.00098    -0.01128     0.03945     0.05606
 PZ  C  10  -0.01014    -0.01192    -0.01355     0.05570    -0.01979     0.06585
  
  S  C  11   0.04241    -0.00247     0.11405    -0.18540     0.00520    -0.10100
 PX  C  11  -0.00450    -0.01164     0.01522    -0.06367     0.04658    -0.03309
 PY  C  11   0.00476    -0.01261     0.03698    -0.06694     0.01862    -0.01636
 PZ  C  11   0.00765    -0.00086     0.01979    -0.01752    -0.01145     0.00122
  
  S  C  12   0.03247    -0.01102     0.09612    -0.21808     0.06642    -0.13617
 PX  C  12  -0.00385     0.00480    -0.03016     0.04221    -0.00113     0.00961
 PY  C  12   0.00529    -0.00518     0.01987    -0.05279     0.02380    -0.02755
 PZ  C  12   0.00613    -0.00572     0.02966    -0.05992     0.01782    -0.02564
  
  S  C  13   0.03317    -0.00496     0.06547    -0.20192     0.08889    -0.14159
 PX  C  13   0.00126     0.01715    -0.05917     0.09911    -0.02735     0.02058
 PY  C  13  -0.00360     0.00382    -0.01666     0.02588    -0.00143     0.01437
 PZ  C  13  -0.00287    -0.00504     0.01606    -0.02935     0.01271    -0.00034
  
  S  C  14  -0.00036    -0.02161     0.07669    -0.20198     0.10494    -0.06068
 PX  C  14   0.00981     0.01811    -0.02388     0.03968    -0.01914    -0.02715
 PY  C  14  -0.01319     0.00981    -0.03502     0.07339    -0.02022     0.03883
 PZ  C  14  -0.01460    -0.00108    -0.01496     0.03563    -0.00549     0.04232
  
  S  C  15  -0.02926    -0.06603     0.07610    -0.15074     0.09135     0.07633
 PX  C  15   0.01368     0.01848     0.02186    -0.07916     0.02952    -0.08291
 PY  C  15  -0.02190     0.00299    -0.04092     0.03277     0.02746     0.01781
 PZ  C  15  -0.02267    -0.00529    -0.04300     0.06542     0.00517     0.05324
  
  S  C  16  -0.11832    -0.09396    -0.10256     0.02972     0.17704     0.14327
 PX  C  16   0.02103     0.01728     0.04465    -0.05572    -0.02500     0.01360
 PY  C  16  -0.02197     0.00783    -0.04639    -0.01342     0.05252    -0.02984
 PZ  C  16  -0.02553    -0.00094    -0.05793     0.01650     0.05121    -0.03110
  
  S  C  17  -0.08169    -0.07879    -0.09160     0.13990     0.07994     0.06540
 PX  C  17  -0.00545    -0.01583     0.01496    -0.01802    -0.00485     0.08889
 PY  C  17  -0.05314    -0.02939    -0.05884    -0.01515     0.11914    -0.01140
 PZ  C  17  -0.03419    -0.00928    -0.05235    -0.00351     0.08951    -0.05788
  
  S  C  18  -0.11150    -0.07261    -0.12138     0.12925     0.18179    -0.11820
 PX  C  18  -0.02550    -0.01175    -0.04891     0.01704     0.03912     0.03619
 PY  C  18  -0.03268    -0.00722    -0.03000    -0.00244     0.06144    -0.01139
 PZ  C  18  -0.01137     0.00277    -0.00077    -0.00974     0.02754    -0.02795
  
  S  C  19  -0.03334    -0.07364    -0.01771     0.03979     0.04308    -0.11378
 PX  C  19  -0.01646     0.01656    -0.02692     0.05202     0.03417    -0.02707
 PY  C  19  -0.02196    -0.00000    -0.00976     0.02684     0.03984    -0.01340
 PZ  C  19  -0.00610    -0.00075     0.00403    -0.00172     0.01457    -0.00468
  
  S  C  20  -0.00870    -0.06980     0.00604    -0.01959    -0.00578    -0.04132
 PX  C  20  -0.00946     0.00408    -0.01132     0.03365     0.02006    -0.03785
 PY  C  20  -0.00795     0.01634    -0.00540     0.02172     0.01973    -0.00481
 PZ  C  20  -0.00470    -0.02028     0.00418    -0.00483     0.00386    -0.01465
  
  S  C  21   0.01143    -0.07395     0.02160    -0.08624    -0.04778     0.05704
 PX  C  21  -0.00114    -0.01420     0.00182     0.00194    -0.00048    -0.03218
 PY  C  21  -0.00629     0.00783    -0.00332     0.02322     0.01371    -0.02891
 PZ  C  21   0.00328    -0.02102     0.00745    -0.02586    -0.01289     0.01765
  
  S  C  22   0.02374    -0.07876     0.02693    -0.13096    -0.06829     0.13085
 PX  C  22   0.00056    -0.01117     0.00212     0.00290     0.00000    -0.04453
 PY  C  22  -0.00292    -0.01525     0.00441    -0.00258    -0.00382    -0.01288
 PZ  C  22   0.00035     0.00082     0.00048    -0.00097     0.00081     0.00111
  
  S  C  23   0.01933    -0.05677     0.01821    -0.08494    -0.04257     0.04294
 PX  C  23  -0.00174     0.00543    -0.00352     0.02012     0.00934    -0.04524
 PY  C  23  -0.00264    -0.02405     0.00717    -0.01126    -0.00704    -0.00618
 PZ  C  23  -0.00602     0.01746    -0.00493     0.02498     0.01471    -0.01357
  
  S  C  24  -0.00073    -0.05379     0.00480    -0.01906    -0.00466    -0.05556
 PX  C  24  -0.00722     0.01946    -0.01269     0.03672     0.01905    -0.02653
 PY  C  24  -0.01415    -0.01539    -0.00049     0.01660     0.01821    -0.02370
 PZ  C  24  -0.00170     0.01588     0.00051     0.00389     0.00675     0.01715
  
  S  C  25   0.02028    -0.04161     0.01663    -0.10715    -0.05165     0.16798
 PX  C  25   0.00385    -0.00804     0.00274    -0.01555    -0.00728     0.00964
 PY  C  25   0.00201    -0.01401     0.00518    -0.02107    -0.01377     0.03035
 PZ  C  25   0.00073    -0.00197     0.00099    -0.00510    -0.00268     0.00968
  
  S  C  26   0.01170    -0.02922     0.01219    -0.07232    -0.03736     0.12760
 PX  C  26   0.00389    -0.01029     0.00410    -0.02304    -0.01165     0.03477
 PY  C  26  -0.00193     0.00250    -0.00102     0.00933     0.00414    -0.01695
 PZ  C  26  -0.00164     0.00421    -0.00157     0.00989     0.00506    -0.01604
  
  S  C  27  -0.12686    -0.02843    -0.11536     0.06769     0.18287    -0.15789
 PX  C  27  -0.01792    -0.02007    -0.07837    -0.01647     0.02393     0.00501
 PY  C  27   0.01272     0.02893     0.01446    -0.03811    -0.05003    -0.01365
 PZ  C  27   0.02082     0.03174     0.04746    -0.02306    -0.05271    -0.01136
  
  S  C  28  -0.08394    -0.03188    -0.19916    -0.04236     0.08355    -0.08290
 PX  C  28   0.01253    -0.01525    -0.01223    -0.01304    -0.00216     0.07850
 PY  C  28   0.05190     0.02333     0.01830    -0.05895    -0.11228    -0.00426
 PZ  C  28   0.04343     0.02293     0.02149    -0.04249    -0.09468    -0.03232
  
  S  C  29  -0.12077    -0.05633    -0.17537    -0.01434     0.17747     0.07890
 PX  C  29   0.01977     0.02281     0.05387    -0.02166    -0.04225     0.04427
 PY  C  29   0.02629     0.02306     0.01307    -0.02744    -0.05930    -0.01038
 PZ  C  29   0.01540     0.00579    -0.01548    -0.01217    -0.02920    -0.02676
  
  S  C  30  -0.08013     0.03453    -0.03042    -0.02676     0.03583     0.09825
 PX  C  30  -0.00066     0.03614     0.05938     0.01911    -0.03577    -0.01223
 PY  C  30   0.00805     0.02244     0.02664     0.00872    -0.03964    -0.01389
 PZ  C  30   0.01414    -0.00434    -0.00831    -0.00379    -0.01438     0.00083
  
  S  C  31  -0.06072     0.05942     0.02632     0.00236    -0.01289     0.04204
 PX  C  31  -0.01127     0.03032     0.03821     0.01740    -0.02286    -0.01427
 PY  C  31   0.01587    -0.00152     0.01095     0.00987    -0.01586    -0.02450
 PZ  C  31  -0.00914     0.01137     0.00152    -0.00268    -0.00698     0.01498
  
  S  C  32  -0.04964     0.08572     0.08308     0.04381    -0.05332    -0.03659
 PX  C  32   0.00212     0.00914     0.01907     0.01801    -0.01153    -0.03796
 PY  C  32   0.01691    -0.02260    -0.01785    -0.00476     0.00910    -0.00799
 PZ  C  32  -0.00923     0.01908     0.01898     0.00916    -0.01319    -0.00402
  
  S  C  33  -0.04313     0.10188     0.11844     0.07707    -0.07101    -0.09952
 PX  C  33   0.01572    -0.01494    -0.00503     0.00897     0.00494    -0.03703
 PY  C  33   0.00697    -0.00782    -0.00416     0.00285     0.00076    -0.01782
 PZ  C  33   0.00596    -0.00549    -0.00258    -0.00251     0.00450     0.00975
  
  S  C  34  -0.03129     0.07343     0.08315     0.04589    -0.04340    -0.02982
 PX  C  34   0.01456    -0.01582    -0.00715     0.00531     0.00606    -0.02875
 PY  C  34  -0.00346     0.01607     0.02198     0.01632    -0.01457    -0.02490
 PZ  C  34   0.01877    -0.02506    -0.02113    -0.01021     0.01374     0.01249
  
  S  C  35  -0.04492     0.04950     0.02825     0.00205    -0.00827     0.05272
 PX  C  35   0.00746     0.01262     0.03037     0.01917    -0.01782    -0.03155
 PY  C  35  -0.00826     0.02364     0.02257     0.00968    -0.02038     0.00009
 PZ  C  35   0.02454    -0.01894    -0.01037    -0.00026    -0.00327    -0.00893
  
  S  C  36  -0.01258     0.06077     0.08740     0.07577    -0.04995    -0.13842
 PX  C  36   0.00755    -0.01553    -0.01748    -0.00970     0.01193     0.01182
 PY  C  36   0.00386    -0.01144    -0.01376    -0.01104     0.00884     0.01642
 PZ  C  36   0.00565    -0.00827    -0.00570    -0.00590     0.00903     0.01403
  
  S  C  37  -0.00959     0.04243     0.05412     0.05586    -0.03803    -0.10350
 PX  C  37   0.00409    -0.01130    -0.01465    -0.01089     0.00918     0.02000
 PY  C  37  -0.00025     0.00013     0.00329    -0.00048    -0.00044    -0.00463
 PZ  C  37  -0.00223     0.01094     0.01713     0.01374    -0.00905    -0.02763
  
  S  N  38   0.07037     0.01157    -0.12114    -0.16019    -0.20199    -0.06190
 PX  N  38   0.02994    -0.02541    -0.03348    -0.02169    -0.02276     0.04915
 PY  N  38   0.02657    -0.00696     0.03146     0.00821    -0.01748     0.05246
 PZ  N  38   0.03976    -0.00100     0.01899    -0.01637    -0.05333     0.02999
  
  S  C  39  -0.00159     0.08950     0.15970     0.01989    -0.05177     0.00493
 PX  C  39   0.03846    -0.03642    -0.14867    -0.09947    -0.09018    -0.06291
 PY  C  39   0.02731    -0.00985    -0.00194    -0.01424    -0.03285     0.04297
 PZ  C  39   0.01263     0.00525     0.06437     0.03039     0.00765     0.07072
  
  S  C  40  -0.07429     0.07969     0.17629     0.10196     0.09131    -0.05054
 PX  C  40  -0.00285    -0.01494    -0.10353    -0.05126    -0.02619    -0.07803
 PY  C  40   0.00817     0.03119     0.05858     0.00259    -0.02651     0.02973
 PZ  C  40   0.00983     0.03035     0.09203     0.02423    -0.01091     0.06029
  
  S  C  41  -0.05225     0.07966     0.26372     0.13671     0.09786     0.06420
 PX  C  41  -0.01532     0.01729     0.03895     0.02417     0.02078    -0.01253
 PY  C  41  -0.00796     0.03565     0.09255     0.03987     0.01578     0.04298
 PZ  C  41   0.00081     0.02055     0.05653     0.02102     0.00316     0.04006
  
  S  C  42  -0.03566     0.09180     0.29206     0.13773     0.07744     0.12624
 PX  C  42  -0.01338     0.03676     0.10940     0.05005     0.02573     0.04116
 PY  C  42   0.00033     0.00941     0.02436     0.00909     0.00016     0.01809
 PZ  C  42   0.00644    -0.00906    -0.02962    -0.01522    -0.01152    -0.00386
  
  S  C  43  -0.02507     0.09402     0.29061     0.12859     0.05711     0.14154
 PX  C  43  -0.00074     0.01746     0.04960     0.01760     0.00090     0.02210
 PY  C  43   0.00987    -0.02271    -0.06899    -0.03304    -0.01974    -0.02598
 PZ  C  43   0.00892    -0.02642    -0.07802    -0.03478    -0.01683    -0.03035
  
  S  C  44   0.00083     0.08677     0.24945     0.08559     0.00036     0.12127
 PX  C  44   0.02270    -0.02296    -0.07774    -0.04970    -0.04528    -0.03320
 PY  C  44   0.00948    -0.03092    -0.08255    -0.03376    -0.01300    -0.02611
 PZ  C  44   0.00113    -0.01590    -0.03181    -0.00621     0.00681    -0.00293
  
  S  C  45   0.17284    -0.05414    -0.06715    -0.11453    -0.19077     0.10124
 PX  C  45   0.01135    -0.01874     0.01380     0.03000     0.04075     0.02578
 PY  C  45  -0.01790     0.00330     0.02642     0.03114     0.03863    -0.00254
 PZ  C  45   0.04263    -0.02213     0.02012     0.01425     0.00017     0.03436
  
  S  C  46   0.22163    -0.09501    -0.02873    -0.06144    -0.13373     0.14619
 PX  C  46   0.02909    -0.02237     0.00765     0.01772     0.02232     0.01721
 PY  C  46   0.05130    -0.02369     0.00008    -0.00551    -0.01994     0.03098
 PZ  C  46   0.00127    -0.00720     0.01883     0.02577     0.03281     0.00222
  
  S  C  47   0.27696    -0.14265     0.00941     0.00557    -0.03924     0.13797
 PX  C  47   0.03407    -0.02384     0.01097     0.02311     0.03518    -0.01072
 PY  C  47   0.00762    -0.00656     0.00561     0.01089     0.01797    -0.01097
 PZ  C  47  -0.04925     0.02241     0.00361     0.00897     0.02356    -0.03272
  
  S  C  48   0.31759    -0.17620     0.03809     0.06416     0.05979     0.06146
 PX  C  48  -0.00450    -0.00305     0.01324     0.02687     0.04992    -0.05290
 PY  C  48   0.00382    -0.00517     0.00609     0.01290     0.02420    -0.02247
 PZ  C  48   0.04509    -0.02782     0.00771     0.01503     0.02072     0.00203
  
  S  C  49   0.29330    -0.17373     0.05675     0.10595     0.14609    -0.03905
 PX  C  49  -0.00299    -0.00125     0.00766     0.01632     0.03250    -0.04369
 PY  C  49  -0.01601     0.00802    -0.00009     0.00097     0.00587    -0.01462
 PZ  C  49  -0.05942     0.03458    -0.01164    -0.02112    -0.02807     0.00850
  
  S  C  50   0.25622    -0.15636     0.06556     0.12533     0.19063    -0.12552
 PX  C  50  -0.02376     0.01321    -0.00034    -0.00014     0.00408    -0.02343
 PY  C  50  -0.05414     0.03250    -0.01336    -0.02493    -0.03643     0.02192
 PZ  C  50  -0.00262     0.00121    -0.00244    -0.00387    -0.00529     0.00998
  
  S  C  51   0.20777    -0.12661     0.06242     0.11720     0.17910    -0.15025
 PX  C  51  -0.03750     0.02215    -0.00694    -0.01273    -0.01692    -0.00029
 PY  C  51   0.03513    -0.02231     0.01009     0.02031     0.03349    -0.02770
 PZ  C  51   0.01348    -0.00930     0.00100     0.00389     0.00876     0.00085
  
  S  C  52   0.11643    -0.07124     0.04047     0.07566     0.11699    -0.11712
 PX  C  52  -0.04054     0.02467    -0.01277    -0.02382    -0.03628     0.03178
 PY  C  52  -0.00970     0.00570    -0.00360    -0.00634    -0.00915     0.00947
 PZ  C  52   0.01881    -0.01236     0.00463     0.01011     0.01829    -0.01335
  
  S  C  53   0.04454     0.04066    -0.10229     0.08303     0.00068    -0.05199
 PX  C  53   0.00846     0.01932    -0.07272     0.12136    -0.03925     0.04558
 PY  C  53   0.00222     0.00646    -0.02123     0.03376    -0.00918     0.01151
 PZ  C  53  -0.00033    -0.00166     0.01285    -0.02707     0.01211    -0.01659
  
  S  C  54   0.03957     0.04858    -0.13642     0.16567    -0.03253    -0.00216
 PX  C  54   0.00009     0.00314    -0.01749     0.03873    -0.01685     0.02396
 PY  C  54  -0.00429    -0.00276     0.01010    -0.00681    -0.00045     0.00360
 PZ  C  54  -0.01640    -0.01873     0.06268    -0.08065     0.01987    -0.01250
  
  S  C  55   0.03966     0.05194    -0.16391     0.22558    -0.06003     0.04919
 PX  C  55  -0.01297    -0.01598     0.04779    -0.05987     0.01280    -0.00045
 PY  C  55  -0.00641    -0.00732     0.02526    -0.03213     0.00784    -0.00667
 PZ  C  55  -0.00765    -0.00920     0.03483    -0.04903     0.01483    -0.02258
  
  S  C  56   0.04000     0.05160    -0.17341     0.24380    -0.07006     0.08766
 PX  C  56  -0.00603    -0.00656     0.01778    -0.01785     0.00114     0.01444
 PY  C  56   0.00034     0.00082    -0.00245     0.00443    -0.00149     0.00144
 PZ  C  56   0.00993     0.01223    -0.03569     0.04398    -0.00839    -0.01030
  
  S  S  57   0.03195     0.03548    -0.11029     0.13649    -0.03215     0.02019
 PX  S  57   0.00759     0.01247    -0.04601     0.07210    -0.02310     0.03486
 PY  S  57   0.00615     0.00829    -0.02739     0.03794    -0.01008     0.00978
 PZ  S  57   0.01646     0.01742    -0.05053     0.05647    -0.00979    -0.00865
  
  S  C  58   0.01964     0.02703    -0.10004     0.15362    -0.05257     0.10886
 PX  C  58  -0.00576    -0.00753     0.02602    -0.03724     0.01101    -0.01332
 PY  C  58  -0.00130    -0.00179     0.00724    -0.01149     0.00427    -0.01063
 PZ  C  58   0.00393     0.00488    -0.01423     0.01739    -0.00289    -0.01055
  
  S  C  59   0.00974     0.01407    -0.05674     0.09243    -0.03519     0.09040
 PX  C  59  -0.00270    -0.00360     0.01298    -0.01932     0.00624    -0.00949
 PY  C  59   0.00059     0.00085    -0.00331     0.00536    -0.00203     0.00643
 PZ  C  59   0.00481     0.00658    -0.02429     0.03727    -0.01281     0.02803
  
  S  C  60  -0.00297    -0.00333     0.00850    -0.00889     0.00057     0.01262
 PX  C  60  -0.00265    -0.00358     0.01325    -0.02012     0.00663    -0.00676
 PY  C  60   0.00054     0.00086    -0.00388     0.00717    -0.00351     0.01844
 PZ  C  60   0.00456     0.00648    -0.02573     0.04231    -0.01684     0.05467
  
  S  O  61  -0.00295    -0.00331     0.00838    -0.00783    -0.00094     0.03378
 PX  O  61   0.00061     0.00057    -0.00070    -0.00073     0.00151    -0.01308
 PY  O  61   0.00088     0.00107    -0.00332     0.00433    -0.00097    -0.00213
 PZ  O  61   0.00149     0.00203    -0.00756     0.01183    -0.00428     0.01036
  
  S  O  62  -0.00943    -0.01277     0.04757    -0.07512     0.02831    -0.08761
 PX  O  62  -0.00187    -0.00258     0.00987    -0.01576     0.00596    -0.01657
 PY  O  62  -0.00140    -0.00187     0.00684    -0.01059     0.00382    -0.01015
 PZ  O  62  -0.00127    -0.00162     0.00540    -0.00779     0.00247    -0.00570
  
  S  C  63   0.00683     0.00985    -0.04035     0.06640    -0.02591     0.06826
 PX  C  63   0.00020     0.00032    -0.00127     0.00189    -0.00046    -0.00121
 PY  C  63   0.00102     0.00142    -0.00533     0.00812    -0.00265     0.00420
 PZ  C  63   0.00233     0.00319    -0.01181     0.01800    -0.00604     0.01182
  
  S  N  64   0.00344     0.00504    -0.02147     0.03644    -0.01509     0.04461
 PX  N  64   0.00116     0.00171    -0.00730     0.01238    -0.00510     0.01474
 PY  N  64   0.00100     0.00146    -0.00615     0.01034    -0.00419     0.01180
 PZ  N  64   0.00113     0.00163    -0.00669     0.01106    -0.00435     0.01180
  
  S  H  65   0.00725     0.01008    -0.03719     0.05747    -0.01980     0.04179
  
  S  H  66   0.02257     0.04834    -0.01757    -0.02230     0.05904     0.06313
  
  S  H  67   0.01809     0.03917    -0.01445    -0.01844     0.05004     0.05513
  
  S  H  68   0.02261     0.04831    -0.01756    -0.02247     0.05899     0.06341
  
  S  H  69   0.03828     0.08045    -0.02808    -0.03384     0.08630     0.08135
  
  S  H  70   0.03828     0.08055    -0.02810    -0.03374     0.08637     0.08121
  
  S  H  71   0.05397     0.10856    -0.03541    -0.04096     0.09323     0.07198
  
  S  H  72   0.05437     0.10809    -0.03525    -0.04260     0.09262     0.07411
  
  S  H  73   0.06374     0.12417    -0.03682    -0.03598     0.07433     0.02632
  
  S  H  74   0.06397     0.12468    -0.03679    -0.03555     0.07377     0.02520
  
  S  H  75   0.07419     0.13120    -0.03187    -0.02221     0.02588    -0.03462
  
  S  H  76   0.07339     0.12727    -0.03143    -0.02530     0.02551    -0.03320
  
  S  H  77   0.06314     0.10997    -0.02282    -0.00933    -0.00206    -0.06260
  
  S  H  78   0.06568     0.11169    -0.02075    -0.00625    -0.01167    -0.06887
  
  S  H  79   0.05497     0.08165    -0.00980     0.01765    -0.04925    -0.07479
  
  S  H  80   0.05275     0.07378     0.00012     0.01457    -0.05894    -0.06794
  
  S  H  81   0.05244     0.06550     0.00631     0.02442    -0.07597    -0.05713
  
  S  H  82   0.04768     0.05706    -0.00479     0.03402    -0.06662    -0.06346
  
  S  H  83   0.02102     0.01067     0.03292    -0.04330    -0.01730    -0.03822
  
  S  H  84   0.01146    -0.00038     0.02220    -0.05797     0.01844    -0.04635
  
  S  H  85  -0.01055     0.00301     0.01547    -0.04861     0.03647    -0.00951
  
  S  H  86  -0.00706    -0.02082    -0.00220     0.00396     0.00596    -0.02026
  
  S  H  87   0.00431    -0.02280     0.00706    -0.03168    -0.01739     0.03127
  
  S  H  88   0.00919    -0.01208     0.00462    -0.03087    -0.01349     0.02317
  
  S  H  89  -0.00185    -0.01083    -0.00275     0.00446     0.00539    -0.02938
  
  S  H  90   0.00878    -0.01463     0.00592    -0.04287    -0.01928     0.06857
  
  S  H  91   0.01022    -0.01142     0.00499    -0.04338    -0.01691     0.06888
  
  S  H  92   0.00491    -0.01383     0.00573    -0.03186    -0.01679     0.05514
  
  S  H  93   0.00412    -0.00944     0.00403    -0.02528    -0.01296     0.04745
  
  S  H  94   0.00492    -0.01277     0.00554    -0.03080    -0.01594     0.05384
  
  S  H  95  -0.02056     0.01287    -0.00247    -0.00367     0.00332     0.01802
  
  S  H  96  -0.01428     0.02742     0.02876     0.01790    -0.01909    -0.02279
  
  S  H  97  -0.00096     0.01853     0.02911     0.02053    -0.01098    -0.02046
  
  S  H  98  -0.01029     0.00668    -0.00128    -0.00440     0.00465     0.02558
  
  S  H  99  -0.00356     0.02286     0.03485     0.03042    -0.01874    -0.05673
  
  S  H 100   0.00280     0.01891     0.03619     0.03400    -0.01303    -0.06090
  
  S  H 101  -0.00528     0.01965     0.02382     0.02430    -0.01746    -0.04416
  
  S  H 102  -0.00247     0.01402     0.01836     0.02028    -0.01306    -0.03872
  
  S  H 103  -0.00343     0.01994     0.01937     0.02903    -0.01755    -0.04311
  
  S  H 104  -0.01949     0.01086     0.07055     0.03829     0.03584     0.00650
  
  S  H 105  -0.00997     0.02464     0.08244     0.03953     0.02338     0.03892
  
  S  H 106  -0.00604     0.02565     0.08180     0.03640     0.01588     0.04491
  
  S  H 107   0.01370     0.01969     0.06249     0.01328    -0.01780     0.04238
  
  S  H 108   0.06946    -0.02420    -0.02917    -0.04207    -0.06769     0.05109
  
  S  H 109   0.07797    -0.02373    -0.01468    -0.03981    -0.07657     0.04882
  
  S  H 110   0.08182    -0.03038    -0.00796    -0.02776    -0.06062     0.05623
  
  S  H 111   0.08878    -0.03964    -0.01553    -0.02532    -0.05090     0.06008
  
  S  H 112   0.11476    -0.05860     0.00448     0.00186    -0.01743     0.05735
  
  S  H 113   0.11180    -0.05903     0.00619     0.00707    -0.00766     0.05154
  
  S  H 114   0.13837    -0.07502     0.01884     0.02979     0.02625     0.02217
  
  S  H 115   0.13707    -0.07460     0.01541     0.02510     0.02084     0.02729
  
  S  H 116   0.11657    -0.06880     0.02116     0.03943     0.05330    -0.00850
  
  S  H 117   0.12303    -0.07296     0.02387     0.04463     0.06171    -0.01676
  
  S  H 118   0.10862    -0.06585     0.02776     0.05255     0.07889    -0.05200
  
  S  H 119   0.09632    -0.05939     0.02559     0.04950     0.07702    -0.05426
  
  S  H 120   0.08640    -0.05286     0.02537     0.04802     0.07396    -0.06059
  
  S  H 121   0.09495    -0.05530     0.03019     0.05274     0.07366    -0.06302
  
  S  H 122   0.05002    -0.02984     0.01861     0.03355     0.04940    -0.05225
  
  S  H 123   0.04881    -0.03025     0.01653     0.03152     0.04998    -0.04920
  
  S  H 124   0.04051    -0.02444     0.01520     0.02779     0.04195    -0.04511
  
  S  H 125   0.01013     0.01495    -0.03202     0.03768    -0.00494    -0.00942
  
  S  H 126   0.01094     0.01541    -0.04721     0.06834    -0.01939     0.01740
  
  S  H 127  -0.00421    -0.00573     0.02148    -0.03400     0.01281    -0.03835




    ROOT NO.   13          14          15          16          17          18

           -39.90191   -39.62294   -39.53810   -39.07346   -38.55923   -37.26583
  
  
  S  C   1   0.12425     0.10596     0.10148    -0.00217    -0.12942     0.13700
 PX  C   1   0.03780     0.03183     0.03054    -0.00050    -0.03544     0.03148
 PY  C   1   0.00818     0.00622     0.00555    -0.00024    -0.00540     0.00362
 PZ  C   1   0.00012    -0.00006    -0.00019    -0.00006     0.00017     0.00013
  
  S  C   2   0.16033     0.13475     0.12954    -0.00186    -0.14678     0.12664
 PX  C   2  -0.01360    -0.01253    -0.01171     0.00072     0.02388    -0.03836
 PY  C   2   0.02640     0.02067     0.01935    -0.00028    -0.01592     0.00456
 PZ  C   2   0.00015    -0.00010    -0.00028    -0.00008     0.00024     0.00012
  
  S  C   3   0.12572     0.09918     0.09401    -0.00072    -0.07544     0.02122
 PX  C   3  -0.01997    -0.01748    -0.01508     0.00168     0.03523    -0.05740
 PY  C   3  -0.03739    -0.03380    -0.03368     0.00017     0.04273    -0.04073
 PZ  C   3   0.00071    -0.00041    -0.00119    -0.00033     0.00097     0.00047
  
  S  C   4   0.02072     0.01213     0.01542     0.00375     0.04323    -0.11276
 PX  C   4  -0.05010    -0.04062    -0.03743     0.00125     0.04354    -0.03033
 PY  C   4  -0.02988    -0.02616    -0.02420     0.00123     0.03905    -0.04320
 PZ  C   4   0.00027    -0.00010    -0.00029    -0.00005     0.00051    -0.00106
  
  S  C   5  -0.09691    -0.08178    -0.07140     0.00594     0.12979    -0.14604
 PX  C   5  -0.05046    -0.03856    -0.03432     0.00123     0.03427    -0.00259
 PY  C   5  -0.01722    -0.01118    -0.01055    -0.00056    -0.00776     0.03368
 PZ  C   5   0.00164     0.00099     0.00071    -0.00002    -0.00136    -0.00151
  
  S  C   6  -0.15573    -0.12593    -0.11286     0.00538     0.14116    -0.07459
 PX  C   6   0.01170     0.00968     0.00752    -0.00142    -0.02644     0.04682
 PY  C   6  -0.03105    -0.02227    -0.02040    -0.00019     0.00443     0.03203
 PZ  C   6  -0.00604    -0.00417    -0.00340     0.00026     0.00602    -0.00571
  
  S  C   7  -0.13262    -0.10013    -0.09497    -0.00147     0.05201     0.06997
 PX  C   7   0.03180     0.01969     0.01522    -0.00102    -0.02122     0.01339
 PY  C   7   0.02989     0.02799     0.02151    -0.00466    -0.05307     0.05590
 PZ  C   7   0.01136     0.01166     0.01355     0.00109     0.00186    -0.02386
  
  S  C   8  -0.05805    -0.03202    -0.04170    -0.01165    -0.05959     0.16307
 PX  C   8   0.02323     0.00435    -0.01057    -0.00642    -0.02474     0.04424
 PY  C   8   0.05300     0.04788     0.03562    -0.00819    -0.06158     0.03709
 PZ  C   8  -0.02026    -0.00580    -0.00402    -0.00165     0.00309     0.00632
  
  S  N   9   0.11302     0.06902    -0.00140    -0.03829    -0.12997     0.09491
 PX  N   9   0.05127     0.00353    -0.01389    -0.00037     0.00260    -0.06487
 PY  N   9   0.03352     0.02409     0.01158    -0.00604     0.02927    -0.09685
 PZ  N   9  -0.00006     0.01531     0.00738    -0.00884     0.00661    -0.01375
  
  S  C  10   0.09150    -0.00203     0.02327     0.03503    -0.04026    -0.00704
 PX  C  10  -0.04442    -0.03824     0.02944     0.04163     0.05037    -0.01530
 PY  C  10   0.01851     0.00783    -0.00361    -0.00397     0.01973    -0.09440
 PZ  C  10   0.02993     0.02109    -0.01994    -0.02331    -0.00886    -0.05718
  
  S  C  11   0.00980    -0.04065     0.05585     0.06926    -0.00163     0.10230
 PX  C  11  -0.01837    -0.01112     0.02172     0.01769     0.02494     0.00317
 PY  C  11   0.00712    -0.00901     0.01932     0.02027     0.00506    -0.00186
 PZ  C  11   0.01223    -0.00276     0.00210     0.00625    -0.00801    -0.00076
  
  S  C  12  -0.02966    -0.03089     0.06768     0.05378     0.03091     0.10012
 PX  C  12  -0.01001     0.01880    -0.01395    -0.02981    -0.00059    -0.00724
 PY  C  12  -0.01069    -0.00267     0.01278     0.00439     0.00931     0.00486
 PZ  C  12  -0.00336    -0.01167     0.01609     0.01808     0.00732     0.00734
  
  S  C  13  -0.06127    -0.00058     0.04667    -0.00076     0.03219     0.07132
 PX  C  13  -0.00556     0.03844    -0.02970    -0.05663    -0.01385     0.00569
 PY  C  13  -0.00665     0.00912    -0.01496    -0.01943    -0.00532    -0.02104
 PZ  C  13  -0.00317    -0.01106     0.00285     0.01160     0.00283    -0.01863
  
  S  C  14  -0.05943    -0.03853     0.01681     0.02677     0.02451    -0.04118
 PX  C  14  -0.00921     0.02299     0.00032    -0.02736    -0.00753     0.05408
 PY  C  14  -0.00375     0.00596    -0.02756    -0.01922    -0.01628    -0.01348
 PZ  C  14   0.00041    -0.00669    -0.02173    -0.00198    -0.00885    -0.03687
  
  S  C  15   0.01651    -0.03465    -0.01040     0.03213     0.03063    -0.17536
 PX  C  15  -0.05271    -0.02782     0.02011     0.02395     0.00341     0.05146
 PY  C  15  -0.04006    -0.01065    -0.02940    -0.01401     0.00928    -0.02931
 PZ  C  15  -0.00674     0.00477    -0.03366    -0.02298     0.00525    -0.04596
  
  S  C  16  -0.03712    -0.02608    -0.07733    -0.02537     0.12005    -0.20120
 PX  C  16  -0.01805    -0.02772    -0.02151     0.01327    -0.05100    -0.04411
 PY  C  16  -0.07199    -0.03776    -0.02928     0.00297     0.02018     0.01371
 PZ  C  16  -0.04971    -0.01675    -0.01289    -0.00413     0.04025     0.03389
  
  S  C  17   0.01505     0.06310     0.03368    -0.03343     0.07664    -0.00904
 PX  C  17   0.04808    -0.01202    -0.05587    -0.01244     0.01088    -0.11025
 PY  C  17  -0.04085    -0.02129    -0.00904     0.00311     0.09403    -0.03030
 PZ  C  17  -0.05911    -0.01456     0.01637     0.00862     0.06757     0.03513
  
  S  C  18  -0.09500     0.06523     0.14996     0.01202     0.09411     0.15151
 PX  C  18   0.01918    -0.01297    -0.05376    -0.02271     0.07842    -0.01300
 PY  C  18   0.00842    -0.01602    -0.02297    -0.00351     0.06446     0.02618
 PZ  C  18  -0.00444    -0.00821     0.00519     0.00772     0.01502     0.02754
  
  S  C  19  -0.11089     0.07310     0.20373     0.05085    -0.11287    -0.00809
 PX  C  19  -0.01282     0.00988     0.01149    -0.00872     0.05240     0.10043
 PY  C  19  -0.00516     0.00763     0.01361    -0.00199     0.03625     0.06207
 PZ  C  19  -0.00413    -0.00180     0.00382     0.00312     0.00727     0.00188
  
  S  C  20  -0.05108     0.03958     0.11368     0.03551    -0.11209    -0.08508
 PX  C  20  -0.03130     0.01879     0.04846     0.00813    -0.00766     0.03948
 PY  C  20   0.00007    -0.00028    -0.00486    -0.00513     0.03024     0.04473
 PZ  C  20  -0.01815     0.01188     0.03694     0.01192    -0.03095    -0.02292
  
  S  C  21   0.04309    -0.01294    -0.03871    -0.00268    -0.02605    -0.07529
 PX  C  21  -0.03763     0.02066     0.06695     0.02247    -0.07077    -0.06775
 PY  C  21  -0.02856     0.01489     0.04481     0.01198    -0.02886    -0.01215
 PZ  C  21   0.01306    -0.00505    -0.01372    -0.00125    -0.00398    -0.02023
  
  S  C  22   0.11908    -0.05374    -0.16416    -0.03961     0.07973     0.00125
 PX  C  22  -0.05336     0.02541     0.08910     0.03197    -0.10058    -0.11708
 PY  C  22  -0.01704     0.01057     0.03393     0.01221    -0.04202    -0.04444
 PZ  C  22   0.00054    -0.00140    -0.00276    -0.00056     0.00365     0.00027
  
  S  C  23   0.02690    -0.01541    -0.03077     0.00239    -0.02975    -0.10083
 PX  C  23  -0.04710     0.02001     0.06909     0.02166    -0.05769    -0.04692
 PY  C  23  -0.01145     0.00900     0.02827     0.01084    -0.03879    -0.04084
 PZ  C  23  -0.00980     0.00412     0.00998     0.00003     0.00933     0.02553
  
  S  C  24  -0.06562     0.03256     0.11235     0.03833    -0.10709    -0.09661
 PX  C  24  -0.01669     0.00760     0.01677    -0.00152     0.02132     0.06373
 PY  C  24  -0.02227     0.01845     0.04695     0.01031    -0.01812     0.01776
 PZ  C  24   0.01852    -0.01136    -0.03427    -0.01054     0.03526     0.02304
  
  S  C  25   0.17283    -0.08010    -0.26277    -0.08019     0.22068     0.19727
 PX  C  25   0.00627    -0.00278    -0.00599     0.00076    -0.00916    -0.03100
 PY  C  25   0.03106    -0.01560    -0.04879    -0.01417     0.03791     0.03070
 PZ  C  25   0.01038    -0.00538    -0.01723    -0.00549     0.01675     0.01741
  
  S  C  26   0.13520    -0.06415    -0.21170    -0.06706     0.19291     0.19781
 PX  C  26   0.03532    -0.01646    -0.05342    -0.01592     0.04276     0.03471
 PY  C  26  -0.01807     0.00833     0.02790     0.00893    -0.02573    -0.02604
 PZ  C  26  -0.01672     0.00768     0.02537     0.00781    -0.02143    -0.01968
  
  S  C  27   0.01343     0.00771     0.05150     0.00957     0.11723     0.20332
 PX  C  27   0.01322    -0.01677    -0.04022    -0.01148     0.04383    -0.03307
 PY  C  27   0.07366    -0.02241    -0.04887    -0.00161    -0.03599     0.00368
 PZ  C  27   0.04925    -0.00912    -0.01856     0.00399    -0.04800     0.01567
  
[...]
  79    H        6.028642870     4.486468562     1.341771837
  80    H        7.357794054     4.159975622     0.239163629
  81    H        5.741719988     4.977484744    -1.714978462
  82    H        4.662570875     5.559399892    -0.445743393
  83    H        7.976574495     4.885816643    -2.389407065
  84    H       10.275344680     5.456078775    -3.091962726
  85    H       10.290420480     8.947146634    -0.537601614
  86    H        3.227797915     8.307190797    -0.495488501
  87    H        1.061849468     7.094108945    -0.483644429
  88    H        2.396426249     4.748766277     2.877467215
  89    H        4.557120690     5.961333320     2.864867502
  90    H        0.001242685     4.838019328     0.155150414
  91    H        0.346029977     4.158336479     1.732551565
  92    H       -0.901161906     6.963231436     1.261219314
  93    H       -1.765874248     5.529452249     1.822702151
  94    H       -0.543122637     6.282756657     2.850236572
  95    H        8.255451599    11.656210370    -0.223814069
  96    H       10.423259900    12.858023690    -0.366221768
  97    H       12.130606890    10.109169890     2.482371250
  98    H        9.966565386     8.913369553     2.624213041
  99    H       12.575616690    13.363889040     0.980136141
 100    H       13.403955850    12.030811200     1.758021080
 101    H       12.757136260    12.189869560    -1.275455126
 102    H       14.351133450    12.374337410    -0.539081712
 103    H       13.535647760    10.806836990    -0.504062794
 104    H        2.657704218     8.558053431     2.819944482
 105    H        1.546995430    10.021011760     4.491831778
 106    H        2.739629654    11.932859910     5.494529555
 107    H        5.074864350    12.462763600     4.854319203
 108    H        8.383658837    11.793599770     2.905027519
 109    H        7.171267598    12.623585680     3.882121466
 110    H        7.112073717    10.423013000     5.392227971
 111    H        8.557519920     9.917839507     4.530133334
 112    H        8.218588133    12.534671580     6.165011731
 113    H        9.080423557    11.096673780     6.683428424
 114    H       10.609040690    11.388127860     4.566233726
 115    H        9.847197401    12.954970370     4.327036765
 116    H       10.465178630    13.595447780     6.740627192
 117    H       11.337832010    12.080791810     6.900211720
 118    H       11.940180310    14.177711880     4.694271220
 119    H       12.743408100    14.152510260     6.253789419
 120    H       13.550520520    11.770373570     5.810114339
 121    H       12.774904670    11.801070580     4.233198646
 122    H       14.207182050    13.804205630     3.561314138
 123    H       14.998838260    13.760683550     5.138158696
 124    H       15.195256710    12.415237340     4.015260066
 125    H       12.645496510     8.286566602    -0.435007875
 126    H       14.835670560     8.714708190    -1.781265039
 127    H       16.792492000     7.455519882    -8.341615086


           Empirical Formula: C58 H63 N3 O2 S  =   127 atoms



      MOLECULAR POINT GROUP   :   C1  


                  EIGENVALUES  
 -49.17283 -48.00803 -46.75414 -45.35191 -44.76579 -43.75692 -43.33443 -43.00628
 -42.48454 -42.09940 -41.45047 -40.32423 -39.90191 -39.62294 -39.53810 -39.07346
 -38.55923 -37.26583 -36.37273 -36.13708 -35.64804 -34.31696 -34.22731 -33.62905
 -33.37675 -33.20961 -33.15864 -32.17892 -31.17338 -30.69461 -30.41548 -29.99508
 -29.31631 -29.16811 -28.67728 -28.34367 -27.86889 -27.03589 -26.83869 -26.34030
 -26.23780 -26.08736 -26.02072 -25.84320 -25.51352 -25.14233 -24.98017 -24.71495
 -24.55183 -24.48369 -24.34643 -24.10666 -23.88601 -23.72287 -23.49633 -23.22495
 -22.53080 -22.06287 -21.58132 -21.40149 -21.08816 -20.82663 -20.61594 -20.49472
 -19.97039 -19.61641 -19.47376 -19.45619 -19.36266 -19.17459 -19.01033 -18.97049
 -18.71000 -18.51423 -18.22559 -18.15620 -17.82719 -17.76946 -17.66670 -17.36804
 -17.17273 -17.07443 -17.01554 -16.86881 -16.78900 -16.72618 -16.67183 -16.49312
 -16.44299 -16.33597 -16.16557 -16.08103 -15.95821 -15.82298 -15.70599 -15.63837
 -15.58136 -15.31584 -15.21100 -15.18887 -15.07865 -14.95997 -14.93192 -14.78745
 -14.74747 -14.66292 -14.54829 -14.52145 -14.45778 -14.33370 -14.14935 -14.03076
 -13.99612 -13.80757 -13.74801 -13.66778 -13.62634 -13.53432 -13.49090 -13.39437
 -13.33240 -13.31623 -13.23704 -13.08424 -13.05537 -12.98500 -12.93619 -12.87540
 -12.79614 -12.72364 -12.59954 -12.48719 -12.47824 -12.36902 -12.36373 -12.27908
 -12.19566 -12.16699 -12.12239 -12.10681 -12.04586 -11.92137 -11.88756 -11.77327
 -11.58496 -11.40554 -11.37807 -11.30541 -10.80112 -10.75050 -10.63001 -10.30603
 -10.11871  -9.91394  -9.08487  -9.02319  -8.88258  -8.82153  -8.36853  -8.10695
  -8.02258  -7.59715  -7.30053  -6.99307  -1.27171  -0.08958   0.29283   0.73735
   0.76472   0.79105   0.85741   0.88411   0.92082   0.99073   1.15921   1.36410
   1.61116   1.75020   2.10032   2.15324   2.46097   2.58508   2.70878   2.76522
   2.83707   2.93428   2.97233   3.05907   3.09580   3.13115   3.18992   3.25078
   3.27485   3.30962   3.39859   3.45914   3.47832   3.49872   3.64121   3.72995
   3.76882   3.79731   3.86369   3.99016   4.05780   4.08994   4.11727   4.13640
   4.15384   4.18362   4.21933   4.25843   4.30374   4.43968   4.53950   4.56922
   4.59037   4.80152   4.88042   4.88440   4.91627   5.04929   5.08241   5.11088
   5.30418   5.32828   5.41399   5.45845   5.60477   5.64511   5.79685   5.82271
   5.82516   6.09427   6.29293   6.36175   6.43527   6.44264   6.51142   6.56000
   6.57286   6.66633   6.68605   6.71023   6.71858   6.75027   6.75834   6.76776
   6.77959   6.78917   6.80125   6.81064   6.83419   6.87549   6.88198   6.96132
   6.98674   7.00721   7.01267   7.01388   7.01911   7.02418   7.04306   7.07477
   7.09012   7.35961   7.80928   8.15962   8.17752   8.24040   8.30280   8.38487
   8.56350   8.62308   8.63334   8.69146   8.70031   8.77560   8.79450   8.81818
   8.96184   8.97382   9.10123   9.13445   9.13611   9.15213   9.29871   9.34574
   9.63622   9.82052   9.89932  10.09954  10.24721  10.52955  10.68078  10.88276
  10.93912  11.16611  11.32533  11.48282  11.54718  11.71576  11.72248  11.85077
  12.00076  12.36664  12.46031  12.62886  12.63176  12.82159  12.85827  13.04702
  13.15454  13.44062  13.71510  14.30433  14.40620  14.58478  15.66416


              NET ATOMIC CHARGES AND DIPOLE CONTRIBUTIONS

  ATOM NO.   TYPE          CHARGE      No. of ELECS.   s-Pop       p-Pop       
    1          C          -0.027909        4.0279     1.05492     2.97299
    2          C          -0.006947        4.0069     1.04474     2.96221
    3          C          -0.008908        4.0089     1.05081     2.95810
    4          C          -0.011351        4.0114     1.05237     2.95898
    5          C          -0.012037        4.0120     1.05277     2.95927
    6          C          -0.010588        4.0106     1.05048     2.96011
    7          C          -0.004812        4.0048     1.05225     2.95256
    8          C           0.069791        3.9302     1.05248     2.87773
    9          N          -0.160500        5.1605     1.26578     3.89472
   10          C           0.082467        3.9175     1.05160     2.86593
   11          C          -0.041453        4.0415     1.07787     2.96358
   12          C          -0.021810        4.0218     1.08243     2.93938
   13          C           0.001975        3.9980     1.03730     2.96073
   14          C          -0.025017        4.0250     1.08813     2.93689
   15          C          -0.014643        4.0146     1.05048     2.96416
   16          C          -0.026330        4.0263     1.05037     2.97597
   17          C           0.050553        3.9494     1.05275     2.89670
   18          C           0.008624        3.9914     1.04248     2.94890
   19          C           0.036257        3.9637     1.04632     2.91742
   20          C          -0.037670        4.0377     1.07920     2.95847
   21          C          -0.033877        4.0339     1.08134     2.95254
   22          C           0.013938        3.9861     1.05047     2.93559
   23          C          -0.034702        4.0347     1.08168     2.95302
   24          C          -0.038154        4.0382     1.07956     2.95859
   25          C           0.005358        3.9946     1.03973     2.95491
   26          C          -0.018900        4.0189     1.05280     2.96610
   27          C          -0.023606        4.0236     1.05115     2.97245
   28          C           0.047893        3.9521     1.05399     2.89812
   29          C           0.009745        3.9903     1.04269     2.94757
   30          C           0.035669        3.9643     1.04648     2.91785
   31          C          -0.038358        4.0384     1.07916     2.95920
   32          C          -0.033893        4.0339     1.08135     2.95254
   33          C           0.013848        3.9862     1.05063     2.93552
   34          C          -0.035494        4.0355     1.08184     2.95365
   35          C          -0.037230        4.0372     1.07985     2.95738
   36          C           0.004541        3.9955     1.04035     2.95511
   37          C          -0.019430        4.0194     1.05364     2.96579
   38          N          -0.172239        5.1722     1.29618     3.87606
   39          C           0.077441        3.9226     1.05352     2.86904
   40          C          -0.014355        4.0144     1.04842     2.96594
   41          C          -0.028073        4.0281     1.08464     2.94344
   42          C          -0.047015        4.0470     1.07842     2.96859
   43          C          -0.026419        4.0264     1.08047     2.94595
   44          C          -0.044666        4.0447     1.07619     2.96848
   45          C           0.069281        3.9307     1.05272     2.87800
   46          C          -0.004968        4.0050     1.05226     2.95271
   47          C          -0.010616        4.0106     1.05065     2.95996
   48          C          -0.008371        4.0084     1.05105     2.95732
   49          C          -0.009911        4.0099     1.05163     2.95828
   50          C          -0.007359        4.0074     1.04972     2.95763
   51          C          -0.005457        4.0055     1.04413     2.96133
   52          C          -0.027759        4.0278     1.05528     2.97248
   53          C           0.083953        3.9160     1.09186     2.82418
   54          C          -0.060584        4.0606     1.08151     2.97907
   55          C           0.038818        3.9612     1.10214     2.85904
   56          C          -0.010636        4.0106     1.05911     2.95152
   57          S          -0.029855        6.0299     1.76759     4.26226
   58          C           0.123345        3.8767     1.09457     2.78208
   59          C          -0.000341        4.0003     0.99946     3.00088
   60          C           0.494417        3.5056     1.04546     2.46013
   61          O          -0.616237        6.6162     1.81701     4.79923
   62          O          -0.312444        6.3124     1.68776     4.62468
   63          C           0.216386        3.7836     1.14960     2.63402
   64          N          -0.400253        5.4003     1.75365     3.64661
   65          H           0.059576        0.9404     0.94042
   66          H           0.007900        0.9921     0.99210
   67          H           0.000303        0.9997     0.99970
   68          H           0.007815        0.9922     0.99219
   69          H           0.006248        0.9938     0.99375
   70          H           0.006330        0.9937     0.99367
   71          H           0.006980        0.9930     0.99302
   72          H           0.006982        0.9930     0.99302
   73          H           0.006746        0.9933     0.99325
   74          H           0.006909        0.9931     0.99309
   75          H           0.007990        0.9920     0.99201
   76          H           0.009271        0.9907     0.99073
   77          H           0.001068        0.9989     0.99893
   78          H           0.007752        0.9922     0.99225
   79          H           0.011153        0.9888     0.98885
   80          H           0.005969        0.9940     0.99403
   81          H           0.016514        0.9835     0.98349
   82          H           0.026840        0.9732     0.97316
   83          H           0.027138        0.9729     0.97286
   84          H           0.022817        0.9772     0.97718
   85          H           0.033320        0.9667     0.96668
   86          H           0.021100        0.9789     0.97890
   87          H           0.020098        0.9799     0.97990
   88          H           0.020166        0.9798     0.97983
   89          H           0.021077        0.9789     0.97892
   90          H           0.009026        0.9910     0.99097
   91          H           0.005486        0.9945     0.99451
   92          H           0.011111        0.9889     0.98889
   93          H           0.002272        0.9977     0.99773
   94          H           0.010156        0.9898     0.98984
   95          H           0.020804        0.9792     0.97920
   96          H           0.019960        0.9800     0.98004
   97          H           0.020961        0.9790     0.97904
   98          H           0.021717        0.9783     0.97828
   99          H           0.008958        0.9910     0.99104
  100          H           0.006237        0.9938     0.99376
  101          H           0.010653        0.9893     0.98935
  102          H           0.002228        0.9978     0.99777
  103          H           0.011000        0.9890     0.98900
  104          H           0.028437        0.9716     0.97156
  105          H           0.015638        0.9844     0.98436
  106          H           0.017965        0.9820     0.98204
  107          H           0.025270        0.9747     0.97473
  108          H           0.025106        0.9749     0.97489
  109          H           0.015026        0.9850     0.98497
  110          H           0.005479        0.9945     0.99452
  111          H           0.011316        0.9887     0.98868
  112          H           0.007511        0.9925     0.99249
  113          H           0.001179        0.9988     0.99882
  114          H           0.010531        0.9895     0.98947
  115          H           0.008570        0.9914     0.99143
  116          H          -0.000680        1.0007     1.00068
  117          H           0.006961        0.9930     0.99304
  118          H           0.007166        0.9928     0.99283
  119          H          -0.000572        1.0006     1.00057
  120          H           0.006593        0.9934     0.99341
  121          H           0.009290        0.9907     0.99071
  122          H           0.008454        0.9915     0.99155
  123          H           0.007559        0.9924     0.99244
  124          H           0.000931        0.9991     0.99907
  125          H           0.036160        0.9638     0.96384
  126          H           0.048246        0.9518     0.95175
  127          H           0.246119        0.7539     0.75388
 DIPOLE           X         Y         Z       TOTAL
 POINT-CHG.    -3.374     0.467     6.723     7.536
 HYBRID         2.432     0.690     2.022     3.237
 SUM           -0.942     1.156     8.745     8.871


          ATOMIC ORBITAL ELECTRON POPULATIONS

     Atom    s        px        py        pz   
    1  C   1.05492   0.99087   0.98891   0.99322
    2  C   1.04474   0.99085   0.98543   0.98592
    3  C   1.05081   0.99088   0.98017   0.98705
    4  C   1.05237   0.99025   0.98209   0.98664
    5  C   1.05277   0.98646   0.98511   0.98770
    6  C   1.05048   0.99594   0.97835   0.98582
    7  C   1.05225   0.98088   0.99263   0.97905
    8  C   1.05248   0.95851   0.92398   0.99524
    9  N   1.26578   1.21267   1.22053   1.46152
   10  C   1.05160   0.89678   0.99642   0.97273
   11  C   1.07787   0.98754   0.97375   1.00229
   12  C   1.08243   0.97983   0.98224   0.97731
   13  C   1.03730   0.95683   0.99467   1.00923
   14  C   1.08813   0.97994   0.97393   0.98302
   15  C   1.05048   0.96617   0.99766   1.00034
   16  C   1.05037   0.98990   0.98015   1.00591
   17  C   1.05275   0.98391   0.95883   0.95396
   18  C   1.04248   0.96235   0.98674   0.99980
   19  C   1.04632   0.97204   0.96640   0.97898
   20  C   1.07920   0.99110   0.98546   0.98190
   21  C   1.08134   0.97156   1.00090   0.98008
   22  C   1.05047   0.96664   0.98208   0.98688
   23  C   1.08168   0.99142   0.98195   0.97965
   24  C   1.07956   0.97430   1.00456   0.97974
   25  C   1.03973   1.00177   0.96932   0.98383
   26  C   1.05280   0.97939   0.99268   0.99404
   27  C   1.05115   0.98628   0.98088   1.00529
   28  C   1.05399   0.98417   0.92976   0.98419
   29  C   1.04269   0.96955   0.99082   0.98720
   30  C   1.04648   0.97604   0.97055   0.97127
   31  C   1.07916   0.96618   0.99634   0.99669
   32  C   1.08135   0.99166   0.97234   0.98854
   33  C   1.05063   0.97223   0.98605   0.97724
   34  C   1.08184   0.96559   0.99662   0.99144
   35  C   1.07985   0.98735   0.97535   0.99469
   36  C   1.04035   0.98971   0.97898   0.98641
   37  C   1.05364   0.98578   0.99507   0.98493
   38  N   1.29618   1.11155   1.38776   1.37675
   39  C   1.05352   0.91605   0.98810   0.96489
   40  C   1.04842   0.96188   1.00062   1.00344
   41  C   1.08464   0.98133   0.96997   0.99214
   42  C   1.07842   0.95037   1.00488   1.01334
   43  C   1.08047   0.98677   0.98237   0.97681
   44  C   1.07619   0.98134   0.97408   1.01305
   45  C   1.05272   0.93888   0.96118   0.97794
   46  C   1.05226   0.98868   0.97673   0.98730
   47  C   1.05065   0.99581   0.98994   0.97421
   48  C   1.05105   0.99243   0.98868   0.97621
   49  C   1.05163   0.99185   0.99003   0.97640
   50  C   1.04972   0.99316   0.97544   0.98904
   51  C   1.04413   0.99696   0.97496   0.98941
   52  C   1.05528   0.98857   0.99190   0.99202
   53  C   1.09186   0.97471   0.92758   0.92190
   54  C   1.08151   0.99431   1.04885   0.93591
   55  C   1.10214   0.96089   0.89887   0.99928
   56  C   1.05911   0.90276   1.07574   0.97302
   57  S   1.76759   1.22761   1.79239   1.24226
   58  C   1.09457   0.96243   0.84938   0.97027
   59  C   0.99946   0.93435   1.10303   0.96349
   60  C   1.04546   0.89640   0.72580   0.83793
   61  O   1.81701   1.42320   1.49955   1.87648
   62  O   1.68776   1.54738   1.78189   1.29541
   63  C   1.14960   0.89695   0.89644   0.84062
   64  N   1.75365   1.22890   1.19992   1.21779
   65  H   0.94042
   66  H   0.99210
   67  H   0.99970
   68  H   0.99219
   69  H   0.99375
   70  H   0.99367
   71  H   0.99302
   72  H   0.99302
   73  H   0.99325
   74  H   0.99309
   75  H   0.99201
   76  H   0.99073
   77  H   0.99893
   78  H   0.99225
   79  H   0.98885
   80  H   0.99403
   81  H   0.98349
   82  H   0.97316
   83  H   0.97286
   84  H   0.97718
   85  H   0.96668
   86  H   0.97890
   87  H   0.97990
   88  H   0.97983
   89  H   0.97892
   90  H   0.99097
   91  H   0.99451
   92  H   0.98889
   93  H   0.99773
   94  H   0.98984
   95  H   0.97920
   96  H   0.98004
   97  H   0.97904
   98  H   0.97828
   99  H   0.99104
  100  H   0.99376
  101  H   0.98935
  102  H   0.99777
  103  H   0.98900
  104  H   0.97156
  105  H   0.98436
  106  H   0.98204
  107  H   0.97473
  108  H   0.97489
  109  H   0.98497
  110  H   0.99452
  111  H   0.98868
  112  H   0.99249
  113  H   0.99882
  114  H   0.98947
  115  H   0.99143
  116  H   1.00068
  117  H   0.99304
  118  H   0.99283
  119  H   1.00057
  120  H   0.99341
  121  H   0.99071
  122  H   0.99155
  123  H   0.99244
  124  H   0.99907
  125  H   0.96384
  126  H   0.95175
  127  H   0.75388

 **********************
 *                    *
 * JOB ENDED NORMALLY *
 *                    *
 **********************



 TOTAL JOB TIME:           867.09 SECONDS

 == MOPAC DONE ==
