 *******************************************************************************
 ** Site#: 4824         For non-commercial use only    Version 21.013L 64BITS **
 *******************************************************************************
 ** Cite this program as: MOPAC2016, Version: 21.013L, James J. P. Stewart,   **
 ** Stewart Computational Chemistry, web: HTTP://OpenMOPAC.net. Days left:  84**
 *******************************************************************************
 **                                                                           **
 **                                MOPAC2016                                  **
 **                                                                           **
 *******************************************************************************

                              INDO CALCULATION RESULTS

 *******************************************************************************
 *  CALCULATION DONE:                                Thu Oct 21 09:30:13 2021  *
 *  INDO       - The INDO Hamiltonian to be used
 *  CIS        - C.I. USES 1 ELECTRON EXCITATIONS ONLY
 *  EPS= 37.50 - USE ANDREAS KLAMT'S COSMO IMPLICIT SOLVATION MODEL
 *  n**2 =  1.340 for COSMO-CI
 *  T=         - A TIME OF 172800.0 SECONDS REQUESTED
 *  DUMP=N     - RESTART FILE WRITTEN EVERY 7200.0 SECONDS REQUESTED
 *******************************************************************************
INDO CIS EPS=37.5 N**2=1.34
 Dye6
 Calculo de Estados Excitados
   ATOM   CHEMICAL          X               Y               Z
  NUMBER   SYMBOL      (ANGSTROMS)     (ANGSTROMS)     (ANGSTROMS)
 
     1       N          0.00024467  *   0.01061586  *   0.00709518  *
     2       C          1.15651682  *  -0.00117492  *  -0.00512540  *
     3       C          2.57438283  *  -0.00088712  *  -0.00237633  *
     4       C          3.30285476  *  -1.13288827  *   0.00236316  *
     5       C          2.71119463  *  -2.45700494  *  -0.05286809  *
     6       C          1.68977626  *  -2.73684205  *  -0.97370164  *
     7       C          1.10219457  *  -3.98787912  *  -1.04067323  *
     8       C          1.55843204  *  -4.95812248  *  -0.14983504  *
     9       C          2.61673698  *  -4.69135744  *   0.76622382  *
    10       C          3.19848150  *  -3.43925306  *   0.80820355  *
    11       C          2.85839004  *  -5.90731102  *   1.50106401  *
    12       C          3.75185458  *  -6.23739915  *   2.50752016  *
    13       C          3.71628770  *  -7.52448826  *   3.02268488  *
    14       C          2.79852232  *  -8.46869448  *   2.54991488  *
    15       C          1.89310966  *  -8.16572109  *   1.54479768  *
    16       C          1.94055589  *  -6.87843792  *   1.01840791  *
    17       N          1.15238263  *  -6.29100733  *   0.00599359  *
    18       C          0.10696890  *  -6.92829176  *  -0.70773337  *
    19       C         -1.14591677  *  -6.32052254  *  -0.78554359  *
    20       C         -2.16632194  *  -6.94699747  *  -1.48907289  *
    21       C         -1.93898722  *  -8.17428105  *  -2.11471133  *
    22       C         -0.67655618  *  -8.77826170  *  -2.02483112  *
    23       C          0.34639229  *  -8.15862400  *  -1.32719008  *
    24       N         -2.91135234  *  -8.85952295  *  -2.92650645  *
    25       C         -3.99734149  *  -8.00270066  *  -3.44921529  *
    26       C         -3.44521074  * -10.06148946  *  -2.23984021  *
    27       C          3.25296183  *   1.30119028  *   0.03173794  *
    28       O          4.45990869  *   1.49168134  *   0.08361530  *
    29       O          2.41545432  *   2.35719840  *  -0.00164159  *
    30       H          4.40117874  *  -1.08972536  *   0.06109815  *
    31       H          1.36261600  *  -1.96117696  *  -1.67481906  *
    32       H          0.31835240  *  -4.20612878  *  -1.76977718  *
    33       H          4.01098954  *  -3.23138736  *   1.51024956  *
    34       H          4.46160532  *  -5.49492067  *   2.88054849  *
    35       H          4.41384204  *  -7.80886381  *   3.81559476  *
    36       H          2.79432828  *  -9.47220847  *   2.98744390  *
    37       H          1.16822767  *  -8.90226923  *   1.19229138  *
    38       H         -1.33750068  *  -5.36430931  *  -0.28631674  *
    39       H         -3.14391382  *  -6.45741447  *  -1.52564588  *
    40       H         -0.48195369  *  -9.73344451  *  -2.52517678  *
    41       H          1.33608127  *  -8.62527081  *  -1.27947984  *
    42       H         -4.76716977  *  -7.68602023  *  -2.71985292  *
    43       H         -3.58431947  *  -7.09152248  *  -3.91504284  *
    44       H         -4.52532356  *  -8.55558960  *  -4.24640620  *
    45       H         -4.10303439  *  -9.85660681  *  -1.37366600  *
    46       H         -4.03041910  * -10.66256318  *  -2.95725451  *
    47       H         -2.62778884  * -10.70660770  *  -1.87545863  *
    48       H          2.90599349  *   3.19143526  *   0.02651741  *
 


          CARTESIAN COORDINATES 

    NO.       ATOM           X           Y           Z

     1         N          0.0002      0.0106      0.0071
     2         C          1.1565     -0.0012     -0.0051
     3         C          2.5744     -0.0009     -0.0024
     4         C          3.3029     -1.1329      0.0024
     5         C          2.7112     -2.4570     -0.0529
     6         C          1.6898     -2.7368     -0.9737
     7         C          1.1022     -3.9879     -1.0407
     8         C          1.5584     -4.9581     -0.1498
     9         C          2.6167     -4.6914      0.7662
    10         C          3.1985     -3.4393      0.8082
    11         C          2.8584     -5.9073      1.5011
    12         C          3.7519     -6.2374      2.5075
    13         C          3.7163     -7.5245      3.0227
    14         C          2.7985     -8.4687      2.5499
    15         C          1.8931     -8.1657      1.5448
    16         C          1.9406     -6.8784      1.0184
    17         N          1.1524     -6.2910      0.0060
    18         C          0.1070     -6.9283     -0.7077
    19         C         -1.1459     -6.3205     -0.7855
    20         C         -2.1663     -6.9470     -1.4891
    21         C         -1.9390     -8.1743     -2.1147
    22         C         -0.6766     -8.7783     -2.0248
    23         C          0.3464     -8.1586     -1.3272
    24         N         -2.9114     -8.8595     -2.9265
    25         C         -3.9973     -8.0027     -3.4492
    26         C         -3.4452    -10.0615     -2.2398
    27         C          3.2530      1.3012      0.0317
    28         O          4.4599      1.4917      0.0836
    29         O          2.4155      2.3572     -0.0016
    30         H          4.4012     -1.0897      0.0611
    31         H          1.3626     -1.9612     -1.6748
    32         H          0.3184     -4.2061     -1.7698
    33         H          4.0110     -3.2314      1.5102
    34         H          4.4616     -5.4949      2.8805
    35         H          4.4138     -7.8089      3.8156
    36         H          2.7943     -9.4722      2.9874
    37         H          1.1682     -8.9023      1.1923
    38         H         -1.3375     -5.3643     -0.2863
    39         H         -3.1439     -6.4574     -1.5256
    40         H         -0.4820     -9.7334     -2.5252
    41         H          1.3361     -8.6253     -1.2795
    42         H         -4.7672     -7.6860     -2.7199
    43         H         -3.5843     -7.0915     -3.9150
    44         H         -4.5253     -8.5556     -4.2464
    45         H         -4.1030     -9.8566     -1.3737
    46         H         -4.0304    -10.6626     -2.9573
    47         H         -2.6278    -10.7066     -1.8755
    48         H          2.9060      3.1914      0.0265

           Empirical Formula: C24 H19 N3 O2  =    48 atoms



      MOLECULAR POINT GROUP   :   C1  


      RHF CALCULATION, NO. OF DOUBLY OCCUPIED LEVELS = 71

 WARNING: INDO only performs single-point calculations

 Summary of symmetry occupancy in each shell:

 SHELL     
    1   71
    v   64
 TOTAL 135




    ROOT NO.    1           2           3           4           5           6

           -48.66572   -46.83946   -45.61602   -43.54009   -42.69186   -41.18812
  
  
  S  N   1   0.00670     0.04027    -0.00345     0.06317    -0.00931     0.07976
 PX  N   1   0.00390     0.02488    -0.00187     0.03380    -0.00500     0.04041
 PY  N   1  -0.00119     0.00340     0.00096    -0.00948     0.00113    -0.00643
 PZ  N   1  -0.00034    -0.00032     0.00019    -0.00214     0.00019    -0.00137
  
  S  C   2   0.01577     0.11492    -0.00625     0.11436    -0.01714     0.12621
 PX  C   2   0.00498     0.05020    -0.00100     0.02109    -0.00350     0.01379
 PY  C   2  -0.00389     0.02042     0.00368    -0.03360     0.00431    -0.02245
 PZ  C   2  -0.00066     0.00006     0.00039    -0.00403     0.00031    -0.00198
  
  S  C   3   0.02374     0.23011    -0.00624     0.14062    -0.02294     0.15274
 PX  C   3   0.00044     0.03300     0.00133    -0.00677     0.00000    -0.00022
 PY  C   3  -0.00649     0.07504     0.00898    -0.08004     0.01140    -0.05739
 PZ  C   3  -0.00036     0.00203     0.00033    -0.00312     0.00016    -0.00145
  
  S  C   4   0.03772     0.12021    -0.02030     0.23825    -0.03697     0.18793
 PX  C   4  -0.00963    -0.01830     0.00563    -0.06368     0.00833    -0.04687
 PY  C   4  -0.01184     0.04559     0.00880    -0.05675     0.00714    -0.00558
 PZ  C   4  -0.00050    -0.00022     0.00028    -0.00452    -0.00021    -0.00297
  
  S  C   5   0.10240     0.05841    -0.05128     0.40674    -0.05217     0.16949
 PX  C   5  -0.01485    -0.00083     0.00566    -0.03855    -0.00134    -0.00098
 PY  C   5  -0.03681     0.01575     0.01462    -0.05457     0.00395     0.03879
 PZ  C   5   0.00090    -0.00147    -0.00070    -0.00722    -0.00428    -0.00541
  
  S  C   6   0.09921     0.03678    -0.04309     0.34319    -0.02272     0.10855
 PX  C   6   0.01279     0.00899    -0.00857     0.06143    -0.01298     0.02834
 PY  C   6  -0.03473     0.00698     0.01064    -0.05150    -0.00624     0.02698
 PZ  C   6   0.02827     0.00914    -0.01333     0.08988    -0.01100     0.02467
  
  S  C   7   0.15198     0.01181    -0.03576     0.24944     0.03678     0.00347
 PX  C   7   0.03365     0.00551    -0.01818     0.08872    -0.01518     0.00466
 PY  C   7  -0.03758     0.00845    -0.00452     0.05725    -0.03557     0.04862
 PZ  C   7   0.05150     0.00232    -0.01544     0.06618     0.00247    -0.01351
  
  S  C   8   0.36756    -0.00675    -0.07141     0.15678     0.06869    -0.16501
 PX  C   8   0.02287     0.00268    -0.02383     0.04732    -0.05421    -0.00763
 PY  C   8  -0.10657     0.01602    -0.00098     0.15477    -0.05565     0.10167
 PZ  C   8   0.06628    -0.00410    -0.02144    -0.02053    -0.02734    -0.04803
  
  S  C   9   0.29639     0.00081    -0.09070     0.18465    -0.07774    -0.08524
 PX  C   9  -0.07036     0.00287     0.01302    -0.01420    -0.02516     0.05449
 PY  C   9  -0.08274     0.01378     0.01128     0.13428     0.01127     0.07416
 PZ  C   9  -0.03415    -0.00280     0.00816    -0.06987    -0.02892     0.02286
  
  S  C  10   0.12726     0.02538    -0.05633     0.30325    -0.06469     0.06829
 PX  C  10  -0.04150    -0.00459     0.01629    -0.08641     0.00754    -0.00242
 PY  C  10  -0.03603     0.00983     0.01018     0.02311     0.01091     0.04795
 PZ  C  10  -0.02492    -0.00761     0.01139    -0.09090     0.00235    -0.01982
  
  S  C  11   0.29180    -0.01562    -0.08561    -0.10639    -0.23805     0.03352
 PX  C  11  -0.08477     0.00495     0.01496     0.01116    -0.02570     0.07256
 PY  C  11  -0.01108     0.00412     0.00231     0.08942     0.07999    -0.08387
 PZ  C  11  -0.07681     0.00305     0.01323    -0.02700    -0.05951     0.10586
  
  S  C  12   0.11794    -0.00785    -0.04689    -0.12321    -0.27266     0.18977
 PX  C  12  -0.04442     0.00307     0.01519     0.03825     0.07046    -0.03736
 PY  C  12  -0.01392     0.00215     0.00612     0.05044     0.07362    -0.07379
 PZ  C  12  -0.03692     0.00205     0.01201     0.01546     0.03650    -0.00453
  
  S  C  13   0.08485    -0.00714    -0.03584    -0.14238    -0.27380     0.23413
 PX  C  13  -0.02656     0.00227     0.00992     0.04066     0.06944    -0.05628
 PY  C  13   0.01397    -0.00090    -0.00597    -0.01224    -0.03050     0.01566
 PZ  C  13  -0.03149     0.00256     0.01205     0.04427     0.07955    -0.06063
  
  S  C  14   0.08844    -0.00780    -0.03241    -0.15176    -0.26033     0.23535
 PX  C  14  -0.00427     0.00040    -0.00107     0.00279    -0.00810     0.00476
 PY  C  14   0.03935    -0.00326    -0.01499    -0.05692    -0.10059     0.07797
 PZ  C  14  -0.02132     0.00181     0.00534     0.02756     0.03561    -0.02955
  
  S  C  15   0.14552    -0.01204    -0.02912    -0.16975    -0.19899     0.18149
 PX  C  15   0.01342    -0.00117    -0.01308    -0.03468    -0.08790     0.06408
 PY  C  15   0.06705    -0.00495    -0.01508    -0.05123    -0.05140     0.02007
 PZ  C  15  -0.01719     0.00113    -0.00694    -0.01024    -0.06412     0.05158
  
  S  C  16   0.36043    -0.02432    -0.06604    -0.19133    -0.13377    -0.00410
 PX  C  16  -0.01988     0.00172    -0.01637    -0.01072    -0.11368     0.06804
 PY  C  16   0.10934    -0.00503    -0.02630     0.01815     0.03453    -0.12677
 PZ  C  16  -0.06468     0.00377    -0.00575    -0.01841    -0.12747     0.11909
  
  S  N  17   0.48393    -0.03130    -0.02428    -0.13063     0.21409    -0.22101
 PX  N  17   0.06092    -0.00237    -0.03981    -0.00066    -0.06510    -0.06798
 PY  N  17   0.04150     0.00010    -0.02536     0.04247    -0.01175    -0.06795
 PZ  N  17   0.04482    -0.00250    -0.02762    -0.01796    -0.05466    -0.03936
  
  S  C  18   0.23385    -0.01991     0.15646    -0.10443     0.31452     0.14784
 PX  C  18   0.06147    -0.00322    -0.06186    -0.02089    -0.01355    -0.11633
 PY  C  18   0.03868    -0.00135    -0.03786     0.00539     0.00357    -0.08311
 PZ  C  18   0.04253    -0.00227    -0.04243    -0.01484    -0.00977    -0.08050
  
  S  C  19   0.11631    -0.01137     0.17649    -0.04566     0.23172     0.20116
 PX  C  19   0.04895    -0.00345    -0.00127    -0.01915     0.05891    -0.00553
 PY  C  19  -0.01791     0.00304    -0.07352     0.01721    -0.06178    -0.09043
 PZ  C  19   0.00358     0.00052    -0.04218    -0.00059    -0.01838    -0.05128
  
  S  C  20   0.06136    -0.00894     0.26970    -0.00846     0.10909     0.17775
 PX  C  20   0.02549    -0.00285     0.04389    -0.02055     0.09399     0.10711
 PY  C  20  -0.00839     0.00198    -0.08494    -0.00636     0.01329    -0.01086
 PZ  C  20   0.00339     0.00017    -0.03450    -0.01149     0.03936     0.03083
  
  S  C  21   0.06189    -0.01105     0.42291     0.02683    -0.01209     0.08599
 PX  C  21   0.01159    -0.00068    -0.04445    -0.03437     0.12479     0.13850
 PY  C  21   0.00703    -0.00038    -0.02557    -0.01858     0.07357     0.07839
 PZ  C  21   0.00827    -0.00055    -0.02400    -0.02119     0.07966     0.08748
  
  S  C  22   0.06088    -0.00908     0.26211    -0.01870     0.11205     0.19327
 PX  C  22  -0.00089     0.00103    -0.07578    -0.01777     0.04092     0.02474
 PY  C  22   0.02357    -0.00305     0.06616    -0.01512     0.07045     0.09038
 PZ  C  22   0.01362    -0.00149     0.01546    -0.01448     0.05044     0.05721
  
  S  C  23   0.11485    -0.01220     0.17525    -0.07078     0.21712     0.22001
 PX  C  23  -0.00559     0.00185    -0.07968     0.00272    -0.05455    -0.09530
 PY  C  23   0.04435    -0.00382     0.02448    -0.02251     0.06686     0.02607
 PZ  C  23   0.02592    -0.00184    -0.01270    -0.01610     0.01690    -0.01544
  
  S  N  24   0.03564    -0.00911     0.48993     0.09672    -0.28240    -0.23072
 PX  N  24   0.00163     0.00000    -0.01840    -0.01130     0.04337     0.05459
 PY  N  24   0.00416    -0.00088     0.03996     0.00490    -0.00894     0.00039
 PZ  N  24   0.00755    -0.00177     0.08741     0.01400    -0.03647    -0.02142
  
  S  C  25   0.01745    -0.00465     0.25929     0.05552    -0.16713    -0.14849
 PX  C  25   0.00680    -0.00173     0.09269     0.01805    -0.05173    -0.04104
 PY  C  25  -0.00345     0.00106    -0.06385    -0.01547     0.04957     0.04758
 PZ  C  25   0.00490    -0.00124     0.06628     0.01282    -0.03656    -0.02883
  
  S  C  26   0.01766    -0.00470     0.26048     0.05488    -0.16650    -0.14602
 PX  C  26   0.00419    -0.00097     0.04777     0.00741    -0.01927    -0.01051
 PY  C  26   0.00807    -0.00212     0.11620     0.02372    -0.07027    -0.05895
 PZ  C  26  -0.00231     0.00071    -0.04343    -0.01064     0.03389     0.03264
  
  S  C  27   0.01712     0.51194     0.01539    -0.04502     0.00380     0.00162
 PX  C  27   0.00002     0.02048     0.00105    -0.00490    -0.00034     0.01213
 PY  C  27   0.00028     0.13665     0.00837    -0.07289     0.01150    -0.07579
 PZ  C  27  -0.00004     0.00126     0.00009    -0.00072     0.00003     0.00014
  
  S  O  28   0.01211     0.41157     0.01369    -0.05054     0.00426     0.00437
 PX  O  28  -0.00504    -0.17549    -0.00597     0.02376    -0.00236     0.00383
 PY  O  28  -0.00087    -0.00251     0.00079    -0.01283     0.00241    -0.01851
 PZ  O  28  -0.00022    -0.00749    -0.00025     0.00091    -0.00009     0.00006
  
  S  O  29   0.01417     0.56893     0.02220    -0.12737     0.01857    -0.11401
 PX  O  29   0.00372     0.15659     0.00627    -0.03685     0.00523    -0.03058
 PY  O  29  -0.00225    -0.06663    -0.00189     0.00307    -0.00008    -0.00424
 PZ  O  29   0.00016     0.00703     0.00029    -0.00172     0.00024    -0.00142
  
  S  H  30   0.01285     0.05221    -0.00643     0.07780    -0.01315     0.06422
  
  S  H  31   0.02489     0.01887    -0.01156     0.11179    -0.00821     0.05352
  
  S  H  32   0.05095     0.00186    -0.00172     0.05944     0.03172     0.00349
  
  S  H  33   0.03508     0.00959    -0.01673     0.08655    -0.02832     0.03200
  
  S  H  34   0.03207    -0.00156    -0.01387    -0.02533    -0.07761     0.05371
  
  S  H  35   0.01927    -0.00168    -0.00897    -0.03793    -0.07664     0.07031
  
  S  H  36   0.02035    -0.00190    -0.00765    -0.04126    -0.07164     0.07103
  
  S  H  37   0.04910    -0.00425    -0.00012    -0.05347    -0.03369     0.05525
  
  S  H  38   0.04871    -0.00374     0.04260    -0.01018     0.07619     0.04385
  
  S  H  39   0.01656    -0.00268     0.09706     0.00513     0.00896     0.03096
  
  S  H  40   0.01599    -0.00265     0.08962    -0.00005     0.01318     0.04053
  
  S  H  41   0.04769    -0.00454     0.04214    -0.03113     0.06382     0.05729
  
  S  H  42   0.00704    -0.00184     0.10137     0.02138    -0.06377    -0.05628
  
  S  H  43   0.00745    -0.00186     0.09914     0.01971    -0.05698    -0.04782
  
  S  H  44   0.00549    -0.00154     0.08918     0.02050    -0.06388    -0.06029
  
  S  H  45   0.00687    -0.00181     0.10002     0.02104    -0.06379    -0.05625
  
  S  H  46   0.00556    -0.00156     0.08974     0.02035    -0.06371    -0.05948
  
  S  H  47   0.00772    -0.00191     0.10036     0.01907    -0.05601    -0.04523
  
  S  H  48   0.00575     0.23950     0.00959    -0.05750     0.00841    -0.05229




    ROOT NO.    7           8           9          10          11          12

           -39.64867   -39.07773   -36.52522   -36.05311   -34.03489   -33.02676
  
  
  S  N   1  -0.03754     0.40056     0.47858     0.24252    -0.08207     0.14047
 PX  N   1  -0.01852     0.18679     0.18657     0.08824    -0.02466     0.03842
 PY  N   1  -0.00744    -0.00433     0.00354    -0.00254     0.00169    -0.00179
 PZ  N   1   0.00037    -0.00236    -0.00110    -0.00282     0.00025     0.00153
  
  S  C   2  -0.02425     0.47477     0.28673     0.09300     0.00416    -0.02417
 PX  C   2   0.02481    -0.05799    -0.29322    -0.19255     0.09190    -0.16688
 PY  C   2  -0.03264    -0.00839     0.02210     0.00212     0.00490    -0.00985
 PZ  C   2   0.00036     0.00048     0.00495    -0.00249    -0.00062     0.00549
  
  S  C   3   0.14257     0.33217    -0.13868    -0.19395     0.13021    -0.22853
 PX  C   3   0.11432    -0.08797    -0.06429    -0.04008     0.00963    -0.00016
 PY  C   3  -0.05266    -0.05322     0.07378     0.04352     0.00828    -0.04468
 PZ  C   3   0.00354    -0.00210     0.00301    -0.00387    -0.00037     0.00641
  
  S  C   4   0.17681     0.21646    -0.25785    -0.22361     0.03436     0.03760
 PX  C   4  -0.00123    -0.08570     0.04920     0.02987    -0.01721     0.04318
 PY  C   4   0.08403     0.05679     0.01802    -0.02961     0.08023    -0.18194
 PZ  C   4   0.00144    -0.00642     0.00532    -0.01002    -0.00447     0.02479
  
  S  C   5  -0.01819    -0.00716    -0.17083    -0.03949    -0.10133     0.21858
 PX  C   5   0.02625     0.01546    -0.02242    -0.08518    -0.01724     0.12062
 PY  C   5   0.07700     0.15601    -0.09521    -0.08931     0.04384    -0.03668
 PZ  C   5   0.00168    -0.01440     0.01443    -0.05789    -0.02414     0.11388
  
  S  C   6  -0.06917    -0.06512    -0.07647     0.21679    -0.00517    -0.16187
 PX  C   6   0.00263     0.00335    -0.03854    -0.05262    -0.03901     0.09215
 PY  C   6   0.04668     0.11460    -0.03996    -0.10924    -0.01543     0.08330
 PZ  C   6  -0.01477    -0.02152    -0.01390    -0.00616    -0.02903     0.05466
  
  S  C   7  -0.08361    -0.13984    -0.01021     0.33142     0.11112    -0.30241
 PX  C   7  -0.02786    -0.05185     0.01532     0.02798    -0.02950    -0.02074
 PY  C   7  -0.01927    -0.01912    -0.00321     0.01633    -0.04712    -0.01353
 PZ  C   7  -0.01976    -0.04021     0.01737     0.02516    -0.00009    -0.01263
  
  S  C   8  -0.03078    -0.07840     0.07012     0.09603     0.10091    -0.20236
 PX  C   8  -0.02019    -0.04781     0.08466    -0.11278    -0.06078     0.02390
 PY  C   8  -0.07449    -0.13190     0.03374     0.10163    -0.02142    -0.03805
 PZ  C   8   0.01213     0.01082     0.06747    -0.15149    -0.03574     0.04716
  
  S  C   9  -0.06433    -0.15836     0.22936    -0.21472    -0.02344     0.06896
 PX  C   9  -0.00437    -0.00726    -0.00150    -0.03607    -0.02034     0.11158
 PY  C   9  -0.04492    -0.07844    -0.04487     0.10737    -0.05750     0.12351
 PZ  C   9   0.01483     0.02729     0.01663    -0.07982     0.00771     0.05817
  
  S  C  10  -0.06957    -0.15408     0.04016    -0.12034    -0.12383     0.35673
 PX  C  10   0.02894     0.05016    -0.02126    -0.02774     0.01572     0.01408
 PY  C  10   0.02528     0.05669    -0.11603     0.02641    -0.02170     0.05475
 PZ  C  10   0.01847     0.03088     0.02684    -0.04044     0.02628    -0.01068
  
  S  C  11  -0.01602    -0.04476     0.18405    -0.25504     0.06082    -0.01262
 PX  C  11  -0.01998    -0.03219    -0.00152     0.03078     0.03874     0.03854
 PY  C  11  -0.00640    -0.02959     0.07358    -0.08378     0.00123     0.03779
 PZ  C  11  -0.01677    -0.01883    -0.03184     0.06470     0.04036     0.02222
  
  S  C  12  -0.03943    -0.06496     0.08114    -0.06191     0.15118     0.00314
 PX  C  12   0.00539     0.00796    -0.01790     0.02381    -0.00447     0.00664
 PY  C  12   0.00665     0.00061     0.04325    -0.07805    -0.02256     0.03566
 PZ  C  12   0.00233     0.00737    -0.03564     0.05631     0.00606    -0.00850
  
  S  C  13  -0.03798    -0.04726    -0.03159     0.11570     0.12060    -0.04288
 PX  C  13   0.00653     0.00513     0.01987    -0.03500     0.01115     0.00654
 PY  C  13  -0.00453    -0.00984     0.03418    -0.04592     0.04362     0.00290
 PZ  C  13   0.00816     0.00908     0.00445    -0.01377    -0.00733     0.00505
  
  S  C  14  -0.02967    -0.02508    -0.10725     0.19791    -0.02489    -0.01707
 PX  C  14  -0.00420    -0.00917     0.01895    -0.01040     0.05583    -0.01970
 PY  C  14  -0.01025    -0.01092    -0.00738     0.02217     0.02505    -0.01268
 PZ  C  14   0.00039    -0.00418     0.02178    -0.01978     0.04457    -0.01354
  
  S  C  15  -0.00244     0.02585    -0.15063     0.17294    -0.17487     0.05794
 PX  C  15  -0.01292    -0.01821     0.00044     0.02509     0.02664    -0.02602
 PY  C  15   0.00642     0.01578    -0.00914    -0.01364    -0.01308     0.00617
 PZ  C  15  -0.01537    -0.02489     0.00603     0.02951     0.03948    -0.02819
  
  S  C  16   0.04215     0.08564    -0.05024    -0.04433    -0.12343     0.01947
 PX  C  16  -0.02646    -0.04951     0.07096    -0.05181     0.04988    -0.05103
 PY  C  16   0.01621     0.00975     0.10776    -0.15652     0.07789    -0.06533
 PZ  C  16  -0.03260    -0.05232     0.02418     0.01688     0.02921    -0.02065
  
  S  N  17   0.09929     0.18046    -0.16343     0.09297    -0.00604     0.05953
 PX  N  17   0.00576    -0.00122     0.08573    -0.13165    -0.04031    -0.09195
 PY  N  17  -0.00864    -0.02966     0.08311    -0.03968     0.12413    -0.13284
 PZ  N  17   0.00925     0.01117     0.04898    -0.10418    -0.04020    -0.02430
  
  S  C  18   0.01095     0.03911    -0.13153     0.13557     0.00512     0.17425
 PX  C  18   0.04075     0.07633    -0.09737     0.06958    -0.12945     0.01601
 PY  C  18   0.01876     0.03210    -0.04002     0.07429     0.16701     0.02434
 PZ  C  18   0.02787     0.05195    -0.06420     0.05409     0.01712     0.04853
  
  S  C  19  -0.03296    -0.05117     0.01944     0.03651     0.34486     0.14743
 PX  C  19   0.01189     0.02632    -0.06152     0.06878    -0.05997     0.01586
 PY  C  19   0.01625     0.02725    -0.03180     0.04486     0.00873    -0.01228
 PZ  C  19   0.01461     0.02705    -0.03942     0.03855    -0.02837     0.01178
  
  S  C  20  -0.04338    -0.07824     0.10683    -0.08292     0.32640     0.07383
 PX  C  20  -0.02056    -0.03434     0.03199    -0.02561     0.02469    -0.00437
 PY  C  20   0.00429     0.00876    -0.02083     0.03417     0.06811     0.05383
 PZ  C  20  -0.00429    -0.00615    -0.00130     0.00866     0.03805     0.02689
  
  S  C  21  -0.02883    -0.05557     0.09878    -0.11160    -0.01914    -0.13784
 PX  C  21  -0.02598    -0.04371     0.04852    -0.05770    -0.10152    -0.07977
 PY  C  21  -0.01546    -0.02644     0.02926    -0.01749     0.16499     0.08880
 PZ  C  21  -0.01664    -0.02809     0.03028    -0.02794     0.03701     0.00991
  
  S  C  22  -0.04185    -0.07313     0.09701    -0.13216    -0.32054    -0.23862
 PX  C  22   0.00017     0.00338    -0.02086     0.01759    -0.05577     0.03845
 PY  C  22  -0.01761    -0.02970     0.03126    -0.03251     0.01145     0.00478
 PZ  C  22  -0.00913    -0.01412     0.00801    -0.01085    -0.02087     0.01454
  
  S  C  23  -0.02444    -0.03063    -0.01171    -0.02662    -0.32262    -0.02809
 PX  C  23   0.02479     0.04519    -0.06130     0.06040     0.01019     0.05857
 PY  C  23   0.00471     0.01321    -0.03855     0.04280     0.05852     0.08769
 PZ  C  23   0.01241     0.02612    -0.04903     0.04665     0.02255     0.07849
  
  S  N  24   0.03614     0.05790    -0.05512     0.05358    -0.02649     0.00889
 PX  N  24  -0.01233    -0.02250     0.03923    -0.04814    -0.06205    -0.10911
 PY  N  24  -0.00189    -0.00437     0.01231    -0.01015     0.08834     0.04558
 PZ  N  24   0.00168     0.00148     0.00661    -0.01109    -0.04408    -0.06163
  
  S  C  25   0.02556     0.04272    -0.05390     0.06528     0.14213     0.18593
 PX  C  25   0.00602     0.00931    -0.00656     0.00701     0.01886     0.00887
 PY  C  25  -0.00896    -0.01542     0.02121    -0.02193     0.01919    -0.01124
 PZ  C  25   0.00419     0.00645    -0.00459     0.00517     0.01208     0.00314
  
  S  C  26   0.02532     0.04246    -0.05319     0.05190    -0.11413    -0.03597
 PX  C  26   0.00066     0.00034     0.00471    -0.00864    -0.04070    -0.04570
 PY  C  26   0.00949     0.01536    -0.01530     0.01536     0.00073     0.00934
 PZ  C  26  -0.00610    -0.01048     0.01439    -0.01569    -0.00077    -0.01904
  
  S  C  27   0.14276    -0.02448     0.01008    -0.01481     0.03568    -0.08241
 PX  C  27   0.37406    -0.18309     0.11875     0.10908    -0.05171     0.08660
 PY  C  27  -0.18813    -0.10520     0.03127     0.07285    -0.06483     0.12147
 PZ  C  27   0.01498    -0.00767     0.00614     0.00448    -0.00260     0.00540
  
  S  O  28   0.54399    -0.25980     0.17973     0.15062    -0.05337     0.07151
 PX  O  28  -0.14849     0.07965    -0.04423    -0.03763     0.01124    -0.01241
 PY  O  28  -0.08621    -0.00657     0.00087     0.01349    -0.01592     0.03055
 PZ  O  28  -0.00670     0.00343    -0.00165    -0.00161     0.00037    -0.00013
  
  S  O  29  -0.51901     0.00462    -0.09594    -0.03234    -0.01908     0.05209
 PX  O  29  -0.07130    -0.03972    -0.00407     0.01394    -0.01619     0.03119
 PY  O  29   0.01697    -0.04240     0.00388     0.02137    -0.02764     0.06343
 PZ  O  29  -0.00358    -0.00150     0.00012     0.00060    -0.00083     0.00184
  
  S  H  30   0.09254     0.05392    -0.09228    -0.08975     0.00740     0.04151
  
  S  H  31  -0.01079     0.03024    -0.03457     0.07493     0.00879    -0.08251
  
  S  H  32  -0.02193    -0.03317    -0.01733     0.14229     0.07885    -0.12782
  
  S  H  33  -0.01307    -0.03955     0.00869    -0.08184    -0.04483     0.18091
  
  S  H  34  -0.01501    -0.02844     0.04275    -0.04123     0.06343     0.02000
  
  S  H  35  -0.01254    -0.01638    -0.01164     0.04531     0.05356    -0.01725
  
  S  H  36  -0.00943    -0.00786    -0.04347     0.08053    -0.01486    -0.00512
  
  S  H  37   0.00340     0.01758    -0.07306     0.07603    -0.10501     0.04187
  
  S  H  38  -0.00704    -0.00985    -0.00881     0.04632     0.17344     0.06021
  
  S  H  39  -0.00994    -0.01898     0.03061    -0.01856     0.16662     0.05618
  
  S  H  40  -0.00990    -0.01790     0.02813    -0.04407    -0.16306    -0.11927
  
  S  H  41  -0.00052     0.00528    -0.02986     0.00910    -0.16878    -0.00174
  
  S  H  42   0.00961     0.01603    -0.02052     0.02603     0.07052     0.08468
  
  S  H  43   0.00766     0.01246    -0.01431     0.01948     0.08077     0.08373
  
  S  H  44   0.01115     0.01915    -0.02748     0.03274     0.05154     0.08697
  
  S  H  45   0.00983     0.01656    -0.02146     0.02175    -0.03776    -0.00747
  
  S  H  46   0.01102     0.01897    -0.02702     0.02810    -0.04053     0.00241
  
  S  H  47   0.00733     0.01201    -0.01351     0.01024    -0.07863    -0.04935
  
  S  H  48  -0.19207    -0.03239    -0.02930     0.00550    -0.02531     0.05842




    ROOT NO.   13          14          15          16          17          18

           -32.60229   -31.02024   -30.92797   -30.38137   -29.11027   -27.50690
  
  
  S  N   1   0.00010    -0.05680     0.03778    -0.03416    -0.02530    -0.07801
 PX  N   1   0.00069    -0.00971     0.00165    -0.00795    -0.00162    -0.00333
 PY  N   1   0.00251     0.01012    -0.02609    -0.00582     0.01374     0.00350
 PZ  N   1   0.00085     0.00093    -0.00702    -0.00372     0.00168    -0.00413
  
  S  C   2   0.00700     0.04401    -0.07223     0.00322     0.03230     0.06582
 PX  C   2   0.00625     0.09248    -0.09925     0.03402     0.04958     0.11330
 PY  C   2   0.00675     0.03251    -0.07263    -0.01090     0.04128     0.01830
 PZ  C   2   0.00203     0.00140    -0.01499    -0.00837     0.00382    -0.01002
  
  S  C   3   0.02149     0.14682    -0.21422     0.01676     0.07921     0.06043
 PX  C   3   0.00415    -0.01011    -0.00785    -0.01876    -0.01248    -0.10699
 PY  C   3   0.00850     0.09007    -0.14701     0.00610     0.10756     0.11944
 PZ  C   3   0.00292     0.00237    -0.01880    -0.00942     0.00719    -0.01273
  
  S  C   4   0.00832    -0.09923     0.08551    -0.05824    -0.10608    -0.23948
 PX  C   4   0.00885    -0.00252    -0.04425    -0.03011     0.02285    -0.07852
 PY  C   4   0.01188     0.12875    -0.16049     0.03232     0.06426     0.02346
 PZ  C   4   0.00745     0.00024    -0.03667    -0.02179     0.01572    -0.02965
  
  S  C   5  -0.02761    -0.14259     0.18077    -0.03485    -0.06616     0.04715
 PX  C   5   0.02584    -0.05064    -0.05222    -0.08192    -0.00062    -0.14516
 PY  C   5   0.00172    -0.07043     0.13956     0.00858    -0.10023    -0.12321
 PZ  C   5   0.02552    -0.01147    -0.11765    -0.07897     0.04007    -0.08170
  
  S  C   6  -0.05716     0.01354     0.28344     0.18901    -0.00730     0.19651
 PX  C   6  -0.01112    -0.04564     0.02202    -0.03811    -0.03941     0.05576
 PY  C   6  -0.00211    -0.06988     0.09012    -0.00903    -0.06885     0.03608
 PZ  C   6  -0.00993    -0.01654    -0.01746    -0.03299    -0.01300     0.04212
  
  S  C   7   0.02148     0.07713     0.03343     0.07836     0.07410    -0.18305
 PX  C   7  -0.02634     0.02727    -0.00968     0.00070    -0.00646     0.08975
 PY  C   7  -0.04954     0.02985     0.11287     0.12126     0.01908     0.18766
 PZ  C   7  -0.00393     0.00892    -0.06198    -0.04731    -0.01428     0.00288
  
  S  C   8   0.00307    -0.00519    -0.11566    -0.15890    -0.11380    -0.16582
 PX  C   8  -0.06922     0.04381    -0.04208     0.02842    -0.05511     0.13828
 PY  C   8  -0.01432     0.09867    -0.07952     0.08847     0.08400     0.00488
 PZ  C   8  -0.06095    -0.01228    -0.01373    -0.00381    -0.08697     0.12065
  
  S  C   9   0.00905     0.09399    -0.22867    -0.00315    -0.01216     0.03204
 PX  C   9   0.06920     0.02361    -0.02139     0.04622     0.11667    -0.01770
 PY  C   9   0.03354     0.02798    -0.13708    -0.05953     0.13088     0.05584
 PZ  C   9   0.05297     0.00793     0.03439     0.07074     0.05939    -0.04306
  
  S  C  10   0.06190    -0.00450    -0.21727    -0.09878     0.14340    -0.00036
 PX  C  10   0.02344    -0.02482     0.03587    -0.00049     0.00753    -0.07885
 PY  C  10  -0.02408    -0.10483     0.13253    -0.04433    -0.05413    -0.05240
 PZ  C  10   0.03300     0.02036    -0.02312     0.01873     0.03030    -0.05203
  
  S  C  11   0.08087     0.05498     0.11288     0.22403     0.04879    -0.13323
 PX  C  11   0.15781     0.03255     0.00327     0.00750     0.11140    -0.04562
 PY  C  11   0.04768     0.03334    -0.10227    -0.04605    -0.01767     0.02903
 PZ  C  11   0.13190     0.01401     0.04434     0.02748     0.11613    -0.06043
  
  S  C  12   0.38670     0.03624     0.17843     0.04057     0.15200     0.00621
 PX  C  12   0.02296    -0.00787    -0.01701    -0.07598    -0.01613     0.09113
 PY  C  12  -0.01369     0.03773    -0.01653     0.09680     0.07514    -0.08454
 PZ  C  12   0.02797    -0.02459    -0.01014    -0.11501    -0.04758     0.12338
  
  S  C  13   0.24417    -0.05913     0.01619    -0.29175    -0.15204     0.25118
 PX  C  13   0.06437     0.00911     0.04225    -0.00386     0.02561     0.07128
 PY  C  13   0.13385     0.02642     0.12377     0.09610     0.12770    -0.02545
 PZ  C  13   0.00472    -0.00329    -0.01290    -0.04576    -0.03051     0.07946
  
  S  C  14  -0.14494    -0.05660    -0.23206    -0.23045    -0.19753    -0.00362
 PX  C  14   0.12259    -0.02163     0.04484    -0.10060    -0.07222     0.12608
 PY  C  14   0.03786    -0.00686     0.04681     0.01469     0.01917    -0.00145
 PZ  C  14   0.10116    -0.01970     0.02241    -0.10367    -0.07780     0.12079
  
  S  C  15  -0.34006     0.02950    -0.16194     0.11201     0.11499    -0.12018
 PX  C  15  -0.01608    -0.02238    -0.02922    -0.03310    -0.05851    -0.06149
 PY  C  15  -0.02206     0.00226     0.08793     0.09843     0.07398     0.01919
 PZ  C  15  -0.00935    -0.03108    -0.06839    -0.07562    -0.08787    -0.07341
  
  S  C  16  -0.24475    -0.00119     0.11192     0.19248     0.08413     0.06480
 PX  C  16   0.01036     0.00980     0.01100     0.06181    -0.04768    -0.13590
 PY  C  16   0.06524    -0.04138     0.08502    -0.04966    -0.15258     0.04356
 PZ  C  16  -0.02395     0.01177    -0.03004     0.08339     0.02135    -0.16465
  
  S  N  17   0.07631    -0.08783     0.07370    -0.15777     0.06946     0.09752
 PX  N  17  -0.14674    -0.00744     0.06044    -0.00220    -0.14366     0.08569
 PY  N  17  -0.00091    -0.07752    -0.03610    -0.11749    -0.17487    -0.20963
 PZ  N  17  -0.14588    -0.02179     0.05649     0.05526    -0.05985     0.12427
  
  S  C  18   0.21733     0.07023    -0.06208     0.07181     0.06829     0.00485
 PX  C  18   0.06708     0.05680     0.05400    -0.09322     0.12358     0.08139
 PY  C  18   0.03140    -0.13559    -0.03238    -0.04944     0.07141    -0.12585
 PZ  C  18   0.00724    -0.05164     0.00670    -0.02496     0.10789     0.03086
  
  S  C  19  -0.02135    -0.13903    -0.12054     0.17707    -0.06291    -0.07060
 PX  C  19   0.14508     0.03696    -0.02298    -0.02054     0.03827    -0.10632
 PY  C  19   0.02564    -0.01986    -0.00365    -0.02295     0.03654    -0.07042
 PZ  C  19   0.05531    -0.00232    -0.01083    -0.00819     0.03636    -0.04071
  
  S  C  20  -0.25721    -0.10925     0.01804     0.02150     0.02228     0.16320
 PX  C  20   0.01043    -0.03709    -0.03850     0.06314    -0.06929    -0.03303
 PY  C  20   0.02364    -0.00848    -0.05043     0.09498    -0.07600    -0.02370
 PZ  C  20   0.02247    -0.03888    -0.05264     0.09209    -0.06958    -0.00976
  
  S  C  21  -0.14589    -0.13956     0.09656    -0.21294     0.24013     0.02327
 PX  C  21   0.03008     0.00476    -0.00773     0.01601    -0.11857    -0.06296
 PY  C  21  -0.10862     0.07422     0.02132     0.02824    -0.06554     0.09414
 PZ  C  21  -0.02509    -0.01848    -0.02647     0.07231    -0.09638     0.05378
  
  S  C  22   0.04361     0.02885     0.06247    -0.13060    -0.06206    -0.13939
 PX  C  22   0.05817     0.16567    -0.00714     0.06463    -0.15672    -0.00768
 PY  C  22  -0.02389     0.03939     0.01139     0.00549    -0.03497     0.03112
 PZ  C  22   0.01153     0.05923    -0.00866     0.04532    -0.07684     0.02746
  
  S  C  23   0.15013     0.27801     0.02211     0.03677    -0.14381     0.02885
 PX  C  23   0.01271     0.01808    -0.00106     0.00590     0.07623     0.05240
 PY  C  23   0.03932     0.00257    -0.02166     0.04230     0.05464     0.06380
 PZ  C  23   0.01189     0.00631    -0.01716     0.04228     0.06903     0.07523
  
  S  N  24   0.04399    -0.01126     0.00440    -0.04377     0.12423    -0.03575
 PX  N  24  -0.03762    -0.15176     0.03575    -0.12889     0.20746    -0.01446
 PY  N  24  -0.11493     0.16687     0.12176    -0.17631     0.11263    -0.01795
 PZ  N  24   0.01107    -0.16239    -0.02577    -0.00690     0.11172     0.03703
  
  S  C  25  -0.04882     0.44317     0.09929    -0.04292    -0.20416    -0.08107
 PX  C  25  -0.02223     0.00926     0.02668    -0.05373     0.08799     0.00481
 PY  C  25  -0.04823     0.00912     0.03565    -0.05813     0.04007     0.00511
 PZ  C  25  -0.00800    -0.03035    -0.00215    -0.00384     0.04491     0.03008
  
  S  C  26   0.19528    -0.27343    -0.21593     0.32775    -0.20160     0.08833
 PX  C  26   0.00826    -0.07575     0.00042    -0.03669     0.08692    -0.01641
 PY  C  26   0.00443     0.01625     0.01266    -0.03015     0.05379    -0.01758
 PZ  C  26  -0.02013    -0.03211     0.00757    -0.01962     0.02889     0.01822
  
  S  C  27   0.00904     0.08723    -0.13405     0.00865     0.08324     0.08899
 PX  C  27  -0.01136    -0.07183     0.11746    -0.00187    -0.06199    -0.05366
 PY  C  27  -0.01428    -0.09686     0.15360    -0.00409    -0.06844    -0.02356
 PZ  C  27  -0.00000    -0.00288     0.00188    -0.00186    -0.00122    -0.00407
  
  S  O  28  -0.01114    -0.04171     0.07863     0.00728    -0.02626     0.02296
 PX  O  28   0.00206     0.00364    -0.00816    -0.00169    -0.00097    -0.00658
 PY  O  28  -0.00426    -0.02700     0.04589     0.00093    -0.02119     0.00310
 PZ  O  28   0.00018     0.00019    -0.00104    -0.00048     0.00031    -0.00062
  
  S  O  29  -0.00440    -0.05332     0.07537    -0.00969    -0.04630    -0.07061
 PX  O  29  -0.00392    -0.02685     0.04312    -0.00097    -0.02003    -0.00983
 PY  O  29  -0.00754    -0.07604     0.11763    -0.00843    -0.08446    -0.12447
 PZ  O  29  -0.00007    -0.00127     0.00131    -0.00054    -0.00073    -0.00137
  
  S  H  30   0.01003    -0.04630     0.01010    -0.04566    -0.03447    -0.16396
  
  S  H  31  -0.02337    -0.00594     0.17471     0.10794    -0.02049     0.08791
  
  S  H  32   0.02997     0.01686     0.02638     0.04600     0.04319    -0.15691
  
  S  H  33   0.05390    -0.01553    -0.08377    -0.04577     0.08212    -0.06529
  
  S  H  34   0.19766     0.02493     0.06931     0.00646     0.09237     0.02715
  
  S  H  35   0.12424    -0.03113     0.00015    -0.17770    -0.09798     0.19074
  
  S  H  36  -0.06767    -0.02841    -0.13262    -0.14347    -0.12579     0.02664
  
  S  H  37  -0.14462     0.03566    -0.08872     0.04598     0.06624    -0.02659
  
  S  H  38   0.00269    -0.08200    -0.06125     0.07397    -0.00756    -0.08108
  
  S  H  39  -0.12710    -0.02139     0.01990    -0.00039     0.02086     0.09039
  
  S  H  40   0.03858    -0.00952     0.02242    -0.06603    -0.01192    -0.09309
  
  S  H  41   0.06222     0.14537     0.01377     0.01532    -0.03940     0.03064
  
  S  H  42  -0.02727     0.19337     0.04033    -0.00715    -0.11029    -0.02355
  
  S  H  43  -0.05278     0.22187     0.07158    -0.06063    -0.06716    -0.03994
  
  S  H  44   0.00085     0.21417     0.02796     0.01718    -0.15655    -0.05273
  
  S  H  45   0.07874    -0.11375    -0.09664     0.15561    -0.10854     0.05622
  
  S  H  46   0.09520    -0.09402    -0.10812     0.18348    -0.15567     0.04454
  
  S  H  47   0.09121    -0.17502    -0.10319     0.14133    -0.06995     0.03943
  
  S  H  48  -0.00641    -0.06342     0.09638    -0.00755    -0.06362    -0.08854




    ROOT NO.   19          20          21          22          23          24

           -26.40374   -25.58508   -24.95380   -24.45786   -24.33722   -24.05147
  
  
  S  N   1  -0.06034     0.07234    -0.04731     0.10630     0.00460     0.03575
 PX  N   1  -0.00244    -0.00743     0.00271    -0.01914    -0.00001    -0.00690
 PY  N   1  -0.02944    -0.01495    -0.00348     0.02570    -0.00846    -0.01972
 PZ  N   1  -0.01023    -0.00057    -0.00617    -0.00236     0.00152     0.00034
  
  S  C   2   0.03922    -0.08438     0.04160    -0.15182     0.00181    -0.03577
 PX  C   2   0.07312    -0.11281     0.06150    -0.17719    -0.00116    -0.04607
 PY  C   2  -0.06859    -0.04110     0.00034     0.07194    -0.02438    -0.05164
 PZ  C   2  -0.02171     0.00046    -0.01115    -0.00071     0.00223     0.00045
  
  S  C   3   0.00447    -0.00701    -0.00503    -0.05557     0.02442     0.06334
 PX  C   3  -0.08741     0.16143    -0.08787     0.22991     0.01779     0.11561
 PY  C   3  -0.09911    -0.15201     0.04624     0.14609    -0.06896    -0.14411
 PZ  C   3  -0.02745     0.00209    -0.00671     0.01138    -0.00100    -0.00269
  
  S  C   4  -0.06008     0.21305    -0.09274     0.09355     0.02969     0.08020
 PX  C   4  -0.12718     0.07641    -0.03378     0.23156    -0.02477    -0.00159
 PY  C   4   0.01758     0.12288    -0.05453     0.03218     0.06131     0.20800
 PZ  C   4  -0.05292     0.00583    -0.00101     0.03199    -0.00693    -0.01090
  
  S  C   5  -0.03771    -0.17498    -0.01551    -0.08137    -0.02052    -0.12743
 PX  C   5  -0.12678     0.04382     0.01382     0.11458    -0.03775    -0.07952
 PY  C   5   0.09658     0.09641     0.02698    -0.04818    -0.00577    -0.03255
 PZ  C   5  -0.13119    -0.00147     0.00803     0.05310    -0.01612    -0.03730
  
  S  C   6   0.20364    -0.01956     0.10421     0.11151    -0.03569     0.00537
 PX  C   6  -0.00730    -0.11401    -0.07006    -0.15866     0.02600    -0.01521
 PY  C   6   0.14324    -0.05917     0.06212    -0.10717    -0.00488    -0.04002
 PZ  C   6  -0.05166    -0.09649    -0.09438    -0.15599     0.04231     0.01655
  
  S  C   7  -0.10085     0.15958     0.04709     0.14962    -0.04861    -0.03991
 PX  C   7  -0.02836    -0.02696    -0.09547    -0.07341     0.02057     0.05449
 PY  C   7   0.11511     0.00698     0.06242     0.19056    -0.00693     0.05727
 PZ  C   7  -0.06857    -0.04813    -0.11461    -0.16379     0.04476     0.04390
  
  S  C   8  -0.13047     0.02727    -0.11360    -0.22329     0.01602    -0.02878
 PX  C   8   0.04562     0.01774    -0.10036     0.01462     0.06290     0.08248
 PY  C   8  -0.06453     0.04418    -0.13220    -0.00826     0.07342     0.10997
 PZ  C   8   0.08743    -0.04056    -0.02495     0.02418     0.05341     0.06546
  
  S  C   9   0.19608     0.10111    -0.02036    -0.02394     0.05717     0.11056
 PX  C   9   0.08968     0.05067     0.13325     0.07690    -0.05293    -0.01792
 PY  C   9  -0.10755    -0.03945     0.00995    -0.03977     0.01962     0.09309
 PZ  C   9   0.13745     0.05219     0.13098     0.08693    -0.05239    -0.04352
  
  S  C  10  -0.06896    -0.03900     0.13339     0.11739    -0.05252    -0.03673
 PX  C  10   0.00726     0.05355     0.09840     0.10114    -0.05798    -0.07298
 PY  C  10  -0.16291    -0.11121    -0.01757     0.04251    -0.04698    -0.15640
 PZ  C  10   0.08386     0.09141     0.10640     0.05741    -0.03021     0.00348
  
  S  C  11   0.15797     0.00502    -0.01664     0.04706    -0.05782    -0.12538
 PX  C  11   0.02999     0.07150     0.07650    -0.10416    -0.03344    -0.01108
 PY  C  11   0.20792     0.15909     0.12774    -0.01148     0.00665     0.05777
 PZ  C  11  -0.05418    -0.00903     0.02559    -0.09485    -0.03355    -0.02221
  
  S  C  12  -0.09034     0.06626     0.08069    -0.17158     0.01291     0.05322
 PX  C  12  -0.03014     0.06793     0.06825    -0.03142     0.05059     0.10767
 PY  C  12   0.13506     0.09747     0.12129    -0.04713    -0.04667    -0.02256
 PZ  C  12  -0.08514     0.02131     0.01629    -0.00980     0.06903     0.11795
  
  S  C  13  -0.07583     0.00650    -0.03272     0.10933     0.07896     0.09179
 PX  C  13  -0.05099     0.05355     0.04776    -0.02301     0.05816     0.10296
 PY  C  13  -0.16132    -0.01926    -0.00794    -0.14325     0.03821     0.06762
 PZ  C  13   0.02124     0.05836     0.05064     0.03980     0.03908     0.07275
  
  S  C  14   0.24509     0.05586     0.06017     0.04936    -0.07817    -0.10339
 PX  C  14  -0.02509    -0.02152    -0.04883     0.12988     0.02200    -0.00444
 PY  C  14  -0.12163    -0.10321    -0.11152     0.02448     0.01488    -0.00430
 PZ  C  14   0.03013     0.02031     0.00348     0.11509     0.01243     0.00323
  
  S  C  15  -0.01126     0.06305     0.08489    -0.15336     0.02824     0.10844
 PX  C  15   0.04090    -0.06422    -0.05639     0.01601    -0.05574    -0.10186
 PY  C  15  -0.16198    -0.11875    -0.10896     0.09018     0.02033     0.03563
 PZ  C  15   0.11434    -0.02536    -0.00087    -0.02127    -0.07109    -0.09421
  
  S  C  16  -0.18052    -0.08798    -0.04393     0.14179     0.04685     0.09026
 PX  C  16   0.03463    -0.06979    -0.11492    -0.01117    -0.03340    -0.13634
 PY  C  16   0.08687    -0.03192    -0.01446     0.10265    -0.03416    -0.09947
 PZ  C  16   0.00420    -0.09031    -0.09084    -0.04716    -0.01853    -0.05186
  
  S  N  17  -0.03889    -0.00592     0.15259    -0.01888    -0.08392    -0.00120
 PX  N  17  -0.10435     0.04671    -0.00797     0.05533     0.03479    -0.02316
 PY  N  17  -0.00313    -0.07813     0.01176    -0.13566    -0.03749    -0.12952
 PZ  N  17  -0.06870    -0.03181     0.03372     0.13674     0.07690     0.12655
  
  S  C  18   0.18442    -0.03999    -0.20086     0.02500    -0.09522     0.03155
 PX  C  18  -0.04934     0.16195     0.07554    -0.07208    -0.02667    -0.11844
 PY  C  18   0.04372    -0.15142     0.14013    -0.01680     0.01540     0.05593
 PZ  C  18   0.00112    -0.02917     0.11457     0.00367     0.03674     0.07683
  
  S  C  19   0.07960    -0.18441     0.04327     0.08838     0.26581     0.07859
 PX  C  19   0.14560    -0.12494    -0.13690     0.02204    -0.15196     0.08451
 PY  C  19  -0.00222    -0.03144     0.12949     0.00802     0.18555    -0.04998
 PZ  C  19   0.05094    -0.06593     0.02343     0.01710     0.07099     0.03120
  
  S  C  20  -0.15701     0.21526     0.09620    -0.08515     0.01987    -0.14396
 PX  C  20   0.03897    -0.11464    -0.07189     0.05966    -0.06424     0.13397
 PY  C  20  -0.01166    -0.04785     0.10328     0.03751     0.27283    -0.03626
 PZ  C  20   0.00355    -0.06155     0.03213     0.04126     0.13939     0.03028
  
  S  C  21   0.01159     0.03115    -0.01314    -0.03227    -0.20131     0.06624
 PX  C  21  -0.04538    -0.13594     0.10443     0.02375    -0.12917     0.18316
 PY  C  21  -0.08998     0.14994    -0.03653    -0.06631    -0.14520    -0.08967
 PZ  C  21  -0.08220     0.05730     0.01762    -0.03599    -0.13363     0.00981
  
  S  C  22  -0.06253    -0.16207     0.25164     0.01166     0.07406     0.09408
 PX  C  22  -0.04643     0.06762     0.01555    -0.01791     0.19443    -0.19070
 PY  C  22   0.00582     0.03492    -0.13992    -0.00069    -0.18034     0.01673
 PZ  C  22  -0.01946     0.05246    -0.07024    -0.00910    -0.03846    -0.04573
  
  S  C  23  -0.01916     0.15551    -0.09420    -0.02396     0.14988    -0.23590
 PX  C  23  -0.00090     0.11755     0.00984    -0.03052     0.13603    -0.12583
 PY  C  23   0.08767     0.03174    -0.20653     0.02301    -0.18135     0.04678
 PZ  C  23   0.04268     0.06743    -0.10342     0.00526    -0.04410     0.02155
  
  S  N  24   0.15192    -0.04479    -0.19471     0.08295     0.22857    -0.07397
 PX  N  24   0.05178    -0.02206     0.03741    -0.00133    -0.00009     0.04846
 PY  N  24   0.03587     0.02396    -0.02729    -0.01659    -0.01556    -0.04034
 PZ  N  24   0.02022     0.05851    -0.02975    -0.01758     0.00407    -0.04488
  
  S  C  25  -0.05307    -0.10503     0.12934    -0.00250    -0.10393     0.12945
 PX  C  25   0.06508     0.03290    -0.12119     0.02061     0.10783    -0.10122
 PY  C  25  -0.03545     0.01969     0.09944    -0.04158    -0.08071     0.03205
 PZ  C  25   0.01430     0.06648    -0.06489    -0.01042     0.04873    -0.09829
  
  S  C  26  -0.11735     0.08523     0.06492    -0.05478    -0.13233    -0.00394
 PX  C  26   0.04970    -0.03300    -0.01495     0.02690     0.08174     0.01242
 PY  C  26   0.07466    -0.02305    -0.11021     0.04811     0.13255    -0.04529
 PZ  C  26  -0.02932     0.03810     0.05247    -0.03945    -0.08078     0.00319
  
  S  C  27  -0.07337    -0.10899     0.02988     0.13144    -0.05648    -0.12145
 PX  C  27   0.05766     0.07621    -0.02329    -0.08522     0.04221     0.09756
 PY  C  27   0.05712    -0.03487     0.03264    -0.09526    -0.01519    -0.08711
 PZ  C  27  -0.00288     0.00153    -0.00139    -0.00423     0.00124     0.00149
  
  S  O  28   0.05606    -0.04273     0.02796    -0.12005     0.00447    -0.02288
 PX  O  28   0.00472     0.00678    -0.00032    -0.02614     0.00629     0.01042
 PY  O  28   0.03312    -0.02840     0.02085    -0.07286    -0.00448    -0.04043
 PZ  O  28  -0.00123    -0.00047    -0.00006    -0.00175     0.00009    -0.00057
  
  S  O  29   0.01210     0.09215    -0.03566    -0.00017     0.03106     0.08933
 PX  O  29   0.01449    -0.00585     0.00790    -0.01559    -0.00651    -0.02941
 PY  O  29   0.07203     0.21614    -0.08345    -0.11139     0.10806     0.29011
 PZ  O  29  -0.00081     0.00005    -0.00028    -0.00154     0.00007    -0.00082
  
  S  H  30  -0.10805     0.15521    -0.06504     0.19672    -0.00101     0.04276
  
  S  H  31   0.18918     0.02491     0.13069     0.09459    -0.03956    -0.01448
  
  S  H  32  -0.02001     0.10325     0.11003     0.15755    -0.04205    -0.07021
  
  S  H  33  -0.02063     0.03592     0.15507     0.13676    -0.07200    -0.06801
  
  S  H  34  -0.01877     0.10756     0.12866    -0.11959     0.02072     0.08794
  
  S  H  35  -0.02391     0.05297     0.02631     0.08936     0.07586     0.11180
  
  S  H  36   0.19865     0.09161     0.09500     0.04002    -0.04549    -0.05068
  
  S  H  37   0.02166     0.12018     0.10979    -0.12141     0.05129     0.09361
  
  S  H  38   0.03278    -0.11256     0.11973     0.05283     0.27284     0.00913
  
  S  H  39  -0.10665     0.15859     0.12364    -0.06900     0.11582    -0.15832
  
  S  H  40  -0.03489    -0.10852     0.22684     0.00731     0.17173     0.03204
  
  S  H  41  -0.03634     0.14251     0.01535    -0.03874     0.20397    -0.19914
  
  S  H  42  -0.05919    -0.02623     0.11137    -0.02646    -0.09306     0.06590
  
  S  H  43  -0.03576    -0.04480     0.10682    -0.01849    -0.08193     0.07833
  
  S  H  44  -0.04389    -0.09413     0.10036     0.00878    -0.08411     0.12947
  
  S  H  45  -0.08282     0.07211     0.05233    -0.05290    -0.12361    -0.01157
  
  S  H  46  -0.08769     0.04125     0.05670    -0.03585    -0.10802     0.01322
  
  S  H  47  -0.06816     0.03400     0.08976    -0.03941    -0.08762     0.02906
  
  S  H  48   0.04688     0.13963    -0.05230    -0.06847     0.06593     0.17478




    ROOT NO.   25          26          27          28          29          30

           -23.21406   -22.85519   -21.19115   -20.43525   -20.03284   -19.39041
  
  
  S  N   1  -0.09951     0.11585     0.02660    -0.04291    -0.03000     0.00699
 PX  N   1   0.02323    -0.03023    -0.01385     0.02535     0.01125    -0.00056
 PY  N   1  -0.02716     0.01002     0.00016     0.03556     0.02649     0.00648
 PZ  N   1   0.00273    -0.00242    -0.00660     0.02662    -0.00047     0.01106
  
  S  C   2   0.15442    -0.16569    -0.04029     0.09137     0.04154     0.00000
 PX  C   2   0.16609    -0.17741    -0.03589     0.07553     0.03702    -0.00141
 PY  C   2  -0.06812     0.02457     0.00688     0.05541     0.05650     0.00592
 PZ  C   2   0.00551    -0.00579    -0.01050     0.04453     0.00189     0.01664
  
  S  C   3   0.11023    -0.02302     0.07490     0.04622     0.05692     0.00194
 PX  C   3  -0.17695     0.25897     0.11595    -0.09750    -0.01532     0.00025
 PY  C   3  -0.15859     0.06060     0.07586     0.04992     0.16361    -0.01353
 PZ  C   3   0.01127    -0.01574    -0.00484     0.04986     0.01923     0.01210
  
  S  C   4  -0.06991     0.05521    -0.12227    -0.03544    -0.13705     0.01341
 PX  C   4  -0.14030     0.10205     0.02087     0.01963     0.06210    -0.01778
 PY  C   4   0.09091     0.12140     0.16340    -0.04313     0.00317    -0.00448
 PZ  C   4   0.03019    -0.04495    -0.00277     0.06382     0.04115     0.00607
  
  S  C   5  -0.10635     0.03577    -0.01340     0.11022     0.04551     0.04967
 PX  C   5   0.00121    -0.11717    -0.08346     0.04481     0.04407    -0.02491
 PY  C   5  -0.00939    -0.09074    -0.17257    -0.10051    -0.14379    -0.00718
 PZ  C   5   0.09407    -0.13305    -0.01732     0.09622     0.07913     0.00037
  
  S  C   6  -0.07260     0.09477     0.13271    -0.11126     0.07189    -0.04804
 PX  C   6  -0.08452     0.11835     0.01540     0.02971    -0.04283     0.03917
 PY  C   6  -0.02438     0.00789     0.03670    -0.22760    -0.01258    -0.06346
 PZ  C   6  -0.03325     0.09104    -0.00919     0.13129    -0.05199     0.09073
  
  S  C   7   0.08809    -0.16884    -0.10715     0.11820    -0.04407     0.04089
 PX  C   7  -0.05925     0.11762     0.04129     0.06007    -0.02430    -0.01194
 PY  C   7  -0.01678     0.05180     0.08725     0.02148     0.11287    -0.01467
 PZ  C   7  -0.04210     0.09565    -0.00262     0.04750    -0.06752     0.03922
  
  S  C   8  -0.07352    -0.03383    -0.02756    -0.07613    -0.01846    -0.06702
 PX  C   8  -0.03522     0.05184    -0.07872     0.00975     0.01472    -0.05659
 PY  C   8   0.04973     0.04053    -0.18267     0.15119    -0.14685     0.11208
 PZ  C   8  -0.05550     0.03729    -0.00129    -0.07201     0.09451    -0.00124
  
  S  C   9   0.02560     0.05223    -0.11171    -0.16904    -0.10232    -0.01224
 PX  C   9   0.08236    -0.01225     0.04962    -0.03746    -0.07696     0.00799
 PY  C   9   0.10917     0.02296     0.12419    -0.09045    -0.06722    -0.01350
 PZ  C   9   0.04202    -0.02622    -0.00294    -0.00530    -0.04197     0.06323
  
  S  C  10   0.16282    -0.12702     0.13114    -0.07699     0.08281    -0.05315
 PX  C  10   0.02318    -0.11650     0.01380    -0.05452     0.04588    -0.05927
 PY  C  10  -0.06286    -0.08546     0.00289     0.20522     0.19074     0.01140
 PZ  C  10   0.07628    -0.09553     0.01107    -0.13584    -0.03937    -0.03854
  
  S  C  11   0.02993     0.09573    -0.06555     0.14995    -0.03448     0.07542
 PX  C  11  -0.06009     0.04823     0.05771     0.07136    -0.08907    -0.01133
 PY  C  11  -0.10039    -0.02817    -0.08347    -0.04401    -0.06782     0.03338
 PZ  C  11  -0.01613     0.05665     0.09375     0.07849    -0.05592     0.02306
  
  S  C  12  -0.20851    -0.03028     0.06700     0.10091     0.04997    -0.01458
 PX  C  12  -0.13541    -0.11549    -0.02998    -0.02633     0.06805    -0.00647
 PY  C  12  -0.12044     0.00369     0.00440     0.20266    -0.05400     0.10181
 PZ  C  12  -0.08001    -0.11415    -0.02963    -0.11515     0.08914    -0.03057
  
  S  C  13   0.07619    -0.06787    -0.08747    -0.14084    -0.01549    -0.00386
 PX  C  13  -0.11636    -0.11212    -0.07908    -0.03765     0.06218     0.03120
 PY  C  13  -0.12976    -0.05400     0.05309    -0.09640     0.12945    -0.09231
 PZ  C  13  -0.05721    -0.08541    -0.09772     0.00429     0.00419     0.08141
  
  S  C  14   0.00173     0.07814     0.06068     0.16139    -0.02130     0.00689
 PX  C  14   0.15054     0.02182    -0.05520     0.01835    -0.10407     0.04463
 PY  C  14   0.16549     0.03860     0.01746    -0.22273    -0.04744    -0.07724
 PZ  C  14   0.07047     0.00270    -0.05794     0.11365    -0.07983     0.09324
  
  S  C  15  -0.17755    -0.10445    -0.02450    -0.14125     0.04760    -0.01940
 PX  C  15   0.09179     0.08929     0.08704    -0.00519     0.00799    -0.07349
 PY  C  15   0.20865     0.01665    -0.01932    -0.08813    -0.12072     0.04343
 PZ  C  15  -0.00963     0.07378     0.10032     0.02894     0.05873    -0.05009
  
  S  C  16   0.10691    -0.08823    -0.05140     0.04161    -0.03160     0.08809
 PX  C  16   0.06947     0.07136    -0.01561    -0.05066     0.06507    -0.07235
 PY  C  16  -0.00521     0.02639     0.02946     0.16300     0.11528     0.01336
 PZ  C  16   0.06157     0.05304    -0.01761    -0.13727     0.01711     0.02189
  
  S  N  17   0.01018     0.05813     0.20010     0.03081    -0.06799    -0.01344
 PX  N  17  -0.06290    -0.16883     0.01423     0.06521     0.09739    -0.12714
 PY  N  17  -0.09713    -0.07068     0.12845    -0.22577     0.17883    -0.07147
 PZ  N  17  -0.03977    -0.13215    -0.02667     0.11177     0.04753     0.14738
  
  S  C  18   0.01438     0.06870    -0.10156    -0.00154     0.04624    -0.01206
 PX  C  18   0.09518     0.14445     0.03391     0.04804    -0.15732    -0.12906
 PY  C  18   0.02206     0.09036     0.07350    -0.08573    -0.03152     0.17024
 PZ  C  18   0.02739     0.09504     0.01872     0.02614    -0.09881     0.12325
  
  S  C  19  -0.04473    -0.00742    -0.06572     0.01718     0.08560     0.01931
 PX  C  19  -0.01744    -0.01520    -0.06203    -0.10279     0.13000     0.19573
 PY  C  19   0.04688     0.07973    -0.06084    -0.01241     0.03765     0.03751
 PZ  C  19   0.00752     0.05533    -0.05725    -0.01899     0.05409     0.09706
  
  S  C  20   0.04921     0.06394     0.08638     0.01142    -0.11585    -0.05114
 PX  C  20  -0.08042    -0.14295     0.03917     0.03701    -0.01562    -0.03571
 PY  C  20   0.00572     0.04555    -0.02842     0.07128    -0.01380    -0.16445
 PZ  C  20  -0.02957    -0.02118     0.00419     0.06766    -0.03400    -0.14075
  
  S  C  21   0.01995     0.02717    -0.05432    -0.01178     0.01477     0.02001
 PX  C  21  -0.02825    -0.04813     0.08305     0.06561    -0.16658    -0.06974
 PY  C  21   0.01118    -0.03545     0.11893    -0.07408    -0.04778     0.19831
 PZ  C  21  -0.00516    -0.03670     0.10148     0.00028    -0.11616    -0.01873
  
  S  C  22   0.02314     0.06169     0.08383     0.00541    -0.10832     0.08917
 PX  C  22   0.01386    -0.00284     0.08852    -0.08814     0.06289     0.19231
 PY  C  22  -0.04079    -0.12321     0.04345    -0.01199     0.01260    -0.00979
 PZ  C  22  -0.02351    -0.07178     0.04322    -0.02519     0.02259     0.02512
  
  S  C  23   0.02423    -0.00204    -0.03686    -0.02788     0.10639    -0.04767
 PX  C  23   0.04603     0.09489    -0.10300     0.00980     0.04749    -0.10151
 PY  C  23  -0.00988    -0.03547    -0.09197     0.06410     0.01405    -0.18486
 PZ  C  23  -0.01024    -0.00153    -0.10810     0.05706     0.01354    -0.12437
  
  S  N  24  -0.08197    -0.15369     0.09851     0.02177    -0.04283    -0.02756
 PX  N  24   0.04703     0.13299    -0.24300     0.02908     0.17802    -0.14738
 PY  N  24   0.02871     0.05105    -0.08438    -0.09642     0.18628     0.33423
 PZ  N  24   0.02695     0.05729    -0.10618    -0.00401     0.09396    -0.14156
  
  S  C  25   0.01810     0.05587    -0.06610     0.01988     0.02077    -0.04831
 PX  C  25  -0.03150    -0.08091     0.08666    -0.06519     0.03644     0.29678
 PY  C  25   0.07264     0.16403    -0.22620    -0.00808     0.19464    -0.08810
 PZ  C  25  -0.00030    -0.02198     0.05133    -0.05502     0.01858     0.12044
  
  S  C  26   0.03779     0.05656    -0.03920    -0.02384     0.04473     0.04488
 PX  C  26  -0.00766     0.01179    -0.06643     0.06230     0.01083    -0.25832
 PY  C  26  -0.05872    -0.11756     0.12171     0.03669    -0.12100    -0.16114
 PZ  C  26   0.05560     0.11507    -0.16499    -0.05457     0.20491     0.11785
  
  S  C  27  -0.18999     0.08892    -0.00811    -0.06965    -0.02936    -0.00193
 PX  C  27   0.12298    -0.02983     0.05152     0.02688     0.03782    -0.00116
 PY  C  27  -0.00551    -0.11262    -0.22664    -0.08483    -0.24277     0.01271
 PZ  C  27   0.01152    -0.01062    -0.00195     0.02197     0.00942     0.00524
  
  S  O  28   0.10277    -0.11731    -0.04769     0.06578     0.02299     0.00187
 PX  O  28   0.04734    -0.03975    -0.00570     0.05925     0.04613    -0.00049
 PY  O  28   0.03230    -0.08293    -0.11395    -0.02042    -0.11431     0.00848
 PZ  O  28   0.00461    -0.00553    -0.00217     0.01240     0.00572     0.00280
  
  S  O  29   0.04993     0.02650     0.06533     0.03331     0.06928    -0.00336
 PX  O  29  -0.02636    -0.01882    -0.09869    -0.07815    -0.15641     0.00718
 PY  O  29   0.29104     0.00132     0.26071     0.14798     0.25996    -0.00957
 PZ  O  29   0.00279    -0.00449    -0.00473     0.00879    -0.00076     0.00357
  
  S  H  30  -0.11893     0.09212    -0.03830    -0.00348    -0.01718    -0.00885
  
  S  H  31  -0.00975    -0.01356     0.08541    -0.24320     0.06045    -0.11097
  
  S  H  32   0.09550    -0.18840    -0.08985     0.00307     0.01184     0.01375
  
  S  H  33   0.10896    -0.17271     0.07928    -0.09293     0.07499    -0.07402
  
  S  H  34  -0.23173    -0.09454     0.01950     0.10147     0.05453     0.02889
  
  S  H  35  -0.01377    -0.11489    -0.14062    -0.07073    -0.00140     0.07552
  
  S  H  36  -0.08026     0.01811     0.00348     0.26465    -0.00207     0.08447
  
  S  H  37  -0.22036    -0.11176    -0.07044    -0.03392     0.07064     0.01129
  
  S  H  38   0.01076     0.05241    -0.08225     0.00676     0.06805     0.04519
  
  S  H  39   0.07779     0.13762     0.00179     0.00230    -0.04452    -0.05801
  
  S  H  40   0.04340     0.12459     0.01085     0.00918    -0.06190     0.06359
  
  S  H  41   0.03576     0.05877    -0.06144    -0.02632     0.08074    -0.03965
  
  S  H  42   0.04068     0.09246    -0.09613     0.01157     0.04203    -0.12967
  
  S  H  43   0.04386     0.10850    -0.15652     0.00216     0.13190    -0.02739
  
  S  H  44  -0.00412     0.00976    -0.00452     0.06328    -0.08849    -0.15785
  
  S  H  45   0.04466     0.07122    -0.06719    -0.06486     0.11774     0.17946
  
  S  H  46   0.01803     0.01605     0.03611    -0.02167    -0.03749     0.12666
  
  S  H  47   0.05167     0.11212    -0.14361    -0.00337     0.12249    -0.02620
  
  S  H  48   0.17116    -0.00160     0.13624     0.07514     0.12536    -0.00421




    ROOT NO.   31          32          33          34          35          36

           -18.57440   -18.37299   -18.32227   -17.51153   -16.87664   -16.76495
  
  
  S  N   1   0.00037    -0.09815     0.05601     0.02165    -0.02741     0.18408
 PX  N   1   0.00041     0.06102    -0.03484    -0.01697     0.02071    -0.14578
 PY  N   1   0.01754     0.02455    -0.08018     0.01460    -0.01116    -0.02276
 PZ  N   1   0.00189     0.00521     0.01106    -0.02959     0.00185     0.02821
  
  S  C   2  -0.00010     0.12402    -0.06093    -0.03788     0.02865    -0.19241
 PX  C   2  -0.00033     0.08502    -0.04019    -0.02436     0.01350    -0.08529
 PY  C   2   0.03015     0.04089    -0.13957     0.02586    -0.01511    -0.04105
 PZ  C   2   0.00216     0.01114     0.01942    -0.04770     0.00469     0.03855
  
  S  C   3  -0.00016    -0.04550     0.04572    -0.03211    -0.00193     0.04841
 PX  C   3   0.00127    -0.17405     0.09267     0.02841    -0.02665     0.20431
 PY  C   3   0.06752    -0.05971    -0.23377    -0.01512    -0.03270    -0.14432
 PZ  C   3  -0.00033     0.02433     0.03103    -0.07275     0.01562     0.04041
  
  S  C   4  -0.02830     0.13991     0.01827     0.04210     0.00970    -0.00238
 PX  C   4   0.00975     0.22093    -0.18317     0.05630     0.06092    -0.27029
 PY  C   4  -0.04045    -0.03174     0.18712     0.03657     0.04711     0.14982
 PZ  C   4  -0.00664     0.04802     0.05115    -0.08520     0.02697     0.03704
  
  S  C   5   0.05461    -0.14519    -0.07093    -0.06870    -0.08141     0.08071
 PX  C   5  -0.00699     0.12579    -0.06293    -0.07132    -0.03170    -0.09836
 PY  C   5  -0.00468     0.00187    -0.02970     0.04144    -0.01317    -0.01832
 PZ  C   5  -0.01827     0.07818     0.10955    -0.15271    -0.00208     0.09254
  
  S  C   6  -0.00505     0.03030    -0.02550     0.03649     0.07181    -0.06691
 PX  C   6   0.03966    -0.18163    -0.08338     0.08324    -0.05268     0.01461
 PY  C   6   0.00649    -0.15086    -0.05199     0.11095    -0.04439    -0.01465
 PZ  C   6   0.03744    -0.13465     0.02599     0.00736    -0.00648     0.11349
  
  S  C   7   0.00965    -0.02139     0.02026    -0.03841    -0.03085     0.06168
 PX  C   7  -0.02281     0.07510    -0.00814     0.05406     0.14000    -0.16568
 PY  C   7  -0.02917     0.23867     0.06879    -0.12844     0.05171     0.01186
 PZ  C   7   0.01168    -0.02150     0.01529     0.09998     0.16099    -0.10817
  
  S  C   8  -0.01714    -0.03727    -0.02102     0.10073     0.08063    -0.12286
 PX  C   8  -0.05656     0.15926    -0.00989    -0.08382    -0.09568    -0.04676
 PY  C   8   0.02339     0.04088     0.00808     0.00472     0.03117    -0.02831
 PZ  C   8  -0.00046     0.17612     0.04760    -0.10108    -0.00394     0.05841
  
  S  C   9   0.00048     0.08772    -0.07671    -0.05331    -0.09541     0.01561
 PX  C   9   0.00909    -0.11661    -0.04732     0.06483    -0.04964     0.00789
 PY  C   9  -0.04935     0.02704     0.12828     0.14586    -0.00724     0.04906
 PZ  C   9   0.06094    -0.11144    -0.04545    -0.02103     0.02708     0.08149
  
  S  C  10  -0.02645    -0.03945     0.08952     0.02953     0.02683     0.03541
 PX  C  10  -0.00985    -0.03696    -0.02505     0.07493     0.10277    -0.13643
 PY  C  10   0.03041    -0.02129     0.00252    -0.15994     0.05595     0.00310
 PZ  C  10  -0.01570    -0.04194     0.05076     0.10361     0.11018    -0.02210
  
  S  C  11   0.06783    -0.09781    -0.10378    -0.10476     0.02088     0.01295
 PX  C  11  -0.03205    -0.02726    -0.00985     0.10716    -0.03227    -0.09916
 PY  C  11   0.04077    -0.01750    -0.10635    -0.03389    -0.02503    -0.01516
 PZ  C  11  -0.01329     0.00256     0.06487     0.10347     0.05865    -0.02657
  
  S  C  12  -0.04845     0.07254     0.10366     0.05860    -0.01365    -0.00562
 PX  C  12  -0.01295     0.02637     0.03686     0.02027    -0.00479    -0.00339
 PY  C  12   0.03373    -0.11245     0.01374     0.14811     0.12405    -0.09975
 PZ  C  12  -0.01224     0.08339     0.04246    -0.04952    -0.01768     0.06956
  
  S  C  13   0.03739    -0.03931    -0.09764    -0.07075    -0.01799     0.01120
 PX  C  13   0.05476    -0.06579    -0.07849    -0.11300     0.02231     0.03805
 PY  C  13  -0.05880     0.16567     0.08420    -0.11441    -0.09493     0.11967
 PZ  C  13   0.08704    -0.12741    -0.10411    -0.06334     0.08949     0.00395
  
  S  C  14  -0.04649     0.05381     0.10268     0.08043    -0.01432    -0.00600
 PX  C  14   0.02718    -0.10731    -0.05556     0.09797     0.02985    -0.09232
 PY  C  14  -0.01663     0.04371    -0.05724     0.00188    -0.04117    -0.02955
 PZ  C  14   0.04587    -0.11205    -0.02043     0.08755     0.07962    -0.05647
  
  S  C  15   0.03012    -0.01836    -0.08378    -0.06748     0.00389    -0.00365
 PX  C  15  -0.07687     0.10492     0.09150     0.03849    -0.06369     0.01503
 PY  C  15   0.01932    -0.06468    -0.00981     0.16205     0.08880    -0.08969
 PZ  C  15  -0.05426     0.15153     0.10669    -0.04644    -0.03967     0.08515
  
  S  C  16   0.02893    -0.09057     0.04060     0.10110     0.06413    -0.00831
 PX  C  16  -0.00104    -0.03553    -0.07797    -0.11751    -0.02741     0.00497
 PY  C  16  -0.01242     0.07472     0.10281    -0.10930    -0.02481     0.12879
 PZ  C  16   0.07250    -0.02181    -0.08370    -0.08351     0.10929     0.01580
  
  S  N  17  -0.03990     0.06041     0.04890     0.03093    -0.02287     0.01141
 PX  N  17  -0.10831    -0.09742     0.09628     0.16305    -0.09359    -0.03957
 PY  N  17   0.03864    -0.09370    -0.01829     0.04091     0.11771    -0.00100
 PZ  N  17   0.03602     0.04242     0.17793     0.12222     0.08204     0.06665
  
  S  C  18   0.01900     0.07103    -0.02292    -0.11061     0.08102     0.00765
 PX  C  18  -0.08101     0.00292    -0.10402    -0.08805    -0.16778    -0.01906
 PY  C  18   0.08808     0.04775    -0.04701    -0.07625     0.05797     0.03604
 PZ  C  18   0.07070     0.09831    -0.01319    -0.05687     0.03656     0.00647
  
  S  C  19  -0.03056    -0.01489     0.04725     0.08093    -0.05539    -0.03923
 PX  C  19   0.14028     0.04719     0.02899    -0.05971     0.16579     0.07184
 PY  C  19  -0.00817    -0.03472     0.00067     0.02319    -0.20323     0.01243
 PZ  C  19   0.08908     0.04716     0.03778     0.00302    -0.01430     0.00610
  
  S  C  20  -0.00609     0.02111    -0.06229    -0.08273     0.08570     0.02749
 PX  C  20  -0.11349    -0.07204     0.00831     0.11023    -0.10081    -0.05077
 PY  C  20  -0.13856    -0.01884    -0.01205     0.01343    -0.01674    -0.05654
 PZ  C  20  -0.01956    -0.00680     0.02176     0.05177    -0.02108    -0.05992
  
  S  C  21   0.00934    -0.03062    -0.01697     0.00541    -0.12864     0.00851
 PX  C  21  -0.09648    -0.01913    -0.08434    -0.04603    -0.14642    -0.03217
 PY  C  21  -0.00539     0.02308    -0.04616    -0.06473     0.08294     0.06393
 PZ  C  21   0.18536     0.03298    -0.00415    -0.03813     0.04065     0.03354
  
  S  C  22   0.02900     0.06477    -0.02652    -0.05286    -0.02555    -0.02836
 PX  C  22   0.07366     0.05139     0.06357     0.02653     0.18478     0.04162
 PY  C  22  -0.02397    -0.06909     0.02897     0.09654    -0.11168     0.01086
 PZ  C  22   0.09925    -0.01076     0.06169     0.07420     0.04817     0.02644
  
  S  C  23  -0.00760    -0.04769     0.04737     0.06841    -0.00850     0.02207
 PX  C  23  -0.06756    -0.05632    -0.04958    -0.02111    -0.09591     0.00363
 PY  C  23  -0.11008    -0.02639    -0.02226    -0.02853    -0.06427    -0.03595
 PZ  C  23  -0.03251    -0.01777    -0.01703    -0.01877    -0.02519    -0.02469
  
  S  N  24  -0.10358    -0.02271    -0.01832     0.00874     0.06107     0.01095
 PX  N  24  -0.14384    -0.07539     0.01688     0.04834     0.05353     0.02680
 PY  N  24  -0.17478     0.01499     0.03528     0.07572    -0.16462    -0.10461
 PZ  N  24   0.34861     0.02193     0.13211     0.07640    -0.00531    -0.00233
  
  S  C  25   0.01300    -0.00770     0.01270     0.01775    -0.00957    -0.00988
 PX  C  25  -0.32397    -0.00234    -0.05503    -0.00206     0.06615    -0.01368
 PY  C  25   0.03251    -0.02637     0.07931     0.06451     0.17136     0.04520
 PZ  C  25   0.27247     0.08535     0.09335     0.02883    -0.10904    -0.07004
  
  S  C  26  -0.02360    -0.00510     0.00460     0.00856     0.01340     0.00707
 PX  C  26   0.01451    -0.04610     0.00875    -0.00323     0.32478     0.11814
 PY  C  26   0.36694     0.04734     0.07763     0.03232    -0.08245    -0.04095
 PZ  C  26   0.05591     0.01264     0.12005     0.14843    -0.15320    -0.12971
  
  S  C  27   0.00038    -0.15954     0.10022    -0.11964    -0.01669    -0.08745
 PX  C  27  -0.00245    -0.07941     0.07583    -0.12740    -0.00161    -0.15043
 PY  C  27  -0.07622     0.13819     0.21269    -0.01078     0.04839    -0.00534
 PZ  C  27  -0.00022     0.01364     0.01694    -0.05417     0.01372     0.01951
  
  S  O  28   0.01764     0.21490    -0.22474     0.24179     0.00189     0.22327
 PX  O  28   0.02740     0.23464    -0.28456     0.32157     0.00001     0.31797
 PY  O  28  -0.04197     0.10489     0.10609     0.00491     0.03291     0.02111
 PZ  O  28   0.00114     0.01988    -0.00409    -0.01839     0.00978     0.03280
  
  S  O  29   0.02821     0.03585    -0.14952     0.12728    -0.02081     0.13622
 PX  O  29  -0.06959    -0.03819     0.32540    -0.20014     0.05283    -0.18994
 PY  O  29   0.04917    -0.12060    -0.08595    -0.12447    -0.01629    -0.16984
 PZ  O  29  -0.00245     0.00958     0.02160    -0.04855     0.01460     0.01430
  
  S  H  30  -0.00796     0.24071    -0.12886     0.07103     0.05979    -0.21468
  
  S  H  31  -0.02909     0.04607    -0.03033     0.06028     0.02681    -0.10986
  
  S  H  32   0.01454    -0.07874    -0.00136    -0.08463    -0.20503     0.19107
  
  S  H  33  -0.02362    -0.05775     0.05953     0.09497     0.15020    -0.08513
  
  S  H  34  -0.01922     0.01360     0.09378     0.11383     0.05839    -0.04344
  
  S  H  35   0.10758    -0.16001    -0.16621    -0.10748     0.07813     0.00224
  
  S  H  36   0.00214    -0.03861     0.08738     0.06698     0.05043     0.00120
  
  S  H  37   0.05755    -0.06586    -0.11102    -0.13216    -0.00427     0.01839
  
  S  H  38  -0.00595    -0.02748     0.03647     0.07028    -0.20693    -0.01271
  
  S  H  39   0.04458     0.05549    -0.03358    -0.11180     0.11364     0.03129
  
  S  H  40  -0.00180     0.08797    -0.04819    -0.11850     0.09010    -0.02217
  
  S  H  41  -0.01618    -0.06289    -0.00801     0.03064    -0.05486     0.02342
  
  S  H  42   0.33376     0.04062     0.10352     0.03846    -0.06864    -0.02982
  
  S  H  43  -0.15992    -0.04824     0.00740     0.03674     0.16922     0.04672
  
  S  H  44  -0.04551    -0.04016    -0.06293    -0.04080    -0.03448     0.02771
  
  S  H  45   0.08761     0.03644     0.08719     0.10428    -0.26452    -0.14503
  
  S  H  46  -0.20037    -0.01093    -0.09875    -0.08968    -0.01805     0.04165
  
  S  H  47  -0.14940    -0.04275    -0.00016     0.01916     0.20339     0.05810
  
  S  H  48   0.01635    -0.06702     0.00136    -0.10184     0.00184    -0.13055




    ROOT NO.   37          38          39          40          41          42

           -16.61339   -16.40006   -15.98945   -15.93770   -15.75082   -15.55223
  
  
  S  N   1  -0.04234    -0.06811    -0.00235     0.00820    -0.06061    -0.07369
 PX  N   1   0.03450     0.05750     0.00363    -0.00696     0.06140     0.07239
 PY  N   1  -0.00840     0.03486     0.01457     0.00474     0.02176    -0.00061
 PZ  N   1   0.01538    -0.04722     0.02628     0.11353     0.02814     0.00082
  
  S  C   2   0.04535     0.06251     0.00299    -0.01554     0.06651     0.06332
 PX  C   2   0.01986     0.02031     0.00110    -0.00564     0.01866     0.00881
 PY  C   2  -0.01152     0.05461     0.01850     0.00913     0.01944    -0.00059
 PZ  C   2   0.02489    -0.06980     0.03660     0.16559     0.03485     0.00152
  
  S  C   3  -0.00130    -0.04393    -0.00851    -0.02284     0.01465    -0.00384
 PX  C   3  -0.04114    -0.07561    -0.00850     0.00124    -0.04532    -0.03963
 PY  C   3  -0.04225     0.15454     0.02652     0.04581    -0.07097    -0.03067
 PZ  C   3   0.04363    -0.10454     0.04761     0.26290     0.02111     0.00021
  
  S  C   4   0.02445    -0.00185     0.00772    -0.00341     0.03580     0.01835
 PX  C   4   0.08853     0.06794    -0.01019    -0.02956     0.14308     0.15152
 PY  C   4   0.05828    -0.19428    -0.04862    -0.07713     0.13502     0.09842
 PZ  C   4   0.05074    -0.10183     0.01535     0.12215    -0.02033     0.00035
  
  S  C   5  -0.04627     0.07665     0.04981     0.02601     0.01885    -0.00770
 PX  C   5  -0.00950     0.08906     0.02318    -0.01271    -0.00498    -0.04720
 PY  C   5  -0.06599     0.07906     0.01676     0.07561    -0.19205    -0.13512
 PZ  C   5   0.05520    -0.05955     0.01718     0.01578    -0.07719    -0.00676
  
  S  C   6   0.04632    -0.09194    -0.03313     0.02397    -0.00341     0.02319
 PX  C   6  -0.07607     0.06514     0.00961    -0.02011     0.12129     0.01925
 PY  C   6  -0.06356     0.12739    -0.00718     0.02092    -0.07283    -0.00132
 PZ  C   6  -0.00247    -0.03457     0.00328    -0.00946     0.01963     0.04230
  
  S  C   7  -0.04134     0.03429     0.03275    -0.01712    -0.00335    -0.03539
 PX  C   7   0.03857    -0.19633    -0.06966    -0.01999    -0.00769    -0.05261
 PY  C   7   0.12161    -0.12081     0.00666     0.02032     0.01958     0.04061
 PZ  C   7   0.06574    -0.14332    -0.08729    -0.00501    -0.19774    -0.01486
  
  S  C   8   0.00451    -0.03939    -0.01744     0.02326    -0.13295    -0.04111
 PX  C   8  -0.06493     0.03769    -0.02307     0.01356     0.06174    -0.09744
 PY  C   8  -0.03380     0.05253    -0.07094    -0.00900    -0.21964    -0.09891
 PZ  C   8   0.07865     0.08522     0.02055     0.05062    -0.14219     0.03062
  
  S  C   9  -0.02978     0.14015     0.04592     0.05385     0.00456    -0.02215
 PX  C   9  -0.04408    -0.00653     0.03702    -0.03404     0.24169     0.03348
 PY  C   9   0.02608     0.07628     0.04098    -0.03212     0.08341     0.09474
 PZ  C   9   0.02647    -0.00942     0.04262     0.01769    -0.06331     0.05851
  
  S  C  10   0.00791    -0.06554    -0.02769    -0.05164     0.01412     0.01597
 PX  C  10  -0.03449    -0.12615    -0.10031    -0.01914    -0.10872    -0.10807
 PY  C  10   0.03831    -0.12927    -0.04649    -0.00080    -0.13725    -0.03853
 PZ  C  10  -0.00530    -0.10264    -0.06648     0.02306    -0.21999    -0.07088
  
  S  C  11   0.05702    -0.12014     0.02717    -0.06731     0.01560     0.03418
 PX  C  11   0.06048    -0.00482     0.16919    -0.00277     0.08146    -0.00812
 PY  C  11   0.00019     0.08034     0.10417     0.09459    -0.09302    -0.01910
 PZ  C  11   0.11993     0.01368     0.16226    -0.01623    -0.13067     0.07631
  
  S  C  12  -0.00405     0.06068     0.00982     0.00899    -0.01806    -0.01361
 PX  C  12  -0.15646     0.07637    -0.22568     0.09518     0.09972    -0.06517
 PY  C  12  -0.04792     0.02746    -0.12119     0.12395     0.03910     0.04004
 PZ  C  12  -0.10200     0.09099    -0.14075     0.05348    -0.06135    -0.03409
  
  S  C  13   0.04363    -0.04412     0.09038    -0.02623    -0.01930     0.00668
 PX  C  13  -0.06044    -0.11563    -0.14608    -0.05288     0.13549     0.03349
 PY  C  13  -0.02844     0.02781    -0.01335    -0.08581    -0.04739    -0.02999
[...]
    Config     430   0.24214622  0.05863479
    Config     433  -0.07372627  0.00543556
    Config     436  -0.06141861  0.00377225
    Config     437   0.04248989  0.00180539
    Config     439  -0.05342273  0.00285399
    Config     442  -0.04248302  0.00180481
    Config     451  -0.05308276  0.00281778
    Config     455   0.05658513  0.00320188
    Config     457   0.05550593  0.00308091
    Config     458  -0.06535298  0.00427101
    Config     461  -0.06103270  0.00372499
    Config     462   0.04550885  0.00207106
    Config     463  -0.06489272  0.00421106
    Config     467   0.04267812  0.00182142
    Config     469   0.04474467  0.00200209
    Config     472  -0.07360037  0.00541701
    Config     475  -0.12313676  0.01516266
    Config     481  -0.04985609  0.00248563
    Config     485   0.08329522  0.00693809
    Config     487   0.07781860  0.00605573
    Config     489  -0.04828280  0.00233123
    Config     498  -0.05161422  0.00266403
    Config     500  -0.04534690  0.00205634
    Config     506   0.07093526  0.00503181
    Config     508   0.08754270  0.00766372
    Config     509  -0.05717920  0.00326946
    Config     514  -0.07213907  0.00520405
    Config     515  -0.07492137  0.00561321
    Config     517   0.09566761  0.00915229
    Config     518   0.04153471  0.00172513
    Config     523   0.06297094  0.00396534
    Config     525  -0.04664103  0.00217539
    Config     530  -0.05716144  0.00326743
    Config     531  -0.09475286  0.00897811
    Config     532  -0.09384897  0.00880763
    Config     534  -0.07373819  0.00543732
    Config     551  -0.04295837  0.00184542
    Config     552   0.07732548  0.00597923
    Config     555  -0.09556347  0.00913238
    Config     565   0.04275493  0.00182798
    Config     570  -0.11041678  0.01219186
    Config     574   0.09487520  0.00900130
    Config     575   0.05952158  0.00354282
    Config     576   0.09358826  0.00875876
    Config     578   0.04014374  0.00161152
    Config     579  -0.11322749  0.01282046
    Config     593   0.06729937  0.00452920
    Config     594  -0.05246751  0.00275284
    Config     599  -0.04238227  0.00179626
    Config     602   0.05289459  0.00279784
    Config     609  -0.04155217  0.00172658
    Config     614  -0.05229254  0.00273451
    Config     615   0.07472227  0.00558342
    Config     621   0.04489300  0.00201538
    Config     625  -0.08309479  0.00690474
    Config     628  -0.08683893  0.00754100
    Config     630  -0.08275810  0.00684890
    Config     632   0.06022377  0.00362690
    Config     634  -0.13960824  0.01949046
    Config     638  -0.04373298  0.00191257
    Config     639   0.06254368  0.00391171
    Config     641  -0.07303786  0.00533453
    Config     661   0.04799151  0.00230319
    Config     662  -0.04861533  0.00236345
    Config     664  -0.04105317  0.00168536
    Config     666  -0.14613492  0.02135541
    Config     668  -0.05722626  0.00327485
    Config     673  -0.05766282  0.00332500
    Config     675   0.05395649  0.00291130
    Config     687   0.07691690  0.00591621
    Config     690   0.05461932  0.00298327
    Config     691  -0.04753545  0.00225962
    Config     693   0.04363073  0.00190364
    Config     695  -0.04867531  0.00236929
    Config     703   0.04019712  0.00161581
    Config     709   0.05889180  0.00346824
    Config     725   0.06092637  0.00371202
    Config     730  -0.05810757  0.00337649
    Config     734  -0.05641394  0.00318253
    Config     735   0.04378839  0.00191742
    Config     736   0.07788964  0.00606680
    Config     748  -0.04994905  0.00249491
    Config     749  -0.06921410  0.00479059
    Config     770   0.06627631  0.00439255
    Config     786   0.08412343  0.00707675
    Config     798   0.09994725  0.00998945
    Config     804   0.04597366  0.00211358
    Config     809   0.04875696  0.00237724
    Config     812   0.09244135  0.00854540
    Config     830   0.12677881  0.01607287
    Config     846   0.04360881  0.00190173
    Config     851  -0.04324648  0.00187026
    Config     867  -0.08486592  0.00720222
    Config     874  -0.06337009  0.00401577
    Config     895  -0.04092030  0.00167447
    Config     910  -0.05319581  0.00282979
    Config     915  -0.05313842  0.00282369
    Config     941   0.04110482  0.00168961
    Config     950   0.06712923  0.00450633
    Config     956   0.04306322  0.00185444
    Config     971  -0.04805375  0.00230916
    Config    1006   0.04661191  0.00217267
 Total coeff printed             0.74794231
  

 -------------------------------------------------------------------------------
 INDO CIS EPS=37.5 N**2=1.34
 Dye6
 Calculo de Estados Excitados


     1SCF WAS SPECIFIED, SO BFGS WAS NOT USED                 
     SCF FIELD WAS ACHIEVED                                   


                              INDO CALCULATION
                                                       MOPAC2016 (Version: 21.013L)
                                                       Thu Oct 21 09:37:48 2021
                                                       No. of days remaining =  84




          FINAL HEAT OF FORMATION =    -117975.22902 KCAL/MOL = -493608.35824 KJ/MOL
          VAN DER WAALS AREA      =        398.85 SQUARE ANGSTROMS


          TOTAL ENERGY            =      -5356.53996 EV
          ELECTRONIC ENERGY       =      -4882.55091 EV  POINT GROUP:     C1  
          CORE-CORE REPULSION     =       -473.98905 EV

          DIELECTRIC ENERGY       =         -0.48861 EV
          COSMO AREA              =        398.85 SQUARE ANGSTROMS
          COSMO VOLUME            =        449.81 CUBIC ANGSTROMS

          IONIZATION POTENTIAL    =          7.339537 EV
          HOMO LUMO ENERGIES (EV) =         -7.340 -0.816
          NO. OF FILLED LEVELS    =         71
          MOLECULAR WEIGHT        =        381.4330

          MOLECULAR DIMENSIONS (Angstroms)

            Atom       Atom       Distance
            H    48    H    46    15.77815
            H    44    H    35    10.39850
            H    41    N     1     3.36129


          SCF CALCULATIONS        =          2
 
          WALL-CLOCK TIME         =  7 MINUTES AND 34.375 SECONDS
          COMPUTATION TIME        =  7 MINUTES AND 45.004 SECONDS




   ATOM   CHEMICAL          X               Y               Z
  NUMBER   SYMBOL      (ANGSTROMS)     (ANGSTROMS)     (ANGSTROMS)
 
     1       N          0.00024467  *   0.01061586  *   0.00709518  *
     2       C          1.15651682  *  -0.00117492  *  -0.00512540  *
     3       C          2.57438283  *  -0.00088712  *  -0.00237633  *
     4       C          3.30285476  *  -1.13288827  *   0.00236316  *
     5       C          2.71119463  *  -2.45700494  *  -0.05286809  *
     6       C          1.68977626  *  -2.73684205  *  -0.97370164  *
     7       C          1.10219457  *  -3.98787912  *  -1.04067323  *
     8       C          1.55843204  *  -4.95812248  *  -0.14983504  *
     9       C          2.61673698  *  -4.69135744  *   0.76622382  *
    10       C          3.19848150  *  -3.43925306  *   0.80820355  *
    11       C          2.85839004  *  -5.90731102  *   1.50106401  *
    12       C          3.75185458  *  -6.23739915  *   2.50752016  *
    13       C          3.71628770  *  -7.52448826  *   3.02268488  *
    14       C          2.79852232  *  -8.46869448  *   2.54991488  *
    15       C          1.89310966  *  -8.16572109  *   1.54479768  *
    16       C          1.94055589  *  -6.87843792  *   1.01840791  *
    17       N          1.15238263  *  -6.29100733  *   0.00599359  *
    18       C          0.10696890  *  -6.92829176  *  -0.70773337  *
    19       C         -1.14591677  *  -6.32052254  *  -0.78554359  *
    20       C         -2.16632194  *  -6.94699747  *  -1.48907289  *
    21       C         -1.93898722  *  -8.17428105  *  -2.11471133  *
    22       C         -0.67655618  *  -8.77826170  *  -2.02483112  *
    23       C          0.34639229  *  -8.15862400  *  -1.32719008  *
    24       N         -2.91135234  *  -8.85952295  *  -2.92650645  *
    25       C         -3.99734149  *  -8.00270066  *  -3.44921529  *
    26       C         -3.44521074  * -10.06148946  *  -2.23984021  *
    27       C          3.25296183  *   1.30119028  *   0.03173794  *
    28       O          4.45990869  *   1.49168134  *   0.08361530  *
    29       O          2.41545432  *   2.35719840  *  -0.00164159  *
    30       H          4.40117874  *  -1.08972536  *   0.06109815  *
    31       H          1.36261600  *  -1.96117696  *  -1.67481906  *
    32       H          0.31835240  *  -4.20612878  *  -1.76977718  *
    33       H          4.01098954  *  -3.23138736  *   1.51024956  *
    34       H          4.46160532  *  -5.49492067  *   2.88054849  *
    35       H          4.41384204  *  -7.80886381  *   3.81559476  *
    36       H          2.79432828  *  -9.47220847  *   2.98744390  *
    37       H          1.16822767  *  -8.90226923  *   1.19229138  *
    38       H         -1.33750068  *  -5.36430931  *  -0.28631674  *
    39       H         -3.14391382  *  -6.45741447  *  -1.52564588  *
    40       H         -0.48195369  *  -9.73344451  *  -2.52517678  *
    41       H          1.33608127  *  -8.62527081  *  -1.27947984  *
    42       H         -4.76716977  *  -7.68602023  *  -2.71985292  *
    43       H         -3.58431947  *  -7.09152248  *  -3.91504284  *
    44       H         -4.52532356  *  -8.55558960  *  -4.24640620  *
    45       H         -4.10303439  *  -9.85660681  *  -1.37366600  *
    46       H         -4.03041910  * -10.66256318  *  -2.95725451  *
    47       H         -2.62778884  * -10.70660770  *  -1.87545863  *
    48       H          2.90599349  *   3.19143526  *   0.02651741  *

                             CARTESIAN COORDINATES

   1    N        0.000244669     0.010615858     0.007095177
   2    C        1.156516822    -0.001174923    -0.005125402
   3    C        2.574382832    -0.000887121    -0.002376328
   4    C        3.302854764    -1.132888273     0.002363160
   5    C        2.711194633    -2.457004939    -0.052868088
   6    C        1.689776265    -2.736842047    -0.973701643
   7    C        1.102194571    -3.987879116    -1.040673233
   8    C        1.558432043    -4.958122481    -0.149835035
   9    C        2.616736977    -4.691357445     0.766223823
  10    C        3.198481502    -3.439253057     0.808203554
  11    C        2.858390038    -5.907311024     1.501064013
  12    C        3.751854583    -6.237399151     2.507520158
  13    C        3.716287700    -7.524488258     3.022684881
  14    C        2.798522315    -8.468694479     2.549914880
  15    C        1.893109663    -8.165721088     1.544797679
  16    C        1.940555890    -6.878437915     1.018407908
  17    N        1.152382631    -6.291007331     0.005993592
  18    C        0.106968898    -6.928291756    -0.707733368
  19    C       -1.145916771    -6.320522536    -0.785543590
  20    C       -2.166321940    -6.946997466    -1.489072886
  21    C       -1.938987225    -8.174281046    -2.114711332
  22    C       -0.676556184    -8.778261698    -2.024831121
  23    C        0.346392293    -8.158623999    -1.327190084
  24    N       -2.911352344    -8.859522954    -2.926506446
  25    C       -3.997341491    -8.002700657    -3.449215293
  26    C       -3.445210740   -10.061489460    -2.239840213
  27    C        3.252961835     1.301190283     0.031737936
  28    O        4.459908693     1.491681341     0.083615303
  29    O        2.415454322     2.357198401    -0.001641586
  30    H        4.401178744    -1.089725356     0.061098154
  31    H        1.362616004    -1.961176965    -1.674819062
  32    H        0.318352395    -4.206128783    -1.769777178
  33    H        4.010989543    -3.231387365     1.510249562
  34    H        4.461605317    -5.494920665     2.880548486
  35    H        4.413842036    -7.808863813     3.815594761
  36    H        2.794328278    -9.472208469     2.987443897
  37    H        1.168227665    -8.902269230     1.192291382
  38    H       -1.337500676    -5.364309314    -0.286316743
  39    H       -3.143913818    -6.457414468    -1.525645882
  40    H       -0.481953688    -9.733444508    -2.525176778
  41    H        1.336081270    -8.625270813    -1.279479835
  42    H       -4.767169768    -7.686020229    -2.719852920
  43    H       -3.584319472    -7.091522481    -3.915042844
  44    H       -4.525323563    -8.555589601    -4.246406201
  45    H       -4.103034395    -9.856606812    -1.373666003
  46    H       -4.030419102   -10.662563180    -2.957254515
  47    H       -2.627788836   -10.706607700    -1.875458627
  48    H        2.905993493     3.191435262     0.026517413


           Empirical Formula: C24 H19 N3 O2  =    48 atoms



      MOLECULAR POINT GROUP   :   C1  


                  EIGENVALUES  
 -48.66572 -46.83946 -45.61602 -43.54009 -42.69186 -41.18812 -39.64867 -39.07773
 -36.52522 -36.05311 -34.03489 -33.02676 -32.60229 -31.02024 -30.92797 -30.38137
 -29.11027 -27.50690 -26.40374 -25.58508 -24.95380 -24.45786 -24.33722 -24.05147
 -23.21406 -22.85519 -21.19115 -20.43525 -20.03284 -19.39041 -18.57440 -18.37299
 -18.32227 -17.51153 -16.87664 -16.76495 -16.61339 -16.40006 -15.98945 -15.93770
 -15.75082 -15.55223 -15.38031 -15.27784 -15.02760 -14.73667 -14.45767 -14.15897
 -13.93258 -13.68774 -13.39335 -13.32901 -13.03226 -12.88705 -12.84830 -12.66692
 -12.43031 -12.19702 -12.00377 -11.84858 -11.74362 -11.26617 -10.89117 -10.12330
  -9.83046  -9.76942  -9.11048  -8.87002  -8.31383  -7.77214  -7.33954  -0.81567
   0.16259   0.63279   0.75097   0.80166   0.89840   1.24548   1.46437   1.69619
   2.14891   2.52414   2.68716   2.85805   2.99240   3.11573   3.18873   3.40778
   3.47389   3.67120   3.85214   3.93540   4.07704   4.09267   4.24995   4.37665
   4.41343   4.78369   5.11768   5.54858   5.68813   5.78941   5.86680   6.17899
   6.38976   6.40373   6.52313   6.68621   6.84040   6.93231   7.21474   7.32812
   7.50636   7.91126   8.62080   8.71411   9.04855   9.11770   9.76222   9.79217
  10.61347  10.90979  11.04551  11.18747  11.60656  11.72642  11.95111  12.50956
  12.57961  12.64112  13.02400  13.08766  14.15045  14.78331  15.04907


              NET ATOMIC CHARGES AND DIPOLE CONTRIBUTIONS

  ATOM NO.   TYPE          CHARGE      No. of ELECS.   s-Pop       p-Pop       
    1          N          -0.408527        5.4085     1.75361     3.65492
    2          C           0.224599        3.7754     1.14950     2.62590
    3          C           0.013051        3.9869     0.99984     2.98711
    4          C           0.141169        3.8588     1.10718     2.75165
    5          C          -0.003467        4.0035     1.03495     2.96852
    6          C          -0.007369        4.0074     1.08330     2.92407
    7          C          -0.039371        4.0394     1.07759     2.96178
    8          C           0.092661        3.9073     1.05144     2.85590
    9          C          -0.011897        4.0119     1.04880     2.96310
   10          C          -0.002453        4.0025     1.08091     2.92154
   11          C          -0.014781        4.0148     1.04698     2.96780
   12          C          -0.018160        4.0182     1.07925     2.93891
   13          C          -0.044322        4.0443     1.07762     2.96670
   14          C          -0.023389        4.0234     1.08076     2.94263
   15          C          -0.040286        4.0403     1.07647     2.96381
   16          C           0.078998        3.9210     1.05078     2.87022
   17          N          -0.125490        5.1255     1.22776     3.89773
   18          C           0.080835        3.9192     1.03582     2.88335
   19          C          -0.027798        4.0278     1.08166     2.94614
   20          C          -0.035492        4.0355     1.07920     2.95629
   21          C           0.093201        3.9068     1.04863     2.85817
   22          C          -0.035345        4.0353     1.08194     2.95340
   23          C          -0.026353        4.0264     1.08127     2.94508
   24          N          -0.235698        5.2357     1.40606     3.82964
   25          C           0.047926        3.9521     1.05821     2.89386
   26          C           0.053146        3.9469     1.05695     2.88990
   27          C           0.503420        3.4966     1.04643     2.45015
   28          O          -0.617525        6.6175     1.81674     4.80078
   29          O          -0.310175        6.3102     1.68700     4.62318
   30          H           0.068944        0.9311     0.93106
   31          H           0.031048        0.9690     0.96895
   32          H           0.031775        0.9682     0.96822
   33          H           0.034943        0.9651     0.96506
   34          H           0.025542        0.9745     0.97446
   35          H           0.016108        0.9839     0.98389
   36          H           0.019308        0.9807     0.98069
   37          H           0.029341        0.9707     0.97066
   38          H           0.029472        0.9705     0.97053
   39          H           0.027924        0.9721     0.97208
   40          H           0.024722        0.9753     0.97528
   41          H           0.029811        0.9702     0.97019
   42          H           0.021289        0.9787     0.97871
   43          H           0.011463        0.9885     0.98854
   44          H           0.005815        0.9942     0.99418
   45          H           0.018980        0.9810     0.98102
   46          H           0.009383        0.9906     0.99062
   47          H           0.014167        0.9858     0.98583
   48          H           0.248855        0.7511     0.75114
 DIPOLE           X         Y         Z       TOTAL
 POINT-CHG.    -0.671    -5.460    -0.497     5.524
 HYBRID         0.527     0.998     0.935     1.466
 SUM           -0.144    -4.462     0.438     4.486


          ATOMIC ORBITAL ELECTRON POPULATIONS

     Atom    s        px        py        pz   
    1  N   1.75361   1.23159   1.23204   1.19129
    2  C   1.14950   0.95139   0.80524   0.86927
    3  C   0.99984   0.90263   0.92058   1.16390
    4  C   1.10718   0.98994   1.01045   0.75126
    5  C   1.03495   1.00942   0.95398   1.00512
    6  C   1.08330   0.97051   0.97403   0.97954
    7  C   1.07759   0.99294   0.98304   0.98580
    8  C   1.05144   0.98058   0.88855   0.98677
    9  C   1.04880   1.00203   0.95694   1.00413
   10  C   1.08091   0.96715   0.97464   0.97975
   11  C   1.04698   0.99765   0.97776   0.99239
   12  C   1.07925   0.97546   0.97414   0.98930
   13  C   1.07762   0.98932   0.99189   0.98549
   14  C   1.08076   1.00032   0.95375   0.98856
   15  C   1.07647   0.99445   0.96053   1.00884
   16  C   1.05078   0.96247   0.97260   0.93515
   17  N   1.22776   1.35709   1.14898   1.39166
   18  C   1.03582   0.93015   0.97800   0.97520
   19  C   1.08166   0.98127   0.96234   1.00253
   20  C   1.07920   0.96017   0.97560   1.02052
   21  C   1.04863   0.94508   0.97038   0.94270
   22  C   1.08194   0.98186   0.96393   1.00762
   23  C   1.08127   0.96069   0.97825   1.00615
   24  N   1.40606   1.21663   1.15842   1.45459
   25  C   1.05821   0.94613   0.96405   0.98368
   26  C   1.05695   0.98383   0.92592   0.98016
   27  C   1.04643   0.88073   0.90700   0.66243
   28  O   1.81674   1.27803   1.95983   1.56292
   29  O   1.68700   1.53069   1.20596   1.88653
   30  H   0.93106
   31  H   0.96895
   32  H   0.96822
   33  H   0.96506
   34  H   0.97446
   35  H   0.98389
   36  H   0.98069
   37  H   0.97066
   38  H   0.97053
   39  H   0.97208
   40  H   0.97528
   41  H   0.97019
   42  H   0.97871
   43  H   0.98854
   44  H   0.99418
   45  H   0.98102
   46  H   0.99062
   47  H   0.98583
   48  H   0.75114

 **********************
 *                    *
 * JOB ENDED NORMALLY *
 *                    *
 **********************



 TOTAL JOB TIME:           454.74 SECONDS

 == MOPAC DONE ==
