 *******************************************************************************
 ** Site#: 4824         For non-commercial use only    Version 21.013L 64BITS **
 *******************************************************************************
 ** Cite this program as: MOPAC2016, Version: 21.013L, James J. P. Stewart,   **
 ** Stewart Computational Chemistry, web: HTTP://OpenMOPAC.net. Days left:  84**
 *******************************************************************************
 **                                                                           **
 **                                MOPAC2016                                  **
 **                                                                           **
 *******************************************************************************

                              INDO CALCULATION RESULTS

 *******************************************************************************
 *  CALCULATION DONE:                                Thu Oct 21 15:53:13 2021  *
 *  INDO       - The INDO Hamiltonian to be used
 *  CIS        - C.I. USES 1 ELECTRON EXCITATIONS ONLY
 *  EPS=  8.93 - USE ANDREAS KLAMT'S COSMO IMPLICIT SOLVATION MODEL
 *  n**2 =  1.420 for COSMO-CI
 *  T=         - A TIME OF 172800.0 SECONDS REQUESTED
 *  DUMP=N     - RESTART FILE WRITTEN EVERY 7200.0 SECONDS REQUESTED
 *******************************************************************************
INDO CIS EPS=8.93 N**2=1.42
 Dye73
 Calculo de Estados Excitados
   ATOM   CHEMICAL          X               Y               Z
  NUMBER   SYMBOL      (ANGSTROMS)     (ANGSTROMS)     (ANGSTROMS)
 
     1       C          0.00000000  *   0.00000000  *   0.00000000  *
     2       C          1.51999756  *   0.00000000  *   0.00000000  *
     3       C          2.06117700  *   1.42750434  *   0.00000000  *
     4       C          3.58780381  *   1.42876699  *  -0.00527531  *
     5       C          4.13088246  *   2.85714300  *   0.00870167  *
     6       C          5.65508982  *   2.84833797  *  -0.05218663  *
     7       C          6.24791375  *   4.24691939  *   0.09104186  *
     8       C          5.79552652  *   5.16960632  *  -1.05242230  *
     9       N          6.77512583  *   6.21936818  *  -1.33580793  *
    10       C          8.03737555  *   5.90716606  *  -1.87518457  *
    11       C          8.43951590  *   4.75453575  *  -2.55066736  *
    12       C          9.72846262  *   4.72193760  *  -3.05016399  *
    13       C         10.60524147  *   5.80499530  *  -2.87914621  *
    14       C         10.20803152  *   6.95112231  *  -2.19392872  *
    15       C          8.92079770  *   7.00332840  *  -1.68701243  *
    16       C          8.19595238  *   8.00199591  *  -0.93878868  *
    17       C          6.88814323  *   7.47859617  *  -0.69374343  *
    18       C          5.93499813  *   8.20887690  *   0.01188421  *
    19       C          4.58251244  *   7.73986574  *   0.29065626  *
    20       C          3.56809590  *   7.96285779  *  -0.64284382  *
    21       C          2.26462034  *   7.60082308  *  -0.35265404  *
    22       C          1.97780543  *   7.02166363  *   0.89270870  *
    23       C          2.98471200  *   6.77672042  *   1.82243998  *
    24       C          4.29179941  *   7.13584284  *   1.50837654  *
    25       O          0.64744865  *   6.80020633  *   1.09150556  *
    26       C          0.26438084  *   5.97908272  *   2.16743414  *
    27       C          0.62497060  *   4.52517591  *   1.90094670  *
    28       C          6.32100173  *   9.46403635  *   0.45774670  *
    29       C          7.63044422  *   9.98606027  *   0.21599606  *
    30       C          8.58348520  *   9.25492484  *  -0.48496511  *
    31       C          9.93634045  *   9.73514423  *  -0.74137446  *
    32       C         10.23667114  *  10.35805171  *  -1.95492950  *
    33       C         11.52042708  *  10.80772047  *  -2.20641491  *
    34       C         12.51158851  *  10.62254727  *  -1.23026312  *
    35       C         12.22643715  *   9.99273006  *  -0.02198558  *
    36       C         10.92811792  *   9.55037109  *   0.21426943  *
    37       O         13.73555114  *  11.08566304  *  -1.60962558  *
    38       C         14.73660487  *  11.16626616  *  -0.61456929  *
    39       C         15.89193006  *  11.89484746  *  -1.29375785  *
    40       N          7.76122725  *  11.23919697  *   0.87612253  *
    41       C          6.48096940  *  11.56135754  *   1.39283142  *
    42       C          5.59580285  *  10.46951296  *   1.19979905  *
    43       C          4.30271582  *  10.53432143  *   1.69418927  *
    44       C          3.90547047  *  11.68122377  *   2.36735128  *
    45       C          4.78256513  *  12.75292106  *   2.54701324  *
    46       C          6.08140164  *  12.71423462  *   2.06321008  *
    47       C          8.66579632  *  12.31071245  *   0.44528313  *
    48       C          8.13869932  *  13.04884889  *  -0.79164790  *
    49       C          9.12932806  *  14.11001924  *  -1.26390136  *
    50       C          9.29035861  *  15.25967091  *  -0.26604017  *
    51       C         10.64356681  *  15.23911269  *   0.44368064  *
    52       C         11.77569802  *  15.76086261  *  -0.43994578  *
    53       C         11.82451393  *  17.28679160  *  -0.46184364  *
    54       C         12.94751543  *  17.77541819  *  -1.36305237  *
    55       C         11.94473222  *   5.73577373  *  -3.41148692  *
    56       C         13.07304511  *   6.22436727  *  -2.80021468  *
    57       C         14.23225206  *   6.01827755  *  -3.59548670  *
    58       C         13.94475272  *   5.37105863  *  -4.78009540  *
    59       S         12.28109818  *   5.03720623  *  -4.92157951  *
    60       C         14.94913818  *   5.05305412  *  -5.74491306  *
    61       C         14.78508300  *   4.27247440  *  -6.83538153  *
    62       C         15.92336021  *   4.04870954  *  -7.73343946  *
    63       O         17.05440303  *   4.49849367  *  -7.60748283  *
    64       O         15.64140422  *   3.25959676  *  -8.79046900  *
    65       C         13.56649840  *   3.63598633  *  -7.17164355  *
    66       N         12.58424625  *   3.10214751  *  -7.46970880  *
    67       H         15.94061497  *   5.49745711  *  -5.55208596  *
    68       H         -0.41721889  *   0.50530244  *  -0.88300589  *
    69       H         -0.40907061  *  -1.02075333  *   0.00078634  *
    70       H         -0.41735304  *   0.50684396  *   0.88202995  *
    71       H          1.90232441  *  -0.56166578  *   0.87855044  *
    72       H          1.90214644  *  -0.56108190  *  -0.87900283  *
    73       H          1.66975257  *   1.98609903  *  -0.87652420  *
    74       H          1.67653465  *   1.98400781  *   0.88140157  *
    75       H          3.97626865  *   0.85931350  *   0.86556849  *
    76       H          3.96954513  *   0.88006486  *  -0.89228647  *
    77       H          3.70501467  *   3.43326267  *  -0.83918350  *
    78       H          3.78542884  *   3.39413074  *   0.91712300  *
    79       H          6.06580595  *   2.19511761  *   0.74820653  *
    80       H          6.00348028  *   2.37642957  *  -0.99614001  *
    81       H          5.97460549  *   4.69358578  *   1.07073591  *
    82       H          7.35663684  *   4.16795902  *   0.12622582  *
    83       H          5.63515441  *   4.59965904  *  -1.99854470  *
    84       H          4.80644949  *   5.62849396  *  -0.82972813  *
    85       H          7.76913038  *   3.90300053  *  -2.68394625  *
    86       H         10.07103617  *   3.82708484  *  -3.58097202  *
    87       H         10.89178088  *   7.79531064  *  -2.06578112  *
    88       H          3.80533203  *   8.43298993  *  -1.60271279  *
    89       H          1.46307451  *   7.77741241  *  -1.07604729  *
    90       H          2.78211474  *   6.32725671  *   2.79698408  *
    91       H          5.09219643  *   6.95725057  *   2.23389162  *
    92       H          0.65094883  *   6.33746340  *   3.14744188  *
    93       H         -0.83680245  *   6.13402975  *   2.19271714  *
    94       H          0.22093330  *   4.17082407  *   0.94115340  *
    95       H          1.71019143  *   4.35492173  *   1.86694405  *
    96       H          0.22145990  *   3.86606659  *   2.68260811  *
    97       H          9.45303018  *  10.48885514  *  -2.70844509  *
    98       H         11.76475068  *  11.29717704  *  -3.15389069  *
    99       H         12.98214231  *   9.82675091  *   0.74813165  *
   100       H         10.68819393  *   9.05373931  *   1.16021998  *
   101       H         14.38658028  *  11.71959540  *   0.28630335  *
   102       H         15.04638387  *  10.15206964  *  -0.27482250  *
   103       H         16.25623508  *  11.36007447  *  -2.18274168  *
   104       H         15.60911560  *  12.90416284  *  -1.62562222  *
   105       H         16.74266927  *  12.00298846  *  -0.60650923  *
   106       H          3.60470830  *   9.70415876  *   1.55572969  *
   107       H          2.88816628  *  11.74989848  *   2.76243141  *
   108       H          4.43578740  *  13.64411810  *   3.07961828  *
   109       H          6.75521080  *  13.56035944  *   2.20921928  *
   110       H          8.80008868  *  13.00442800  *   1.30756847  *
   111       H          9.68094229  *  11.89226546  *   0.26381176  *
   112       H          7.94750907  *  12.32220103  *  -1.61143733  *
   113       H          7.14485997  *  13.49963605  *  -0.58403941  *
   114       H         10.10366441  *  13.63354259  *  -1.50434665  *
   115       H          8.78439971  *  14.50924438  *  -2.24252763  *
   116       H          9.14699058  *  16.23192082  *  -0.78341762  *
   117       H          8.47188379  *  15.25186389  *   0.48564149  *
   118       H         10.58839056  *  15.82941635  *   1.38343136  *
   119       H         10.87826988  *  14.20959485  *   0.78989995  *
   120       H         12.74813339  *  15.36313550  *  -0.07739556  *
   121       H         11.68581897  *  15.36458726  *  -1.47284233  *
   122       H         10.85593446  *  17.71039034  *  -0.79985614  *
   123       H         11.96009672  *  17.68715072  *   0.56544345  *
   124       H         12.82155582  *  17.44425228  *  -2.40398267  *
   125       H         13.00440560  *  18.87336079  *  -1.38716085  *
   126       H         13.93332389  *  17.41662659  *  -1.03367058  *
   127       H         13.09769451  *   6.70362821  *  -1.82468613  *
   128       H         15.22622130  *   6.33640749  *  -3.28594073  *
   129       H         16.42039147  *   3.14143415  *  -9.35290244  *
 


          CARTESIAN COORDINATES 

    NO.       ATOM           X           Y           Z

     1         C          0.0000      0.0000      0.0000
     2         C          1.5200      0.0000      0.0000
     3         C          2.0612      1.4275      0.0000
     4         C          3.5878      1.4288     -0.0053
     5         C          4.1309      2.8571      0.0087
     6         C          5.6551      2.8483     -0.0522
     7         C          6.2479      4.2469      0.0910
     8         C          5.7955      5.1696     -1.0524
     9         N          6.7751      6.2194     -1.3358
    10         C          8.0374      5.9072     -1.8752
    11         C          8.4395      4.7545     -2.5507
    12         C          9.7285      4.7219     -3.0502
    13         C         10.6052      5.8050     -2.8791
    14         C         10.2080      6.9511     -2.1939
    15         C          8.9208      7.0033     -1.6870
    16         C          8.1960      8.0020     -0.9388
    17         C          6.8881      7.4786     -0.6937
    18         C          5.9350      8.2089      0.0119
    19         C          4.5825      7.7399      0.2907
    20         C          3.5681      7.9629     -0.6428
    21         C          2.2646      7.6008     -0.3527
    22         C          1.9778      7.0217      0.8927
    23         C          2.9847      6.7767      1.8224
    24         C          4.2918      7.1358      1.5084
    25         O          0.6474      6.8002      1.0915
    26         C          0.2644      5.9791      2.1674
    27         C          0.6250      4.5252      1.9009
    28         C          6.3210      9.4640      0.4577
    29         C          7.6304      9.9861      0.2160
    30         C          8.5835      9.2549     -0.4850
    31         C          9.9363      9.7351     -0.7414
    32         C         10.2367     10.3581     -1.9549
    33         C         11.5204     10.8077     -2.2064
    34         C         12.5116     10.6225     -1.2303
    35         C         12.2264      9.9927     -0.0220
    36         C         10.9281      9.5504      0.2143
    37         O         13.7356     11.0857     -1.6096
    38         C         14.7366     11.1663     -0.6146
    39         C         15.8919     11.8948     -1.2938
    40         N          7.7612     11.2392      0.8761
    41         C          6.4810     11.5614      1.3928
    42         C          5.5958     10.4695      1.1998
    43         C          4.3027     10.5343      1.6942
    44         C          3.9055     11.6812      2.3674
    45         C          4.7826     12.7529      2.5470
    46         C          6.0814     12.7142      2.0632
    47         C          8.6658     12.3107      0.4453
    48         C          8.1387     13.0488     -0.7916
    49         C          9.1293     14.1100     -1.2639
    50         C          9.2904     15.2597     -0.2660
    51         C         10.6436     15.2391      0.4437
    52         C         11.7757     15.7609     -0.4399
    53         C         11.8245     17.2868     -0.4618
    54         C         12.9475     17.7754     -1.3631
    55         C         11.9447      5.7358     -3.4115
    56         C         13.0730      6.2244     -2.8002
    57         C         14.2323      6.0183     -3.5955
    58         C         13.9448      5.3711     -4.7801
    59         S         12.2811      5.0372     -4.9216
    60         C         14.9491      5.0531     -5.7449
    61         C         14.7851      4.2725     -6.8354
    62         C         15.9234      4.0487     -7.7334
    63         O         17.0544      4.4985     -7.6075
    64         O         15.6414      3.2596     -8.7905
    65         C         13.5665      3.6360     -7.1716
    66         N         12.5842      3.1021     -7.4697
    67         H         15.9406      5.4975     -5.5521
    68         H         -0.4172      0.5053     -0.8830
    69         H         -0.4091     -1.0208      0.0008
    70         H         -0.4174      0.5068      0.8820
    71         H          1.9023     -0.5617      0.8786
    72         H          1.9021     -0.5611     -0.8790
    73         H          1.6698      1.9861     -0.8765
    74         H          1.6765      1.9840      0.8814
    75         H          3.9763      0.8593      0.8656
    76         H          3.9695      0.8801     -0.8923
    77         H          3.7050      3.4333     -0.8392
    78         H          3.7854      3.3941      0.9171
    79         H          6.0658      2.1951      0.7482
    80         H          6.0035      2.3764     -0.9961
    81         H          5.9746      4.6936      1.0707
    82         H          7.3566      4.1680      0.1262
    83         H          5.6352      4.5997     -1.9985
    84         H          4.8064      5.6285     -0.8297
    85         H          7.7691      3.9030     -2.6839
    86         H         10.0710      3.8271     -3.5810
    87         H         10.8918      7.7953     -2.0658
    88         H          3.8053      8.4330     -1.6027
    89         H          1.4631      7.7774     -1.0760
    90         H          2.7821      6.3273      2.7970
    91         H          5.0922      6.9573      2.2339
    92         H          0.6509      6.3375      3.1474
    93         H         -0.8368      6.1340      2.1927
    94         H          0.2209      4.1708      0.9412
    95         H          1.7102      4.3549      1.8669
    96         H          0.2215      3.8661      2.6826
    97         H          9.4530     10.4889     -2.7084
    98         H         11.7648     11.2972     -3.1539
    99         H         12.9821      9.8268      0.7481
   100         H         10.6882      9.0537      1.1602
   101         H         14.3866     11.7196      0.2863
   102         H         15.0464     10.1521     -0.2748
   103         H         16.2562     11.3601     -2.1827
   104         H         15.6091     12.9042     -1.6256
   105         H         16.7427     12.0030     -0.6065
   106         H          3.6047      9.7042      1.5557
   107         H          2.8882     11.7499      2.7624
   108         H          4.4358     13.6441      3.0796
   109         H          6.7552     13.5604      2.2092
   110         H          8.8001     13.0044      1.3076
   111         H          9.6809     11.8923      0.2638
   112         H          7.9475     12.3222     -1.6114
   113         H          7.1449     13.4996     -0.5840
   114         H         10.1037     13.6335     -1.5043
   115         H          8.7844     14.5092     -2.2425
   116         H          9.1470     16.2319     -0.7834
   117         H          8.4719     15.2519      0.4856
   118         H         10.5884     15.8294      1.3834
   119         H         10.8783     14.2096      0.7899
   120         H         12.7481     15.3631     -0.0774
   121         H         11.6858     15.3646     -1.4728
   122         H         10.8559     17.7104     -0.7999
   123         H         11.9601     17.6872      0.5654
   124         H         12.8216     17.4443     -2.4040
   125         H         13.0044     18.8734     -1.3872
   126         H         13.9333     17.4166     -1.0337
   127         H         13.0977      6.7036     -1.8247
   128         H         15.2262      6.3364     -3.2859
   129         H         16.4204      3.1414     -9.3529

           Empirical Formula: C58 H63 N3 O4 S  =   129 atoms



      MOLECULAR POINT GROUP   :   C1  


      RHF CALCULATION, NO. OF DOUBLY OCCUPIED LEVELS = 170

 WARNING: INDO only performs single-point calculations

 Summary of symmetry occupancy in each shell:

 SHELL     
    1  170
    v  157
 TOTAL 327




    ROOT NO.    1           2           3           4           5           6

           -49.19370   -48.03862   -47.21688   -46.94296   -46.74663   -44.38760
  
  
  S  C   1   0.00111     0.00203     0.00312     0.00026    -0.00002     0.01038
 PX  C   1   0.00048     0.00087     0.00114     0.00008    -0.00001     0.00413
 PY  C   1   0.00020     0.00033     0.00067     0.00007    -0.00000     0.00115
 PZ  C   1   0.00001     0.00000     0.00014     0.00002     0.00000    -0.00005
  
  S  C   2   0.00254     0.00449     0.00522     0.00030    -0.00006     0.01991
 PX  C   2   0.00051     0.00084     0.00029    -0.00005    -0.00001     0.00242
 PY  C   2   0.00088     0.00148     0.00186     0.00013    -0.00002     0.00544
 PZ  C   2   0.00000    -0.00001     0.00021     0.00004     0.00000    -0.00009
  
  S  C   3   0.00571     0.00936     0.00980     0.00050    -0.00011     0.03142
 PX  C   3   0.00190     0.00302     0.00060    -0.00026    -0.00004     0.00825
 PY  C   3   0.00061     0.00073     0.00132     0.00015    -0.00000    -0.00092
 PZ  C   3   0.00000    -0.00002     0.00109     0.00018     0.00000    -0.00043
  
  S  C   4   0.01090     0.01719     0.00854    -0.00057    -0.00022     0.04621
 PX  C   4   0.00168     0.00238    -0.00142    -0.00047    -0.00003     0.00181
 PY  C   4   0.00368     0.00542     0.00212    -0.00025    -0.00007     0.01063
 PZ  C   4  -0.00021    -0.00030     0.00048     0.00010     0.00000    -0.00032
  
  S  C   5   0.02425     0.03512     0.01047    -0.00210    -0.00043     0.06669
 PX  C   5   0.00728     0.01023    -0.00155    -0.00125    -0.00013     0.01277
 PY  C   5   0.00333     0.00363     0.00054    -0.00028    -0.00003    -0.00033
 PZ  C   5  -0.00138    -0.00194     0.00120     0.00036     0.00003    -0.00196
  
  S  C   6   0.03741     0.05282     0.00393    -0.00448    -0.00062     0.07357
 PX  C   6   0.00090     0.00074    -0.00287    -0.00027     0.00001    -0.00888
 PY  C   6   0.01368     0.01799     0.00003    -0.00163    -0.00020     0.01637
 PZ  C   6  -0.00292    -0.00394     0.00085     0.00039     0.00004    -0.00113
  
  S  C   7   0.07995     0.10353    -0.00229    -0.00926    -0.00113     0.08877
 PX  C   7   0.00062     0.00060    -0.00451    -0.00007     0.00003    -0.01557
 PY  C   7   0.02239     0.02525    -0.00240    -0.00233    -0.00026     0.00723
 PZ  C   7  -0.02308    -0.02999     0.00369     0.00270     0.00031    -0.01430
  
  S  C   8   0.14266     0.17518    -0.00940    -0.01578    -0.00187     0.11092
 PX  C   8   0.04818     0.06136    -0.01445    -0.00557    -0.00060     0.00726
 PY  C   8   0.03853     0.04125    -0.00329    -0.00389    -0.00044     0.01491
 PZ  C   8   0.00082    -0.00051     0.00482    -0.00004    -0.00003     0.01604
  
  S  N   9   0.30921     0.35949    -0.05572    -0.03076    -0.00357     0.08612
 PX  N   9   0.05612     0.06547    -0.02077    -0.00378    -0.00046    -0.03418
 PY  N   9   0.02707     0.01683    -0.00522    -0.00163    -0.00021    -0.00688
 PZ  N   9   0.01980     0.01802     0.00108    -0.00244    -0.00029     0.02450
  
  S  C  10   0.23694     0.28511    -0.06146    -0.01570    -0.00133    -0.08179
 PX  C  10  -0.04039    -0.04716     0.00273     0.00852     0.00131    -0.07690
 PY  C  10   0.05870     0.05873    -0.01416    -0.00311    -0.00066    -0.00565
 PZ  C  10   0.04381     0.04700    -0.00751    -0.00483    -0.00081     0.02875
  
  S  C  11   0.09579     0.12753    -0.03023    -0.00412     0.00061    -0.10355
 PX  C  11  -0.00446    -0.00415    -0.00246     0.00289     0.00082    -0.04859
 PY  C  11   0.04035     0.05126    -0.01260    -0.00160     0.00006    -0.03724
 PZ  C  11   0.02143     0.02672    -0.00497    -0.00197    -0.00029     0.00240
  
  S  C  12   0.05945     0.08210    -0.02392     0.00179     0.00269    -0.14897
 PX  C  12  -0.01109    -0.01504     0.00315     0.00140     0.00088    -0.00207
 PY  C  12   0.02258     0.03000    -0.00904     0.00114     0.00080    -0.05349
 PZ  C  12   0.01482     0.01980    -0.00539    -0.00000     0.00006    -0.02384
  
  S  C  13   0.06289     0.08283    -0.02715     0.00820     0.00576    -0.20240
 PX  C  13  -0.02259    -0.02992     0.00798     0.00116     0.00187     0.02202
 PY  C  13   0.00485     0.00322    -0.00195     0.00308     0.00006    -0.01024
 PZ  C  13   0.01101     0.01308    -0.00405     0.00117    -0.00052    -0.01491
  
  S  C  14   0.08910     0.09671    -0.03388     0.01760     0.00272    -0.18936
 PX  C  14  -0.03461    -0.03954     0.01039     0.00220     0.00089     0.02302
 PY  C  14  -0.01191    -0.02596     0.00528     0.00649    -0.00104     0.03917
 PZ  C  14   0.00744     0.00288    -0.00144     0.00217    -0.00075     0.00910
  
  S  C  15   0.20362     0.21353    -0.05813     0.00283    -0.00036    -0.15155
 PX  C  15  -0.06858    -0.07429     0.01309     0.01181     0.00132    -0.03779
 PY  C  15  -0.01295    -0.03735     0.00579     0.00673    -0.00033     0.02111
 PZ  C  15   0.01969     0.01047    -0.00211    -0.00130    -0.00064     0.02456
  
  S  C  16   0.24440     0.15143    -0.04882    -0.00142    -0.00168    -0.05919
 PX  C  16  -0.04489    -0.03078     0.00179     0.01573     0.00053    -0.05021
 PY  C  16  -0.03600    -0.09518     0.01320     0.00925     0.00055    -0.00530
 PZ  C  16  -0.00048    -0.03373     0.00572    -0.00150     0.00006     0.01697
  
  S  C  17   0.27787     0.21340    -0.03335    -0.02606    -0.00253     0.07940
 PX  C  17   0.04049     0.04113    -0.02246     0.00019    -0.00032    -0.05237
 PY  C  17  -0.02999    -0.09534     0.01337     0.00279     0.00073    -0.00531
 PZ  C  17  -0.03073    -0.06159     0.01519     0.00132     0.00047     0.01845
  
  S  C  18   0.18664     0.03276     0.02926    -0.02516    -0.00099     0.16854
 PX  C  18   0.04030     0.00821    -0.02668    -0.00513    -0.00027    -0.03819
 PY  C  18   0.00737    -0.05503    -0.00084    -0.00508     0.00039    -0.00789
 PZ  C  18  -0.01167    -0.02893     0.00958    -0.00051     0.00028     0.01090
  
  S  C  19   0.10967     0.03725     0.11952    -0.00498    -0.00047     0.24401
 PX  C  19   0.01804     0.00449    -0.04401    -0.00876    -0.00026    -0.02051
 PY  C  19   0.00350    -0.01562    -0.00959    -0.00347     0.00007    -0.00292
 PZ  C  19  -0.00453    -0.00889     0.01225     0.00154     0.00013     0.00683
  
  S  C  20   0.06292     0.02583     0.12045     0.00447    -0.00014     0.17849
 PX  C  20   0.01577     0.00535    -0.01660    -0.00569    -0.00019     0.01993
 PY  C  20  -0.00679    -0.00841    -0.02263    -0.00243     0.00003    -0.02294
 PZ  C  20   0.01921     0.00588     0.04812     0.00264     0.00001     0.06208
  
  S  C  21   0.03998     0.02125     0.19478     0.02244     0.00035     0.10343
 PX  C  21   0.01348     0.00483    -0.00486    -0.00493    -0.00017     0.06792
 PY  C  21  -0.00275    -0.00355    -0.03435    -0.00544    -0.00010     0.00444
 PZ  C  21   0.01158     0.00637     0.08086     0.01073     0.00021     0.01836
  
  S  C  22   0.04734     0.03122     0.40093     0.05732     0.00113     0.01857
 PX  C  22   0.00559    -0.00233    -0.12099    -0.02398    -0.00058     0.11524
 PY  C  22   0.00123    -0.00172    -0.03638    -0.00719    -0.00016     0.03337
 PZ  C  22  -0.00054     0.00094     0.04144     0.00773     0.00019    -0.03244
  
  S  C  23   0.04196     0.02259     0.22191     0.02674     0.00045     0.09389
 PX  C  23   0.00378    -0.00115    -0.06819    -0.01332    -0.00032     0.05364
 PY  C  23   0.00714     0.00130     0.01416     0.00008    -0.00001     0.03054
 PZ  C  23  -0.01529    -0.00816    -0.06122    -0.00625    -0.00008    -0.04594
  
  S  C  24   0.06434     0.02487     0.12701     0.00501    -0.00011     0.17974
 PX  C  24   0.00126    -0.00126    -0.04710    -0.00723    -0.00016    -0.01925
 PY  C  24   0.00993    -0.00284     0.00735    -0.00181    -0.00001     0.02570
 PZ  C  24  -0.02321    -0.01098    -0.03114     0.00025     0.00011    -0.06111
  
  S  O  25   0.03863     0.03557     0.60578     0.09796     0.00212    -0.18505
 PX  O  25   0.00874     0.00723     0.11445     0.01792     0.00038    -0.02116
 PY  O  25  -0.00313    -0.00351    -0.06210    -0.01040    -0.00023     0.02693
 PZ  O  25   0.00430     0.00446     0.08219     0.01367     0.00030    -0.03393
  
  S  C  26   0.02012     0.01922     0.32892     0.05361     0.00116    -0.11111
 PX  C  26   0.00585     0.00522     0.08453     0.01350     0.00029    -0.02198
 PY  C  26   0.00451     0.00412     0.07447     0.01210     0.00026    -0.02399
 PZ  C  26  -0.00774    -0.00749    -0.13009    -0.02126    -0.00046     0.04463
  
  S  C  27   0.01047     0.01032     0.16304     0.02649     0.00056    -0.05345
 PX  C  27   0.00096     0.00080     0.00533     0.00067     0.00001     0.00263
 PY  C  27   0.00503     0.00471     0.08345     0.01361     0.00030    -0.02830
 PZ  C  27  -0.00087    -0.00088    -0.01269    -0.00205    -0.00004     0.00362
  
  S  C  28   0.24231    -0.14995     0.01253    -0.05025     0.00026     0.11423
 PX  C  28   0.04551    -0.03096    -0.01396    -0.00593     0.00003    -0.03506
 PY  C  28   0.03553    -0.09279    -0.00475    -0.01571     0.00065    -0.01858
 PZ  C  28   0.00011    -0.03240     0.00307    -0.00537     0.00029     0.00531
  
  S  C  29   0.27994    -0.21512    -0.01454    -0.03977     0.00053    -0.01915
 PX  C  29  -0.03763     0.03787    -0.00663     0.02357    -0.00022    -0.05658
 PY  C  29   0.03097    -0.09566     0.00092    -0.01389     0.00067    -0.02050
 PZ  C  29   0.02945    -0.05952     0.00306    -0.01583     0.00040     0.01457
  
  S  C  30   0.19037    -0.03691    -0.03082     0.02400    -0.00058    -0.10688
 PX  C  30  -0.03993     0.00749    -0.00279     0.02895     0.00004    -0.05177
 PY  C  30  -0.00551    -0.05734     0.00392     0.00330     0.00034    -0.01428
 PZ  C  30   0.01170    -0.02925     0.00295    -0.00891     0.00014     0.01365
  
  S  C  31   0.11413    -0.04430    -0.03813     0.12178    -0.00079    -0.20717
 PX  C  31  -0.01906     0.00498    -0.00445     0.04671    -0.00029    -0.02406
 PY  C  31  -0.00165    -0.01739    -0.00037     0.01346    -0.00007    -0.00834
 PZ  C  31   0.00481    -0.00915     0.00162    -0.00985     0.00005     0.00798
  
  S  C  32   0.06749    -0.03042    -0.03071     0.12559    -0.00082    -0.16182
 PX  C  32  -0.00224    -0.00076    -0.00612     0.04484    -0.00034    -0.01880
 PY  C  32  -0.00919    -0.00336     0.00321    -0.00554    -0.00001     0.01876
 PZ  C  32   0.02466    -0.01334    -0.00955     0.03589    -0.00024    -0.05321
  
  S  C  33   0.04205    -0.02501    -0.03504     0.20083    -0.00163    -0.09315
 PX  C  33  -0.00590     0.00125    -0.00495     0.05205    -0.00056     0.04474
 PY  C  33  -0.00799     0.00222     0.00446    -0.01825     0.00008     0.02816
 PZ  C  33   0.01598    -0.01000    -0.01247     0.07000    -0.00057    -0.03687
  
  S  C  34   0.04666    -0.03338    -0.06059     0.40354    -0.00364    -0.01001
 PX  C  34  -0.00712    -0.00015    -0.01270     0.12301    -0.00134     0.10852
 PY  C  34  -0.00220    -0.00104    -0.00402     0.03980    -0.00046     0.03598
 PZ  C  34   0.00160    -0.00070     0.00126    -0.01366     0.00015    -0.01465
  
  S  C  35   0.04165    -0.02546    -0.03737     0.22146    -0.00184    -0.07939
 PX  C  35  -0.01351     0.00583     0.00131     0.01685    -0.00028     0.06515
 PY  C  35   0.00269    -0.00391    -0.00572     0.04288    -0.00043     0.00967
 PZ  C  35  -0.01191     0.00727     0.01297    -0.08106     0.00069     0.01707
  
  S  C  36   0.06551    -0.03094    -0.03046     0.12897    -0.00089    -0.15236
 PX  C  36  -0.01638     0.00623    -0.00004     0.02095    -0.00019     0.01646
 PY  C  36   0.00748    -0.00953    -0.00471     0.02677    -0.00021    -0.02096
 PZ  C  36  -0.02009     0.00760     0.01094    -0.04794     0.00031     0.05501
  
  S  O  37   0.03531    -0.03421    -0.08207     0.61210    -0.00593     0.18297
 PX  O  37  -0.00423     0.00313     0.00562    -0.03688     0.00033     0.00652
 PY  O  37  -0.00291     0.00246     0.00580    -0.04188     0.00039    -0.00792
 PZ  O  37   0.00755    -0.00755    -0.01835     0.13788    -0.00134     0.04434
  
  S  C  38   0.01757    -0.01759    -0.04316     0.32501    -0.00316     0.10937
 PX  C  38  -0.00777     0.00743     0.01748    -0.12962     0.00125    -0.03570
 PY  C  38  -0.00106     0.00082     0.00179    -0.01245     0.00011    -0.00050
 PZ  C  38  -0.00544     0.00569     0.01452    -0.11051     0.00108    -0.04034
  
  S  C  39   0.00650    -0.00695    -0.01788     0.13694    -0.00135     0.05496
 PX  C  39  -0.00327     0.00340     0.00856    -0.06505     0.00064    -0.02373
 PY  C  39  -0.00149     0.00155     0.00396    -0.03009     0.00029    -0.01118
 PZ  C  39   0.00047    -0.00048    -0.00118     0.00892    -0.00009     0.00334
  
  S  N  40   0.30913    -0.35679    -0.01283    -0.06268     0.00163    -0.06171
 PX  N  40  -0.05728     0.06652    -0.00223     0.02321    -0.00037    -0.03433
 PY  N  40  -0.02448     0.01408    -0.00009     0.00528    -0.00001    -0.01934
 PZ  N  40  -0.02927     0.02946     0.00310     0.00056    -0.00008     0.02249
  
  S  C  41   0.23354    -0.27822     0.00219    -0.06638     0.00145     0.05694
 PX  C  41   0.04093    -0.04782    -0.00665    -0.00453     0.00018    -0.05054
 PY  C  41  -0.05793     0.05765    -0.00121     0.01520    -0.00024    -0.01912
 PZ  C  41  -0.04388     0.04707     0.00217     0.00862    -0.00019     0.01367
  
  S  C  42   0.19982    -0.20734     0.01843    -0.05840     0.00102     0.13052
 PX  C  42   0.06861    -0.07416    -0.00707    -0.01662     0.00031    -0.01481
 PY  C  42   0.01210    -0.03534    -0.00510    -0.00762     0.00027    -0.00356
 PZ  C  42  -0.01971     0.01101     0.00030     0.00247     0.00001     0.00456
  
  S  C  43   0.08412    -0.08886     0.02428    -0.02839     0.00053     0.11872
 PX  C  43   0.03522    -0.04026     0.00119    -0.01210     0.00021     0.02810
 PY  C  43   0.01008    -0.02289    -0.00613    -0.00675     0.00016     0.00727
 PZ  C  43  -0.00805     0.00405    -0.00310     0.00124    -0.00000    -0.00641
  
  S  C  44   0.05482    -0.06994     0.01091    -0.02238     0.00046     0.08424
 PX  C  44   0.02499    -0.03282     0.00259    -0.01013     0.00021     0.03019
 PY  C  44  -0.00478     0.00323    -0.00340     0.00113    -0.00002    -0.00960
 PZ  C  44  -0.01121     0.01334    -0.00247     0.00417    -0.00008    -0.01520
  
  S  C  45   0.05551    -0.07501     0.00632    -0.02297     0.00049     0.07063
 PX  C  45   0.01223    -0.01657     0.00022    -0.00438     0.00010     0.00605
 PY  C  45  -0.02123     0.02761    -0.00289     0.00863    -0.00018    -0.02794
 PZ  C  45  -0.01443     0.01901    -0.00138     0.00558    -0.00012    -0.01474
  
  S  C  46   0.09354    -0.12274     0.00376    -0.03185     0.00073     0.05279
 PX  C  46   0.00503    -0.00513    -0.00291     0.00180    -0.00001    -0.02870
 PY  C  46  -0.03956     0.04961    -0.00177     0.01330    -0.00028    -0.02341
 PZ  C  46  -0.02157     0.02671     0.00037     0.00564    -0.00014     0.00142
  
  S  C  47   0.14987    -0.18222    -0.01264    -0.01189     0.00076    -0.11736
 PX  C  47  -0.04740     0.05980     0.00085     0.01660    -0.00034     0.00413
 PY  C  47  -0.04198     0.04489     0.00292     0.00396    -0.00016     0.00540
 PZ  C  47   0.00131    -0.00298     0.00144    -0.00597     0.00005     0.01919
  
  S  C  48   0.08794    -0.11160    -0.00872    -0.00419     0.00047    -0.11042
 PX  C  48   0.00302    -0.00416    -0.00161     0.00462    -0.00001    -0.02382
 PY  C  48  -0.02261     0.02445     0.00150     0.00244    -0.00009    -0.00063
 PZ  C  48   0.02626    -0.03334    -0.00155    -0.00489     0.00016    -0.01385
  
  S  C  49   0.04146    -0.05709    -0.00613     0.00434     0.00022    -0.10933
 PX  C  49  -0.00550     0.00723     0.00025     0.00193    -0.00004     0.00240
 PY  C  49  -0.00914     0.01042     0.00115    -0.00116    -0.00003     0.00443
 PZ  C  49   0.01070    -0.01486    -0.00131    -0.00010     0.00007    -0.02455
  
  S  C  50   0.02804    -0.04133    -0.00438     0.00261     0.00018    -0.10278
 PX  C  50  -0.00053     0.00014    -0.00029     0.00123    -0.00001    -0.01259
 PY  C  50  -0.00971     0.01324     0.00130    -0.00057    -0.00005     0.01992
 PZ  C  50  -0.00102     0.00150     0.00026    -0.00046    -0.00000     0.00457
  
  S  C  51   0.01825    -0.02790    -0.00336     0.00358     0.00011    -0.09024
 PX  C  51  -0.00448     0.00634     0.00055     0.00019    -0.00003     0.00961
 PY  C  51  -0.00285     0.00350     0.00037    -0.00044    -0.00001     0.00036
 PZ  C  51  -0.00363     0.00564     0.00073    -0.00092    -0.00002     0.01977
  
  S  C  52   0.00995    -0.01623    -0.00226     0.00349     0.00006    -0.07262
 PX  C  52  -0.00347     0.00536     0.00063    -0.00046    -0.00002     0.01737
 PY  C  52  -0.00115     0.00139     0.00019    -0.00047    -0.00000    -0.00160
 PZ  C  52   0.00084    -0.00137    -0.00016     0.00011     0.00001    -0.00530
  
  S  C  53   0.00516    -0.00900    -0.00128     0.00189     0.00004    -0.05146
 PX  C  53  -0.00074     0.00113     0.00012    -0.00004    -0.00001     0.00255
 PY  C  53  -0.00195     0.00323     0.00045    -0.00067    -0.00001     0.01483
 PZ  C  53   0.00006    -0.00007     0.00000    -0.00004     0.00000     0.00076
  
  S  C  54   0.00212    -0.00388    -0.00059     0.00099     0.00002    -0.02717
 PX  C  54  -0.00068     0.00122     0.00018    -0.00025    -0.00001     0.00747
 PY  C  54  -0.00062     0.00108     0.00017    -0.00030    -0.00000     0.00637
 PZ  C  54   0.00044    -0.00081    -0.00012     0.00020     0.00000    -0.00540
  
  S  C  55   0.02194     0.03004    -0.01202     0.00775     0.01506    -0.16441
 PX  C  55  -0.00735    -0.00972     0.00284     0.00002     0.00577    -0.00241
 PY  C  55   0.00163     0.00130    -0.00088     0.00158     0.00014    -0.00865
 PZ  C  55   0.00442     0.00530    -0.00203     0.00149    -0.00160    -0.01177
  
  S  C  56   0.01151     0.01522    -0.00725     0.00747     0.01584    -0.12771
 PX  C  56  -0.00451    -0.00556     0.00229    -0.00171     0.00062     0.02063
 PY  C  56  -0.00088    -0.00196     0.00066     0.00033    -0.00317     0.01951
 PZ  C  56  -0.00134    -0.00261     0.00117    -0.00047    -0.00656     0.03610
  
  S  C  57   0.00531     0.00796    -0.00409     0.00427     0.02471    -0.10297
 PX  C  57  -0.00259    -0.00374     0.00184    -0.00178    -0.00402     0.04123
 PY  C  57  -0.00040    -0.00080     0.00036    -0.00011    -0.00455     0.01197
 PZ  C  57  -0.00008    -0.00040     0.00019     0.00005    -0.00755     0.01056
  
  S  C  58   0.00437     0.00696    -0.00357     0.00342     0.04740    -0.09703
 PX  C  58  -0.00119    -0.00177     0.00079    -0.00059     0.00750     0.01639
 PY  C  58   0.00061     0.00089    -0.00044     0.00044    -0.00447    -0.01125
 PZ  C  58   0.00156     0.00235    -0.00113     0.00100    -0.00982    -0.02756
  
  S  S  59   0.00711     0.01072    -0.00459     0.00313     0.02224    -0.08996
 PX  S  59  -0.00063    -0.00073    -0.00008     0.00068     0.01212    -0.01915
 PY  S  59   0.00177     0.00259    -0.00118     0.00096     0.00221    -0.02427
 PZ  S  59   0.00402     0.00597    -0.00248     0.00158     0.00156    -0.04409
  
  S  C  60   0.00130     0.00237    -0.00151     0.00189     0.11258    -0.04012
 PX  C  60  -0.00042    -0.00070     0.00034    -0.00027     0.00780     0.01271
 PY  C  60   0.00013     0.00016    -0.00002    -0.00008    -0.02526    -0.00305
 PZ  C  60   0.00042     0.00062    -0.00022     0.00002    -0.04152    -0.01136
  
  S  C  61   0.00063     0.00139    -0.00125     0.00214     0.22531    -0.01619
 PX  C  61  -0.00004    -0.00000    -0.00013     0.00040     0.06270     0.00508
 PY  C  61   0.00009     0.00014    -0.00004    -0.00003    -0.01729    -0.00478
 PZ  C  61   0.00016     0.00022     0.00000    -0.00025    -0.05655    -0.00976
  
  S  C  62   0.00042     0.00130    -0.00182     0.00393     0.51332     0.01111
 PX  C  62  -0.00000     0.00008    -0.00020     0.00052     0.07566     0.00492
 PY  C  62   0.00001    -0.00003     0.00012    -0.00031    -0.04722    -0.00417
 PZ  C  62   0.00001    -0.00009     0.00028    -0.00073    -0.10849    -0.00873
  
  S  O  63   0.00029     0.00097    -0.00142     0.00312     0.41175     0.01037
 PX  O  63  -0.00012    -0.00038     0.00054    -0.00117    -0.15397    -0.00345
 PY  O  63  -0.00004    -0.00015     0.00025    -0.00056    -0.07582    -0.00279
 PZ  O  63  -0.00001    -0.00005     0.00011    -0.00027    -0.03924    -0.00254
  
  S  O  64   0.00032     0.00117    -0.00187     0.00424     0.57424     0.02263
 PX  O  64   0.00005     0.00020    -0.00034     0.00079     0.10882     0.00500
 PY  O  64   0.00006     0.00021    -0.00032     0.00071     0.09583     0.00330
 PZ  O  64   0.00006     0.00021    -0.00031     0.00069     0.09168     0.00254
  
  S  C  65   0.00037     0.00080    -0.00068     0.00111     0.11214    -0.01137
 PX  C  65   0.00009     0.00022    -0.00023     0.00045     0.05259    -0.00075
 PY  C  65   0.00008     0.00016    -0.00012     0.00017     0.01271    -0.00297
 PZ  C  65   0.00009     0.00015    -0.00007     0.00003    -0.00742    -0.00410
  
  S  N  66   0.00014     0.00031    -0.00025     0.00040     0.03923    -0.00541
 PX  N  66   0.00006     0.00014    -0.00013     0.00022     0.02270    -0.00216
 PY  N  66   0.00003     0.00008    -0.00006     0.00010     0.00937    -0.00164
 PZ  N  66   0.00003     0.00005    -0.00004     0.00004     0.00250    -0.00140
  
  S  H  67   0.00049     0.00089    -0.00059     0.00079     0.05228    -0.01467
  
  S  H  68   0.00050     0.00090     0.00143     0.00012    -0.00001     0.00445
  
  S  H  69   0.00034     0.00063     0.00094     0.00007    -0.00001     0.00350
  
  S  H  70   0.00051     0.00091     0.00175     0.00018    -0.00001     0.00434
  
  S  H  71   0.00109     0.00193     0.00212     0.00011    -0.00002     0.00844
  
  S  H  72   0.00110     0.00194     0.00194     0.00008    -0.00002     0.00853
  
  S  H  73   0.00266     0.00427     0.00480     0.00029    -0.00005     0.01337
  
  S  H  74   0.00280     0.00438     0.00819     0.00084    -0.00003     0.01225
  
  S  H  75   0.00445     0.00706     0.00341    -0.00025    -0.00009     0.01922
  
  S  H  76   0.00475     0.00749     0.00301    -0.00035    -0.00010     0.01967
  
  S  H  77   0.01337     0.01855     0.00574    -0.00106    -0.00022     0.03176
  
  S  H  78   0.01136     0.01576     0.00916    -0.00029    -0.00017     0.02909
  
  S  H  79   0.01240     0.01786     0.00166    -0.00149    -0.00021     0.02729
  
  S  H  80   0.01692     0.02392     0.00080    -0.00205    -0.00027     0.02995
  
  S  H  81   0.03304     0.04056     0.00269    -0.00356    -0.00045     0.04185
  
  S  H  82   0.04142     0.05323    -0.00455    -0.00459    -0.00053     0.03111
  
  S  H  83   0.05231     0.06664    -0.00452    -0.00584    -0.00068     0.03949
  
  S  H  84   0.05772     0.06432     0.01113    -0.00534    -0.00071     0.06747
  
  S  H  85   0.03280     0.04420    -0.00882    -0.00239     0.00001    -0.01848
  
  S  H  86   0.01415     0.02025    -0.00607     0.00063     0.00126    -0.04516
  
  S  H  87   0.03259     0.02311    -0.01349     0.02165     0.00125    -0.08066
  
  S  H  88   0.02392     0.00913     0.02996    -0.00043    -0.00010     0.05672
  
  S  H  89   0.01044     0.00616     0.06671     0.00870     0.00016     0.01914
  
  S  H  90   0.01215     0.00757     0.08982     0.01239     0.00024     0.01140
  
  S  H  91   0.02495     0.00856     0.03292    -0.00033    -0.00009     0.05838
  
  S  H  92   0.00785     0.00719     0.12058     0.01948     0.00042    -0.03730
  
  S  H  93   0.00624     0.00613     0.10727     0.01761     0.00038    -0.03936
  
  S  H  94   0.00439     0.00443     0.06772     0.01101     0.00023    -0.02216
  
  S  H  95   0.00621     0.00595     0.07867     0.01246     0.00025    -0.01918
  
  S  H  96   0.00294     0.00299     0.04601     0.00750     0.00016    -0.01565
  
  S  H  97   0.02653    -0.01058    -0.00941     0.03144    -0.00019    -0.05307
  
  S  H  98   0.01112    -0.00725    -0.01115     0.06881    -0.00058    -0.01769
  
  S  H  99   0.01144    -0.00776    -0.01330     0.08617    -0.00076    -0.00880
  
  S  H 100   0.02478    -0.01063    -0.00906     0.03275    -0.00022    -0.04697
  
  S  H 101   0.00705    -0.00686    -0.01618     0.12078    -0.00117     0.03751
  
  S  H 102   0.00671    -0.00650    -0.01578     0.11806    -0.00114     0.03760
  
  S  H 103   0.00269    -0.00288    -0.00745     0.05711    -0.00056     0.02309
  
  S  H 104   0.00275    -0.00294    -0.00752     0.05758    -0.00057     0.02304
  
  S  H 105   0.00184    -0.00200    -0.00519     0.03992    -0.00039     0.01685
  
  S  H 106   0.03059    -0.02025     0.02480    -0.00672     0.00013     0.05884
  
  S  H 107   0.01270    -0.01599     0.00363    -0.00529     0.00011     0.02357
  
  S  H 108   0.01268    -0.01769     0.00149    -0.00551     0.00012     0.01801
  
  S  H 109   0.03213    -0.04273     0.00008    -0.00954     0.00024     0.00519
  
  S  H 110   0.05436    -0.06887    -0.00435    -0.00560     0.00031    -0.04675
  
  S  H 111   0.06093    -0.06781    -0.00865     0.01245     0.00014    -0.06852
  
  S  H 112   0.04246    -0.04997    -0.00442    -0.00030     0.00019    -0.04649
  
  S  H 113   0.04037    -0.05193    -0.00312    -0.00491     0.00024    -0.04117
  
  S  H 114   0.01938    -0.02564    -0.00351     0.00610     0.00006    -0.05232
  
  S  H 115   0.01364    -0.01903    -0.00209     0.00160     0.00007    -0.03926
  
  S  H 116   0.00910    -0.01386    -0.00153     0.00104     0.00006    -0.04023
  
  S  H 117   0.01544    -0.02210    -0.00201     0.00020     0.00010    -0.04348
  
  S  H 118   0.00636    -0.00988    -0.00117     0.00116     0.00004    -0.03389
  
  S  H 119   0.01122    -0.01604    -0.00196     0.00257     0.00005    -0.04130
  
  S  H 120   0.00349    -0.00570    -0.00091     0.00205     0.00001    -0.02648
  
  S  H 121   0.00529    -0.00836    -0.00120     0.00215     0.00003    -0.03399
  
  S  H 122   0.00268    -0.00456    -0.00062     0.00081     0.00002    -0.02386
  
  S  H 123   0.00207    -0.00363    -0.00051     0.00074     0.00002    -0.02090
  
  S  H 124   0.00097    -0.00176    -0.00027     0.00046     0.00001    -0.01187
  
  S  H 125   0.00065    -0.00122    -0.00019     0.00031     0.00001    -0.00918
  
  S  H 126   0.00088    -0.00161    -0.00025     0.00047     0.00001    -0.01137
  
  S  H 127   0.00566     0.00617    -0.00334     0.00525     0.00403    -0.04337
  
  S  H 128   0.00132     0.00194    -0.00107     0.00135     0.00880    -0.02765
  
  S  H 129   0.00013     0.00048    -0.00078     0.00178     0.24227     0.00995




    ROOT NO.    7           8           9          10          11          12

           -43.73159   -43.55229   -43.32766   -42.98297   -42.27725   -41.77054
  
  
  S  C   1  -0.00899    -0.03731     0.01481     0.12903    -0.00186     0.05156
 PX  C   1  -0.00343    -0.01406     0.00564     0.04756    -0.00063     0.01792
 PY  C   1  -0.00100    -0.00413     0.00149     0.01330    -0.00021     0.00452
 PZ  C   1   0.00001    -0.00003    -0.00006     0.00002    -0.00002    -0.00002
  
  S  C   2  -0.01613    -0.06560     0.02641     0.21896    -0.00280     0.08006
 PX  C   2  -0.00146    -0.00530     0.00231     0.01387    -0.00000     0.00144
 PY  C   2  -0.00425    -0.01710     0.00670     0.05448    -0.00067     0.01764
 PZ  C   2   0.00001    -0.00002    -0.00009    -0.00002    -0.00003    -0.00003
  
  S  C   3  -0.02359    -0.09364     0.03727     0.29320    -0.00332     0.09112
 PX  C   3  -0.00492    -0.01784     0.00801     0.04868    -0.00007     0.00829
 PY  C   3   0.00114     0.00514    -0.00254    -0.02323     0.00031    -0.01296
 PZ  C   3   0.00006    -0.00011    -0.00044     0.00000    -0.00013    -0.00010
  
  S  C   4  -0.03025    -0.11500     0.04761     0.33133    -0.00229     0.07922
 PX  C   4   0.00039     0.00323    -0.00102    -0.02264     0.00077    -0.01630
 PY  C   4  -0.00591    -0.02087     0.00884     0.05051    -0.00005     0.00423
 PZ  C   4   0.00007     0.00024    -0.00015    -0.00005    -0.00006     0.00028
  
  S  C   5  -0.03744    -0.13322     0.05673     0.33592    -0.00089     0.04583
 PX  C   5  -0.00525    -0.01707     0.00671     0.02371     0.00060    -0.01117
 PY  C   5   0.00224     0.01257    -0.00371    -0.04715     0.00057    -0.01820
 PZ  C   5   0.00076     0.00286    -0.00093    -0.00435    -0.00011     0.00077
  
  S  C   6  -0.03715    -0.13417     0.05099     0.28650     0.00097     0.00757
 PX  C   6   0.00587     0.01794    -0.01066    -0.05902     0.00076    -0.01387
 PY  C   6  -0.00654    -0.02065     0.00696     0.02441     0.00034    -0.01293
 PZ  C   6   0.00013     0.00272     0.00070     0.00059    -0.00045     0.00236
  
  S  C   7  -0.03988    -0.13160     0.03855     0.20130    -0.00168    -0.04312
 PX  C   7   0.00756     0.01444    -0.01510    -0.04593     0.00102    -0.00343
 PY  C   7  -0.00218     0.00589    -0.00627    -0.04299    -0.00357    -0.02043
 PZ  C   7   0.00610     0.02581     0.00049    -0.02013     0.00025     0.01581
  
  S  C   8  -0.04821    -0.13023     0.02394     0.12091    -0.01118    -0.09086
 PX  C   8  -0.00558    -0.03617    -0.02419    -0.00549    -0.00375    -0.03605
 PY  C   8  -0.00738     0.00977    -0.00756    -0.05347    -0.01047    -0.02852
 PZ  C   8  -0.00732    -0.00608     0.01537     0.02996    -0.00239     0.00044
  
  S  N   9  -0.05536    -0.13708    -0.07737    -0.03295    -0.03934    -0.17125
 PX  N   9   0.01038    -0.01243    -0.04488    -0.03787     0.00700    -0.00248
 PY  N   9  -0.00807     0.03603    -0.01607    -0.04600    -0.02268    -0.00824
 PZ  N   9  -0.01549    -0.00018     0.00627     0.00366    -0.01662    -0.02310
  
  S  C  10   0.07983    -0.09247    -0.06441    -0.05896     0.09304     0.07105
 PX  C  10   0.06979     0.03792     0.02705    -0.00938     0.06531     0.13335
 PY  C  10  -0.01927     0.00993    -0.03304    -0.03554    -0.02166    -0.03911
 PZ  C  10  -0.03588    -0.01314    -0.02377    -0.00734    -0.03433    -0.06924
  
  S  C  11   0.12837    -0.05622     0.00546    -0.01495     0.13073     0.18082
 PX  C  11   0.05238     0.01435     0.01664    -0.01160     0.04149     0.08288
 PY  C  11   0.03860    -0.01452    -0.00625    -0.01607     0.03993     0.05110
 PZ  C  11  -0.00245    -0.01413    -0.00860    -0.00013     0.00270    -0.00857
  
  S  C  12   0.18576    -0.01595     0.05107    -0.01473     0.13434     0.23216
 PX  C  12   0.00842     0.01318     0.01839     0.00668    -0.02368    -0.02177
 PY  C  12   0.06086    -0.00161     0.01453    -0.00842     0.04588     0.07641
 PZ  C  12   0.02500    -0.00601    -0.00001    -0.00585     0.03009     0.04334
  
  S  C  13   0.25097     0.01395     0.10449    -0.00099     0.11465     0.22583
 PX  C  13  -0.00691     0.01444     0.03000     0.02191    -0.07194    -0.09160
 PY  C  13  -0.00066     0.00875     0.00103     0.00115     0.00433    -0.00148
 PZ  C  13   0.00525    -0.00080    -0.00851    -0.00687     0.02802     0.03319
  
  S  C  14   0.15738     0.03782     0.04675    -0.01136     0.13479     0.19457
 PX  C  14  -0.00449     0.00494     0.02551     0.02120    -0.03623    -0.04410
 PY  C  14  -0.07643     0.01988    -0.01874     0.01195    -0.03686    -0.08330
 PZ  C  14  -0.03232     0.00740    -0.01712    -0.00188    -0.00447    -0.02269
  
  S  C  15   0.07579     0.01568    -0.04863    -0.06652     0.09831     0.11497
 PX  C  15   0.04043     0.02528     0.04700     0.02978     0.04626     0.07700
 PY  C  15  -0.06193     0.04380    -0.00485     0.01270    -0.04750    -0.06848
 PZ  C  15  -0.04411     0.01057    -0.01934    -0.00387    -0.03980    -0.06122
  
  S  C  16  -0.07621     0.12098    -0.07670    -0.06134    -0.08336    -0.04408
 PX  C  16   0.01006     0.00697     0.01535     0.02764     0.05907     0.03133
 PY  C  16  -0.03180     0.06903     0.02447     0.03273    -0.03251     0.01138
 PZ  C  16  -0.01874     0.03016     0.00601     0.00642    -0.03767    -0.00652
  
  S  C  17  -0.07761     0.05562    -0.04497    -0.08192    -0.12822    -0.10461
 PX  C  17  -0.00165    -0.00346    -0.05549    -0.01922    -0.00463    -0.00914
 PY  C  17  -0.00605     0.08827     0.02059    -0.00161    -0.04092     0.04506
 PZ  C  17  -0.00231     0.04072     0.03202     0.01111    -0.01683     0.02483
  
  S  C  18  -0.04975     0.15424     0.09143    -0.05903    -0.11112    -0.00908
 PX  C  18  -0.01630     0.00592    -0.07046    -0.00651    -0.06317    -0.02760
 PY  C  18   0.01478     0.02441    -0.01585    -0.00067    -0.01631     0.01694
 PZ  C  18   0.01325     0.00807     0.01873     0.00406     0.01627     0.01796
  
  S  C  19  -0.03397     0.16197     0.27351    -0.05167     0.03215     0.08844
 PX  C  19  -0.00311    -0.01784    -0.06756     0.00389    -0.04701    -0.05188
 PY  C  19   0.00757     0.00835    -0.01549    -0.00663    -0.00709    -0.00917
 PZ  C  19   0.00494     0.00854     0.01727    -0.00117     0.01444     0.01379
  
  S  C  20  -0.02352     0.12424     0.23489    -0.04085     0.05291     0.10025
 PX  C  20  -0.00421     0.00752     0.00269    -0.00190    -0.01375    -0.01454
 PY  C  20   0.00574    -0.01283    -0.03571     0.00230    -0.00917    -0.01788
 PZ  C  20  -0.00582     0.04462     0.08548    -0.01443     0.02430     0.03871
  
  S  C  21  -0.01324     0.08399     0.16939    -0.03191     0.05373     0.09231
 PX  C  21  -0.00821     0.04416     0.09042    -0.01149     0.02400     0.04042
 PY  C  21   0.00058     0.00183     0.00105    -0.00030    -0.00001    -0.00191
 PZ  C  21  -0.00178     0.01807     0.03608    -0.00823     0.01382     0.02156
  
  S  C  22  -0.00374     0.03805     0.07484    -0.02455     0.03198     0.05549
 PX  C  22  -0.01300     0.07044     0.14977    -0.01365     0.04245     0.06928
 PY  C  22  -0.00293     0.02219     0.04366    -0.00722     0.01350     0.02006
 PZ  C  22   0.00397    -0.02039    -0.04243     0.00532    -0.01162    -0.02021
  
  S  C  23  -0.01180     0.07481     0.15622    -0.02387     0.05091     0.08505
 PX  C  23  -0.00605     0.03007     0.06314    -0.00457     0.01526     0.02456
 PY  C  23  -0.00208     0.02335     0.04339    -0.00963     0.01439     0.02039
 PZ  C  23   0.00598    -0.03418    -0.07092     0.01122    -0.02146    -0.03653
  
  S  C  24  -0.02213     0.12057     0.23414    -0.03310     0.05484     0.09809
 PX  C  24   0.00095    -0.01945    -0.04821     0.00724    -0.02520    -0.03499
 PY  C  24   0.00080     0.02138     0.02676    -0.01049     0.00621     0.00732
 PZ  C  24   0.00925    -0.03861    -0.07395     0.01137    -0.01240    -0.02679
  
  S  O  25   0.01934    -0.09038    -0.19723     0.00326    -0.04796    -0.07646
 PX  O  25   0.00201    -0.00646    -0.01502    -0.00306    -0.00127    -0.00117
 PY  O  25  -0.00270     0.01623     0.03310    -0.00440     0.00966     0.01521
 PZ  O  25   0.00369    -0.01933    -0.04104     0.00346    -0.01145    -0.01889
  
  S  C  26   0.01129    -0.06074    -0.12572     0.01238    -0.03342    -0.05235
 PX  C  26   0.00211    -0.01052    -0.02161     0.00125    -0.00477    -0.00706
 PY  C  26   0.00288    -0.01000    -0.02564    -0.00409    -0.00589    -0.01081
 PZ  C  26  -0.00467     0.02331     0.05007    -0.00242     0.01299     0.02077
  
  S  C  27   0.00408    -0.03678    -0.06156     0.02433    -0.01776    -0.02278
 PX  C  27  -0.00072     0.00024     0.00450     0.00357     0.00140     0.00341
 PY  C  27   0.00326    -0.01305    -0.03163    -0.00282    -0.00804    -0.01427
 PZ  C  27  -0.00016     0.00287     0.00386    -0.00282     0.00107     0.00085
  
  S  C  28   0.02349     0.11596    -0.00842    -0.02746    -0.12172     0.02668
 PX  C  28  -0.01838     0.00927    -0.04370     0.00568    -0.06962     0.02139
 PY  C  28   0.04985    -0.05484    -0.04385     0.02232     0.02339     0.01705
 PZ  C  28   0.03118    -0.02845    -0.00506     0.00903     0.03662     0.00012
  
  S  C  29  -0.03279     0.09289    -0.06635     0.01664    -0.18026     0.08119
 PX  C  29  -0.04810     0.01271     0.01348     0.01619     0.01978    -0.00705
 PY  C  29   0.03218    -0.07773    -0.01192     0.02283     0.01192     0.05231
 PZ  C  29   0.03629    -0.03695    -0.01409     0.00606    -0.00282     0.02666
  
  S  C  30  -0.13001     0.19669    -0.03303     0.02697    -0.09088    -0.00883
 PX  C  30  -0.01925     0.00647     0.02051     0.03595     0.08224    -0.01625
 PY  C  30  -0.00551    -0.01492     0.01034     0.02642     0.00614     0.01960
 PZ  C  30   0.00531    -0.00695    -0.00396     0.00024    -0.02754     0.01432
  
  S  C  31  -0.18939     0.23243     0.02698     0.12783     0.11089    -0.08067
 PX  C  31  -0.02203     0.02596     0.02038     0.03606     0.07571    -0.04364
 PY  C  31  -0.01508    -0.00400     0.00994     0.01423     0.01566    -0.00921
 PZ  C  31   0.00294    -0.00829    -0.00532    -0.00493    -0.02067     0.01001
  
  S  C  32  -0.15027     0.17357     0.03786     0.11231     0.13201    -0.08781
 PX  C  32  -0.02043     0.02784     0.01096     0.02659     0.04633    -0.03124
 PY  C  32   0.01031    -0.02727     0.00133    -0.01018    -0.00948     0.00427
 PZ  C  32  -0.05051     0.05703     0.00974     0.03641     0.03577    -0.02475
  
  S  C  33  -0.09726     0.11283     0.03130     0.08482     0.11823    -0.08184
 PX  C  33   0.03742    -0.03932    -0.01078    -0.02525    -0.02908     0.01778
 PY  C  33   0.02385    -0.03465    -0.00622    -0.02304    -0.02929     0.01873
 PZ  C  33  -0.03847     0.04481     0.01106     0.03353     0.04426    -0.03078
  
  S  C  34  -0.03262     0.04552     0.01124     0.04280     0.06864    -0.05177
 PX  C  34   0.09381    -0.10657    -0.02790    -0.07310    -0.09203     0.06120
 PY  C  34   0.02938    -0.03763    -0.00846    -0.02517    -0.03096     0.02041
 PZ  C  34  -0.01334     0.01543     0.00312     0.01060     0.01200    -0.00838
  
  S  C  35  -0.08614     0.10778     0.02435     0.08090     0.10822    -0.07735
 PX  C  35   0.05881    -0.06835    -0.01569    -0.04659    -0.05621     0.03757
 PY  C  35   0.00458    -0.00830    -0.00104    -0.00340    -0.00259     0.00096
 PZ  C  35   0.01936    -0.02552    -0.00642    -0.01996    -0.02920     0.02024
  
  S  C  36  -0.14450     0.17712     0.03072     0.11436     0.12652    -0.08871
 PX  C  36   0.01215    -0.01331     0.00421     0.00005     0.01758    -0.01175
 PY  C  36  -0.02414     0.02036     0.00763     0.01948     0.02349    -0.01661
 PZ  C  36   0.04971    -0.06304    -0.01278    -0.04111    -0.05129     0.03352
  
  S  O  37   0.13614    -0.14935    -0.03970    -0.09277    -0.10555     0.06675
 PX  O  37   0.00928    -0.01155    -0.00347    -0.01024    -0.01673     0.01290
 PY  O  37  -0.00503     0.00436     0.00133     0.00194     0.00102    -0.00001
 PZ  O  37   0.03363    -0.03713    -0.01001    -0.02353    -0.02771     0.01780
  
  S  C  38   0.08483    -0.09452    -0.02522    -0.06133    -0.07437     0.04912
 PX  C  38  -0.02560     0.02774     0.00738     0.01652     0.01766    -0.01051
 PY  C  38   0.00028    -0.00121    -0.00012    -0.00138    -0.00234     0.00203
 PZ  C  38  -0.03183     0.03544     0.00958     0.02323     0.02839    -0.01890
  
  S  C  39   0.04483    -0.05110    -0.01354    -0.03478    -0.04460     0.03077
 PX  C  39  -0.01873     0.02110     0.00559     0.01391     0.01709    -0.01142
 PY  C  39  -0.00896     0.00984     0.00276     0.00652     0.00823    -0.00555
 PZ  C  39   0.00269    -0.00308    -0.00081    -0.00209    -0.00268     0.00185
  
  S  N  40   0.01913    -0.08851    -0.06934     0.04153    -0.13428     0.16176
 PX  N  40  -0.05161     0.01302     0.03141    -0.00067     0.00544    -0.00614
 PY  N  40  -0.01275    -0.04317     0.02338    -0.00677     0.02748    -0.00281
 PZ  N  40   0.02152    -0.00156    -0.00093    -0.00588     0.02954    -0.02562
  
  S  C  41   0.14478    -0.08965    -0.07001     0.01640     0.11188    -0.05362
 PX  C  41  -0.04849    -0.01487    -0.00688     0.00948    -0.13265     0.11949
 PY  C  41  -0.01830    -0.01789     0.02109    -0.00504     0.04726    -0.03458
 PZ  C  41   0.01309     0.00199     0.00889    -0.00474     0.07052    -0.06129
  
  S  C  42   0.15088    -0.00391    -0.02947    -0.00372     0.13770    -0.09723
 PX  C  42  -0.00081    -0.00660    -0.03470     0.00886    -0.09157     0.06784
 PY  C  42   0.04514    -0.04558    -0.02919     0.00898     0.08359    -0.05846
 PZ  C  42   0.02213    -0.01789    -0.00167     0.00131     0.07215    -0.05200
  
  S  C  43   0.13018    -0.00577     0.01289    -0.01074     0.24057    -0.16999
 PX  C  43   0.03933    -0.00679    -0.01112    -0.00015     0.04635    -0.03708
 PY  C  43   0.04269    -0.02800    -0.02575     0.00411     0.08374    -0.07367
 PZ  C  43   0.00574    -0.01023    -0.00781     0.00201     0.02220    -0.02073
  
  S  C  44   0.12846    -0.03455    -0.01331    -0.00363     0.26519    -0.20426
 PX  C  44   0.05127    -0.01733    -0.01043    -0.00016     0.09600    -0.07435
 PY  C  44  -0.00373    -0.00579    -0.00633     0.00169    -0.00451    -0.00062
 PZ  C  44  -0.02009     0.00368     0.00077     0.00088    -0.03663     0.02647
  
  S  C  45   0.12671    -0.04980    -0.02346    -0.00105     0.26089    -0.20358
 PX  C  45   0.01589    -0.01181    -0.00490     0.00042     0.02637    -0.01823
 PY  C  45  -0.04530     0.01315     0.00809     0.00026    -0.08570     0.06600
 PZ  C  45  -0.02630     0.01079     0.00521     0.00009    -0.04894     0.03682
  
  S  C  46   0.12010    -0.07610    -0.02983     0.00211     0.21585    -0.15385
 PX  C  46  -0.03713    -0.00237     0.00482     0.00148    -0.08486     0.07384
 PY  C  46  -0.04579     0.01904     0.01572    -0.00289    -0.06156     0.04248
 PZ  C  46  -0.00599     0.01236     0.00391    -0.00119     0.00278    -0.00818
  
  S  C  47  -0.08658    -0.12462     0.05121    -0.00331    -0.05177     0.08936
 PX  C  47  -0.01441     0.02887     0.01645    -0.00427     0.02541    -0.03493
 PY  C  47  -0.01098    -0.02988     0.03661    -0.02912     0.02620    -0.02848
 PZ  C  47   0.02724     0.01196    -0.02447     0.00859    -0.00213     0.00273
  
  S  C  48  -0.10925    -0.15498     0.10603    -0.04591    -0.02045     0.04707
 PX  C  48  -0.03132    -0.02765     0.03239    -0.01450     0.00254    -0.00163
 PY  C  48  -0.01338    -0.02489     0.03039    -0.02349     0.01441    -0.01892
 PZ  C  48  -0.00536    -0.02145     0.00154     0.00111    -0.00967     0.01728
  
  S  C  49  -0.13943    -0.19107     0.16913    -0.09546     0.00892    -0.00360
 PX  C  49  -0.00191    -0.00022     0.00629    -0.00600     0.00481    -0.01062
 PY  C  49  -0.00270    -0.01312     0.01464    -0.01582     0.00564    -0.01363
 PZ  C  49  -0.03072    -0.04582     0.03839    -0.02261     0.00160    -0.00064
  
  S  C  50  -0.14624    -0.21618     0.19843    -0.12663     0.02072    -0.03380
 PX  C  50  -0.02354    -0.03412     0.03662    -0.02654     0.00706    -0.01645
 PY  C  50   0.02221     0.03000    -0.02371     0.01094     0.00070    -0.00588
 PZ  C  50   0.00570     0.00626    -0.00589     0.00254     0.00029    -0.00156
  
  S  C  51  -0.13968    -0.20847     0.20069    -0.13578     0.02805    -0.05704
 PX  C  51   0.00997     0.01381    -0.00973     0.00352     0.00124    -0.00610
 PY  C  51  -0.00403    -0.00871     0.01063    -0.01030     0.00345    -0.00996
 PZ  C  51   0.03071     0.04517    -0.04387     0.02949    -0.00609     0.01230
  
  S  C  52  -0.12234    -0.18629     0.18590    -0.13262     0.03137    -0.07184
 PX  C  52   0.02616     0.03833    -0.03658     0.02400    -0.00462     0.00834
 PY  C  52  -0.00588    -0.01081     0.01238    -0.01108     0.00366    -0.01062
 PZ  C  52  -0.00853    -0.01305     0.01263    -0.00877     0.00183    -0.00384
  
  S  C  53  -0.09179    -0.14254     0.14505    -0.10719     0.02725    -0.06642
 PX  C  53   0.00291     0.00383    -0.00294     0.00108     0.00033    -0.00199
 PY  C  53   0.02490     0.03790    -0.03769     0.02676    -0.00621     0.01395
 PZ  C  53   0.00188     0.00309    -0.00350     0.00295    -0.00098     0.00284
  
  S  C  54  -0.05070    -0.07972     0.08246    -0.06251     0.01679    -0.04272
 PX  C  54   0.01350     0.02103    -0.02151     0.01601    -0.00414     0.01019
 PY  C  54   0.01140     0.01770    -0.01804     0.01334    -0.00339     0.00827
 PZ  C  54  -0.00994    -0.01558     0.01602    -0.01204     0.00316    -0.00791
  
  S  C  55   0.27179     0.04157     0.19738     0.05449    -0.09618    -0.03810
 PX  C  55   0.03366     0.01199     0.05086     0.02425    -0.09343    -0.11395
 PY  C  55   0.00883     0.00412     0.00724     0.00274    -0.00048    -0.00018
 PZ  C  55   0.00560     0.00060    -0.00415    -0.00399     0.02750     0.03698
  
  S  C  56   0.23159     0.04284     0.19049     0.06164    -0.14802    -0.12378
 PX  C  56  -0.02199    -0.00356    -0.00915    -0.00016    -0.01932    -0.03272
 PY  C  56  -0.04090    -0.00591    -0.03403    -0.01073     0.03143     0.02696
 PZ  C  56  -0.07630    -0.01297    -0.06678    -0.02251     0.06687     0.06314
  
  S  C  57   0.21170     0.03897     0.18752     0.06473    -0.18986    -0.18679
 PX  C  57  -0.08011    -0.01463    -0.06832    -0.02274     0.06014     0.05352
 PY  C  57  -0.02623    -0.00451    -0.02361    -0.00819     0.02607     0.02651
 PZ  C  57  -0.02562    -0.00444    -0.02434    -0.00885     0.03130     0.03448
  
  S  C  58   0.20667     0.03761     0.18643     0.06536    -0.20336    -0.20966
 PX  C  58  -0.02969    -0.00500    -0.02339    -0.00707     0.01410     0.00701
 PY  C  58   0.02207     0.00407     0.01891     0.00630    -0.01626    -0.01372
 PZ  C  58   0.05366     0.00960     0.04532     0.01486    -0.03757    -0.03046
  
  S  S  59   0.17350     0.02823     0.14301     0.04576    -0.12263    -0.10676
 PX  S  59   0.04791     0.01042     0.04886     0.01894    -0.06528    -0.07386
 PY  S  59   0.04616     0.00804     0.03830     0.01235    -0.03163    -0.02659
 PZ  S  59   0.08035     0.01249     0.06273     0.01882    -0.04269    -0.02850
  
  S  C  60   0.09488     0.01778     0.09161     0.03416    -0.12257    -0.14283
 PX  C  60  -0.02813    -0.00517    -0.02604    -0.00935     0.03068     0.03302
 PY  C  60   0.00536     0.00093     0.00410     0.00118    -0.00130     0.00127
 PZ  C  60   0.02305     0.00414     0.02003     0.00673    -0.01824    -0.01556
  
  S  C  61   0.04386     0.00847     0.04538     0.01788    -0.07172    -0.09061
 PX  C  61  -0.01100    -0.00202    -0.01018    -0.00368     0.01240     0.01371
 PY  C  61   0.01111     0.00208     0.01070     0.00399    -0.01443    -0.01702
 PZ  C  61   0.02229     0.00415     0.02126     0.00787    -0.02801    -0.03257
  
  S  C  62  -0.01805    -0.00305    -0.01384    -0.00418     0.00873     0.00509
 PX  C  62  -0.01075    -0.00197    -0.01005    -0.00366     0.01249     0.01361
 PY  C  62   0.01003     0.00191     0.01007     0.00393    -0.01613    -0.02142
 PZ  C  62   0.02049     0.00386     0.02020     0.00776    -0.03058    -0.03914
  
  S  O  63  -0.01758    -0.00299    -0.01377    -0.00421     0.00838     0.00311
 PX  O  63   0.00549     0.00091     0.00406     0.00116    -0.00157     0.00063
 PY  O  63   0.00558     0.00101     0.00500     0.00177    -0.00584    -0.00645
 PZ  O  63   0.00577     0.00108     0.00558     0.00211    -0.00807    -0.01008
  
  S  O  64  -0.04730    -0.00866    -0.04389    -0.01612     0.05895     0.07254
 PX  O  64  -0.01081    -0.00199    -0.01021    -0.00380     0.01413     0.01742
 PY  O  64  -0.00656    -0.00118    -0.00587    -0.00209     0.00706     0.00814
 PZ  O  64  -0.00461    -0.00081    -0.00387    -0.00129     0.00374     0.00376
  
  S  C  65   0.03061     0.00588     0.03174     0.01257    -0.05134    -0.06596
 PX  C  65   0.00245     0.00049     0.00262     0.00103    -0.00377    -0.00415
 PY  C  65   0.00722     0.00137     0.00706     0.00265    -0.00950    -0.01092
 PZ  C  65   0.00958     0.00179     0.00921     0.00342    -0.01218    -0.01405
  
  S  N  66   0.01502     0.00289     0.01592     0.00644    -0.02777    -0.03724
 PX  N  66   0.00610     0.00118     0.00650     0.00263    -0.01132    -0.01510
 PY  N  66   0.00446     0.00086     0.00468     0.00187    -0.00783    -0.01025
 PZ  N  66   0.00365     0.00069     0.00373     0.00147    -0.00592    -0.00756
  
  S  H  67   0.03493     0.00657     0.03386     0.01267    -0.04568    -0.05347
  
  S  H  68  -0.00387    -0.01605     0.00633     0.05534    -0.00081     0.02202
  
  S  H  69  -0.00307    -0.01276     0.00512     0.04479    -0.00065     0.01849
  
  S  H  70  -0.00386    -0.01614     0.00619     0.05542    -0.00085     0.02198
  
  S  H  71  -0.00678    -0.02750     0.01111     0.09150    -0.00115     0.03317
  
  S  H  72  -0.00679    -0.02750     0.01120     0.09154    -0.00112     0.03319
  
  S  H  73  -0.01003    -0.03980     0.01564     0.12356    -0.00144     0.03782
  
  S  H  74  -0.00995    -0.04053     0.01443     0.12434    -0.00182     0.03756
  
  S  H  75  -0.01261    -0.04805     0.01986     0.13864    -0.00095     0.03328
  
  S  H  76  -0.01275    -0.04863     0.02009     0.13940    -0.00088     0.03306
  
  S  H  77  -0.01708    -0.05867     0.02609     0.14468    -0.00029     0.01789
  
  S  H  78  -0.01617    -0.05568     0.02511     0.14117    -0.00033     0.01939
  
  S  H  79  -0.01423    -0.05222     0.02008     0.11655     0.00036     0.00633
  
  S  H  80  -0.01483    -0.05761     0.02022     0.11972     0.00113     0.00345
  
  S  H  81  -0.01805    -0.04808     0.02284     0.08189    -0.00141    -0.01515
  
  S  H  82  -0.01269    -0.05580     0.00880     0.06958     0.00188    -0.01950
  
  S  H  83  -0.01572    -0.05979     0.00922     0.06212     0.00069    -0.02882
  
  S  H  84  -0.02492    -0.03363     0.04037     0.05048    -0.00350    -0.02410
  
  S  H  85   0.02994    -0.02863     0.00118     0.00750     0.03450     0.04074
  
  S  H  86   0.06141    -0.00321     0.02296    -0.00066     0.03334     0.06503
  
  S  H  87   0.03592     0.04145     0.02681     0.01434     0.04635     0.03819
  
  S  H  88  -0.00831     0.03882     0.06785    -0.01337     0.01028     0.02508
  
  S  H  89  -0.00269     0.01823     0.03628    -0.00834     0.01243     0.02201
  
  S  H  90  -0.00183     0.01164     0.02623    -0.00317     0.00984     0.01695
  
  S  H  91  -0.00760     0.03638     0.06826    -0.00791     0.01164     0.02406
  
  S  H  92   0.00376    -0.01989    -0.04097     0.00397    -0.01054    -0.01647
  
  S  H  93   0.00408    -0.02214    -0.04607     0.00473    -0.01269    -0.02016
  
  S  H  94   0.00134    -0.01729    -0.02578     0.01526    -0.00775    -0.00843
  
  S  H  95   0.00042    -0.01737    -0.02058     0.01958    -0.00616    -0.00499
  
  S  H  96   0.00097    -0.01241    -0.01862     0.01101    -0.00574    -0.00647
  
  S  H  97  -0.04810     0.05214     0.01134     0.03072     0.03283    -0.02146
  
  S  H  98  -0.02064     0.02223     0.00793     0.01800     0.02765    -0.01960
  
  S  H  99  -0.01323     0.01824     0.00378     0.01499     0.02119    -0.01618
  
  S  H 100  -0.04424     0.05557     0.00660     0.03261     0.03006    -0.02258
  
  S  H 101   0.02836    -0.03205    -0.00819    -0.02048    -0.02421     0.01574
  
  S  H 102   0.02905    -0.03182    -0.00852    -0.02045    -0.02478     0.01615
  
  S  H 103   0.01892    -0.02148    -0.00572    -0.01464    -0.01887     0.01302
  
  S  H 104   0.01871    -0.02173    -0.00549    -0.01480    -0.01875     0.01289
  
  S  H 105   0.01397    -0.01605    -0.00423    -0.01110    -0.01452     0.01016
  
  S  H 106   0.03213     0.02046     0.03754    -0.01013     0.07183    -0.03269
  
  S  H 107   0.03423    -0.00802    -0.00148    -0.00147     0.07603    -0.05863
  
  S  H 108   0.03351    -0.01411    -0.00593    -0.00046     0.07414    -0.05888
  
  S  H 109   0.02608    -0.03322    -0.00420    -0.00084     0.05363    -0.03411
  
  S  H 110  -0.03626    -0.06732     0.03202    -0.01130    -0.01101     0.02765
  
  S  H 111  -0.06117    -0.02681     0.03100     0.00914    -0.00765     0.02280
  
  S  H 112  -0.04410    -0.04905     0.03503    -0.01060    -0.01155     0.02183
  
  S  H 113  -0.03758    -0.06911     0.04053    -0.01972    -0.00544     0.01838
  
  S  H 114  -0.06715    -0.08358     0.07915    -0.04252     0.00722    -0.00587
  
  S  H 115  -0.05112    -0.07035     0.06297    -0.03612     0.00382    -0.00241
  
  S  H 116  -0.05986    -0.08945     0.08386    -0.05525     0.01009    -0.01851
  
  S  H 117  -0.05846    -0.08908     0.07782    -0.04853     0.00709    -0.00892
  
  S  H 118  -0.05358    -0.08104     0.07840    -0.05396     0.01153    -0.02426
  
  S  H 119  -0.06034    -0.08736     0.08287    -0.05371     0.01043    -0.01940
  
  S  H 120  -0.04547    -0.06982     0.06994    -0.05047     0.01210    -0.02840
  
  S  H 121  -0.05601    -0.08427     0.08370    -0.05881     0.01367    -0.03052
  
  S  H 122  -0.04176    -0.06457     0.06523    -0.04772     0.01185    -0.02840
  
  S  H 123  -0.03735    -0.05810     0.05914    -0.04377     0.01115    -0.02722
  
  S  H 124  -0.02203    -0.03457     0.03570    -0.02699     0.00721    -0.01829
  
  S  H 125  -0.01738    -0.02744     0.02853    -0.02180     0.00596    -0.01535
  
  S  H 126  -0.02129    -0.03353     0.03471    -0.02637     0.00709    -0.01811
  
  S  H 127   0.06939     0.01491     0.05541     0.01799    -0.03314    -0.02499
  
  S  H 128   0.05822     0.01086     0.05249     0.01844    -0.05606    -0.05712
  
  S  H 129  -0.02103    -0.00386    -0.01963    -0.00724     0.02667     0.03288




    ROOT NO.   13          14          15          16          17          18

           -41.33461   -40.02023   -39.60618   -39.18924   -39.04475   -37.84318
  
  
  S  C   1   0.14440     0.20957     0.02530     0.11736    -0.09363     0.11061
 PX  C   1   0.04876     0.06480     0.00756     0.03389    -0.02666     0.02756
 PY  C   1   0.01203     0.01373     0.00152     0.00629    -0.00484     0.00388
 PZ  C   1   0.00005     0.00000     0.00001    -0.00002     0.00001     0.00009
  
  S  C   2   0.21505     0.27653     0.03190     0.14182    -0.11117     0.11189
 PX  C   2  -0.00090    -0.01981    -0.00313    -0.01755     0.01497    -0.02676
 PY  C   2   0.04499     0.04661     0.00491     0.01944    -0.01458     0.00812
 PZ  C   2   0.00008     0.00002     0.00001    -0.00003     0.00001     0.00010
  
  S  C   3   0.22761     0.22525     0.02332     0.09157    -0.06830     0.03684
 PX  C   3   0.01035    -0.02575    -0.00459    -0.02648     0.02285    -0.04115
 PY  C   3  -0.03849    -0.06434    -0.00788    -0.03745     0.02986    -0.03409
 PZ  C   3   0.00044     0.00019     0.00005    -0.00008     0.00000     0.00047
  
  S  C   4   0.16641     0.06295     0.00153    -0.01449     0.01830    -0.07420
 PX  C   4  -0.05148    -0.08282    -0.00996    -0.04413     0.03475    -0.03200
 PY  C   4  -0.00288    -0.04487    -0.00648    -0.03335     0.02746    -0.03603
 PZ  C   4   0.00104     0.00092     0.00010     0.00007    -0.00004    -0.00035
  
  S  C   5   0.04934    -0.13205    -0.02098    -0.11169     0.09292    -0.12486
 PX  C   5  -0.04449    -0.08202    -0.00957    -0.03991     0.03057    -0.01659
 PY  C   5  -0.04640    -0.03306    -0.00221    -0.00396     0.00070     0.01968
 PZ  C   5   0.00335     0.00451     0.00046     0.00109    -0.00073    -0.00114
  
  S  C   6  -0.05700    -0.24271    -0.03171    -0.14158     0.11274    -0.09649
 PX  C   6  -0.02542     0.00963     0.00247     0.02007    -0.01725     0.03404
 PY  C   6  -0.04382    -0.05585    -0.00520    -0.01663     0.01067     0.01261
 PZ  C   6   0.00646     0.00140     0.00004    -0.00337     0.00273    -0.00660
  
  S  C   7  -0.15194    -0.23374    -0.02261    -0.08494     0.05820     0.01133
 PX  C   7   0.00628     0.04178     0.00455     0.02798    -0.02057     0.01626
 PY  C   7  -0.02285     0.04000     0.00925     0.03943    -0.03631     0.04689
 PZ  C   7   0.03714     0.02390     0.00109    -0.00464     0.00564    -0.02056
  
  S  C   8  -0.20058    -0.13667    -0.00066     0.00647    -0.02550     0.10905
 PX  C   8  -0.04752     0.00842     0.00451     0.03270    -0.02847     0.03183
 PY  C   8  -0.01289     0.06652     0.01562     0.04615    -0.04563     0.04437
 PZ  C   8  -0.00873    -0.03893    -0.00311    -0.02646     0.01762    -0.00687
  
  S  N   9  -0.17454     0.09070     0.03622     0.12674    -0.12532     0.07685
 PX  N   9   0.02274     0.06597     0.00029     0.02998    -0.00913    -0.07508
 PY  N   9   0.06998     0.06572     0.01388    -0.01085     0.00029    -0.04952
 PZ  N   9  -0.00816    -0.00600     0.00813    -0.00904    -0.00593     0.02135
  
  S  C  10  -0.05278     0.06097    -0.03260     0.09194    -0.01262    -0.00306
 PX  C  10   0.07177    -0.03323    -0.03285    -0.03967     0.06554    -0.01308
 PY  C  10   0.03404     0.07292     0.01733     0.00873    -0.01606    -0.08967
 PZ  C  10  -0.01688     0.03751     0.01954     0.01626    -0.03039    -0.03310
  
  S  C  11  -0.02836    -0.05571    -0.06257     0.03228     0.04846     0.10682
 PX  C  11   0.03444    -0.01815    -0.01745    -0.01695     0.03030     0.01884
 PY  C  11  -0.00032     0.00535    -0.01556     0.01592     0.00924     0.00463
 PZ  C  11  -0.01592     0.00525    -0.00092     0.01242    -0.00639    -0.00405
  
  S  C  12   0.02324    -0.08206    -0.04859    -0.01749     0.05566     0.12098
 PX  C  12   0.00753    -0.00273     0.02261    -0.01833    -0.02011    -0.00627
 PY  C  12   0.01424    -0.01830    -0.01382    -0.00689     0.01697     0.01799
 PZ  C  12   0.00325    -0.00821    -0.01496     0.00345     0.01556     0.01078
  
  S  C  13   0.04441    -0.09487    -0.00562    -0.05721     0.01740     0.09243
 PX  C  13  -0.01215     0.00398     0.04907    -0.01636    -0.05451    -0.01241
 PY  C  13   0.00677     0.00457     0.00277    -0.00413    -0.00057    -0.02653
 PZ  C  13   0.00770    -0.00035    -0.01541     0.00307     0.01839    -0.00778
  
  S  C  14   0.06614    -0.04406    -0.02851    -0.04115     0.05181    -0.03064
 PX  C  14  -0.01925    -0.01931     0.02517    -0.00981    -0.03256     0.04236
 PY  C  14  -0.00489     0.02534     0.01257     0.00427    -0.01143    -0.04995
 PZ  C  14   0.00477     0.01817    -0.00261     0.00499     0.00579    -0.03898
  
  S  C  15   0.08553     0.06989    -0.02975     0.00250     0.05042    -0.16556
 PX  C  15   0.00827    -0.06715    -0.01834    -0.03168     0.03317     0.03970
 PY  C  15   0.03122     0.01013     0.02047    -0.03308     0.00072    -0.06994
 PZ  C  15   0.01054     0.02752     0.01639    -0.00442    -0.01182    -0.04693
  
  S  C  16   0.20510     0.06257     0.02024    -0.10612     0.06593    -0.22708
 PX  C  16  -0.02878    -0.00813    -0.01447     0.01119     0.01092    -0.06596
 PY  C  16   0.05624    -0.06989    -0.00246    -0.07182     0.04416    -0.00179
 PZ  C  16   0.03707    -0.03288     0.00381    -0.03830     0.01704     0.02469
  
  S  C  17   0.11843     0.06213     0.04354    -0.06012    -0.00481     0.03946
 PX  C  17   0.03785     0.04609     0.00039     0.00525     0.00692    -0.13598
 PY  C  17   0.13077    -0.05926    -0.00602    -0.09847     0.06951     0.01038
 PZ  C  17   0.04326    -0.05278    -0.00408    -0.05006     0.03164     0.05894
  
  S  C  18   0.17457    -0.06341     0.02131    -0.13107     0.05008     0.26274
 PX  C  18   0.07444    -0.01294     0.00644    -0.03926     0.01939    -0.03542
 PY  C  18   0.06077    -0.03752    -0.00939    -0.02131     0.02206     0.02450
 PZ  C  18  -0.00060    -0.01604    -0.00738     0.00433     0.00363     0.02586
  
  S  C  19  -0.01926     0.01702     0.00323    -0.01333     0.00305     0.11101
 PX  C  19   0.05992    -0.04223     0.00981    -0.04961     0.01379     0.13551
 PY  C  19   0.03885    -0.01240     0.00098    -0.01943     0.00992     0.04991
 PZ  C  19  -0.00439     0.00415    -0.00382     0.00629     0.00168    -0.02228
  
  S  C  20  -0.06002     0.04974    -0.00451     0.03300    -0.01128    -0.04670
 PX  C  20   0.02077    -0.01863     0.00508    -0.02464     0.00605     0.09131
 PY  C  20   0.02288    -0.01075     0.00158    -0.01296     0.00524     0.03098
 PZ  C  20  -0.02268     0.01939    -0.00295     0.01416    -0.00343    -0.02650
  
  S  C  21  -0.07207     0.06025    -0.00951     0.05620    -0.01669    -0.15553
 PX  C  21  -0.02737     0.02123    -0.00272     0.01645    -0.00512    -0.02926
 PY  C  21   0.00496    -0.00143     0.00061    -0.00349     0.00120     0.01300
 PZ  C  21  -0.01754     0.01454    -0.00275     0.01416    -0.00367    -0.04268
  
  S  C  22  -0.05151     0.04076    -0.00786     0.04281    -0.01188    -0.13536
 PX  C  22  -0.04653     0.03872    -0.00597     0.03245    -0.00894    -0.07802
 PY  C  22  -0.01380     0.01294    -0.00182     0.01086    -0.00314    -0.02845
 PZ  C  22   0.01505    -0.01263     0.00180    -0.01177     0.00382     0.03149
  
  S  C  23  -0.06502     0.04941    -0.00939     0.04595    -0.01142    -0.12973
[...]
  86    H       10.071036170     3.827084842    -3.580972020
  87    H       10.891780880     7.795310643    -2.065781118
  88    H        3.805332027     8.432989929    -1.602712786
  89    H        1.463074508     7.777412411    -1.076047285
  90    H        2.782114737     6.327256712     2.796984077
  91    H        5.092196426     6.957250569     2.233891615
  92    H        0.650948827     6.337463398     3.147441876
  93    H       -0.836802449     6.134029754     2.192717135
  94    H        0.220933303     4.170824074     0.941153398
  95    H        1.710191426     4.354921727     1.866944047
  96    H        0.221459896     3.866066593     2.682608108
  97    H        9.453030181    10.488855140    -2.708445085
  98    H       11.764750680    11.297177040    -3.153890686
  99    H       12.982142310     9.826750911     0.748131647
 100    H       10.688193930     9.053739312     1.160219981
 101    H       14.386580280    11.719595400     0.286303353
 102    H       15.046383870    10.152069640    -0.274822496
 103    H       16.256235080    11.360074470    -2.182741679
 104    H       15.609115600    12.904162840    -1.625622221
 105    H       16.742669270    12.002988460    -0.606509227
 106    H        3.604708299     9.704158761     1.555729687
 107    H        2.888166280    11.749898480     2.762431411
 108    H        4.435787399    13.644118100     3.079618284
 109    H        6.755210802    13.560359440     2.209219278
 110    H        8.800088679    13.004428000     1.307568467
 111    H        9.680942289    11.892265460     0.263811756
 112    H        7.947509073    12.322201030    -1.611437329
 113    H        7.144859965    13.499636050    -0.584039406
 114    H       10.103664410    13.633542590    -1.504346653
 115    H        8.784399708    14.509244380    -2.242527634
 116    H        9.146990576    16.231920820    -0.783417616
 117    H        8.471883788    15.251863890     0.485641491
 118    H       10.588390560    15.829416350     1.383431356
 119    H       10.878269880    14.209594850     0.789899947
 120    H       12.748133390    15.363135500    -0.077395559
 121    H       11.685818970    15.364587260    -1.472842327
 122    H       10.855934460    17.710390340    -0.799856145
 123    H       11.960096720    17.687150720     0.565443448
 124    H       12.821555820    17.444252280    -2.403982666
 125    H       13.004405600    18.873360790    -1.387160847
 126    H       13.933323890    17.416626590    -1.033670583
 127    H       13.097694510     6.703628208    -1.824686132
 128    H       15.226221300     6.336407487    -3.285940729
 129    H       16.420391470     3.141434147    -9.352902439


           Empirical Formula: C58 H63 N3 O4 S  =   129 atoms



      MOLECULAR POINT GROUP   :   C1  


                  EIGENVALUES  
 -49.19370 -48.03862 -47.21688 -46.94296 -46.74663 -44.38760 -43.73159 -43.55229
 -43.32766 -42.98297 -42.27725 -41.77054 -41.33461 -40.02023 -39.60618 -39.18924
 -39.04475 -37.84318 -36.44657 -36.21624 -35.77915 -35.21428 -34.80809 -34.28575
 -34.14885 -33.61390 -33.31592 -33.17002 -32.94462 -32.14339 -31.05007 -30.66991
 -30.21277 -29.61548 -29.24717 -28.65313 -28.54915 -28.29830 -27.56419 -27.11093
 -27.02975 -26.69956 -26.14061 -26.03276 -25.91706 -25.76651 -25.36828 -25.13390
 -24.90007 -24.54485 -24.46901 -24.36768 -24.08902 -23.84823 -23.75294 -23.67720
 -23.41288 -23.32440 -22.80104 -22.32413 -22.14112 -21.72290 -21.23747 -21.02428
 -20.81204 -20.66036 -20.31859 -20.01822 -19.81180 -19.45264 -19.23568 -19.14623
 -19.11287 -19.00934 -18.80440 -18.66589 -18.48615 -18.27599 -18.18843 -18.12124
 -17.86053 -17.76085 -17.65853 -17.47458 -17.29078 -17.18535 -17.09408 -16.86881
 -16.73265 -16.60632 -16.56041 -16.44853 -16.21269 -16.12310 -15.96260 -15.94087
 -15.78628 -15.62242 -15.59298 -15.42221 -15.35795 -15.27868 -15.16897 -15.10643
 -15.05030 -14.89007 -14.82328 -14.76466 -14.73920 -14.55153 -14.54086 -14.47372
 -14.42970 -14.33122 -14.24742 -14.14978 -14.08032 -14.01565 -13.97239 -13.81213
 -13.65916 -13.59455 -13.50443 -13.48810 -13.37874 -13.34036 -13.26722 -13.23312
 -13.13418 -13.05994 -12.99594 -12.95053 -12.83595 -12.80214 -12.67332 -12.62147
 -12.57959 -12.53415 -12.49385 -12.36241 -12.35659 -12.30443 -12.20209 -12.17143
 -12.09648 -12.09055 -11.95605 -11.89127 -11.82039 -11.76240 -11.59494 -11.30231
 -11.10896 -11.07105 -10.88170 -10.75340 -10.60569 -10.32678 -10.12514  -9.92143
  -9.17638  -9.12900  -8.89435  -8.85040  -8.36679  -8.07417  -7.98741  -7.60471
  -7.31012  -7.01142  -1.25528  -0.09857   0.30834   0.70377   0.72774   0.75333
   0.79751   0.85257   0.87726   0.91362   1.14767   1.35787   1.61524   1.74538
   2.11101   2.15837   2.45202   2.57405   2.71496   2.77966   2.81458   2.88397
   2.95385   3.01169   3.05246   3.10088   3.13069   3.24790   3.27706   3.31518
   3.41961   3.44261   3.46613   3.49056   3.60901   3.62771   3.65511   3.74889
   3.80496   3.86553   3.91234   4.01816   4.08815   4.09094   4.12664   4.15495
   4.22146   4.25167   4.29072   4.42860   4.55873   4.57909   4.60212   4.66751
   4.73874   4.82541   4.93514   5.05259   5.08836   5.12043   5.22661   5.33477
   5.39309   5.42817   5.52288   5.56145   5.70494   5.74879   5.76867   5.88566
   5.99050   6.23492   6.37728   6.44279   6.49769   6.50899   6.55958   6.57648
   6.60919   6.63887   6.68566   6.68702   6.74981   6.75948   6.76862   6.77966
   6.79840   6.81029   6.84769   6.88270   6.91968   6.95640   6.98083   7.01353
   7.01875   7.02181   7.03058   7.03989   7.07533   7.08105   7.10161   7.33953
   7.81769   8.02415   8.02882   8.15012   8.19545   8.27504   8.30932   8.39404
   8.56676   8.64296   8.64795   8.69555   8.70348   8.79946   8.91886   8.92446
   8.99054   9.06856   9.07919   9.11388   9.19870   9.24748   9.40372   9.46288
   9.87081   9.93850  10.03942  10.13553  10.29558  10.55023  10.74160  10.88688
  11.05237  11.12525  11.40930  11.51206  11.61418  11.66901  11.68752  12.00030
  12.36032  12.51629  12.53596  12.57899  12.67638  12.90197  13.03282  13.22632
  13.26249  13.64059  13.92689  14.30690  14.43444  14.62658  15.65390


              NET ATOMIC CHARGES AND DIPOLE CONTRIBUTIONS

  ATOM NO.   TYPE          CHARGE      No. of ELECS.   s-Pop       p-Pop       
    1          C          -0.027791        4.0278     1.05491     2.97288
    2          C          -0.006859        4.0069     1.04475     2.96211
    3          C          -0.009633        4.0096     1.05118     2.95846
    4          C          -0.011007        4.0110     1.05227     2.95874
    5          C          -0.010008        4.0100     1.05121     2.95880
    6          C          -0.009421        4.0094     1.05043     2.95899
    7          C          -0.005481        4.0055     1.05294     2.95254
    8          C           0.070560        3.9294     1.05285     2.87659
    9          N          -0.162021        5.1620     1.26799     3.89404
   10          C           0.081822        3.9182     1.05170     2.86648
   11          C          -0.040533        4.0405     1.07815     2.96238
   12          C          -0.021092        4.0211     1.08238     2.93871
   13          C           0.003184        3.9968     1.03743     2.95938
   14          C          -0.025577        4.0256     1.08730     2.93827
   15          C          -0.014584        4.0146     1.05040     2.96418
   16          C          -0.025733        4.0257     1.05027     2.97546
   17          C           0.051498        3.9485     1.05269     2.89581
   18          C           0.008664        3.9913     1.04202     2.94932
   19          C           0.035522        3.9645     1.04631     2.91817
   20          C          -0.031812        4.0318     1.07830     2.95351
   21          C          -0.033937        4.0339     1.08184     2.95210
   22          C           0.136129        3.8639     1.04169     2.82218
   23          C          -0.030644        4.0306     1.07962     2.95102
   24          C          -0.035043        4.0350     1.07867     2.95637
   25          O          -0.334202        6.3342     1.68984     4.64436
   26          C           0.128803        3.8712     1.04855     2.82264
   27          C          -0.018467        4.0185     1.05283     2.96564
   28          C          -0.022740        4.0227     1.05139     2.97135
   29          C           0.048530        3.9515     1.05414     2.89733
   30          C           0.010498        3.9895     1.04240     2.94710
   31          C           0.034363        3.9656     1.04609     2.91955
   32          C          -0.031717        4.0317     1.07881     2.95291
   33          C          -0.033722        4.0337     1.08163     2.95209
   34          C           0.135579        3.8644     1.04267     2.82175
   35          C          -0.030709        4.0307     1.07873     2.95198
   36          C          -0.035265        4.0353     1.07833     2.95693
   37          O          -0.328816        6.3288     1.69456     4.63425
   38          C           0.127752        3.8722     1.05237     2.81988
   39          C          -0.023295        4.0233     1.05362     2.96967
   40          N          -0.173059        5.1731     1.30080     3.87225
   41          C           0.076456        3.9235     1.05380     2.86974
   42          C          -0.014237        4.0142     1.04855     2.96569
   43          C          -0.028277        4.0283     1.08485     2.94342
   44          C          -0.046706        4.0467     1.07853     2.96818
   45          C          -0.025926        4.0259     1.08048     2.94545
   46          C          -0.044100        4.0441     1.07639     2.96771
   47          C           0.068371        3.9316     1.05329     2.87834
   48          C          -0.001404        4.0014     1.05148     2.94993
   49          C          -0.008835        4.0088     1.05043     2.95840
   50          C          -0.005615        4.0056     1.04960     2.95601
   51          C          -0.007112        4.0071     1.05094     2.95617
   52          C          -0.004440        4.0044     1.04870     2.95574
   53          C          -0.003982        4.0040     1.04375     2.96023
   54          C          -0.027683        4.0277     1.05488     2.97281
   55          C           0.084671        3.9153     1.09182     2.82351
   56          C          -0.060642        4.0606     1.08096     2.97969
   57          C           0.039228        3.9608     1.10203     2.85874
   58          C          -0.010323        4.0103     1.05907     2.95125
   59          S          -0.028641        6.0286     1.76770     4.26094
   60          C           0.123430        3.8766     1.09472     2.78185
   61          C          -0.000341        4.0003     0.99942     3.00092
   62          C           0.494974        3.5050     1.04556     2.45947
   63          O          -0.617277        6.6173     1.81703     4.80025
   64          O          -0.312228        6.3122     1.68770     4.62453
   65          C           0.217813        3.7822     1.14945     2.63274
   66          N          -0.401965        5.4020     1.75370     3.64827
   67          H           0.060035        0.9400     0.93997
   68          H           0.007860        0.9921     0.99214
   69          H           0.000194        0.9998     0.99981
   70          H           0.007818        0.9922     0.99218
   71          H           0.006156        0.9938     0.99384
   72          H           0.006239        0.9938     0.99376
   73          H           0.006901        0.9931     0.99310
   74          H           0.007860        0.9921     0.99214
   75          H           0.006731        0.9933     0.99327
   76          H           0.007033        0.9930     0.99297
   77          H           0.008718        0.9913     0.99128
   78          H           0.007032        0.9930     0.99297
   79          H           0.000890        0.9991     0.99911
   80          H           0.008376        0.9916     0.99162
   81          H           0.009911        0.9901     0.99009
   82          H           0.006612        0.9934     0.99339
   83          H           0.017604        0.9824     0.98240
   84          H           0.024672        0.9753     0.97533
   85          H           0.027835        0.9722     0.97216
   86          H           0.024101        0.9759     0.97590
   87          H           0.031927        0.9681     0.96807
   88          H           0.024621        0.9754     0.97538
   89          H           0.027214        0.9728     0.97279
   90          H           0.032991        0.9670     0.96701
   91          H           0.025262        0.9747     0.97474
   92          H           0.032142        0.9679     0.96786
   93          H           0.012536        0.9875     0.98746
   94          H           0.012424        0.9876     0.98758
   95          H           0.016179        0.9838     0.98382
   96          H           0.008511        0.9915     0.99149
   97          H           0.024456        0.9755     0.97554
   98          H           0.026918        0.9731     0.97308
   99          H           0.032212        0.9678     0.96779
  100          H           0.024488        0.9755     0.97551
  101          H           0.028903        0.9711     0.97110
  102          H           0.028196        0.9718     0.97180
  103          H           0.011973        0.9880     0.98803
  104          H           0.010234        0.9898     0.98977
  105          H           0.007555        0.9924     0.99244
  106          H           0.028031        0.9720     0.97197
  107          H           0.015754        0.9842     0.98425
  108          H           0.018325        0.9817     0.98167
  109          H           0.025775        0.9742     0.97422
  110          H           0.016413        0.9836     0.98359
  111          H           0.023858        0.9761     0.97614
  112          H           0.005277        0.9947     0.99472
  113          H           0.013432        0.9866     0.98657
  114          H           0.008559        0.9914     0.99144
  115          H          -0.001870        1.0019     1.00187
  116          H           0.004699        0.9953     0.99530
  117          H           0.002489        0.9975     0.99751
  118          H           0.000898        0.9991     0.99910
  119          H           0.001140        0.9989     0.99886
  120          H           0.001093        0.9989     0.99891
  121          H           0.008452        0.9915     0.99155
  122          H           0.008283        0.9917     0.99172
  123          H           0.006754        0.9932     0.99325
  124          H           0.008032        0.9920     0.99197
  125          H           0.000864        0.9991     0.99914
  126          H           0.007882        0.9921     0.99212
  127          H           0.035201        0.9648     0.96480
  128          H           0.048231        0.9518     0.95177
  129          H           0.246162        0.7538     0.75384
 DIPOLE           X         Y         Z       TOTAL
 POINT-CHG.    -1.995     2.079     8.142     8.637
 HYBRID         2.718     0.671     2.001     3.442
 SUM            0.723     2.751    10.143    10.534


          ATOMIC ORBITAL ELECTRON POPULATIONS

     Atom    s        px        py        pz   
    1  C   1.05491   0.99086   0.98885   0.99318
    2  C   1.04475   0.99081   0.98550   0.98579
    3  C   1.05118   0.99080   0.98035   0.98731
    4  C   1.05227   0.99043   0.98146   0.98684
    5  C   1.05121   0.98722   0.98489   0.98668
    6  C   1.05043   0.99609   0.97714   0.98575
    7  C   1.05294   0.98287   0.99484   0.97483
    8  C   1.05285   0.93779   0.94269   0.99611
    9  N   1.26799   1.19807   1.14721   1.54875
   10  C   1.05170   0.90854   0.98698   0.97095
   11  C   1.07815   0.97970   0.96168   1.02100
   12  C   1.08238   0.98264   0.96411   0.99197
   13  C   1.03743   0.95571   0.98995   1.01372
   14  C   1.08730   0.97202   0.96998   0.99627
   15  C   1.05040   0.96715   0.98941   1.00762
   16  C   1.05027   0.98659   0.95919   1.02968
   17  C   1.05269   0.98538   0.91571   0.99472
   18  C   1.04202   0.96278   0.97875   1.00778
   19  C   1.04631   0.97524   0.95416   0.98877
   20  C   1.07830   0.98447   1.01075   0.95829
   21  C   1.08184   0.97040   1.01283   0.96887
   22  C   1.04169   0.83471   0.99473   0.99274
   23  C   1.07962   0.97835   1.01901   0.95366
   24  C   1.07867   0.96753   1.02073   0.96812
   25  O   1.68984   1.34675   1.72142   1.57618
   26  C   1.04855   0.97385   0.95513   0.89366
   27  C   1.05283   0.99722   0.97162   0.99679
   28  C   1.05139   0.98732   0.95819   1.02584
   29  C   1.05414   0.98350   0.92213   0.99169
   30  C   1.04240   0.96265   0.97704   1.00742
   31  C   1.04609   0.97332   0.95804   0.98818
   32  C   1.07881   0.97139   1.01528   0.96625
   33  C   1.08163   0.98675   1.00914   0.95620
   34  C   1.04267   0.85186   0.98086   0.98903
   35  C   1.07873   0.97433   1.01575   0.96191
   36  C   1.07833   0.98644   1.01182   0.95867
   37  O   1.69456   1.25773   1.86816   1.50836
   38  C   1.05237   0.91195   0.99888   0.90905
   39  C   1.05362   0.98527   0.99215   0.99225
   40  N   1.30080   1.21906   1.13087   1.52232
   41  C   1.05380   0.90719   0.98671   0.97585
   42  C   1.04855   0.96680   0.98804   1.01085
   43  C   1.08485   0.97238   0.96913   1.00192
   44  C   1.07853   0.95115   0.99926   1.01777
   45  C   1.08048   0.99433   0.96307   0.98805
   46  C   1.07639   0.97957   0.96359   1.02455
   47  C   1.05329   0.94496   0.94086   0.99252
   48  C   1.05148   0.97962   0.98707   0.98324
   49  C   1.05043   0.98788   0.99539   0.97512
   50  C   1.04960   0.98176   0.97987   0.99438
   51  C   1.05094   1.00140   0.98075   0.97403
   52  C   1.04870   0.97783   0.99223   0.98568
   53  C   1.04375   0.98509   0.99014   0.98500
   54  C   1.05488   0.99251   0.98740   0.99290
   55  C   1.09182   0.98705   0.91978   0.91668
   56  C   1.08096   0.98580   1.03515   0.95873
   57  C   1.10203   0.96037   0.90805   0.99032
   58  C   1.05907   0.88606   1.07378   0.99141
   59  S   1.76770   1.18521   1.74449   1.33123
   60  C   1.09472   0.97757   0.86672   0.93756
   61  C   0.99942   0.90785   1.09051   1.00257
   62  C   1.04556   0.91141   0.73085   0.81721
   63  O   1.81703   1.34168   1.60913   1.84944
   64  O   1.68770   1.53833   1.69176   1.39444
   65  C   1.14945   0.91654   0.88050   0.83569
   66  N   1.75370   1.23350   1.20225   1.21251
   67  H   0.93997
   68  H   0.99214
   69  H   0.99981
   70  H   0.99218
   71  H   0.99384
   72  H   0.99376
   73  H   0.99310
   74  H   0.99214
   75  H   0.99327
   76  H   0.99297
   77  H   0.99128
   78  H   0.99297
   79  H   0.99911
   80  H   0.99162
   81  H   0.99009
   82  H   0.99339
   83  H   0.98240
   84  H   0.97533
   85  H   0.97216
   86  H   0.97590
   87  H   0.96807
   88  H   0.97538
   89  H   0.97279
   90  H   0.96701
   91  H   0.97474
   92  H   0.96786
   93  H   0.98746
   94  H   0.98758
   95  H   0.98382
   96  H   0.99149
   97  H   0.97554
   98  H   0.97308
   99  H   0.96779
  100  H   0.97551
  101  H   0.97110
  102  H   0.97180
  103  H   0.98803
  104  H   0.98977
  105  H   0.99244
  106  H   0.97197
  107  H   0.98425
  108  H   0.98167
  109  H   0.97422
  110  H   0.98359
  111  H   0.97614
  112  H   0.99472
  113  H   0.98657
  114  H   0.99144
  115  H   1.00187
  116  H   0.99530
  117  H   0.99751
  118  H   0.99910
  119  H   0.99886
  120  H   0.99891
  121  H   0.99155
  122  H   0.99172
  123  H   0.99325
  124  H   0.99197
  125  H   0.99914
  126  H   0.99212
  127  H   0.96480
  128  H   0.95177
  129  H   0.75384

 **********************
 *                    *
 * JOB ENDED NORMALLY *
 *                    *
 **********************



 TOTAL JOB TIME:           920.18 SECONDS

 == MOPAC DONE ==
