 *******************************************************************************
 ** Site#: 4824         For non-commercial use only    Version 21.013L 64BITS **
 *******************************************************************************
 ** Cite this program as: MOPAC2016, Version: 21.013L, James J. P. Stewart,   **
 ** Stewart Computational Chemistry, web: HTTP://OpenMOPAC.net. Days left:  84**
 *******************************************************************************
 **                                                                           **
 **                                MOPAC2016                                  **
 **                                                                           **
 *******************************************************************************

                              INDO CALCULATION RESULTS

 *******************************************************************************
 *  CALCULATION DONE:                                Thu Oct 21 13:42:58 2021  *
 *  INDO       - The INDO Hamiltonian to be used
 *  CIS        - C.I. USES 1 ELECTRON EXCITATIONS ONLY
 *  EPS= 36.70 - USE ANDREAS KLAMT'S COSMO IMPLICIT SOLVATION MODEL
 *  n**2 =  1.430 for COSMO-CI
 *  T=         - A TIME OF 172800.0 SECONDS REQUESTED
 *  DUMP=N     - RESTART FILE WRITTEN EVERY 7200.0 SECONDS REQUESTED
 *******************************************************************************
INDO CIS EPS=36.7 N**2=1.43
 Dye81
 Calculo de Estados Excitados
   ATOM   CHEMICAL          X               Y               Z
  NUMBER   SYMBOL      (ANGSTROMS)     (ANGSTROMS)     (ANGSTROMS)
 
     1       N          0.00000000  *   0.00000000  *   0.00000000  *
     2       C          1.15649296  *   0.00000000  *   0.00000000  *
     3       C          2.57328013  *   0.02191128  *   0.00000000  *
     4       C          3.32577583  *  -1.09030829  *  -0.11502314  *
     5       C          2.77558077  *  -2.41126675  *  -0.19028270  *
     6       C          1.67087102  *  -2.88726534  *   0.46477264  *
     7       C          1.42975089  *  -4.26539037  *   0.17312380  *
     8       C          2.35994827  *  -4.77788633  *  -0.69056209  *
     9       S          3.52805718  *  -3.61416312  *  -1.14730827  *
    10       C          2.40840785  *  -6.10956449  *  -1.20039815  *
    11       C          3.52673718  *  -6.87567262  *  -1.37917689  *
    12       C          3.21267346  *  -8.16570077  *  -1.91364466  *
    13       C          1.87178763  *  -8.32368557  *  -2.11894669  *
    14       S          0.97949272  *  -6.93419122  *  -1.66900568  *
    15       C          1.23227318  *  -9.51154729  *  -2.63329077  *
    16       C          0.19571763  *  -9.39932869  *  -3.57451389  *
    17       C         -0.42961047  * -10.51690937  *  -4.09870672  *
    18       C          0.01554201  * -11.76244150  *  -3.66098515  *
    19       C          1.05290544  * -11.88647809  *  -2.69671366  *
    20       C          1.66612033  * -10.75555170  *  -2.18454505  *
    21       C          1.23859069  * -13.29283361  *  -2.44770711  *
    22       C          2.11102543  * -13.98295228  *  -1.60998915  *
    23       C          2.02856527  * -15.35707452  *  -1.63058146  *
    24       C          2.79034327  * -16.34446584  *  -0.88398714  *
    25       C          3.79074415  * -16.18185258  *   0.05031573  *
    26       C          4.35581996  * -17.32789028  *   0.61662983  *
    27       C          3.92221990  * -18.59293639  *   0.24887664  *
    28       C          2.90669908  * -18.75670632  *  -0.69940272  *
    29       C          2.34992847  * -17.63021841  *  -1.25709772  *
    30       C          1.25459543  * -17.53747765  *  -2.28864355  *
    31       C          1.11077640  * -16.04476163  *  -2.46676294  *
    32       C          0.24044598  * -15.38910956  *  -3.30162602  *
    33       C          0.31212481  * -13.99045397  *  -3.26858216  *
    34       N         -0.43222259  * -13.05030399  *  -4.00755351  *
    35       C         -1.46289855  * -13.34901572  *  -4.93168105  *
    36       C         -2.49721176  * -14.20971679  *  -4.55469457  *
    37       C         -3.49865275  * -14.50025152  *  -5.47150306  *
    38       C         -3.47931126  * -13.93286307  *  -6.74015528  *
    39       C         -2.44937587  * -13.07273231  *  -7.10234732  *
    40       C         -1.43014175  * -12.77808411  *  -6.20670372  *
    41       C          1.68056894  * -18.19751459  *  -3.59179086  *
    42       C         -0.03777536  * -18.14456758  *  -1.76284096  *
    43       C          3.23002598  *   1.33222126  *   0.10089291  *
    44       O          4.43366728  *   1.54670516  *   0.07242496  *
    45       O          2.37423220  *   2.36435887  *   0.23982114  *
    46       H          4.42369621  *  -1.01470333  *  -0.16165590  *
    47       H          1.04814719  *  -2.32059702  *   1.15493571  *
    48       H          0.60044742  *  -4.82190993  *   0.60400329  *
    49       H          4.54330696  *  -6.56871168  *  -1.14494999  *
    50       H          3.97175586  *  -8.91256574  *  -2.13297059  *
    51       H         -0.12335890  *  -8.40606542  *  -3.90729360  *
    52       H         -1.24637708  * -10.42196839  *  -4.81751149  *
    53       H          2.46185242  * -10.85046430  *  -1.44104572  *
    54       H          2.82119540  * -13.45047829  *  -0.97469980  *
    55       H          4.13391319  * -15.18682818  *   0.34183648  *
    56       H          5.15115575  * -17.22130055  *   1.36021980  *
    57       H          4.37765510  * -19.47721731  *   0.70400322  *
    58       H          2.56797585  * -19.75514085  *  -0.98645975  *
    59       H         -0.45022378  * -15.92185611  *  -3.95701904  *
    60       H         -2.53085030  * -14.64086551  *  -3.54898665  *
    61       H         -4.31166123  * -15.17587729  *  -5.18801291  *
    62       H         -4.27544395  * -14.16319417  *  -7.45401361  *
    63       H         -2.43566720  * -12.62799328  *  -8.10228474  *
    64       H         -0.60938902  * -12.11837108  *  -6.50592552  *
    65       H          2.61148325  * -17.76556027  *  -3.98612609  *
    66       H          1.85768098  * -19.27495454  *  -3.46371339  *
    67       H          0.91859803  * -18.08537989  *  -4.37622423  *
    68       H         -0.86499606  * -18.02888154  *  -2.47755828  *
    69       H          0.06939320  * -19.22027822  *  -1.56279016  *
    70       H         -0.35938784  * -17.67545085  *  -0.82201781  *
    71       H          2.85019006  *   3.20546202  *   0.30006516  *
 


          CARTESIAN COORDINATES 

    NO.       ATOM           X           Y           Z

     1         N          0.0000      0.0000      0.0000
     2         C          1.1565      0.0000      0.0000
     3         C          2.5733      0.0219      0.0000
     4         C          3.3258     -1.0903     -0.1150
     5         C          2.7756     -2.4113     -0.1903
     6         C          1.6709     -2.8873      0.4648
     7         C          1.4298     -4.2654      0.1731
     8         C          2.3599     -4.7779     -0.6906
     9         S          3.5281     -3.6142     -1.1473
    10         C          2.4084     -6.1096     -1.2004
    11         C          3.5267     -6.8757     -1.3792
    12         C          3.2127     -8.1657     -1.9136
    13         C          1.8718     -8.3237     -2.1189
    14         S          0.9795     -6.9342     -1.6690
    15         C          1.2323     -9.5115     -2.6333
    16         C          0.1957     -9.3993     -3.5745
    17         C         -0.4296    -10.5169     -4.0987
    18         C          0.0155    -11.7624     -3.6610
    19         C          1.0529    -11.8865     -2.6967
    20         C          1.6661    -10.7556     -2.1845
    21         C          1.2386    -13.2928     -2.4477
    22         C          2.1110    -13.9830     -1.6100
    23         C          2.0286    -15.3571     -1.6306
    24         C          2.7903    -16.3445     -0.8840
    25         C          3.7907    -16.1819      0.0503
    26         C          4.3558    -17.3279      0.6166
    27         C          3.9222    -18.5929      0.2489
    28         C          2.9067    -18.7567     -0.6994
    29         C          2.3499    -17.6302     -1.2571
    30         C          1.2546    -17.5375     -2.2886
    31         C          1.1108    -16.0448     -2.4668
    32         C          0.2404    -15.3891     -3.3016
    33         C          0.3121    -13.9905     -3.2686
    34         N         -0.4322    -13.0503     -4.0076
    35         C         -1.4629    -13.3490     -4.9317
    36         C         -2.4972    -14.2097     -4.5547
    37         C         -3.4987    -14.5003     -5.4715
    38         C         -3.4793    -13.9329     -6.7402
    39         C         -2.4494    -13.0727     -7.1023
    40         C         -1.4301    -12.7781     -6.2067
    41         C          1.6806    -18.1975     -3.5918
    42         C         -0.0378    -18.1446     -1.7628
    43         C          3.2300      1.3322      0.1009
    44         O          4.4337      1.5467      0.0724
    45         O          2.3742      2.3644      0.2398
    46         H          4.4237     -1.0147     -0.1617
    47         H          1.0481     -2.3206      1.1549
    48         H          0.6004     -4.8219      0.6040
    49         H          4.5433     -6.5687     -1.1449
    50         H          3.9718     -8.9126     -2.1330
    51         H         -0.1234     -8.4061     -3.9073
    52         H         -1.2464    -10.4220     -4.8175
    53         H          2.4619    -10.8505     -1.4410
    54         H          2.8212    -13.4505     -0.9747
    55         H          4.1339    -15.1868      0.3418
    56         H          5.1512    -17.2213      1.3602
    57         H          4.3777    -19.4772      0.7040
    58         H          2.5680    -19.7551     -0.9865
    59         H         -0.4502    -15.9219     -3.9570
    60         H         -2.5309    -14.6409     -3.5490
    61         H         -4.3117    -15.1759     -5.1880
    62         H         -4.2754    -14.1632     -7.4540
    63         H         -2.4357    -12.6280     -8.1023
    64         H         -0.6094    -12.1184     -6.5059
    65         H          2.6115    -17.7656     -3.9861
    66         H          1.8577    -19.2750     -3.4637
    67         H          0.9186    -18.0854     -4.3762
    68         H         -0.8650    -18.0289     -2.4776
    69         H          0.0694    -19.2203     -1.5628
    70         H         -0.3594    -17.6755     -0.8220
    71         H          2.8502      3.2055      0.3001

           Empirical Formula: C39 H26 N2 O2 S2  =    71 atoms



      MOLECULAR POINT GROUP   :   C1  


      RHF CALCULATION, NO. OF DOUBLY OCCUPIED LEVELS = 108

 WARNING: INDO only performs single-point calculations

 Summary of symmetry occupancy in each shell:

 SHELL     
    1  108
    v   98
 TOTAL 206




    ROOT NO.    1           2           3           4           5           6

           -48.77830   -47.18141   -46.82409   -44.03775   -43.54583   -43.01308
  
  
  S  N   1   0.00002    -0.00007     0.04017    -0.01006     0.03484     0.05249
 PX  N   1   0.00001    -0.00004     0.02473    -0.00533     0.01837     0.02746
 PY  N   1  -0.00000     0.00000     0.00385     0.00167    -0.00516    -0.00686
 PZ  N   1   0.00000    -0.00000     0.00053    -0.00017     0.00051     0.00065
  
  S  C   2   0.00005    -0.00017     0.11417    -0.01777     0.06076     0.08980
 PX  C   2   0.00001    -0.00006     0.04944    -0.00298     0.00988     0.01377
 PY  C   2  -0.00001     0.00001     0.02195     0.00575    -0.01771    -0.02350
 PZ  C   2   0.00000    -0.00000     0.00223    -0.00010     0.00030     0.00035
  
  S  C   3   0.00007    -0.00029     0.22864    -0.02057     0.07122     0.10590
 PX  C   3   0.00000    -0.00002     0.03182     0.00144    -0.00405    -0.00484
 PY  C   3  -0.00002    -0.00002     0.07713     0.01293    -0.04022    -0.05413
 PZ  C   3  -0.00000    -0.00000     0.00592     0.00073    -0.00234    -0.00326
  
  S  C   4   0.00010    -0.00028     0.11602    -0.03689     0.11841     0.16358
 PX  C   4  -0.00003     0.00007    -0.01822     0.01077    -0.03414    -0.04652
 PY  C   4  -0.00003     0.00002     0.04681     0.01048    -0.02933    -0.03395
 PZ  C   4   0.00000    -0.00001     0.00504    -0.00036     0.00134     0.00214
  
  S  C   5   0.00032    -0.00057     0.05325    -0.07877     0.23137     0.28792
 PX  C   5  -0.00006     0.00010    -0.00342     0.01431    -0.04101    -0.04923
 PY  C   5  -0.00013     0.00018     0.01484     0.01947    -0.04945    -0.04924
 PZ  C   5   0.00000    -0.00001     0.00399    -0.00316     0.01054     0.01500
  
  S  C   6   0.00036    -0.00061     0.03545    -0.08070     0.23214     0.28106
 PX  C   6   0.00008    -0.00014     0.00951    -0.01934     0.05622     0.06891
 PY  C   6  -0.00011     0.00017     0.00599     0.01615    -0.04067    -0.04015
 PZ  C   6  -0.00010     0.00016    -0.00672     0.02026    -0.05714    -0.06734
  
  S  C   7   0.00071    -0.00101     0.01912    -0.09015     0.23466     0.25002
 PX  C   7   0.00021    -0.00030     0.00598    -0.02792     0.07333     0.07897
 PY  C   7  -0.00013     0.00012     0.00629    -0.00870     0.03681     0.05990
 PZ  C   7  -0.00019     0.00026    -0.00250     0.01771    -0.04192    -0.03841
  
  S  C   8   0.00166    -0.00207     0.01649    -0.11713     0.26432     0.22545
 PX  C   8   0.00004    -0.00003    -0.00109     0.00415    -0.01430    -0.01989
 PY  C   8  -0.00070     0.00071     0.00634     0.00160     0.03221     0.08394
 PZ  C   8  -0.00023     0.00022     0.00292    -0.00375     0.02331     0.04318
  
  S  S   9   0.00055    -0.00078     0.01885    -0.06722     0.17473     0.18649
 PX  S   9  -0.00022     0.00033    -0.00773     0.03296    -0.08781    -0.09639
 PY  S   9  -0.00024     0.00028     0.00494     0.00797    -0.00760     0.01137
 PZ  S   9   0.00010    -0.00017     0.00716    -0.02206     0.06259     0.07427
  
  S  C  10   0.00564    -0.00595     0.00584    -0.16170     0.24396     0.03393
 PX  C  10   0.00029    -0.00035     0.00001    -0.01135     0.01471    -0.00514
 PY  C  10  -0.00247     0.00240     0.00191     0.03621    -0.02161     0.06304
 PZ  C  10  -0.00092     0.00089     0.00085     0.01206    -0.00479     0.02606
  
  S  C  11   0.00663    -0.00671     0.00290    -0.15577     0.20605    -0.02881
 PX  C  11  -0.00267     0.00272    -0.00103     0.06077    -0.07853     0.01401
 PY  C  11  -0.00169     0.00147     0.00059     0.01716    -0.00844     0.02879
 PZ  C  11  -0.00090     0.00084     0.00013     0.01293    -0.01151     0.01263
  
  S  C  12   0.01438    -0.01241     0.00169    -0.18115     0.19319    -0.09069
 PX  C  12  -0.00588     0.00500    -0.00046     0.06054    -0.05799     0.03592
 PY  C  12  -0.00192     0.00081     0.00060    -0.02760     0.04999     0.00307
 PZ  C  12  -0.00100     0.00064     0.00019    -0.00580     0.01386     0.00394
  
  S  C  13   0.02907    -0.02324     0.00156    -0.22769     0.19879    -0.14650
 PX  C  13  -0.00361     0.00229     0.00035    -0.01757     0.03666     0.00347
 PY  C  13  -0.01061     0.00712     0.00047     0.00639     0.03294     0.03134
 PZ  C  13  -0.00411     0.00285     0.00023    -0.00121     0.01752     0.01177
  
  S  S  14   0.00937    -0.00847     0.00222    -0.13252     0.15629    -0.04047
 PX  S  14   0.00324    -0.00329     0.00119    -0.07256     0.09282    -0.01811
 PY  S  14  -0.00463     0.00380     0.00050     0.02947    -0.01345     0.03972
 PZ  S  14  -0.00168     0.00132     0.00037     0.00450     0.00495     0.01565
  
  S  C  15   0.08693    -0.05968     0.00056    -0.26941     0.11144    -0.23682
 PX  C  15  -0.01324     0.00880     0.00012     0.00819     0.01320     0.01610
 PY  C  15  -0.03177     0.01899     0.00016     0.03221     0.02053     0.03323
 PZ  C  15  -0.01101     0.00746     0.00008     0.00936     0.00807     0.01543
  
  S  C  16   0.08456    -0.05827     0.00023    -0.20244     0.06620    -0.19858
 PX  C  16   0.00991    -0.00686     0.00009    -0.04158     0.01619    -0.03333
 PY  C  16  -0.03884     0.02497     0.00003     0.05396    -0.00338     0.05478
 PZ  C  16   0.01032    -0.00706     0.00008    -0.03966     0.01431    -0.03198
  
  S  C  17   0.13469    -0.08440     0.00000    -0.13665     0.03786    -0.15728
 PX  C  17   0.02981    -0.01878     0.00003    -0.06205     0.00604    -0.05055
 PY  C  17  -0.05038     0.02672     0.00008    -0.01861     0.00819    -0.01203
 PZ  C  17   0.02808    -0.01743     0.00003    -0.05693     0.00381    -0.04458
  
  S  C  18   0.33343    -0.17454    -0.00026    -0.11588    -0.02952    -0.08189
 PX  C  18   0.01709    -0.00484     0.00003    -0.05821    -0.01759    -0.01531
 PY  C  18  -0.11576     0.04724     0.00020    -0.07627     0.04846    -0.10066
 PZ  C  18   0.02224    -0.00716     0.00002    -0.05231    -0.01959    -0.00971
  
  S  C  19   0.27307    -0.12460    -0.00011    -0.18741    -0.05470    -0.07420
 PX  C  19  -0.06529     0.03561     0.00008     0.00887     0.01330     0.00139
 PY  C  19  -0.06169     0.00862     0.00015    -0.06359     0.05673    -0.10849
 PZ  C  19  -0.05658     0.03209     0.00006     0.01075     0.00911     0.00638
  
  S  C  20   0.11360    -0.06474     0.00025    -0.22385     0.04514    -0.17549
 PX  C  20  -0.03666     0.02238     0.00001     0.05209    -0.00165     0.04513
 PY  C  20  -0.02221     0.00527     0.00016    -0.02888     0.04029    -0.04307
 PZ  C  20  -0.03257     0.02031    -0.00001     0.05035    -0.00482     0.04422
  
  S  C  21   0.28907    -0.03522    -0.00017    -0.07184    -0.13232     0.12852
 PX  C  21  -0.07448     0.04063     0.00009    -0.00016     0.02022    -0.01582
 PY  C  21   0.00677    -0.06192    -0.00005    -0.03022     0.01781    -0.06420
 PZ  C  21  -0.06990     0.04039     0.00009     0.00168     0.01833    -0.01203
  
  S  C  22   0.14201     0.08827     0.00004    -0.03656    -0.08171     0.10836
 PX  C  22  -0.04512    -0.00665     0.00002     0.00834     0.02908    -0.03971
 PY  C  22  -0.01547    -0.06035    -0.00006    -0.00958     0.00509    -0.02248
 PZ  C  22  -0.04145    -0.00389     0.00002     0.00825     0.02688    -0.03602
  
  S  C  23   0.16775     0.27094     0.00025    -0.01366    -0.04977     0.08977
 PX  C  23  -0.02925    -0.01605    -0.00000     0.00112     0.02287    -0.04258
 PY  C  23  -0.00906    -0.10001    -0.00012    -0.00887    -0.03376     0.04214
 PZ  C  23  -0.02737    -0.01206     0.00000     0.00147     0.02272    -0.04150
  
  S  C  24   0.11562     0.32119     0.00035    -0.00150     0.04960    -0.09156
 PX  C  24  -0.02647    -0.05269    -0.00005     0.00019     0.01330    -0.03615
 PY  C  24  -0.00974    -0.05861    -0.00007    -0.00352    -0.02988     0.05464
 PZ  C  24  -0.02458    -0.04768    -0.00005     0.00032     0.01346    -0.03569
  
  S  C  25   0.04991     0.16510     0.00019    -0.00087     0.05571    -0.12054
 PX  C  25  -0.01509    -0.04337    -0.00005     0.00041    -0.00658     0.01202
 PY  C  25  -0.01191    -0.05159    -0.00006    -0.00139    -0.02619     0.05480
 PZ  C  25  -0.01381    -0.03912    -0.00004     0.00044    -0.00535     0.00957
  
  S  C  26   0.03384     0.13017     0.00015     0.00104     0.06170    -0.13482
 PX  C  26  -0.01265    -0.04697    -0.00006    -0.00040    -0.01921     0.04053
 PY  C  26  -0.00003    -0.00286    -0.00000    -0.00047    -0.00368     0.00763
 PZ  C  26  -0.01188    -0.04402    -0.00005    -0.00036    -0.01792     0.03782
  
  S  C  27   0.03432     0.13427     0.00016     0.00190     0.06391    -0.13699
 PX  C  27  -0.00860    -0.03171    -0.00004    -0.00054    -0.01177     0.02331
 PY  C  27   0.01289     0.04878     0.00006     0.00041     0.02131    -0.04574
 PZ  C  27  -0.00848    -0.03129    -0.00004    -0.00052    -0.01171     0.02330
  
  S  C  28   0.05328     0.19070     0.00022     0.00360     0.06722    -0.13149
 PX  C  28  -0.00483    -0.01008    -0.00001    -0.00059     0.00632    -0.01929
 PY  C  28   0.02414     0.08262     0.00010     0.00104     0.02540    -0.04939
 PZ  C  28  -0.00529    -0.01204    -0.00001    -0.00058     0.00515    -0.01658
  
  S  C  29   0.11863     0.36081     0.00040     0.00512     0.06810    -0.11001
 PX  C  29  -0.01210    -0.02055    -0.00002    -0.00114     0.01592    -0.04455
 PY  C  29   0.02970     0.07068     0.00007    -0.00108    -0.00240     0.00904
 PZ  C  29  -0.01231    -0.02157    -0.00002    -0.00100     0.01504    -0.04211
  
  S  C  30   0.13229     0.35399     0.00038     0.00981     0.02340     0.00558
 PX  C  30   0.01280     0.04268     0.00005    -0.00119     0.00862    -0.01722
 PY  C  30   0.02895     0.05257     0.00005    -0.00074    -0.01005     0.02193
 PZ  C  30   0.01113     0.03839     0.00004    -0.00097     0.00851    -0.01689
  
  S  C  31   0.18283     0.30101     0.00027     0.00239    -0.04870     0.11576
 PX  C  31   0.01506     0.05792     0.00007    -0.00488     0.00494    -0.00987
 PY  C  31   0.02267    -0.05811    -0.00009    -0.00595    -0.04153     0.05633
 PZ  C  31   0.01328     0.05566     0.00007    -0.00401     0.00623    -0.01120
  
  S  C  32   0.17515     0.09424     0.00000     0.02725    -0.06353     0.13598
 PX  C  32   0.02699     0.04904     0.00005    -0.01375    -0.02417     0.03455
 PY  C  32   0.05477    -0.04790    -0.00010     0.00795    -0.02483     0.03377
 PZ  C  32   0.02426     0.04678     0.00005    -0.01113    -0.02055     0.03095
  
  S  C  33   0.35405    -0.06620    -0.00029     0.01808    -0.11854     0.16558
 PX  C  33  -0.00753     0.03934     0.00006    -0.03770    -0.02992     0.02548
 PY  C  33   0.10681    -0.09362    -0.00016    -0.01436    -0.02163    -0.01001
 PZ  C  33  -0.01305     0.04022     0.00007    -0.03252    -0.02482     0.02265
  
  S  N  34   0.44617    -0.21697    -0.00054     0.10974    -0.03339     0.06838
 PX  N  34   0.05776    -0.01905    -0.00004    -0.05453    -0.05537     0.02884
 PY  N  34   0.01533    -0.01698    -0.00001    -0.03285    -0.00456    -0.02539
 PZ  N  34   0.05356    -0.01692    -0.00004    -0.04756    -0.05103     0.02907
  
  S  C  35   0.21391    -0.11986    -0.00032     0.29225     0.18547    -0.05554
 PX  C  35   0.05722    -0.02600    -0.00006    -0.05222    -0.06687     0.03973
 PY  C  35   0.01588    -0.01146    -0.00002    -0.02060    -0.01566     0.00026
 PZ  C  35   0.05196    -0.02156    -0.00005    -0.04407    -0.06195     0.04159
  
  S  C  36   0.10484    -0.05968    -0.00018     0.25972     0.19041    -0.06751
 PX  C  36   0.03897    -0.01836    -0.00005     0.01648    -0.00338     0.01154
 PY  C  36   0.02669    -0.01738    -0.00004     0.04785     0.03338    -0.01266
 PZ  C  36  -0.00819     0.00992     0.00003    -0.09037    -0.08069     0.03958
  
  S  C  37   0.05003    -0.03471    -0.00010     0.24104     0.20087    -0.08807
 PX  C  37   0.02087    -0.01347    -0.00004     0.07833     0.06238    -0.02565
 PY  C  37   0.01376    -0.01016    -0.00003     0.06385     0.05332    -0.02398
 PZ  C  37   0.00013     0.00173     0.00000    -0.02401    -0.02365     0.01315
  
  S  C  38   0.04218    -0.03187    -0.00009     0.23678     0.20290    -0.09345
 PX  C  38   0.01559    -0.01139    -0.00003     0.07463     0.06260    -0.02829
 PY  C  38   0.00448    -0.00350    -0.00001     0.02135     0.01833    -0.00881
 PZ  C  38   0.01403    -0.00999    -0.00003     0.06731     0.05586    -0.02447
  
  S  C  39   0.04959    -0.03671    -0.00010     0.23826     0.20288    -0.09436
 PX  C  39   0.00537    -0.00318    -0.00001     0.00014    -0.00154     0.00087
 PY  C  39  -0.00628     0.00476     0.00002    -0.04179    -0.03526     0.01542
 PZ  C  39   0.02343    -0.01657    -0.00005     0.09455     0.07810    -0.03498
  
  S  C  40   0.10326    -0.06652    -0.00017     0.25054     0.19676    -0.08696
 PX  C  40   0.00233     0.00168     0.00001    -0.07200    -0.06539     0.03080
 PY  C  40  -0.01526     0.01001     0.00003    -0.06677    -0.05150     0.01928
 PZ  C  40   0.04511    -0.02564    -0.00006     0.03937     0.01980    -0.00402
  
  S  C  41   0.06255     0.17408     0.00019     0.00720     0.01436     0.00368
 PX  C  41  -0.00534    -0.01213    -0.00001    -0.00136     0.00063    -0.00547
 PY  C  41   0.01715     0.04081     0.00004     0.00130    -0.00043     0.00707
 PZ  C  41   0.02378     0.06971     0.00008     0.00193     0.00726    -0.00371
  
  S  C  42   0.06253     0.17388     0.00019     0.00745     0.01457     0.00356
 PX  C  42   0.02383     0.06993     0.00008     0.00182     0.00723    -0.00383
 PY  C  42   0.01624     0.03818     0.00004     0.00130    -0.00055     0.00697
 PZ  C  42  -0.00735    -0.01769    -0.00002    -0.00154     0.00018    -0.00544
  
  S  C  43   0.00005    -0.00045     0.51342     0.00949    -0.02328    -0.02372
 PX  C  43  -0.00000    -0.00001     0.01793     0.00105    -0.00270    -0.00248
 PY  C  43   0.00000    -0.00009     0.13722     0.01130    -0.03632    -0.05149
 PZ  C  43   0.00000    -0.00001     0.01297     0.00102    -0.00331    -0.00477
  
  S  O  44   0.00003    -0.00035     0.41265     0.01021    -0.02678    -0.02960
 PX  O  44  -0.00001     0.00015    -0.17591    -0.00465     0.01251     0.01444
 PY  O  44  -0.00000     0.00001    -0.00609     0.00165    -0.00592    -0.00925
 PZ  O  44   0.00000    -0.00001     0.00670     0.00034    -0.00106    -0.00146
  
  S  O  45   0.00004    -0.00047     0.57141     0.02136    -0.06370    -0.08459
 PX  O  45   0.00001    -0.00013     0.15836     0.00622    -0.01860    -0.02466
 PY  O  45  -0.00001     0.00006    -0.06316    -0.00067     0.00102    -0.00003
 PZ  O  45  -0.00000     0.00001    -0.01332    -0.00035     0.00095     0.00112
  
  S  H  46   0.00003    -0.00010     0.05101    -0.01132     0.03675     0.05137
  
  S  H  47   0.00009    -0.00016     0.01588    -0.02320     0.06874     0.08642
  
  S  H  48   0.00029    -0.00038     0.00490    -0.02781     0.06864     0.06789
  
  S  H  49   0.00162    -0.00167     0.00109    -0.04342     0.06130    -0.00114
  
  S  H  50   0.00638    -0.00500     0.00043    -0.05827     0.05514    -0.03426
  
  S  H  51   0.02021    -0.01475     0.00011    -0.06207     0.02726    -0.06138
  
  S  H  52   0.04527    -0.02863    -0.00002    -0.01929     0.01922    -0.04453
  
  S  H  53   0.03220    -0.01609     0.00013    -0.07291     0.01946    -0.05167
  
  S  H  54   0.03902     0.02543     0.00002    -0.01631    -0.02021     0.02149
  
  S  H  55   0.01533     0.04495     0.00005    -0.00127     0.01267    -0.02931
  
  S  H  56   0.00773     0.03078     0.00004     0.00021     0.01646    -0.03689
  
  S  H  57   0.00785     0.03210     0.00004     0.00053     0.01725    -0.03767
  
  S  H  58   0.01687     0.05975     0.00007     0.00154     0.01944    -0.03573
  
  S  H  59   0.05917     0.02838    -0.00001     0.02489    -0.00672     0.03627
  
  S  H  60   0.04502    -0.02033    -0.00006     0.07436     0.04664    -0.00953
  
  S  H  61   0.01211    -0.00832    -0.00003     0.06392     0.05379    -0.02364
  
  S  H  62   0.00960    -0.00758    -0.00002     0.06257     0.05465    -0.02572
  
  S  H  63   0.01193    -0.00915    -0.00003     0.06279     0.05460    -0.02620
  
  S  H  64   0.04346    -0.02690    -0.00006     0.06653     0.05193    -0.02554
  
  S  H  65   0.02758     0.07460     0.00008     0.00264     0.00555     0.00147
  
  S  H  66   0.02214     0.06609     0.00007     0.00279     0.00812    -0.00374
  
  S  H  67   0.02485     0.06363     0.00007     0.00375     0.00348     0.00667
  
  S  H  68   0.02493     0.06354     0.00007     0.00401     0.00368     0.00659
  
  S  H  69   0.02214     0.06603     0.00007     0.00286     0.00818    -0.00377
  
  S  H  70   0.02756     0.07445     0.00008     0.00281     0.00569     0.00138
  
  S  H  71   0.00002    -0.00019     0.24047     0.00958    -0.02886    -0.03871




    ROOT NO.    7           8           9          10          11          12

           -42.29545   -41.41175   -40.31390   -39.71090   -39.17070   -36.59517
  
  
  S  N   1   0.03530    -0.05325     0.02171    -0.01838     0.40328     0.08450
 PX  N   1   0.01823    -0.02695     0.01063    -0.00847     0.18899     0.03315
 PY  N   1  -0.00384     0.00447    -0.00132     0.00870    -0.00213     0.00098
 PZ  N   1   0.00033    -0.00032     0.00003     0.00089     0.00049    -0.00003
  
  S  C   2   0.05842    -0.08366     0.03165    -0.04938     0.48201     0.05220
 PX  C   2   0.00790    -0.00870     0.00177    -0.02310    -0.05537    -0.05053
 PY  C   2  -0.01318     0.01550    -0.00479     0.03597    -0.00640     0.00336
 PZ  C   2   0.00013     0.00002    -0.00017     0.00382     0.00072     0.00002
  
  S  C   3   0.06889    -0.09793     0.03819    -0.20482     0.32721    -0.02113
 PX  C   3  -0.00225     0.00139     0.00190    -0.10366    -0.10053    -0.01157
 PY  C   3  -0.03112     0.03791    -0.01194     0.06565    -0.05493     0.01258
 PZ  C   3  -0.00198     0.00268    -0.00107     0.00963    -0.00340     0.00085
  
  S  C   4   0.09683    -0.12226     0.04087    -0.23379     0.21981    -0.04409
 PX  C   4  -0.02699     0.03295    -0.00980     0.02026    -0.08969     0.00819
 PY  C   4  -0.01441     0.00759     0.00410    -0.08644     0.03697     0.00509
 PZ  C   4   0.00152    -0.00240     0.00107    -0.00774     0.00779    -0.00035
  
  S  C   5   0.14471    -0.14008     0.02532    -0.01238     0.02982    -0.03741
 PX  C   5  -0.02298     0.01861    -0.00088    -0.03035     0.01598    -0.00150
 PY  C   5  -0.01407    -0.00589     0.01232    -0.10388     0.14646    -0.01124
 PZ  C   5   0.00900    -0.01097     0.00293    -0.00565     0.01619    -0.00290
  
  S  C   6   0.13441    -0.11727     0.01336     0.07247    -0.06267    -0.01693
 PX  C   6   0.03363    -0.03056     0.00433     0.00684    -0.01220    -0.00959
 PY  C   6  -0.01142    -0.00416     0.00888    -0.06490     0.11407    -0.00689
 PZ  C   6  -0.03063     0.02402    -0.00132    -0.02356     0.03282     0.00352
  
  S  C   7   0.09508    -0.04824    -0.00966     0.13333    -0.18999     0.01080
 PX  C   7   0.03058    -0.01629    -0.00268     0.03945    -0.05887     0.00176
 PY  C   7   0.03853    -0.04479     0.00791     0.01830    -0.01410    -0.01155
 PZ  C   7  -0.00976    -0.00285     0.00454    -0.02249     0.03664    -0.00543
  
  S  C   8   0.04570     0.03592    -0.02979     0.12437    -0.19526     0.03410
 PX  C   8  -0.01069     0.00959    -0.00031    -0.01505     0.02103    -0.00027
 PY  C   8   0.06658    -0.08370     0.01415     0.04037    -0.05062    -0.01739
 PZ  C   8   0.02910    -0.03269     0.00431     0.02464    -0.03316    -0.00478
  
  S  S   9   0.07200    -0.04060    -0.00333     0.06420    -0.10266    -0.00129
 PX  S   9  -0.03877     0.02312     0.00210    -0.04541     0.06477    -0.00092
 PY  S   9   0.01951    -0.03521     0.01073    -0.02277     0.03368    -0.01613
 PZ  S   9   0.03411    -0.02710     0.00158     0.02585    -0.03826    -0.00442
  
  S  C  10  -0.13257     0.25851    -0.06206     0.00406    -0.02845     0.05044
 PX  C  10  -0.01701     0.03037    -0.00671    -0.00755     0.00934     0.00780
 PY  C  10   0.07349    -0.09273     0.01190     0.04956    -0.07264     0.00367
 PZ  C  10   0.02742    -0.03285     0.00373     0.02015    -0.02992     0.00296
  
  S  C  11  -0.16628     0.28087    -0.05793    -0.04276     0.04623     0.03989
 PX  C  11   0.06470    -0.10535     0.02088     0.01667    -0.01838    -0.01001
 PY  C  11   0.02896    -0.02885     0.00042     0.02200    -0.03451     0.00797
 PZ  C  11   0.01811    -0.02256     0.00255     0.01038    -0.01545     0.00240
  
  S  C  12  -0.18503     0.24046    -0.03127    -0.06437     0.08705     0.00088
 PX  C  12   0.05515    -0.05656     0.00331     0.01767    -0.02473     0.01211
 PY  C  12  -0.04463     0.09713    -0.02566    -0.01548     0.01687     0.01673
 PZ  C  12  -0.01208     0.03097    -0.00853    -0.00411     0.00399     0.00957
  
  S  C  13  -0.18524     0.15225     0.00159    -0.05641     0.08112    -0.05657
 PX  C  13  -0.03930     0.08685    -0.01852    -0.01791     0.02285     0.02487
 PY  C  13  -0.03273     0.11554    -0.03547    -0.01570     0.01615     0.02597
 PZ  C  13  -0.01802     0.05474    -0.01420    -0.00822     0.00912     0.01967
  
  S  S  14  -0.12193     0.17059    -0.02916    -0.02638     0.02922    -0.00596
 PX  S  14  -0.07744     0.12452    -0.02416    -0.02068     0.02350     0.01077
 PY  S  14   0.02924    -0.00935    -0.00625     0.01809    -0.02926     0.02488
 PZ  S  14   0.00387     0.01049    -0.00530     0.00561    -0.01015     0.01355
  
  S  C  15  -0.07480    -0.18727     0.08345     0.00368     0.00630    -0.09212
 PX  C  15  -0.02353     0.06159    -0.00462    -0.01298     0.01817     0.02662
 PY  C  15  -0.03275     0.09924    -0.02392    -0.02001     0.02678    -0.04039
 PZ  C  15  -0.01679     0.04859    -0.00324    -0.00963     0.01337     0.02581
  
  S  C  16  -0.01704    -0.22947     0.05515     0.02225    -0.02379    -0.15828
 PX  C  16  -0.01472    -0.02199     0.01668    -0.00101     0.00362     0.00364
 PY  C  16  -0.01779     0.09102    -0.01074    -0.01424     0.01895     0.01723
 PZ  C  16  -0.01243    -0.02345     0.01557    -0.00031     0.00247     0.00301
  
  S  C  17   0.03746    -0.20642    -0.01331     0.02509    -0.03338    -0.17484
 PX  C  17   0.00441    -0.07006     0.01849     0.00918    -0.01109     0.00080
 PY  C  17  -0.02601    -0.02209     0.04428     0.00338    -0.00220    -0.00127
 PZ  C  17   0.00509    -0.06235     0.01565     0.00823    -0.01001     0.00334
  
  S  C  18   0.11115    -0.09375    -0.10787     0.01088    -0.01964    -0.00771
 PX  C  18  -0.00255    -0.03659     0.04988     0.00850    -0.00980     0.12364
 PY  C  18  -0.04331    -0.15240     0.09011     0.02145    -0.02423    -0.06502
 PZ  C  18   0.00030    -0.02762     0.04185     0.00702    -0.00815     0.11868
  
  S  C  19   0.05234    -0.12096     0.06768     0.02395    -0.03057     0.27390
 PX  C  19  -0.03210    -0.00122     0.04861     0.00102     0.00100     0.00945
 PY  C  19  -0.01295    -0.12855     0.01048     0.01180    -0.01333    -0.09840
 PZ  C  19  -0.02854     0.00434     0.04453     0.00057     0.00129     0.01435
  
  S  C  20  -0.02545    -0.19047     0.10327     0.01901    -0.01740     0.09216
 PX  C  20  -0.01178     0.06999    -0.01334    -0.01035     0.01325    -0.00809
 PY  C  20  -0.02936    -0.01166    -0.00569    -0.00765     0.01287    -0.09804
 PZ  C  20  -0.00789     0.06286    -0.01180    -0.00845     0.01053    -0.00257
  
  S  C  21  -0.04519     0.06962     0.22657     0.01218    -0.01058     0.27025
 PX  C  21  -0.03095    -0.02717     0.06037     0.00573    -0.00513    -0.03348
 PY  C  21   0.07519    -0.03633    -0.10778    -0.00036    -0.00382     0.09596
 PZ  C  21  -0.03189    -0.02360     0.06021     0.00528    -0.00454    -0.03630
  
  S  C  22  -0.10644     0.04353     0.32565     0.01793    -0.01358     0.01651
 PX  C  22   0.03454    -0.01318    -0.06360    -0.00271     0.00161    -0.04545
 PY  C  22   0.03491    -0.00690    -0.05540    -0.00188     0.00036     0.12022
 PZ  C  22   0.03077    -0.01190    -0.05689    -0.00246     0.00150    -0.04727
  
  S  C  23  -0.13293     0.00653     0.25267     0.01465    -0.01100    -0.22739
 PX  C  23   0.06274     0.00923    -0.02482    -0.00085    -0.00003    -0.02372
 PY  C  23  -0.01726     0.03947     0.12147     0.00457    -0.00221     0.08139
 PZ  C  23   0.05960     0.00732    -0.02790    -0.00099     0.00009    -0.02488
  
  S  C  24   0.15213     0.06531     0.10887     0.00552    -0.00452    -0.20881
 PX  C  24   0.09241     0.05193     0.03457    -0.00049     0.00148     0.04854
 PY  C  24  -0.08745    -0.01850     0.05497     0.00380    -0.00302    -0.06220
 PZ  C  24   0.08955     0.04932     0.03059    -0.00058     0.00149     0.04754
  
  S  C  25   0.25139     0.12962     0.14101     0.00353    -0.00102    -0.07306
 PX  C  25  -0.01901    -0.00788    -0.01759    -0.00108     0.00099     0.04362
 PY  C  25  -0.11025    -0.04926    -0.01851     0.00100    -0.00162    -0.03610
 PZ  C  25  -0.01439    -0.00587    -0.01599    -0.00105     0.00099     0.04210
  
  S  C  26   0.28594     0.14329     0.10982     0.00039     0.00222     0.05669
 PX  C  26  -0.08172    -0.03804    -0.02543    -0.00003    -0.00051    -0.00656
 PY  C  26  -0.01517    -0.00537     0.00858     0.00089    -0.00090    -0.04312
 PZ  C  26  -0.07626    -0.03555    -0.02416    -0.00005    -0.00045    -0.00481
  
  S  C  27   0.28282     0.13322     0.07125    -0.00157     0.00361     0.13107
 PX  C  27  -0.04236    -0.01532     0.00223     0.00066    -0.00066    -0.02155
 PY  C  27   0.09476     0.04619     0.03524     0.00022     0.00056     0.00291
 PZ  C  27  -0.04272    -0.01582     0.00100     0.00061    -0.00063    -0.02032
  
  S  C  28   0.23570     0.08264    -0.02431    -0.00444     0.00439     0.15927
 PX  C  28   0.05572     0.03857     0.05033     0.00108     0.00006     0.00242
 PY  C  28   0.08809     0.03278     0.00696    -0.00059     0.00070     0.00263
 PZ  C  28   0.04957     0.03519     0.04703     0.00103     0.00003     0.00218
  
  S  C  29   0.13251     0.00082    -0.10525    -0.00435     0.00187     0.01350
 PX  C  29   0.11805     0.07420     0.08537     0.00167     0.00014    -0.00042
 PY  C  29  -0.02568    -0.00782     0.04103     0.00331    -0.00304    -0.14466
 PZ  C  29   0.11163     0.06991     0.07886     0.00146     0.00023     0.00407
  
  S  C  30  -0.14588    -0.15977    -0.29447    -0.00942     0.00375     0.09785
 PX  C  30   0.02808     0.00952     0.01408     0.00102    -0.00114    -0.04795
 PY  C  30  -0.03739    -0.00157     0.06001     0.00346    -0.00244    -0.11738
 PZ  C  30   0.02752     0.00899     0.01132     0.00084    -0.00098    -0.04157
  
  S  C  31  -0.22333    -0.06597     0.06175     0.00434    -0.00241    -0.10814
 PX  C  31   0.00387    -0.00720     0.01510     0.00252    -0.00316    -0.06713
 PY  C  31  -0.01826     0.06787     0.19846     0.00686    -0.00258    -0.03540
 PZ  C  31   0.00439    -0.00874     0.00781     0.00211    -0.00284    -0.06218
  
  S  C  32  -0.15728     0.02988     0.10218    -0.00226     0.00795    -0.04459
 PX  C  32  -0.05117    -0.00653     0.06394     0.00425    -0.00347     0.00365
 PY  C  32   0.01607     0.05948     0.06182    -0.00145     0.00383    -0.01218
 PZ  C  32  -0.04863    -0.00766     0.05769     0.00391    -0.00320     0.00172
  
  S  C  33  -0.03081     0.14211     0.06703    -0.01041     0.01552     0.06099
 PX  C  33  -0.04499    -0.01436     0.11838     0.01028    -0.01017     0.08717
 PY  C  33   0.09690     0.03631    -0.10778    -0.00649     0.00340     0.09596
 PZ  C  33  -0.04567    -0.01534     0.11313     0.00970    -0.00944     0.07455
  
  S  N  34   0.13393     0.16255    -0.27422    -0.03348     0.03448    -0.19020
 PX  N  34   0.02121     0.01813     0.01256     0.00193    -0.00332     0.14649
 PY  N  34   0.02741    -0.03048    -0.02390     0.00455    -0.00781     0.02019
 PZ  N  34   0.01758     0.01991     0.01288     0.00124    -0.00218     0.13576
  
  S  C  35  -0.01473     0.02175    -0.08139    -0.01261     0.01543    -0.23191
 PX  C  35   0.05300     0.05340    -0.09840    -0.01127     0.01154    -0.10290
 PY  C  35   0.02321     0.00380    -0.03637    -0.00167     0.00066    -0.04238
 PZ  C  35   0.04328     0.05443    -0.08406    -0.01113     0.01212    -0.08117
  
  S  C  36  -0.06677    -0.02703     0.04451     0.00104     0.00137    -0.02863
 PX  C  36   0.01343     0.02548    -0.04631    -0.00668     0.00773    -0.09017
 PY  C  36  -0.00311     0.00009    -0.00909    -0.00136     0.00171    -0.03775
 PZ  C  36   0.03482     0.03357    -0.05256    -0.00613     0.00634    -0.05339
  
  S  C  37  -0.08848    -0.06890     0.12249     0.01250    -0.01217     0.14564
 PX  C  37  -0.02473    -0.01639     0.02568     0.00215    -0.00170     0.00449
 PY  C  37  -0.02144    -0.01779     0.02818     0.00301    -0.00296     0.02425
 PZ  C  37   0.01141     0.01382    -0.02410    -0.00325     0.00374    -0.04812
  
  S  C  38  -0.09038    -0.07866     0.13757     0.01542    -0.01601     0.19196
 PX  C  38  -0.02559    -0.02156     0.03333     0.00363    -0.00362     0.02490
 PY  C  38  -0.00692    -0.00694     0.00924     0.00118    -0.00128     0.00514
 PZ  C  38  -0.02369    -0.01822     0.03064     0.00303    -0.00283     0.02646
  
  S  C  39  -0.08357    -0.07590     0.11815     0.01379    -0.01444     0.12681
 PX  C  39   0.00490     0.00374    -0.01457    -0.00153     0.00166    -0.04439
 PY  C  39   0.01678     0.01278    -0.02566    -0.00260     0.00258    -0.03823
 PZ  C  39  -0.02954    -0.02468     0.03437     0.00369    -0.00356     0.01468
  
  S  C  40  -0.05247    -0.04736     0.03183     0.00423    -0.00408    -0.06287
 PX  C  40   0.03533     0.02985    -0.05776    -0.00619     0.00627    -0.07005
 PY  C  40   0.02153     0.01074    -0.02371    -0.00157     0.00106    -0.01521
 PZ  C  40   0.01051     0.01351    -0.04261    -0.00512     0.00574    -0.09097
  
  S  C  41  -0.09296    -0.10827    -0.22995    -0.00852     0.00440     0.16213
 PX  C  41   0.01940     0.01511     0.02805     0.00113    -0.00074    -0.02376
 PY  C  41  -0.02647    -0.01837    -0.02091    -0.00046     0.00010    -0.01184
 PZ  C  41  -0.02334    -0.03369    -0.07160    -0.00243     0.00102     0.03322
  
  S  C  42  -0.09292    -0.10826    -0.23015    -0.00854     0.00443     0.16212
 PX  C  42  -0.02281    -0.03320    -0.07032    -0.00237     0.00097     0.03140
 PY  C  42  -0.02515    -0.01688    -0.01797    -0.00036     0.00006    -0.01357
 PZ  C  42   0.02163     0.01772     0.03304     0.00129    -0.00080    -0.02534
  
  S  C  43  -0.00840     0.00208     0.00508    -0.13612    -0.04600     0.00248
 PX  C  43   0.00006    -0.00509     0.01028    -0.34632    -0.23471     0.02015
 PY  C  43  -0.03261     0.04702    -0.02098     0.20014    -0.09043     0.00431
 PZ  C  43  -0.00311     0.00474    -0.00248     0.03385     0.00028    -0.00057
  
  S  O  44  -0.01191     0.00357     0.01288    -0.49681    -0.33953     0.03102
 PX  O  44   0.00655    -0.00465    -0.00246     0.13240     0.10187    -0.00763
 PY  O  44  -0.00657     0.01084    -0.00615     0.09013     0.00592    -0.00039
 PZ  O  44  -0.00089     0.00123    -0.00050     0.00334    -0.00369     0.00024
  
  S  O  45  -0.05030     0.07039    -0.03534     0.52133     0.06821    -0.01801
 PX  O  45  -0.01449     0.01946    -0.00822     0.07921    -0.03180    -0.00122
 PY  O  45  -0.00107     0.00299    -0.00149    -0.00916    -0.04519     0.00017
 PZ  O  45   0.00055    -0.00057     0.00022    -0.00466    -0.00354     0.00002
  
  S  H  46   0.03092    -0.04011     0.01447    -0.11019     0.05250    -0.01583
  
  S  H  47   0.04410    -0.04360     0.00801     0.00635     0.02697    -0.00434
  
  S  H  48   0.02202    -0.00533    -0.00496     0.04012    -0.05815     0.00661
  
  S  H  49  -0.04382     0.07987    -0.01793    -0.00818     0.00645     0.01607
  
  S  H  50  -0.05420     0.05876    -0.00320    -0.01914     0.02723    -0.00114
  
  S  H  51  -0.01368    -0.05994     0.01651     0.00387    -0.00298    -0.06930
  
  S  H  52   0.01294    -0.05417    -0.01725     0.00599    -0.00859    -0.09019
  
  S  H  53  -0.02081    -0.04094     0.04338     0.00207     0.00066     0.04559
  
  S  H  54  -0.02116     0.01139     0.10827     0.00673    -0.00560     0.00888
  
  S  H  55   0.06521     0.03823     0.05763     0.00204    -0.00110    -0.03966
  
  S  H  56   0.08098     0.04253     0.03546     0.00019     0.00068     0.02106
  
  S  H  57   0.07981     0.03874     0.02056    -0.00057     0.00123     0.05284
  
  S  H  58   0.05683     0.01234    -0.03336    -0.00234     0.00187     0.07904
  
  S  H  59  -0.05198     0.00238    -0.00786    -0.00358     0.00530    -0.01977
  
  S  H  60  -0.01713     0.00352    -0.00050    -0.00221     0.00349    -0.03027
  
  S  H  61  -0.02521    -0.01969     0.03730     0.00384    -0.00379     0.05428
  
  S  H  62  -0.02565    -0.02323     0.04283     0.00495    -0.00529     0.07368
  
  S  H  63  -0.02317    -0.02253     0.03557     0.00438    -0.00475     0.04585
  
  S  H  64  -0.00548    -0.01213    -0.00965     0.00013    -0.00042    -0.05249
  
  S  H  65  -0.03584    -0.04095    -0.08412    -0.00303     0.00150     0.05386
  
  S  H  66  -0.02822    -0.04210    -0.10124    -0.00393     0.00210     0.08646
  
  S  H  67  -0.04550    -0.04515    -0.09313    -0.00362     0.00210     0.07242
  
  S  H  68  -0.04554    -0.04515    -0.09320    -0.00364     0.00212     0.07230
  
  S  H  69  -0.02822    -0.04210    -0.10131    -0.00394     0.00211     0.08649
  
  S  H  70  -0.03578    -0.04094    -0.08427    -0.00304     0.00152     0.05387
  
  S  H  71  -0.02325     0.03258    -0.01558     0.19860    -0.00973    -0.00594




    ROOT NO.   13          14          15          16          17          18

           -36.36640   -35.89737   -34.59114   -33.39043   -32.77760   -32.63195
  
  
  S  N   1   0.52658     0.11638    -0.07168     0.02741    -0.02784    -0.02201
 PX  N   1   0.20179     0.04228    -0.02140     0.00642    -0.00571    -0.00441
 PY  N   1   0.00483     0.00006     0.00402    -0.00405     0.00549     0.00448
 PZ  N   1   0.00016     0.00026    -0.00080     0.00056    -0.00062    -0.00047
  
  S  C   2   0.28745     0.04516     0.00824    -0.01603     0.02148     0.01750
 PX  C   2  -0.34571    -0.09135     0.08549    -0.04285     0.04736     0.03775
 PY  C   2   0.01826     0.00157     0.00999    -0.01104     0.01538     0.01269
 PZ  C   2   0.00086     0.00061    -0.00141     0.00085    -0.00084    -0.00061
  
  S  C   3  -0.21503    -0.08828     0.13461    -0.07858     0.08895     0.07074
 PX  C   3  -0.07490    -0.01811     0.01422    -0.00549     0.00448     0.00315
 PY  C   3   0.08401     0.01881     0.00214    -0.01495     0.02544     0.02189
 PZ  C   3   0.00685     0.00220    -0.00220     0.00059    -0.00008     0.00009
  
  S  C   4  -0.32487    -0.09169     0.07041    -0.01514     0.00164    -0.00194
 PX  C   4   0.06141     0.01729    -0.01143     0.00160     0.00033     0.00047
 PY  C   4  -0.00234    -0.02002     0.06418    -0.04891     0.06108     0.04968
 PZ  C   4  -0.00407    -0.00177     0.00247    -0.00140     0.00176     0.00153
  
  S  C   5  -0.18137    -0.00759    -0.08661     0.07311    -0.09031    -0.07308
 PX  C   5  -0.03232    -0.01927     0.03621    -0.01814     0.01582     0.01092
 PY  C   5  -0.11696    -0.04711     0.05536    -0.01670     0.00724     0.00351
 PZ  C   5  -0.01317     0.00075    -0.01346     0.01134    -0.01348    -0.01035
  
  S  C   6  -0.01634     0.04560    -0.13834     0.08411    -0.08716    -0.06570
 PX  C   6  -0.04554    -0.00172    -0.02007     0.01646    -0.02037    -0.01686
 PY  C   6  -0.07060    -0.02678     0.02120     0.00353    -0.01476    -0.01422
 PZ  C   6   0.00361    -0.00837     0.02078    -0.00995     0.00889     0.00666
  
  S  C   7   0.11911     0.04659    -0.03447    -0.00815     0.02662     0.02622
 PX  C   7   0.02352     0.00961    -0.00408    -0.00429     0.00801     0.00640
 PY  C   7  -0.02079     0.02524    -0.08863     0.05660    -0.05931    -0.04557
 PZ  C   7  -0.02569     0.00128    -0.02740     0.02285    -0.02653    -0.02084
  
  S  C   8   0.15429    -0.00898     0.14465    -0.10999     0.12391     0.09585
 PX  C   8  -0.01873    -0.01190     0.01570    -0.00107    -0.00403    -0.00654
 PY  C   8  -0.01544     0.04686    -0.12848     0.06556    -0.05845    -0.04253
 PZ  C   8   0.00879     0.02221    -0.05004     0.02151    -0.01555    -0.00984
  
  S  S   9   0.00544     0.00514     0.00269    -0.00553     0.00587     0.00192
 PX  S   9  -0.02402    -0.01282     0.01269    -0.00076    -0.00286    -0.00252
 PY  S   9  -0.06939     0.00476    -0.06017     0.04461    -0.05138    -0.03948
 PZ  S   9  -0.00559     0.01011    -0.02769     0.01518    -0.01514    -0.01180
  
  S  C  10   0.09494    -0.09615     0.26980    -0.12367     0.10043     0.07148
 PX  C  10  -0.00071    -0.02116     0.03752    -0.00841     0.00554    -0.00388
 PY  C  10   0.05319     0.01739     0.03512    -0.05303     0.07067     0.05597
 PZ  C  10   0.02352     0.00520     0.01704    -0.02256     0.03080     0.02342
  
  S  C  11   0.01654    -0.09720     0.16525    -0.03318     0.01080    -0.01142
 PX  C  11  -0.00454     0.02630    -0.04546     0.00952     0.00206     0.00094
 PY  C  11   0.03963    -0.01049     0.08506    -0.05801     0.05269     0.04313
 PZ  C  11   0.01489    -0.00108     0.02643    -0.02130     0.02212     0.01744
  
  S  C  12  -0.06532    -0.00446    -0.12521     0.08542    -0.05751    -0.05866
 PX  C  12   0.02428    -0.02466     0.07526    -0.02834     0.02137     0.00890
 PY  C  12   0.01173    -0.05309     0.10744    -0.01613    -0.01897    -0.01663
 PZ  C  12   0.00619    -0.02275     0.04264    -0.00890     0.00197    -0.00278
  
  S  C  13  -0.08841     0.10617    -0.26935     0.09861    -0.08105    -0.03597
 PX  C  13  -0.01063    -0.03928    -0.00364     0.02256     0.00370    -0.01923
 PY  C  13   0.01717    -0.07346     0.13061    -0.00909    -0.03405    -0.02636
 PZ  C  13   0.00329    -0.03466     0.03281    -0.00052     0.00656    -0.00595
  
  S  S  14   0.00241    -0.00463     0.02987    -0.00604    -0.02892    -0.00003
 PX  S  14   0.00206    -0.02836     0.04211    -0.00515    -0.00716    -0.00507
 PY  S  14   0.03908    -0.03737     0.09453    -0.04716     0.05612     0.03012
 PZ  S  14   0.01667    -0.01937     0.03924    -0.01975     0.02708     0.01333
  
  S  C  15  -0.05246     0.17964    -0.22725     0.00574     0.00721     0.03102
 PX  C  15  -0.02766     0.00364    -0.13435     0.03390     0.04688     0.01133
 PY  C  15  -0.02467     0.04059    -0.06611     0.05512    -0.09415    -0.03145
 PZ  C  15  -0.02101     0.00004    -0.10732     0.02285     0.04575     0.01320
  
  S  C  16   0.02103     0.12457     0.16016    -0.02381    -0.13490    -0.02058
 PX  C  16  -0.01876     0.03449    -0.09863    -0.00552     0.01940     0.01214
 PY  C  16  -0.02759     0.02051    -0.12135     0.02687    -0.00496     0.00320
 PZ  C  16  -0.01582     0.03053    -0.08386    -0.00851     0.01665     0.01079
  
  S  C  17   0.07179     0.00290     0.35307     0.02523    -0.10923    -0.03916
 PX  C  17   0.00813     0.00259     0.03741    -0.03421    -0.01351    -0.00663
 PY  C  17  -0.01077     0.05636     0.00156    -0.03116    -0.03236     0.00431
 PZ  C  17   0.00722     0.00078     0.03205    -0.03936    -0.01371    -0.00714
  
  S  C  18   0.05630    -0.15224     0.15892     0.01131    -0.08528    -0.07597
 PX  C  18  -0.00947    -0.03983    -0.03573    -0.04961     0.00205    -0.00963
 PY  C  18   0.02302     0.05855     0.16227    -0.02261     0.02586     0.02586
 PZ  C  18  -0.01010    -0.03806    -0.04129    -0.06175    -0.00252    -0.01091
  
  S  C  19   0.00575    -0.17908    -0.04218    -0.05136     0.12110     0.02036
 PX  C  19  -0.01355     0.03454    -0.05151     0.01620     0.10971     0.06099
 PY  C  19   0.01427     0.05911     0.03721    -0.04333     0.06419     0.02584
 PZ  C  19  -0.01300     0.02886    -0.04867     0.01253     0.09801     0.05531
  
  S  C  20  -0.02852     0.02072    -0.19719    -0.03607     0.23505     0.09685
 PX  C  20  -0.01241     0.01065    -0.04724     0.03318     0.00235     0.00290
 PY  C  20  -0.02097     0.09919    -0.07939     0.01861    -0.05829    -0.01216
 PZ  C  20  -0.00898     0.00435    -0.03439     0.02626     0.00536     0.00427
  
  S  C  21  -0.03017    -0.06321    -0.02285     0.07336     0.07741     0.07311
 PX  C  21   0.00765     0.00384     0.01476     0.04407     0.12449     0.06736
 PY  C  21   0.00977    -0.12969    -0.06858    -0.04274     0.03724    -0.02852
 PZ  C  21   0.00660     0.01039     0.01631     0.03880     0.11387     0.06421
  
  S  C  22   0.01266    -0.05696     0.01415     0.13212     0.24623     0.13185
 PX  C  22   0.01370    -0.03938    -0.02520    -0.02289     0.02094    -0.03377
 PY  C  22  -0.02196     0.00743    -0.01974     0.00406     0.03807     0.01966
 PZ  C  22   0.01357    -0.03649    -0.02259    -0.02232     0.01795    -0.03215
  
  S  C  23   0.07248    -0.17011    -0.02504     0.01887     0.02692     0.04976
 PX  C  23   0.01821    -0.08515    -0.04868    -0.01297     0.06347    -0.02999
 PY  C  23  -0.03151     0.10883     0.06280     0.08602     0.12819     0.03966
 PZ  C  23   0.01798    -0.08284    -0.04777    -0.01620     0.05466    -0.02957
  
  S  C  24   0.07814    -0.24592    -0.11159    -0.07795     0.01329    -0.08898
 PX  C  24  -0.02282     0.07975     0.02942     0.00696     0.08646    -0.11364
 PY  C  24   0.01919    -0.04146    -0.00228     0.00988     0.09787    -0.08442
 PZ  C  24  -0.02205     0.07632     0.02766     0.00578     0.07796    -0.10401
  
  S  C  25   0.01589    -0.02294    -0.01241    -0.04580     0.20880    -0.38172
 PX  C  25  -0.01798     0.06200     0.03100     0.01402     0.01538    -0.03551
 PY  C  25   0.01761    -0.06277    -0.02470     0.00125     0.01820     0.02369
 PZ  C  25  -0.01744     0.06022     0.02987     0.01302     0.01381    -0.03408
  
  S  C  26  -0.03756     0.15950     0.07832     0.00604     0.12578    -0.27803
 PX  C  26   0.00441    -0.01631    -0.00341     0.00335     0.00312     0.00255
 PY  C  26   0.01657    -0.05383    -0.02767    -0.02737     0.07382    -0.13948
 PZ  C  26   0.00362    -0.01362    -0.00234     0.00397     0.00062     0.00675
  
  S  C  27  -0.06007     0.21490     0.10174     0.06061    -0.05807     0.12181
 PX  C  27   0.00601    -0.01044     0.00123    -0.00936     0.04828    -0.10971
 PY  C  27  -0.00556     0.02735     0.01071    -0.01172     0.03889    -0.10850
 PZ  C  27   0.00581    -0.01064     0.00082    -0.00848     0.04412    -0.09961
  
  S  C  28  -0.05249     0.13638     0.04533     0.07073    -0.15167     0.38622
 PX  C  28  -0.00874     0.04918     0.02824     0.00468    -0.00441    -0.01934
 PY  C  28   0.00039    -0.00924    -0.01268    -0.01218    -0.02631     0.01757
 PZ  C  28  -0.00822     0.04651     0.02689     0.00453    -0.00325    -0.01861
  
  S  C  29   0.01506    -0.10948    -0.07274    -0.01483    -0.15237     0.25135
 PX  C  29  -0.00788     0.04228     0.01637     0.00019    -0.01844     0.02255
 PY  C  29   0.05001    -0.14261    -0.05712    -0.06425    -0.01137    -0.12445
 PZ  C  29  -0.00898     0.04430     0.01707     0.00136    -0.01678     0.02534
  
  S  C  30  -0.01423    -0.01135    -0.01221     0.00852     0.03690    -0.04047
 PX  C  30   0.02351    -0.09041    -0.04441    -0.01398    -0.07996     0.10761
 PY  C  30   0.03037    -0.05419    -0.01082    -0.04997    -0.09328    -0.02914
 PZ  C  30   0.02105    -0.08266    -0.04170    -0.01449    -0.07141     0.10309
  
  S  C  31   0.00420     0.09522     0.07654    -0.03143    -0.11542    -0.06817
 PX  C  31   0.03885    -0.15175    -0.05822     0.00139    -0.01950     0.06531
 PY  C  31  -0.01013     0.09496     0.05763     0.02503    -0.03116     0.05080
 PZ  C  31   0.03658    -0.14428    -0.05683    -0.00228    -0.01666     0.06048
  
  S  C  32  -0.06228     0.36586     0.12501    -0.07389    -0.10181    -0.09882
 PX  C  32  -0.00105     0.01983     0.04153     0.03375    -0.03352    -0.00514
 PY  C  32  -0.00980     0.04009    -0.01656    -0.00947    -0.03602     0.05278
 PZ  C  32  -0.00107     0.02031     0.03726     0.02260    -0.02726    -0.00346
  
  S  C  33  -0.05559     0.17990    -0.01203    -0.05527    -0.14589    -0.04150
 PX  C  33  -0.00250    -0.02524     0.04743     0.05972    -0.00957     0.01377
 PY  C  33   0.01570    -0.19404    -0.09852     0.01004    -0.01501    -0.02084
 PZ  C  33  -0.00330    -0.01263     0.04414     0.03889    -0.00358     0.01749
  
  S  N  34   0.00656     0.01714    -0.09496     0.00864    -0.00228    -0.00561
 PX  N  34  -0.00785    -0.07965    -0.01497    -0.00915    -0.13635    -0.08652
 PY  N  34   0.02894    -0.12016     0.06205     0.08306    -0.02600    -0.03220
 PZ  N  34  -0.01177    -0.05648    -0.02929    -0.06789    -0.12311    -0.07374
  
  S  C  35   0.00845     0.10257    -0.03386     0.04279     0.23887     0.15277
 PX  C  35   0.00730     0.02074     0.00171     0.09686     0.00730    -0.00406
 PY  C  35   0.01715    -0.04177     0.04212     0.15028     0.00306    -0.00755
 PZ  C  35  -0.00644     0.06236    -0.04823    -0.14538     0.00898     0.01362
  
  S  C  36  -0.01803     0.09551    -0.07962    -0.35631     0.11955     0.10226
 PX  C  36   0.00034     0.05163    -0.00617     0.07433     0.07753     0.04271
 PY  C  36   0.00401     0.00516    -0.00109     0.05273     0.04764     0.02979
 PZ  C  36  -0.00031     0.03243    -0.00119     0.01477     0.01599     0.00637
  
  S  C  37  -0.01566    -0.02484    -0.05027    -0.35961    -0.10222    -0.03849
 PX  C  37  -0.00279     0.01160    -0.01019    -0.03574     0.04079     0.02948
 PY  C  37  -0.00028    -0.01349     0.00073     0.01021    -0.00727    -0.00442
 PZ  C  37  -0.00206     0.04167    -0.01653    -0.07755     0.08104     0.05824
  
  S  C  38  -0.00666    -0.09650     0.00440    -0.03584    -0.21881    -0.13999
 PX  C  38   0.00109    -0.01834     0.01134     0.07719     0.00259    -0.00357
 PY  C  38   0.00274    -0.01409     0.01612     0.10566    -0.00099    -0.00868
 PZ  C  38  -0.00392     0.00166    -0.01786    -0.12093     0.00622     0.01476
  
  S  C  39   0.00630    -0.10324     0.05975     0.32100    -0.11563    -0.09895
 PX  C  39   0.00514     0.01077     0.01558     0.09577     0.07435     0.04243
 PY  C  39   0.00361     0.01116     0.01068     0.05475     0.03956     0.02195
 PZ  C  39   0.00145    -0.01152     0.00559     0.02539     0.02446     0.01593
  
  S  C  40   0.02154    -0.03775     0.07362     0.39164     0.10864     0.04544
 PX  C  40   0.00374     0.02799    -0.00141    -0.02001     0.03679     0.02500
 PY  C  40   0.00412    -0.00368     0.01724     0.01683    -0.01597    -0.01120
 PZ  C  40   0.00495     0.03741    -0.01210    -0.05182     0.08956     0.06308
  
  S  C  41  -0.04191     0.08304     0.02990     0.05212     0.15675    -0.10629
 PX  C  41   0.00932    -0.03111    -0.01432    -0.00431    -0.03399     0.04659
 PY  C  41   0.00237    -0.00055     0.00185    -0.01264    -0.01515    -0.02630
 PZ  C  41  -0.00458    -0.00669    -0.00713     0.00720     0.00186     0.02156
  
  S  C  42  -0.04215     0.08421     0.02922     0.04616     0.15886    -0.10372
 PX  C  42  -0.00393    -0.00863    -0.00785     0.00702    -0.00086     0.02350
 PY  C  42   0.00272    -0.00096     0.00151    -0.01388    -0.01589    -0.02534
 PZ  C  42   0.00949    -0.03051    -0.01391    -0.00476    -0.03340     0.04620
  
  S  C  43   0.00153    -0.00816     0.03063    -0.02607     0.03464     0.02857
 PX  C  43   0.15238     0.04674    -0.05595     0.03218    -0.03736    -0.02993
 PY  C  43   0.06564     0.03447    -0.06591     0.04358    -0.05221    -0.04203
 PZ  C  43  -0.00069     0.00137    -0.00448     0.00329    -0.00404    -0.00326
  
  S  O  44   0.22558     0.06452    -0.06481     0.03149    -0.03320    -0.02594
 PX  O  44  -0.05595    -0.01600     0.01504    -0.00643     0.00615     0.00467
 PY  O  44   0.00620     0.00606    -0.01531     0.01113    -0.01377    -0.01116
 PZ  O  44   0.00270     0.00122    -0.00217     0.00142    -0.00170    -0.00136
  
  S  O  45  -0.09593    -0.01238    -0.01376     0.01530    -0.02080    -0.01719
 PX  O  45   0.00315     0.00619    -0.01594     0.01107    -0.01342    -0.01082
 PY  O  45   0.01339     0.00992    -0.02570     0.02101    -0.02810    -0.02324
 PZ  O  45   0.00096     0.00070    -0.00197     0.00171    -0.00235    -0.00195
  
  S  H  46  -0.11757    -0.03392     0.02876    -0.00782     0.00295     0.00096
  
  S  H  47  -0.00220     0.01453    -0.04907     0.03364    -0.03736    -0.02858
  
  S  H  48   0.04930     0.01231     0.00336    -0.01299     0.02043     0.01841
  
  S  H  49   0.01355    -0.03624     0.07412    -0.02278     0.01703     0.00351
  
  S  H  50  -0.02842     0.01053    -0.08009     0.03828    -0.01009    -0.01771
  
  S  H  51   0.00200     0.06000     0.04716     0.00439    -0.07530    -0.01272
  
  S  H  52   0.02937     0.00252     0.14736     0.04917    -0.03926    -0.01107
  
  S  H  53  -0.02179     0.01055    -0.12578     0.00764     0.12348     0.05121
  
  S  H  54   0.00923    -0.05071    -0.01661     0.04965     0.15044     0.04304
  
  S  H  55   0.01099    -0.02368    -0.00880    -0.01568     0.12005    -0.18369
  
  S  H  56  -0.01436     0.06331     0.03434     0.00421     0.06650    -0.13938
  
  S  H  57  -0.02406     0.08756     0.04510     0.03048    -0.02462     0.05970
  
  S  H  58  -0.02404     0.05790     0.02032     0.04048    -0.05542     0.18366
  
  S  H  59  -0.02857     0.16102     0.03808    -0.06010    -0.01001    -0.05936
  
  S  H  60  -0.01113     0.06674    -0.03786    -0.18085     0.05199     0.04295
  
  S  H  61  -0.00667    -0.00643    -0.02265    -0.17409    -0.05223    -0.02096
  
  S  H  62  -0.00260    -0.03863     0.00216    -0.01714    -0.10956    -0.07096
  
  S  H  63   0.00314    -0.04182     0.02870     0.15557    -0.05904    -0.05082
  
  S  H  64   0.01392    -0.01531     0.04871     0.19698     0.04642     0.01768
  
  S  H  65  -0.01329     0.02416     0.00862     0.01768     0.05195    -0.03689
  
  S  H  66  -0.02158     0.03872     0.01214     0.03345     0.07874    -0.02366
  
  S  H  67  -0.02264     0.05991     0.02485     0.02149     0.08653    -0.08243
  
  S  H  68  -0.02275     0.06054     0.02439     0.01815     0.08761    -0.08114
  
  S  H  69  -0.02167     0.03917     0.01191     0.03113     0.07963    -0.02263
  
  S  H  70  -0.01344     0.02486     0.00821     0.01425     0.05313    -0.03537
  
  S  H  71  -0.02186     0.00334    -0.02263     0.01901    -0.02503    -0.02061




    ROOT NO.   19          20          21          22          23          24

           -32.22227   -31.54992   -31.23251   -30.36948   -29.64271   -29.34514
  
  
  S  N   1   0.05933     0.04665     0.00037    -0.10405     0.03470    -0.00006
 PX  N   1   0.01114     0.00845     0.00007    -0.01853     0.00625     0.00181
 PY  N   1  -0.01302    -0.00920    -0.00006     0.00877     0.00167     0.00901
 PZ  N   1   0.00106     0.00014    -0.00000     0.00329    -0.00201    -0.00117
  
  S  C   2  -0.05029    -0.03730    -0.00028     0.06297    -0.01522     0.01384
 PX  C   2  -0.10340    -0.07792    -0.00060     0.15045    -0.04401     0.01137
 PY  C   2  -0.03779    -0.02877    -0.00021     0.03967    -0.00234     0.02247
 PZ  C   2   0.00112    -0.00050    -0.00001     0.00783    -0.00415    -0.00166
  
  S  C   3  -0.19119    -0.13346    -0.00098     0.19630    -0.04009     0.03208
 PX  C   3  -0.00486     0.00330     0.00006    -0.04163     0.02132     0.00025
 PY  C   3  -0.07236    -0.06640    -0.00055     0.14316    -0.03302     0.04321
 PZ  C   3  -0.00155    -0.00346    -0.00004     0.01647    -0.00689     0.00002
  
  S  C   4   0.03088     0.05752     0.00057    -0.21647     0.07574    -0.02581
 PX  C   4  -0.00248     0.00076     0.00003    -0.03193     0.02213     0.01659
 PY  C   4  -0.14230    -0.10911    -0.00083     0.18478    -0.04206     0.02134
 PZ  C   4  -0.00522    -0.00674    -0.00007     0.02819    -0.01308    -0.00629
  
  S  C   5   0.20487     0.14973     0.00111    -0.22246     0.04656    -0.01270
 PX  C   5  -0.01599     0.01634     0.00025    -0.14920     0.07072     0.02555
 PY  C   5   0.00917     0.02836     0.00029    -0.10502     0.02596    -0.04813
 PZ  C   5   0.02484     0.00567    -0.00002     0.05866    -0.03846    -0.03368
  
  S  C   6   0.14782     0.03946    -0.00001     0.22315    -0.13201    -0.07679
 PX  C   6   0.04954     0.04362     0.00036    -0.09673     0.03258     0.02152
 PY  C   6   0.05649     0.06301     0.00054    -0.13735     0.02820    -0.01695
 PZ  C   6  -0.01470    -0.00860    -0.00007     0.02315    -0.01456    -0.02000
  
  S  C   7  -0.10349    -0.12364    -0.00107     0.28166    -0.07587    -0.04993
 PX  C   7  -0.01787    -0.00528     0.00000    -0.03488     0.02554     0.03742
 PY  C   7   0.10668     0.04238     0.00015     0.10067    -0.06471    -0.00084
 PZ  C   7   0.05186     0.02206     0.00008     0.05930    -0.04273    -0.02173
  
  S  C   8  -0.23448    -0.10293    -0.00047    -0.11159     0.09217     0.05889
 PX  C   8   0.03444     0.05810     0.00052    -0.11347     0.02476     0.06531
 PY  C   8   0.08268     0.01308    -0.00007     0.09894    -0.02887     0.03963
 PZ  C   8   0.00762    -0.02484    -0.00029     0.11230    -0.03416    -0.01338
  
  S  S   9   0.01099     0.05535     0.00061    -0.24870     0.11023     0.12037
 PX  S   9   0.00916     0.00266    -0.00001     0.02378    -0.01913    -0.03551
 PY  S   9   0.09870     0.04791     0.00028    -0.02957     0.00176    -0.03407
 PZ  S   9   0.02919     0.01951     0.00014    -0.03289     0.01400     0.02019
  
  S  C  10  -0.12521    -0.00531     0.00024    -0.17509     0.04378    -0.05123
 PX  C  10   0.03803     0.08523     0.00068    -0.03345    -0.03049     0.10854
 PY  C  10  -0.14644    -0.06577    -0.00029    -0.09136     0.07088     0.05239
 PZ  C  10  -0.06012    -0.02357    -0.00011    -0.01969     0.01957     0.02356
  
  S  C  11   0.10297     0.18436     0.00137    -0.00057    -0.09961     0.13587
 PX  C  11  -0.00860     0.00639     0.00006     0.01662    -0.00720     0.07255
 PY  C  11  -0.09601    -0.03828    -0.00007    -0.13739     0.05041    -0.02079
 PZ  C  11  -0.03986    -0.01382    -0.00002    -0.04558     0.01766    -0.00096
  
  S  C  12   0.13758     0.11435     0.00053     0.19173    -0.06326     0.15445
 PX  C  12   0.01267     0.06575     0.00054    -0.00428    -0.04478     0.07253
 PY  C  12   0.07661     0.06006     0.00042     0.00518    -0.06117    -0.03278
 PZ  C  12   0.02587     0.03836     0.00027     0.00519    -0.02590     0.00410
  
  S  C  13  -0.01645    -0.17180    -0.00138     0.03234     0.08494    -0.07803
 PX  C  13   0.07310     0.12663     0.00074     0.11645    -0.04334     0.11153
 PY  C  13   0.10229     0.03800     0.00020     0.03468    -0.05584    -0.10728
 PZ  C  13   0.03510     0.05754     0.00033     0.03772    -0.01888    -0.00121
  
  S  S  14  -0.03055    -0.15057    -0.00108    -0.05449     0.05202    -0.25627
 PX  S  14   0.01778    -0.00354    -0.00006     0.00073    -0.00060    -0.07291
 PY  S  14  -0.04196     0.05296     0.00044    -0.01509    -0.00692     0.03971
 PZ  S  14  -0.01941     0.02743     0.00020     0.00385    -0.00215     0.01397
  
  S  C  15  -0.16385    -0.13870    -0.00080    -0.11400     0.06782     0.02194
 PX  C  15  -0.04547     0.04938     0.00020     0.04916     0.05409     0.08479
 PY  C  15   0.01995    -0.20903    -0.00142    -0.03062     0.05055    -0.11273
 PZ  C  15  -0.04492     0.04220     0.00012     0.02980     0.04865     0.05404
  
  S  C  16   0.06813    -0.23715    -0.00106    -0.11672    -0.08405    -0.12212
 PX  C  16  -0.07876    -0.01802    -0.00018    -0.04260     0.03443    -0.00189
 PY  C  16  -0.05006    -0.09729    -0.00072    -0.04845     0.04206    -0.06316
 PZ  C  16  -0.06960    -0.01657    -0.00017    -0.04056     0.03039    -0.00694
  
  S  C  17   0.21603    -0.05001     0.00010     0.08462    -0.04146     0.04233
 PX  C  17  -0.00210     0.02066     0.00023    -0.01110    -0.02821    -0.00750
 PY  C  17  -0.00538    -0.08218    -0.00040    -0.08000    -0.08837    -0.08233
 PZ  C  17   0.00033     0.01892     0.00010    -0.00860    -0.02270    -0.00377
  
  S  C  18   0.08986     0.04468     0.00003     0.12326     0.10139     0.05316
 PX  C  18  -0.05133     0.06238     0.00029    -0.02342    -0.05980    -0.08914
 PY  C  18   0.07805     0.08111     0.00076     0.03082    -0.08631     0.02417
 PZ  C  18  -0.04473     0.05120    -0.00045    -0.02344    -0.05297    -0.08160
  
  S  C  19  -0.02666     0.20992     0.00076     0.04056    -0.03448    -0.11312
 PX  C  19  -0.00979     0.04263     0.00110    -0.01545    -0.01911     0.02170
 PY  C  19  -0.04091     0.14903     0.00119     0.01694    -0.01598     0.13452
 PZ  C  19  -0.00564     0.03095    -0.00004    -0.01669    -0.01753     0.01096
  
  S  C  20  -0.15565     0.25496     0.00169     0.00282     0.00961     0.14295
 PX  C  20   0.00494    -0.03805    -0.00005     0.01071     0.02518     0.02398
 PY  C  20  -0.06263    -0.10190    -0.00063    -0.03228     0.05216     0.07577
 PZ  C  20   0.00641    -0.03360    -0.00031     0.00460     0.02084     0.00853
  
  S  C  21   0.09536    -0.09473    -0.00057    -0.02304    -0.03983    -0.15515
 PX  C  21   0.08022    -0.00697     0.00299     0.01515     0.03118     0.05363
 PY  C  21  -0.03828     0.08595     0.00002     0.01697     0.00565    -0.08484
 PZ  C  21   0.07771    -0.01116    -0.00170     0.01269     0.02791     0.05310
  
  S  C  22   0.24391    -0.19897     0.00070    -0.01333     0.05483     0.11360
 PX  C  22  -0.00882     0.00128     0.00500    -0.00590    -0.00170     0.04495
 PY  C  22  -0.00326     0.03033    -0.00026    -0.00560    -0.04488    -0.08097
 PZ  C  22  -0.00754    -0.00045    -0.00513    -0.00550    -0.00020     0.04501
  
  S  C  23   0.06548    -0.05589     0.00022     0.02751     0.14680     0.08461
 PX  C  23   0.02758    -0.05660     0.02088    -0.03601    -0.06078     0.04390
 PY  C  23   0.13530    -0.12900    -0.00048    -0.02153    -0.02624     0.10307
 PZ  C  23   0.02106    -0.04790    -0.02239    -0.03306    -0.05659     0.03707
  
  S  C  24  -0.04140    -0.01887    -0.00051    -0.06115    -0.16828     0.02767
 PX  C  24   0.01643    -0.03668     0.02096    -0.03074    -0.11265     0.03286
 PY  C  24   0.04681    -0.05736    -0.00072     0.00561     0.07040     0.06683
 PZ  C  24   0.01399    -0.03222    -0.02284    -0.02901    -0.10796     0.02856
  
  S  C  25  -0.01338    -0.05985    -0.00096    -0.05566    -0.17341     0.01561
 PX  C  25  -0.00070     0.01487     0.00498     0.03009     0.09203    -0.03973
 PY  C  25   0.02573    -0.03662    -0.00016    -0.01766    -0.02675     0.05023
 PZ  C  25  -0.00148     0.01522    -0.00527     0.02882     0.08724    -0.03895
  
  S  C  26  -0.02153     0.03499    -0.00021     0.07499     0.23958    -0.10468
 PX  C  26   0.00505    -0.00096     0.00217     0.01417     0.06363    -0.01132
 PY  C  26  -0.00980    -0.03525    -0.00064    -0.05116    -0.17086     0.00883
 PZ  C  26   0.00506     0.00023    -0.00223     0.01491     0.06509    -0.01091
  
  S  C  27   0.02245     0.05860     0.00089     0.10393     0.32968    -0.01541
 PX  C  27  -0.01172     0.00879     0.00484     0.02626     0.10320    -0.04581
 PY  C  27  -0.02073     0.01195    -0.00039     0.00337    -0.00338    -0.04380
 PZ  C  27  -0.01032     0.00793    -0.00544     0.02456     0.09703    -0.04163
  
  S  C  28   0.06507    -0.01993     0.00073    -0.01787    -0.07449     0.10243
 PX  C  28  -0.01017     0.03387     0.02237     0.03904     0.11251    -0.01100
 PY  C  28  -0.01771     0.00782    -0.00084    -0.02375    -0.09635    -0.01695
 PZ  C  28  -0.00878     0.03176    -0.02328     0.03740     0.10874    -0.00972
  
  S  C  29  -0.01563     0.00116    -0.00008    -0.05770    -0.18417    -0.01318
 PX  C  29  -0.00459     0.00721     0.06587    -0.01454    -0.07793     0.03209
 PY  C  29  -0.07556     0.06206    -0.00239     0.02066     0.06138    -0.07565
 PZ  C  29  -0.00132     0.00547    -0.06992    -0.01426    -0.07473     0.03268
  
  S  C  30   0.00488    -0.00578    -0.00025     0.01378     0.06153    -0.05615
 PX  C  30  -0.01719     0.00858     0.22129    -0.01230    -0.02397    -0.02346
 PY  C  30  -0.09666     0.13357    -0.00693     0.06115     0.12202    -0.07994
 PZ  C  30  -0.01077     0.00594    -0.23565    -0.01336    -0.02525    -0.01880
  
  S  C  31  -0.12071     0.19205    -0.00024     0.09910     0.16397    -0.06333
 PX  C  31   0.02142    -0.03561     0.06558     0.00578     0.08297    -0.02076
 PY  C  31   0.01700    -0.01211    -0.00193    -0.00986    -0.05538     0.06465
 PZ  C  31   0.02090    -0.03210    -0.06994     0.00558     0.07881    -0.02185
  
  S  C  32  -0.15644     0.18860     0.00018    -0.00564    -0.16777     0.05133
 PX  C  32  -0.00728     0.01847     0.02243     0.03142     0.05572    -0.01723
 PY  C  32  -0.00473    -0.05274    -0.00085    -0.06033    -0.10636     0.03312
 PZ  C  32  -0.00241     0.01983    -0.02460     0.03101     0.05327    -0.01963
  
  S  C  33  -0.11228    -0.03759    -0.00101    -0.09749    -0.18574    -0.00229
 PX  C  33   0.04086    -0.01921     0.00486     0.02720     0.02285    -0.07540
 PY  C  33   0.02371    -0.11183    -0.00081    -0.00909     0.09173    -0.07534
 PZ  C  33   0.04448    -0.01314    -0.00610     0.02533     0.01532    -0.06953
  
  S  N  34  -0.03487    -0.08153     0.00039    -0.02532     0.09711     0.17934
 PX  N  34  -0.05517    -0.04867    -0.00026    -0.01543    -0.01713    -0.06358
 PY  N  34   0.06504    -0.01538    -0.00044     0.09876     0.15853     0.00378
 PZ  N  34  -0.03680    -0.04709    -0.00201    -0.02248    -0.03365    -0.06016
  
  S  C  35   0.05456     0.07824     0.00205     0.00083    -0.00496    -0.08186
 PX  C  35  -0.04499    -0.01636    -0.00013    -0.01177     0.03972     0.15324
 PY  C  35  -0.01559    -0.00729    -0.00072     0.02765     0.06898     0.05072
 PZ  C  35   0.04054    -0.03032     0.00073    -0.01122     0.01842     0.13444
  
  S  C  36   0.17975     0.03177     0.00289     0.02664    -0.03256    -0.17773
 PX  C  36  -0.04024     0.04248    -0.00087    -0.03321    -0.05477    -0.00662
 PY  C  36  -0.00774     0.01787     0.00045    -0.00689    -0.00670    -0.02495
 PZ  C  36  -0.01688     0.00873    -0.00174    -0.01439    -0.02126     0.04074
  
  S  C  37   0.15207    -0.08566     0.00395     0.05803     0.10453     0.07201
 PX  C  37   0.02399     0.02578     0.00044     0.00046    -0.03386    -0.11203
 PY  C  37  -0.00810    -0.00028     0.00008    -0.00349    -0.00472    -0.01151
 PZ  C  37   0.06393     0.03668     0.00068     0.01432    -0.03002    -0.15072
  
  S  C  38  -0.06316    -0.10871    -0.00059    -0.01363     0.07368     0.31262
 PX  C  38  -0.04257     0.01995    -0.00104    -0.01634    -0.04106    -0.06693
 PY  C  38  -0.05905     0.01722    -0.00160    -0.02272    -0.03988    -0.02183
 PZ  C  38   0.07234    -0.00991     0.00207     0.02917     0.03176    -0.05408
  
  S  C  39  -0.20842    -0.00005    -0.00513    -0.06468    -0.07567     0.05672
 PX  C  39  -0.01244     0.05098    -0.00060     0.00036    -0.04107    -0.15370
 PY  C  39  -0.00725     0.02567    -0.00059    -0.00025    -0.02166    -0.06599
 PZ  C  39   0.00607     0.01786     0.00040     0.00794    -0.00573    -0.08486
  
  S  C  40  -0.11143     0.08976    -0.00274    -0.01071    -0.05319    -0.17725
 PX  C  40   0.03659     0.00022     0.00094     0.01780     0.03470     0.03646
 PY  C  40   0.00489    -0.00993    -0.00049     0.01011     0.01528     0.03417
 PZ  C  40   0.07880     0.01398     0.00234     0.03210     0.05128    -0.00926
  
  S  C  41   0.08175    -0.11386     0.50213    -0.02548    -0.02279     0.04804
 PX  C  41  -0.00543     0.00286     0.06043    -0.00478    -0.00997    -0.00464
 PY  C  41  -0.02922     0.04252     0.02480     0.02131     0.04131    -0.03243
 PZ  C  41   0.01058    -0.01365    -0.02901    -0.00520    -0.00360    -0.01009
  
  S  C  42   0.08745    -0.11002    -0.50207    -0.02550    -0.02053     0.05030
 PX  C  42   0.00899    -0.01238     0.02428    -0.00490    -0.00323    -0.01133
 PY  C  42  -0.02913     0.04328    -0.02749     0.02130     0.04098    -0.03236
 PZ  C  42  -0.00464     0.00285    -0.06128    -0.00512    -0.01068    -0.00259
  
  S  C  43  -0.08536    -0.06975    -0.00055     0.13315    -0.03044     0.03290
 PX  C  43   0.08297     0.06058     0.00045    -0.09672     0.01897    -0.02541
 PY  C  43   0.11753     0.08587     0.00064    -0.13054     0.02365    -0.02993
 PZ  C  43   0.00915     0.00658     0.00005    -0.00880     0.00101    -0.00281
  
  S  O  44   0.06673     0.04181     0.00029    -0.04136     0.00151    -0.01381
 PX  O  44  -0.01096    -0.00550    -0.00003     0.00105     0.00126     0.00042
 PY  O  44   0.03168     0.02344     0.00017    -0.03433     0.00497    -0.00966
 PZ  O  44   0.00379     0.00268     0.00002    -0.00347     0.00033    -0.00120
  
  S  O  45   0.05156     0.04245     0.00034    -0.08466     0.02160    -0.01733
 PX  O  45   0.03042     0.02233     0.00017    -0.03412     0.00614    -0.00821
 PY  O  45   0.07028     0.05908     0.00047    -0.12250     0.03050    -0.03253
 PZ  O  45   0.00598     0.00511     0.00004    -0.01073     0.00262    -0.00315
  
  S  H  46   0.00861     0.02430     0.00026    -0.11631     0.04815    -0.00138
  
  S  H  47   0.06764     0.02045     0.00001     0.10976    -0.07296    -0.05723
  
  S  H  48  -0.06216    -0.06655    -0.00056     0.13908    -0.03952    -0.04756
  
  S  H  49   0.02697     0.08701     0.00070    -0.01990    -0.04259     0.10374
  
  S  H  50   0.03947     0.05845     0.00031     0.09155    -0.02221     0.12130
  
  S  H  51   0.03279    -0.16179    -0.00085    -0.06877    -0.03020    -0.09691
  
  S  H  52   0.10390    -0.04046    -0.00015     0.04593    -0.00448     0.01814
  
  S  H  53  -0.06305     0.10139     0.00074     0.01341     0.02006     0.08598
  
  S  H  54   0.11131    -0.08644     0.00044    -0.01277     0.00999     0.06871
  
  S  H  55   0.00998    -0.04640    -0.00044    -0.02736    -0.06956     0.02446
  
  S  H  56  -0.00728     0.01507    -0.00010     0.04554     0.16005    -0.06047
  
  S  H  57   0.01498     0.02730     0.00048     0.06144     0.21151    -0.00818
  
  S  H  58   0.04647    -0.02822     0.00030    -0.01043    -0.02536     0.06510
  
  S  H  59  -0.06511     0.09242     0.00097    -0.00816    -0.09339     0.02683
  
  S  H  60   0.07724     0.01788    -0.00077     0.00572    -0.03101    -0.05832
  
  S  H  61   0.07598    -0.04682     0.00178     0.03157     0.06268     0.06411
  
  S  H  62  -0.03285    -0.05955    -0.00043    -0.00802     0.04631     0.20496
  
  S  H  63  -0.10594    -0.00281    -0.00284    -0.03575    -0.03978     0.05514
  
  S  H  64  -0.04476     0.03694    -0.00144     0.00422    -0.01183    -0.05591
  
  S  H  65   0.02622    -0.03884     0.28140    -0.00818    -0.00505     0.01456
  
  S  H  66   0.05777    -0.08100     0.22382    -0.02649    -0.03965     0.04392
  
  S  H  67   0.03299    -0.04386     0.22333    -0.00647    -0.00531     0.02839
  
  S  H  68   0.03583    -0.04210    -0.22326    -0.00641    -0.00430     0.02913
  
  S  H  69   0.06018    -0.07934    -0.22365    -0.02649    -0.03851     0.04509
  
  S  H  70   0.02946    -0.03670    -0.28135    -0.00822    -0.00389     0.01581
  
  S  H  71   0.06140     0.05030     0.00040    -0.09951     0.02423    -0.02465




    ROOT NO.   25          26          27          28          29          30

           -28.57496   -27.92432   -27.00114   -26.95086   -26.40062   -25.81094
  
  
  S  N   1  -0.00233    -0.03619    -0.01114    -0.02236    -0.09769    -0.01799
 PX  N   1   0.00490    -0.00507     0.00220     0.00247    -0.00060     0.00157
 PY  N   1   0.02905    -0.01212     0.01844     0.02242    -0.01463     0.00486
 PZ  N   1  -0.00327     0.00348    -0.00104    -0.00075     0.00605     0.00038
  
  S  C   2   0.03818     0.01296     0.02348     0.03572     0.08170     0.02047
 PX  C   2   0.03259     0.04007     0.02638     0.04429     0.13453     0.02777
[...]




   ATOM   CHEMICAL          X               Y               Z
  NUMBER   SYMBOL      (ANGSTROMS)     (ANGSTROMS)     (ANGSTROMS)
 
     1       N          0.00000000  *   0.00000000  *   0.00000000  *
     2       C          1.15649296  *   0.00000000  *   0.00000000  *
     3       C          2.57328013  *   0.02191128  *   0.00000000  *
     4       C          3.32577583  *  -1.09030829  *  -0.11502314  *
     5       C          2.77558077  *  -2.41126675  *  -0.19028270  *
     6       C          1.67087102  *  -2.88726534  *   0.46477264  *
     7       C          1.42975089  *  -4.26539037  *   0.17312380  *
     8       C          2.35994827  *  -4.77788633  *  -0.69056209  *
     9       S          3.52805718  *  -3.61416312  *  -1.14730827  *
    10       C          2.40840785  *  -6.10956449  *  -1.20039815  *
    11       C          3.52673718  *  -6.87567262  *  -1.37917689  *
    12       C          3.21267346  *  -8.16570077  *  -1.91364466  *
    13       C          1.87178763  *  -8.32368557  *  -2.11894669  *
    14       S          0.97949272  *  -6.93419122  *  -1.66900568  *
    15       C          1.23227318  *  -9.51154729  *  -2.63329077  *
    16       C          0.19571763  *  -9.39932869  *  -3.57451389  *
    17       C         -0.42961047  * -10.51690937  *  -4.09870672  *
    18       C          0.01554201  * -11.76244150  *  -3.66098515  *
    19       C          1.05290544  * -11.88647809  *  -2.69671366  *
    20       C          1.66612033  * -10.75555170  *  -2.18454505  *
    21       C          1.23859069  * -13.29283361  *  -2.44770711  *
    22       C          2.11102543  * -13.98295228  *  -1.60998915  *
    23       C          2.02856527  * -15.35707452  *  -1.63058146  *
    24       C          2.79034327  * -16.34446584  *  -0.88398714  *
    25       C          3.79074415  * -16.18185258  *   0.05031573  *
    26       C          4.35581996  * -17.32789028  *   0.61662983  *
    27       C          3.92221990  * -18.59293639  *   0.24887664  *
    28       C          2.90669908  * -18.75670632  *  -0.69940272  *
    29       C          2.34992847  * -17.63021841  *  -1.25709772  *
    30       C          1.25459543  * -17.53747765  *  -2.28864355  *
    31       C          1.11077640  * -16.04476163  *  -2.46676294  *
    32       C          0.24044598  * -15.38910956  *  -3.30162602  *
    33       C          0.31212481  * -13.99045397  *  -3.26858216  *
    34       N         -0.43222259  * -13.05030399  *  -4.00755351  *
    35       C         -1.46289855  * -13.34901572  *  -4.93168105  *
    36       C         -2.49721176  * -14.20971679  *  -4.55469457  *
    37       C         -3.49865275  * -14.50025152  *  -5.47150306  *
    38       C         -3.47931126  * -13.93286307  *  -6.74015528  *
    39       C         -2.44937587  * -13.07273231  *  -7.10234732  *
    40       C         -1.43014175  * -12.77808411  *  -6.20670372  *
    41       C          1.68056894  * -18.19751459  *  -3.59179086  *
    42       C         -0.03777536  * -18.14456758  *  -1.76284096  *
    43       C          3.23002598  *   1.33222126  *   0.10089291  *
    44       O          4.43366728  *   1.54670516  *   0.07242496  *
    45       O          2.37423220  *   2.36435887  *   0.23982114  *
    46       H          4.42369621  *  -1.01470333  *  -0.16165590  *
    47       H          1.04814719  *  -2.32059702  *   1.15493571  *
    48       H          0.60044742  *  -4.82190993  *   0.60400329  *
    49       H          4.54330696  *  -6.56871168  *  -1.14494999  *
    50       H          3.97175586  *  -8.91256574  *  -2.13297059  *
    51       H         -0.12335890  *  -8.40606542  *  -3.90729360  *
    52       H         -1.24637708  * -10.42196839  *  -4.81751149  *
    53       H          2.46185242  * -10.85046430  *  -1.44104572  *
    54       H          2.82119540  * -13.45047829  *  -0.97469980  *
    55       H          4.13391319  * -15.18682818  *   0.34183648  *
    56       H          5.15115575  * -17.22130055  *   1.36021980  *
    57       H          4.37765510  * -19.47721731  *   0.70400322  *
    58       H          2.56797585  * -19.75514085  *  -0.98645975  *
    59       H         -0.45022378  * -15.92185611  *  -3.95701904  *
    60       H         -2.53085030  * -14.64086551  *  -3.54898665  *
    61       H         -4.31166123  * -15.17587729  *  -5.18801291  *
    62       H         -4.27544395  * -14.16319417  *  -7.45401361  *
    63       H         -2.43566720  * -12.62799328  *  -8.10228474  *
    64       H         -0.60938902  * -12.11837108  *  -6.50592552  *
    65       H          2.61148325  * -17.76556027  *  -3.98612609  *
    66       H          1.85768098  * -19.27495454  *  -3.46371339  *
    67       H          0.91859803  * -18.08537989  *  -4.37622423  *
    68       H         -0.86499606  * -18.02888154  *  -2.47755828  *
    69       H          0.06939320  * -19.22027822  *  -1.56279016  *
    70       H         -0.35938784  * -17.67545085  *  -0.82201781  *
    71       H          2.85019006  *   3.20546202  *   0.30006516  *

                             CARTESIAN COORDINATES

   1    N        0.000000000     0.000000000     0.000000000
   2    C        1.156492959     0.000000000     0.000000000
   3    C        2.573280129     0.021911275     0.000000000
   4    C        3.325775826    -1.090308289    -0.115023140
   5    C        2.775580768    -2.411266746    -0.190282696
   6    C        1.670871023    -2.887265340     0.464772635
   7    C        1.429750886    -4.265390374     0.173123801
   8    C        2.359948266    -4.777886335    -0.690562094
   9    S        3.528057183    -3.614163117    -1.147308274
  10    C        2.408407849    -6.109564493    -1.200398147
  11    C        3.526737177    -6.875672619    -1.379176893
  12    C        3.212673465    -8.165700765    -1.913644658
  13    C        1.871787634    -8.323685573    -2.118946692
  14    S        0.979492718    -6.934191220    -1.669005681
  15    C        1.232273177    -9.511547295    -2.633290774
  16    C        0.195717628    -9.399328685    -3.574513886
  17    C       -0.429610474   -10.516909370    -4.098706724
  18    C        0.015542005   -11.762441500    -3.660985152
  19    C        1.052905436   -11.886478090    -2.696713657
  20    C        1.666120329   -10.755551700    -2.184545049
  21    C        1.238590693   -13.292833610    -2.447707111
  22    C        2.111025433   -13.982952280    -1.609989154
  23    C        2.028565270   -15.357074520    -1.630581455
  24    C        2.790343268   -16.344465840    -0.883987144
  25    C        3.790744148   -16.181852580     0.050315732
  26    C        4.355819960   -17.327890280     0.616629830
  27    C        3.922219899   -18.592936390     0.248876636
  28    C        2.906699079   -18.756706320    -0.699402723
  29    C        2.349928467   -17.630218410    -1.257097720
  30    C        1.254595430   -17.537477650    -2.288643548
  31    C        1.110776397   -16.044761630    -2.466762940
  32    C        0.240445980   -15.389109560    -3.301626017
  33    C        0.312124809   -13.990453970    -3.268582162
  34    N       -0.432222587   -13.050303990    -4.007553515
  35    C       -1.462898555   -13.349015720    -4.931681049
  36    C       -2.497211764   -14.209716790    -4.554694569
  37    C       -3.498652746   -14.500251520    -5.471503061
  38    C       -3.479311261   -13.932863070    -6.740155284
  39    C       -2.449375868   -13.072732310    -7.102347324
  40    C       -1.430141752   -12.778084110    -6.206703718
  41    C        1.680568939   -18.197514590    -3.591790864
  42    C       -0.037775361   -18.144567580    -1.762840964
  43    C        3.230025976     1.332221263     0.100892913
  44    O        4.433667283     1.546705156     0.072424958
  45    O        2.374232199     2.364358866     0.239821137
  46    H        4.423696208    -1.014703331    -0.161655898
  47    H        1.048147192    -2.320597015     1.154935712
  48    H        0.600447417    -4.821909932     0.604003294
  49    H        4.543306955    -6.568711682    -1.144949988
  50    H        3.971755857    -8.912565737    -2.132970586
  51    H       -0.123358897    -8.406065418    -3.907293601
  52    H       -1.246377083   -10.421968390    -4.817511486
  53    H        2.461852421   -10.850464300    -1.441045717
  54    H        2.821195404   -13.450478290    -0.974699802
  55    H        4.133913190   -15.186828180     0.341836479
  56    H        5.151155755   -17.221300550     1.360219796
  57    H        4.377655097   -19.477217310     0.704003217
  58    H        2.567975846   -19.755140850    -0.986459748
  59    H       -0.450223783   -15.921856110    -3.957019039
  60    H       -2.530850304   -14.640865510    -3.548986650
  61    H       -4.311661230   -15.175877290    -5.188012910
  62    H       -4.275443949   -14.163194170    -7.454013611
  63    H       -2.435667197   -12.627993280    -8.102284743
  64    H       -0.609389019   -12.118371080    -6.505925517
  65    H        2.611483245   -17.765560270    -3.986126095
  66    H        1.857680980   -19.274954540    -3.463713391
  67    H        0.918598028   -18.085379890    -4.376224233
  68    H       -0.864996062   -18.028881540    -2.477558278
  69    H        0.069393199   -19.220278220    -1.562790163
  70    H       -0.359387837   -17.675450850    -0.822017811
  71    H        2.850190059     3.205462019     0.300065164


           Empirical Formula: C39 H26 N2 O2 S2  =    71 atoms



      MOLECULAR POINT GROUP   :   C1  


                  EIGENVALUES  
 -48.77830 -47.18141 -46.82409 -44.03775 -43.54583 -43.01308 -42.29545 -41.41175
 -40.31390 -39.71090 -39.17070 -36.59517 -36.36640 -35.89737 -34.59114 -33.39043
 -32.77760 -32.63195 -32.22227 -31.54992 -31.23251 -30.36948 -29.64271 -29.34514
 -28.57496 -27.92432 -27.00114 -26.95086 -26.40062 -25.81094 -25.08243 -24.82332
 -24.59535 -24.24812 -23.44247 -23.20298 -23.01005 -22.04111 -21.91961 -21.63921
 -20.75788 -20.27140 -20.04448 -19.88198 -19.57127 -18.73955 -18.18861 -18.11488
 -17.99375 -17.86761 -17.75403 -17.11052 -16.85025 -16.82271 -16.65438 -16.56139
 -16.34056 -16.29710 -15.94180 -15.84825 -15.73828 -15.48552 -15.35490 -15.26582
 -14.94296 -14.72517 -14.64980 -14.59182 -14.37437 -14.26417 -14.00460 -13.93191
 -13.76411 -13.72306 -13.37489 -13.32891 -13.25086 -13.13632 -13.03548 -12.94073
 -12.89436 -12.78173 -12.61249 -12.51905 -12.38803 -12.32923 -12.18466 -12.10652
 -11.93194 -11.85896 -11.61357 -11.43895 -11.33525 -11.27144 -10.88208 -10.30841
 -10.03485  -9.98701  -9.86439  -9.53668  -9.12431  -9.04166  -8.79675  -8.54313
  -8.34503  -7.65167  -7.25074  -6.96957  -1.15140  -0.08696   0.22896   0.23196
   0.58775   0.76940   0.78844   0.90781   0.92610   1.25308   1.50127   1.60353
   1.68196   2.02670   2.04279   2.21697   2.45657   2.56813   2.62819   2.65269
   2.82283   2.91798   2.94597   2.97442   3.13745   3.27082   3.31839   3.42300
   3.59846   3.69477   3.76932   3.77909   3.88906   4.03640   4.10175   4.12557
   4.25641   4.34654   4.44917   4.47335   4.49250   4.71241   5.00838   5.06686
   5.41223   5.41907   5.51924   5.60736   5.64975   5.77567   5.90381   6.12771
   6.25824   6.33784   6.40113   6.59146   6.68779   6.73855   6.97535   7.02420
   7.21336   7.35059   7.70071   8.12990   8.36581   8.50201   8.67953   8.85993
   8.88725   9.06998   9.09158   9.17660   9.29625   9.75893  10.01460  10.09040
  10.23907  10.36849  10.74764  10.78399  10.86798  11.10193  11.19984  11.37376
  11.67427  11.98140  12.20162  12.46947  12.55809  12.80138  12.84076  12.91967
  13.30918  13.55519  13.74236  14.16157  14.81927  15.51652


              NET ATOMIC CHARGES AND DIPOLE CONTRIBUTIONS

  ATOM NO.   TYPE          CHARGE      No. of ELECS.   s-Pop       p-Pop       
    1          N          -0.407971        5.4080     1.75359     3.65438
    2          C           0.223310        3.7767     1.14905     2.62764
    3          C           0.015269        3.9847     0.99964     2.98509
    4          C           0.138785        3.8612     1.09461     2.76660
    5          C           0.013484        3.9865     1.06247     2.92405
    6          C           0.017064        3.9829     1.09524     2.88770
    7          C          -0.051632        4.0516     1.08245     2.96918
    8          C           0.075688        3.9243     1.07630     2.84802
    9          S          -0.035872        6.0359     1.77199     4.26388
   10          C           0.023895        3.9761     1.06719     2.90892
   11          C          -0.028288        4.0283     1.08924     2.93905
   12          C          -0.057535        4.0575     1.08442     2.97312
   13          C           0.041748        3.9583     1.08417     2.87408
   14          S          -0.052823        6.0528     1.77313     4.27970
   15          C           0.010290        3.9897     1.03862     2.95109
   16          C          -0.030839        4.0308     1.08137     2.94947
   17          C          -0.038683        4.0387     1.07889     2.95979
   18          C           0.071627        3.9284     1.04925     2.87913
   19          C          -0.015489        4.0155     1.05137     2.96412
   20          C          -0.028000        4.0280     1.08110     2.94690
   21          C          -0.030516        4.0305     1.04834     2.98218
   22          C          -0.022467        4.0225     1.08110     2.94136
   23          C          -0.026430        4.0264     1.04961     2.97682
   24          C          -0.004868        4.0049     1.05125     2.95362
   25          C          -0.030423        4.0304     1.08008     2.95034
   26          C          -0.036966        4.0370     1.07956     2.95741
   27          C          -0.030517        4.0305     1.08104     2.94948
   28          C          -0.037325        4.0373     1.07805     2.95928
   29          C           0.010730        3.9893     1.06937     2.91990
   30          C           0.046604        3.9534     0.99665     2.95675
   31          C           0.014392        3.9856     1.07331     2.91230
   32          C          -0.055938        4.0559     1.07596     2.97998
   33          C           0.075671        3.9243     1.05565     2.86867
   34          N          -0.129673        5.1297     1.22808     3.90160
   35          C           0.098983        3.9010     1.03906     2.86196
   36          C          -0.031172        4.0312     1.07932     2.95186
   37          C          -0.016585        4.0166     1.08093     2.93566
   38          C          -0.031680        4.0317     1.07697     2.95471
   39          C          -0.016929        4.0169     1.08092     2.93601
   40          C          -0.031984        4.0320     1.07919     2.95280
   41          C          -0.011795        4.0118     1.05649     2.95530
   42          C          -0.011883        4.0119     1.05654     2.95535
   43          C           0.502855        3.4971     1.04534     2.45180
   44          O          -0.618212        6.6182     1.81674     4.80148
   45          O          -0.309977        6.3100     1.68692     4.62306
   46          H           0.066299        0.9337     0.93370
   47          H           0.046854        0.9531     0.95315
   48          H           0.035713        0.9643     0.96429
   49          H           0.036340        0.9637     0.96366
   50          H           0.031056        0.9689     0.96894
   51          H           0.021380        0.9786     0.97862
   52          H           0.028632        0.9714     0.97137
   53          H           0.027631        0.9724     0.97237
   54          H           0.027427        0.9726     0.97257
   55          H           0.022864        0.9771     0.97714
   56          H           0.016523        0.9835     0.98348
   57          H           0.017922        0.9821     0.98208
   58          H           0.022545        0.9775     0.97745
   59          H           0.030102        0.9699     0.96990
   60          H           0.029833        0.9702     0.97017
   61          H           0.023530        0.9765     0.97647
   62          H           0.021592        0.9784     0.97841
   63          H           0.023482        0.9765     0.97652
   64          H           0.029048        0.9710     0.97095
   65          H           0.007218        0.9928     0.99278
   66          H           0.007089        0.9929     0.99291
   67          H           0.007992        0.9920     0.99201
   68          H           0.007968        0.9920     0.99203
   69          H           0.007024        0.9930     0.99298
   70          H           0.007264        0.9927     0.99274
   71          H           0.248751        0.7512     0.75125
 DIPOLE           X         Y         Z       TOTAL
 POINT-CHG.    -0.738    -6.926    -1.683     7.166
 HYBRID         1.545     0.187     0.987     1.843
 SUM            0.808    -6.739    -0.696     6.823


          ATOMIC ORBITAL ELECTRON POPULATIONS

     Atom    s        px        py        pz   
    1  N   1.75359   1.23154   1.23565   1.18720
    2  C   1.14905   0.95139   0.80300   0.87325
    3  C   0.99964   0.90393   0.92281   1.15836
    4  C   1.09461   0.98684   0.99533   0.78443
    5  C   1.06247   0.99583   0.91512   1.01310
    6  C   1.09524   0.94583   0.98957   0.95230
    7  C   1.08245   0.96868   0.97420   1.02630
    8  C   1.07630   0.95554   0.92319   0.96929
    9  S   1.77199   1.44359   1.18334   1.63696
   10  C   1.06719   0.93364   0.94339   1.03189
   11  C   1.08924   0.93746   1.00354   0.99805
   12  C   1.08442   0.95895   0.97330   1.04087
   13  C   1.08417   0.97633   0.91388   0.98386
   14  S   1.77313   1.24408   1.24386   1.79175
   15  C   1.03862   0.99409   0.96341   0.99359
   16  C   1.08137   0.99114   0.95443   1.00391
   17  C   1.07889   0.98334   0.97790   0.99855
   18  C   1.04925   0.99230   0.89123   0.99561
   19  C   1.05137   1.00112   0.95959   1.00341
   20  C   1.08110   0.97607   0.97890   0.99192
   21  C   1.04834   1.00517   0.96475   1.01225
   22  C   1.08110   0.97776   0.98006   0.98355
   23  C   1.04961   1.00821   0.95632   1.01229
   24  C   1.05125   0.98046   0.99011   0.98304
   25  C   1.08008   0.99801   0.95137   1.00096
   26  C   1.07956   0.97878   0.99466   0.98396
   27  C   1.08104   0.99335   0.96193   0.99420
   28  C   1.07805   1.00361   0.94821   1.00746
   29  C   1.06937   0.96369   0.99362   0.96259
   30  C   0.99665   0.98527   0.98608   0.98540
   31  C   1.07331   0.96982   0.97144   0.97104
   32  C   1.07596   1.01001   0.95390   1.01607
   33  C   1.05565   0.96633   0.93756   0.96479
   34  N   1.22808   1.36949   1.10267   1.42944
   35  C   1.03906   0.92865   0.98794   0.94537
   36  C   1.07932   0.99054   1.00349   0.95783
   37  C   1.08093   0.96683   0.97211   0.99672
   38  C   1.07697   0.97348   1.00583   0.97539
   39  C   1.08092   0.99897   0.98280   0.95424
   40  C   1.07919   0.97865   0.99765   0.97649
   41  C   1.05649   0.99257   0.98698   0.97575
   42  C   1.05654   0.97577   0.98779   0.99179
   43  C   1.04534   0.87859   0.90620   0.66700
   44  O   1.81674   1.28146   1.95143   1.56858
   45  O   1.68692   1.52827   1.21493   1.87985
   46  H   0.93370
   47  H   0.95315
   48  H   0.96429
   49  H   0.96366
   50  H   0.96894
   51  H   0.97862
   52  H   0.97137
   53  H   0.97237
   54  H   0.97257
   55  H   0.97714
   56  H   0.98348
   57  H   0.98208
   58  H   0.97745
   59  H   0.96990
   60  H   0.97017
   61  H   0.97647
   62  H   0.97841
   63  H   0.97652
   64  H   0.97095
   65  H   0.99278
   66  H   0.99291
   67  H   0.99201
   68  H   0.99203
   69  H   0.99298
   70  H   0.99274
   71  H   0.75125

 **********************
 *                    *
 * JOB ENDED NORMALLY *
 *                    *
 **********************



 TOTAL JOB TIME:           401.87 SECONDS

 == MOPAC DONE ==
