 *******************************************************************************
 ** Site#: 4824         For non-commercial use only    Version 21.013L 64BITS **
 *******************************************************************************
 ** Cite this program as: MOPAC2016, Version: 21.013L, James J. P. Stewart,   **
 ** Stewart Computational Chemistry, web: HTTP://OpenMOPAC.net. Days left:  84**
 *******************************************************************************
 **                                                                           **
 **                                MOPAC2016                                  **
 **                                                                           **
 *******************************************************************************

                              INDO CALCULATION RESULTS

 *******************************************************************************
 *  CALCULATION DONE:                                Thu Oct 21 09:30:28 2021  *
 *  INDO       - The INDO Hamiltonian to be used
 *  CIS        - C.I. USES 1 ELECTRON EXCITATIONS ONLY
 *  EPS= 37.50 - USE ANDREAS KLAMT'S COSMO IMPLICIT SOLVATION MODEL
 *  n**2 =  1.340 for COSMO-CI
 *  T=         - A TIME OF 172800.0 SECONDS REQUESTED
 *  DUMP=N     - RESTART FILE WRITTEN EVERY 7200.0 SECONDS REQUESTED
 *******************************************************************************
INDO CIS EPS=37.5 N**2=1.34
 Dye7
 Calculo de Estados Excitados
   ATOM   CHEMICAL          X               Y               Z
  NUMBER   SYMBOL      (ANGSTROMS)     (ANGSTROMS)     (ANGSTROMS)
 
     1       N          0.00016445  *   0.00917844  *   0.00898929  *
     2       C          1.15642712  *  -0.00105185  *  -0.00469446  *
     3       C          2.57428969  *  -0.00074409  *  -0.00223040  *
     4       C          3.30361224  *  -1.12373961  *  -0.14007252  *
     5       C          2.71411250  *  -2.43139708  *  -0.36128240  *
     6       C          1.68987167  *  -2.59479691  *  -1.30645291  *
     7       C          1.10511968  *  -3.82901443  *  -1.53022178  *
     8       C          1.56709160  *  -4.90345515  *  -0.77202492  *
     9       C          2.62873949  *  -4.75240238  *   0.16617523  *
    10       C          3.20729758  *  -3.51417323  *   0.36565098  *
    11       C          2.87741940  *  -6.05154527  *   0.73854481  *
    12       C          3.77617801  *  -6.50386538  *   1.69126784  *
    13       C          3.74617498  *  -7.84610024  *   2.03898417  *
    14       C          2.82848229  *  -8.72526986  *   1.45416582  *
    15       C          1.91802555  *  -8.29993533  *   0.49902271  *
    16       C          1.96054406  *  -6.95637771  *   0.13954236  *
    17       N          1.16678322  *  -6.24745018  *  -0.78774638  *
    18       C          0.11570556  *  -6.79084900  *  -1.56787513  *
    19       C         -1.13774297  *  -6.17252982  *  -1.56144191  *
    20       C         -2.15675405  *  -6.70862652  *  -2.33440114  *
    21       C         -1.93972824  *  -7.85519932  *  -3.09641498  *
    22       C         -0.68848757  *  -8.46415731  *  -3.09023944  *
    23       C          0.34840609  *  -7.93516428  *  -2.33308590  *
    24       C         -3.04862617  *  -8.40538286  *  -3.91873795  *
    25       C          3.25230416  *   1.28719464  *   0.19486063  *
    26       O          4.45945427  *   1.47116009  *   0.26273627  *
    27       O          2.41396685  *   2.33742645  *   0.30356252  *
    28       H          4.40194463  *  -1.08691504  *  -0.07656138  *
    29       H          1.35783519  *  -1.73733212  *  -1.90204991  *
    30       H          0.31883710  *  -3.95420378  *  -2.27834688  *
    31       H          4.02208775  *  -3.39523163  *   1.08555957  *
    32       H          4.48554012  *  -5.81251023  *   2.15281177  *
    33       H          4.44789148  *  -8.22664991  *   2.78661795  *
    34       H          2.82803638  *  -9.77607008  *   1.76132226  *
    35       H          1.19267581  *  -8.98811282  *   0.06010226  *
    36       H         -1.32346148  *  -5.28422470  *  -0.94850233  *
    37       H         -3.14022673  *  -6.22774984  *  -2.33866647  *
    38       H         -0.50851526  *  -9.36307205  *  -3.68833486  *
    39       H          1.33566330  *  -8.40813754  *  -2.35018687  *
    40       H         -3.99281120  *  -8.45930789  *  -3.35556475  *
    41       H         -3.23781408  *  -7.77306335  *  -4.80008558  *
    42       H         -2.85207885  *  -9.42036941  *  -4.29393483  *
    43       H          2.90418364  *   3.16185207  *   0.43551535  *
 


          CARTESIAN COORDINATES 

    NO.       ATOM           X           Y           Z

     1         N          0.0002      0.0092      0.0090
     2         C          1.1564     -0.0011     -0.0047
     3         C          2.5743     -0.0007     -0.0022
     4         C          3.3036     -1.1237     -0.1401
     5         C          2.7141     -2.4314     -0.3613
     6         C          1.6899     -2.5948     -1.3065
     7         C          1.1051     -3.8290     -1.5302
     8         C          1.5671     -4.9035     -0.7720
     9         C          2.6287     -4.7524      0.1662
    10         C          3.2073     -3.5142      0.3657
    11         C          2.8774     -6.0515      0.7385
    12         C          3.7762     -6.5039      1.6913
    13         C          3.7462     -7.8461      2.0390
    14         C          2.8285     -8.7253      1.4542
    15         C          1.9180     -8.2999      0.4990
    16         C          1.9605     -6.9564      0.1395
    17         N          1.1668     -6.2475     -0.7877
    18         C          0.1157     -6.7908     -1.5679
    19         C         -1.1377     -6.1725     -1.5614
    20         C         -2.1568     -6.7086     -2.3344
    21         C         -1.9397     -7.8552     -3.0964
    22         C         -0.6885     -8.4642     -3.0902
    23         C          0.3484     -7.9352     -2.3331
    24         C         -3.0486     -8.4054     -3.9187
    25         C          3.2523      1.2872      0.1949
    26         O          4.4595      1.4712      0.2627
    27         O          2.4140      2.3374      0.3036
    28         H          4.4019     -1.0869     -0.0766
    29         H          1.3578     -1.7373     -1.9020
    30         H          0.3188     -3.9542     -2.2783
    31         H          4.0221     -3.3952      1.0856
    32         H          4.4855     -5.8125      2.1528
    33         H          4.4479     -8.2266      2.7866
    34         H          2.8280     -9.7761      1.7613
    35         H          1.1927     -8.9881      0.0601
    36         H         -1.3235     -5.2842     -0.9485
    37         H         -3.1402     -6.2277     -2.3387
    38         H         -0.5085     -9.3631     -3.6883
    39         H          1.3357     -8.4081     -2.3502
    40         H         -3.9928     -8.4593     -3.3556
    41         H         -3.2378     -7.7731     -4.8001
    42         H         -2.8521     -9.4204     -4.2939
    43         H          2.9042      3.1619      0.4355

           Empirical Formula: C23 H16 N2 O2  =    43 atoms



      MOLECULAR POINT GROUP   :   C1  


      RHF CALCULATION, NO. OF DOUBLY OCCUPIED LEVELS = 65

 WARNING: INDO only performs single-point calculations

 Summary of symmetry occupancy in each shell:

 SHELL     
    1   65
    v   59
 TOTAL 124




    ROOT NO.    1           2           3           4           5           6

           -48.66191   -46.84056   -44.21018   -43.44886   -41.80748   -39.68696
  
  
  S  N   1   0.00673     0.04027    -0.02098     0.05835    -0.05970    -0.00566
 PX  N   1   0.00391     0.02488    -0.01137     0.03114    -0.03085    -0.00217
 PY  N   1  -0.00114     0.00343     0.00355    -0.00826     0.00558     0.00837
 PZ  N   1  -0.00049     0.00012     0.00125    -0.00303     0.00195     0.00111
  
  S  C   2   0.01583     0.11489    -0.03912     0.10496    -0.09946    -0.03135
 PX  C   2   0.00500     0.05018    -0.00775     0.01898    -0.01411    -0.02200
 PY  C   2  -0.00378     0.02031     0.01304    -0.02952     0.02000     0.03508
 PZ  C   2  -0.00115     0.00266     0.00322    -0.00746     0.00451     0.00446
  
  S  C   3   0.02385     0.23006    -0.04805     0.12875    -0.12314    -0.18686
 PX  C   3   0.00046     0.03299     0.00289    -0.00606     0.00125    -0.10439
 PY  C   3  -0.00641     0.07426     0.03150    -0.07098     0.05125     0.06285
 PZ  C   3  -0.00118     0.01147     0.00519    -0.01190     0.00794     0.00537
  
  S  C   4   0.03791     0.12010    -0.09178     0.21471    -0.16716    -0.21427
 PX  C   4  -0.00964    -0.01825     0.02422    -0.05753     0.04156     0.01439
 PY  C   4  -0.01176     0.04532     0.02630    -0.04870     0.01643    -0.08623
 PZ  C   4  -0.00199     0.00551     0.00470    -0.01051     0.00425    -0.01113
  
  S  C   5   0.10288     0.05802    -0.17702     0.36051    -0.18831     0.00131
 PX  C   5  -0.01481    -0.00080     0.01640    -0.03500     0.00390    -0.02676
 PY  C   5  -0.03684     0.01591     0.03378    -0.04374    -0.01454    -0.09539
 PZ  C   5  -0.00378     0.00053     0.00409    -0.01398    -0.00065    -0.01089
  
  S  C   6   0.09967     0.03645    -0.14421     0.30916    -0.12318     0.06115
 PX  C   6   0.01306     0.00895    -0.02943     0.05326    -0.03354    -0.00500
 PY  C   6  -0.03818     0.00589     0.03014    -0.05599    -0.01083    -0.06080
 PZ  C   6   0.02367     0.00982    -0.03811     0.07198    -0.03443     0.00700
  
  S  C   7   0.15254     0.01146    -0.09511     0.23632    -0.00349     0.09058
 PX  C   7   0.03412     0.00536    -0.04948     0.07430    -0.02146     0.03355
 PY  C   7  -0.04380     0.00813    -0.02620     0.03662    -0.06443     0.01400
 PZ  C   7   0.04635     0.00321    -0.03828     0.06311    -0.00290     0.02722
  
  S  C   8   0.36859    -0.00755    -0.10237     0.14167     0.15611     0.05596
 PX  C   8   0.02375     0.00246    -0.05699     0.02131    -0.03353     0.03222
 PY  C   8  -0.11421     0.01657    -0.05600     0.13683    -0.13371     0.07657
 PZ  C   8   0.05210    -0.00220    -0.03466    -0.01796     0.00507     0.00779
  
  S  C   9   0.29746    -0.00001    -0.17342     0.12396    -0.00215     0.10141
 PX  C   9  -0.07042     0.00297     0.01273    -0.01523    -0.05659    -0.00106
 PY  C   9  -0.07808     0.01419    -0.02336     0.14342    -0.06139     0.04188
 PZ  C   9  -0.04431    -0.00093     0.01846    -0.05263    -0.03613    -0.01287
  
  S  C  10   0.12786     0.02494    -0.16124     0.25468    -0.12047     0.08166
 PX  C  10  -0.04167    -0.00450     0.04408    -0.07521     0.01553    -0.03413
 PY  C  10  -0.03282     0.01078     0.00486     0.03946    -0.03063    -0.03619
 PZ  C  10  -0.02930    -0.00618     0.03850    -0.07782     0.02060    -0.02333
  
  S  C  11   0.29281    -0.01642    -0.12164    -0.18722    -0.15309     0.03404
 PX  C  11  -0.08529     0.00513     0.00816     0.01011    -0.07455     0.01377
 PY  C  11  -0.00148     0.00372    -0.00767     0.10639     0.11150     0.01748
 PZ  C  11  -0.07740     0.00369     0.00911    -0.02028    -0.09983     0.00805
  
  S  C  12   0.11844    -0.00823    -0.07850    -0.19518    -0.29104     0.03548
 PX  C  12  -0.04473     0.00321     0.02232     0.05781     0.06521    -0.00550
 PY  C  12  -0.00929     0.00192     0.00564     0.06217     0.08853     0.00156
 PZ  C  12  -0.03835     0.00241     0.01879     0.03562     0.03491    -0.00543
  
  S  C  13   0.08521    -0.00743    -0.05888    -0.20846    -0.32043     0.02307
 PX  C  13  -0.02684     0.00237     0.01474     0.05788     0.07852    -0.00255
 PY  C  13   0.01786    -0.00127    -0.01260    -0.02864    -0.03979     0.00627
 PZ  C  13  -0.02947     0.00251     0.01688     0.06069     0.08250    -0.00405
  
  S  C  14   0.08880    -0.00808    -0.04811    -0.21245    -0.31022     0.01027
 PX  C  14  -0.00446     0.00041    -0.00417     0.00058    -0.00889     0.00516
 PY  C  14   0.04189    -0.00359    -0.02317    -0.08567    -0.11517     0.00530
 PZ  C  14  -0.01619     0.00142     0.00253     0.02510     0.02493     0.00329
  
  S  C  15   0.14596    -0.01236    -0.02229    -0.21313    -0.22832    -0.01875
 PX  C  15   0.01326    -0.00124    -0.02563    -0.05784    -0.09661     0.01085
 PY  C  15   0.06893    -0.00521    -0.01031    -0.06148    -0.02790    -0.00980
 PZ  C  15  -0.00854     0.00046    -0.02234    -0.03523    -0.08034     0.01328
  
  S  C  16   0.36136    -0.02510    -0.04333    -0.23301    -0.04330    -0.04391
 PX  C  16  -0.02044     0.00169    -0.04533    -0.04403    -0.12195     0.03089
 PY  C  16   0.11692    -0.00574    -0.02569     0.01973     0.13420    -0.00173
 PZ  C  16  -0.05005     0.00310    -0.03640    -0.04743    -0.15041     0.02927
  
  S  N  17   0.48478    -0.03197     0.08032    -0.07436     0.32796    -0.10711
 PX  N  17   0.06078    -0.00264    -0.06829    -0.03439     0.01237     0.01222
 PY  N  17   0.03594     0.00024    -0.04277     0.03083     0.03863     0.02395
 PZ  N  17   0.05026    -0.00273    -0.04957    -0.03871     0.00502     0.00437
  
  S  C  18   0.23315    -0.01912     0.32812     0.05188     0.07050    -0.06142
 PX  C  18   0.06231    -0.00374    -0.07552    -0.04884     0.10235    -0.03614
 PY  C  18   0.03337    -0.00131    -0.04190    -0.00550     0.06631    -0.01018
 PZ  C  18   0.04717    -0.00278    -0.05663    -0.03454     0.07818    -0.02552
  
  S  C  19   0.11489    -0.01021     0.30279     0.08996    -0.04308    -0.00251
 PX  C  19   0.04919    -0.00355     0.02650    -0.00038     0.04930    -0.02228
 PY  C  19  -0.01781     0.00250    -0.10677    -0.02638     0.04265    -0.00448
 PZ  C  19   0.00151     0.00053    -0.06932    -0.02456     0.04619    -0.01305
  
  S  C  20   0.05717    -0.00657     0.31750     0.10341    -0.14242     0.04033
 PX  C  20   0.02614    -0.00276     0.10843     0.03249    -0.03167     0.00237
 PY  C  20  -0.00710     0.00113    -0.06766    -0.02074     0.04120    -0.01309
 PZ  C  20   0.00393    -0.00019    -0.00981    -0.00417     0.01801    -0.00905
  
  S  C  21   0.05132    -0.00649     0.35080     0.11423    -0.18825     0.06117
 PX  C  21   0.01608    -0.00184     0.07433     0.02045    -0.02249    -0.00139
 PY  C  21   0.00848    -0.00093     0.03955     0.01254    -0.01143     0.00077
 PZ  C  21   0.01198    -0.00135     0.05529     0.01604    -0.01622    -0.00031
  
  S  C  22   0.05675    -0.00679     0.31748     0.09439    -0.14786     0.03479
 PX  C  22   0.00158     0.00008    -0.03469    -0.01625     0.03150    -0.01671
 PY  C  22   0.02146    -0.00245     0.10541     0.03125    -0.03981     0.00674
 PZ  C  22   0.01669    -0.00181     0.06456     0.01603    -0.01808    -0.00156
  
  S  C  23   0.11353    -0.01107     0.30656     0.06274    -0.06141    -0.01540
 PX  C  23  -0.00460     0.00123    -0.11328    -0.04254     0.06187    -0.01809
 PY  C  23   0.04086    -0.00346     0.06101     0.00993     0.01820    -0.01412
 PZ  C  23   0.03156    -0.00245     0.00556    -0.01288     0.03305    -0.01902
  
  S  C  24   0.01541    -0.00221     0.14949     0.05250    -0.10381     0.04507
 PX  C  24   0.00569    -0.00078     0.04740     0.01592    -0.02883     0.01042
 PY  C  24   0.00295    -0.00040     0.02455     0.00848    -0.01479     0.00562
 PZ  C  24   0.00426    -0.00058     0.03548     0.01203    -0.02152     0.00794
  
  S  C  25   0.01724     0.51206     0.02497    -0.03864     0.00704    -0.13783
 PX  C  25   0.00002     0.02047     0.00242    -0.00423    -0.00440    -0.35084
 PY  C  25   0.00029     0.13540     0.02771    -0.06537     0.05933     0.20159
 PZ  C  25   0.00000     0.01874     0.00387    -0.00910     0.00785     0.01443
  
  S  O  26   0.01221     0.41176     0.02563    -0.04401     0.00932    -0.50912
 PX  O  26  -0.00508    -0.17560    -0.01166     0.02082    -0.00741     0.13766
 PY  O  26  -0.00085    -0.00179     0.00438    -0.01175     0.01345     0.08569
 PZ  O  26  -0.00030    -0.00656     0.00018    -0.00086     0.00155     0.01644
  
  S  O  27   0.01428     0.56896     0.05425    -0.11389     0.09053     0.51943
 PX  O  27   0.00375     0.15670     0.01562    -0.03298     0.02522     0.07665
 PY  O  27  -0.00226    -0.06676    -0.00248     0.00254     0.00201    -0.01266
 PZ  O  27  -0.00016    -0.00271     0.00030    -0.00099     0.00126     0.00160
  
  S  H  28   0.01294     0.05222    -0.03011     0.06998    -0.05697    -0.10286
  
  S  H  29   0.02501     0.01879    -0.04373     0.10182    -0.05201     0.00118
  
  S  H  30   0.05106     0.00181    -0.00704     0.06534     0.01100     0.02061
  
  S  H  31   0.03526     0.00947    -0.04887     0.07029    -0.04939     0.01544
  
  S  H  32   0.03221    -0.00167    -0.02581    -0.04654    -0.08430     0.01520
  
  S  H  33   0.01935    -0.00175    -0.01565    -0.05602    -0.09347     0.00774
  
  S  H  34   0.02043    -0.00197    -0.01165    -0.05733    -0.08987     0.00286
  
  S  H  35   0.04918    -0.00430     0.01206    -0.05620    -0.05314    -0.01324
  
  S  H  36   0.04843    -0.00347     0.07950     0.02841     0.00734    -0.00386
  
  S  H  37   0.01427    -0.00168     0.08970     0.03081    -0.04565     0.01571
  
  S  H  38   0.01414    -0.00177     0.08955     0.02705    -0.04771     0.01326
  
  S  H  39   0.04735    -0.00430     0.08296     0.00567    -0.00704    -0.01327
  
  S  H  40   0.00579    -0.00084     0.05797     0.02059    -0.04121     0.01847
  
  S  H  41   0.00578    -0.00084     0.05781     0.02052    -0.04109     0.01840
  
  S  H  42   0.00573    -0.00084     0.05758     0.02023    -0.04113     0.01819
  
  S  H  43   0.00579     0.23952     0.02415    -0.05152     0.04162     0.19636




    ROOT NO.    7           8           9          10          11          12

           -39.19098   -37.27379   -36.29228   -34.99674   -33.84475   -32.65669
  
  
  S  N   1   0.38963     0.25444     0.48617    -0.03706    -0.10038    -0.12382
 PX  N   1   0.18273     0.10620     0.18405    -0.01439    -0.02959    -0.03184
 PY  N   1  -0.00379     0.00236     0.00115    -0.00371     0.00211     0.00380
 PZ  N   1  -0.00303     0.00033    -0.00250    -0.00235     0.00041    -0.00065
  
  S  C   2   0.46685     0.20825     0.24654    -0.02576     0.00828     0.03371
 PX  C   2  -0.05285    -0.11048    -0.33507     0.01784     0.11455     0.15622
 PY  C   2  -0.00700     0.01061     0.01657    -0.00886     0.00684     0.01602
 PZ  C   2  -0.00093     0.00530     0.00386    -0.00591    -0.00028    -0.00228
  
  S  C   3   0.31735     0.04743    -0.24393    -0.01061     0.16307     0.22191
 PX  C   3  -0.09852    -0.03170    -0.07043    -0.00194     0.01030    -0.00291
 PY  C   3  -0.05165     0.02176     0.08126    -0.00453     0.01451     0.05802
 PZ  C   3  -0.00921     0.00553     0.00975    -0.00600     0.00093     0.00248
  
  S  C   4   0.20984    -0.04544    -0.33713    -0.02260     0.03104    -0.05788
 PX  C   4  -0.08848     0.00651     0.05745    -0.01501    -0.02223    -0.03606
 PY  C   4   0.04126     0.04524    -0.01473     0.00860     0.10593     0.18379
 PZ  C   4  -0.00182     0.01026    -0.00428    -0.01363     0.00634     0.00262
  
  S  C   5   0.01997    -0.12372    -0.13399     0.00009    -0.13438    -0.22075
 PX  C   5   0.01005     0.01689    -0.07238    -0.06413    -0.03078    -0.11164
 PY  C   5   0.14704     0.00647    -0.13119     0.02037     0.05434     0.02573
 PZ  C   5   0.00199     0.02226    -0.04319    -0.06558    -0.03020    -0.09344
  
  S  C   6  -0.03267    -0.15125     0.10134     0.18233     0.01009     0.13263
 PX  C   6   0.00543    -0.00964    -0.06054    -0.03053    -0.05306    -0.08842
 PY  C   6   0.10724     0.03748    -0.10451    -0.04816    -0.02215    -0.07690
 PZ  C   6  -0.00251    -0.01194    -0.02415    -0.01695    -0.04055    -0.06133
  
  S  C   7  -0.11189    -0.15417     0.22544     0.23521     0.15712     0.26223
 PX  C   7  -0.04782    -0.00799     0.03066     0.01478    -0.03042     0.02360
 PY  C   7  -0.00643    -0.01656     0.00695     0.01131    -0.05255     0.01779
 PZ  C   7  -0.03962    -0.00524     0.03084     0.01109    -0.00491     0.01263
  
  S  C   8  -0.09538     0.04089     0.10160     0.09564     0.13318     0.15664
 PX  C   8  -0.05706     0.09603    -0.02248    -0.09717    -0.07333    -0.00599
 PY  C   8  -0.10198    -0.08547     0.11450     0.02487    -0.01288     0.06374
 PZ  C   8  -0.02247     0.10962    -0.05127    -0.09869    -0.05058    -0.03569
  
  S  C   9  -0.18059     0.21002     0.00987    -0.24411    -0.03381    -0.01304
 PX  C   9   0.00180    -0.01421    -0.01655    -0.07268    -0.03039    -0.07208
 PY  C   9  -0.05326    -0.12206     0.06389     0.03230    -0.07194    -0.09451
 PZ  C   9   0.01767     0.01932    -0.03284    -0.07582    -0.00529    -0.04379
  
  S  C  10  -0.13800     0.00332    -0.03508    -0.19678    -0.16866    -0.28485
 PX  C  10   0.04544     0.00739    -0.03547    -0.00743     0.01662    -0.01497
 PY  C  10   0.06088    -0.08038    -0.06023     0.07155    -0.03390    -0.08435
 PZ  C  10   0.03094     0.02960    -0.01882    -0.02685     0.02664     0.01015
  
  S  C  11  -0.06716     0.21198    -0.05234    -0.23895     0.06795     0.06593
 PX  C  11  -0.01508    -0.05178     0.03335    -0.03828     0.04714     0.00747
 PY  C  11  -0.04118     0.08468    -0.01090    -0.09615    -0.00648    -0.00838
 PZ  C  11  -0.00279    -0.07022     0.03378    -0.00929     0.04841     0.00675
  
  S  C  12  -0.04712     0.01741     0.03070    -0.15948     0.18330     0.09667
 PX  C  12   0.00731    -0.01721     0.00392     0.02239    -0.00359    -0.00530
 PY  C  12  -0.01266     0.06736    -0.02741    -0.07455    -0.03086    -0.01787
 PZ  C  12   0.01018    -0.03453     0.01132     0.04126     0.00607    -0.00052
  
  S  C  13  -0.01465    -0.10911     0.07194     0.03555     0.15000     0.06465
 PX  C  13  -0.00190     0.02957    -0.01113    -0.03496     0.01445     0.01404
 PY  C  13  -0.01042     0.02477    -0.00303    -0.06718     0.05402     0.03837
 PZ  C  13   0.00114     0.01992    -0.00916    -0.01287    -0.00131     0.00176
  
  S  C  14   0.01040    -0.16613     0.06890     0.17069    -0.03071    -0.05084
 PX  C  14  -0.00878     0.00957     0.00798    -0.02764     0.06960     0.03950
 PY  C  14  -0.00107    -0.02715     0.01325     0.00986     0.02341     0.01212
 PZ  C  14  -0.00790     0.01701     0.00352    -0.02790     0.05855     0.03176
  
  S  C  15   0.05282    -0.16341     0.01671     0.19198    -0.21310    -0.12887
 PX  C  15  -0.01143    -0.01607     0.01883     0.01812     0.03118     0.00901
 PY  C  15   0.01626     0.00762    -0.02065     0.00008    -0.02241    -0.00882
 PZ  C  15  -0.01614    -0.01433     0.02330     0.01776     0.04294     0.00648
  
  S  C  16   0.06732     0.03884    -0.08161     0.06246    -0.15091    -0.06528
 PX  C  16  -0.04680     0.04815     0.01562    -0.06516     0.05917     0.05514
 PY  C  16  -0.01716     0.16389    -0.05028    -0.10098     0.08873     0.06732
 PZ  C  16  -0.03892     0.00066     0.02894    -0.02965     0.04342     0.02288
  
  S  N  17   0.15536    -0.06772    -0.06221     0.15673    -0.00726    -0.08251
 PX  N  17  -0.03084     0.15522    -0.05176    -0.03169    -0.04350     0.06161
 PY  N  17  -0.04598     0.08195     0.02422    -0.00145     0.15362     0.08493
 PZ  N  17  -0.01537     0.11819    -0.04939    -0.02512    -0.03131     0.00295
  
  S  C  18   0.10959    -0.28429     0.05628    -0.07730     0.00016    -0.07191
 PX  C  18   0.05480    -0.02624    -0.03352     0.12413    -0.13266     0.01591
 PY  C  18   0.01384    -0.01218     0.01591     0.07865     0.17318    -0.08881
 PZ  C  18   0.03826    -0.01827    -0.01547     0.09880     0.03534    -0.09015
  
  S  C  19   0.01297    -0.14646     0.08171    -0.14196     0.33597    -0.21391
 PX  C  19   0.03849    -0.09130     0.01783     0.00997    -0.04685     0.04226
 PY  C  19   0.00525     0.01130    -0.00214     0.06974     0.01652    -0.00184
 PZ  C  19   0.02015    -0.02053    -0.00318     0.04756    -0.02130     0.00036
  
  S  C  20  -0.06378     0.09428     0.00570    -0.03092     0.28519    -0.22265
 PX  C  20   0.00019    -0.05784     0.02999    -0.11112     0.03630     0.01339
 PY  C  20   0.02274    -0.07123     0.02603    -0.04577     0.06003    -0.03900
 PZ  C  20   0.01720    -0.07279     0.02858    -0.07611     0.05474    -0.02763
  
  S  C  21  -0.10368     0.27776    -0.07659     0.17792    -0.00939    -0.00242
 PX  C  21   0.00661    -0.07583     0.02980    -0.15917    -0.08112     0.13704
 PY  C  21   0.00069    -0.03519     0.02229    -0.07090     0.11439    -0.08982
 PZ  C  21   0.00355    -0.05500     0.02731    -0.11200     0.05353    -0.01737
  
  S  C  22  -0.05388     0.08875    -0.02721    -0.06085    -0.27667     0.30375
 PX  C  22   0.03064    -0.10483     0.02803    -0.10454    -0.07072     0.06834
 PY  C  22  -0.00863    -0.01278     0.01018    -0.06217     0.00725     0.00926
 PZ  C  22   0.00558    -0.04840     0.01698    -0.08268    -0.02343     0.02818
  
  S  C  23   0.03511    -0.15052     0.02125    -0.17633    -0.31926     0.23687
 PX  C  23   0.02760    -0.01903    -0.00968     0.07928     0.00020    -0.06527
 PY  C  23   0.02526    -0.06805     0.01555    -0.01880     0.04803    -0.06984
 PZ  C  23   0.03237    -0.06146     0.00457     0.01894     0.01752    -0.08634
  
  S  C  24  -0.08266     0.31862    -0.11124     0.39681    -0.02381    -0.08830
 PX  C  24  -0.01817     0.05506    -0.01708     0.03924    -0.02507     0.02574
 PY  C  24  -0.00984     0.02918    -0.00728     0.02317     0.02803    -0.03269
 PZ  C  24  -0.01387     0.04156    -0.01164     0.03098     0.01128    -0.01484
  
  S  C  25  -0.04296     0.01914    -0.00567    -0.00224     0.04733     0.08783
 PX  C  25  -0.22513     0.02108     0.15963     0.00739    -0.06408    -0.08661
 PY  C  25  -0.08216    -0.03490     0.07721     0.00768    -0.08146    -0.12104
 PZ  C  25  -0.01869    -0.00324     0.01629     0.00031    -0.01346    -0.02031
  
  S  O  26  -0.32313     0.04184     0.23017     0.00932    -0.06390    -0.06696
 PX  O  26   0.09712    -0.00897    -0.05723    -0.00256     0.01310     0.01075
 PY  O  26   0.00293    -0.01031     0.01159     0.00231    -0.02030    -0.03121
 PZ  O  26   0.00394    -0.00156    -0.00045     0.00001    -0.00231    -0.00402
  
  S  O  27   0.06284    -0.06982    -0.08274     0.00223    -0.02650    -0.05592
 PX  O  27  -0.03161    -0.01710     0.00906     0.00291    -0.02072    -0.03198
 PY  O  27  -0.04249    -0.01266     0.01912     0.00360    -0.03606    -0.06816
 PZ  O  27  -0.00649    -0.00213     0.00298     0.00036    -0.00564    -0.01051
  
  S  H  28   0.04807    -0.01593    -0.12637    -0.02044     0.00326    -0.04649
  
  S  H  29   0.04024    -0.04691     0.02699     0.07689     0.01727     0.06654
  
  S  H  30  -0.02099    -0.07389     0.08862     0.10118     0.10154     0.10635
  
  S  H  31  -0.03540     0.01031    -0.04178    -0.10568    -0.06515    -0.14460
  
  S  H  32  -0.02332     0.01741     0.00912    -0.08800     0.07681     0.03535
  
  S  H  33  -0.00540    -0.04023     0.02830     0.01320     0.06742     0.02992
  
  S  H  34   0.00431    -0.06388     0.02711     0.07313    -0.01804    -0.02593
  
  S  H  35   0.02931    -0.07847     0.00400     0.07966    -0.12513    -0.06003
  
  S  H  36   0.00955    -0.06544     0.03965    -0.02090     0.17286    -0.10293
  
  S  H  37  -0.02626     0.05843    -0.00612     0.03051     0.13486    -0.12517
  
  S  H  38  -0.02186     0.05522    -0.02074     0.01559    -0.13730     0.14101
  
  S  H  39   0.02528    -0.06750     0.00131    -0.03979    -0.17172     0.09726
  
  S  H  40  -0.03412     0.13508    -0.04727     0.17650     0.00608    -0.06046
  
  S  H  41  -0.03397     0.13478    -0.04756     0.17604    -0.00370    -0.04908
  
  S  H  42  -0.03359     0.13421    -0.04876     0.17389    -0.03453    -0.01484
  
  S  H  43  -0.01035    -0.03438    -0.01282     0.00337    -0.03356    -0.06253




    ROOT NO.   13          14          15          16          17          18

           -32.13126   -30.82864   -29.88977   -27.63219   -26.69941   -25.82802
  
  
  S  N   1   0.04645     0.02973     0.05439    -0.07201    -0.04490     0.08901
 PX  N   1   0.01094    -0.00065     0.00765    -0.00352    -0.00317    -0.00574
 PY  N   1  -0.00188    -0.02741    -0.01045     0.00378    -0.02683    -0.00838
 PZ  N   1   0.00022    -0.01160    -0.00099    -0.00329    -0.01230     0.00193
  
  S  C   2  -0.01737    -0.07366    -0.04366     0.06004     0.02303    -0.09377
 PX  C   2  -0.06161    -0.09275    -0.08654     0.10463     0.05011    -0.13293
 PY  C   2  -0.00766    -0.07584    -0.03577     0.01819    -0.06502    -0.02852
 PZ  C   2   0.00083    -0.02707    -0.00358    -0.00691    -0.02739     0.00377
  
  S  C   3  -0.08629    -0.21319    -0.11987     0.05901    -0.00517    -0.01800
 PX  C   3   0.00526    -0.01121     0.02367    -0.09598    -0.06205     0.17724
 PY  C   3  -0.02969    -0.15020    -0.11228     0.11098    -0.10705    -0.14185
 PZ  C   3  -0.00126    -0.04081    -0.01539     0.00227    -0.03893    -0.00930
  
  S  C   4   0.03997     0.08086     0.14598    -0.22139    -0.02362     0.24521
 PX  C   4   0.01711    -0.05404     0.00080    -0.07154    -0.11185     0.09796
 PY  C   4  -0.07571    -0.14929    -0.11127     0.03093     0.02307     0.09656
 PZ  C   4   0.00074    -0.06248    -0.01452    -0.02404    -0.04822     0.02804
  
  S  C   5   0.07764     0.17546     0.11900     0.03915    -0.02892    -0.13935
 PX  C   5   0.05683    -0.07354     0.05974    -0.13775    -0.11906     0.07304
 PY  C   5   0.00790     0.16739     0.09579    -0.10594     0.11725     0.08405
 PZ  C   5   0.04366    -0.12003     0.02429    -0.09189    -0.11536     0.03453
  
  S  C   6  -0.05709     0.32864    -0.08538     0.18451     0.17806    -0.09661
 PX  C   6   0.02205     0.01520     0.06154     0.05147     0.00336    -0.08398
 PY  C   6   0.02993     0.09674     0.07123     0.02367     0.13298    -0.07850
 PZ  C   6   0.01139    -0.01258     0.03952     0.04300    -0.01955    -0.06736
  
  S  C   7  -0.04015     0.04296    -0.10204    -0.16902    -0.10684     0.16236
 PX  C   7  -0.02992    -0.01121    -0.00409     0.09049    -0.01406    -0.00721
 PY  C   7  -0.04783     0.15117    -0.09081     0.17574     0.10917    -0.05231
 PZ  C   7  -0.01540    -0.05415     0.02002     0.02788    -0.03552    -0.01035
  
  S  C   8  -0.03701    -0.14630     0.18029    -0.14749    -0.09338     0.10575
 PX  C   8  -0.08993    -0.02318     0.00168     0.13866     0.08141     0.02487
 PY  C   8  -0.04783    -0.06120    -0.15574    -0.00648    -0.05560     0.07934
 PZ  C   8  -0.07079    -0.00580     0.04276     0.11355     0.10204    -0.04013
  
  S  C   9  -0.05670    -0.22015    -0.04981     0.03189     0.19675     0.06048
 PX  C   9   0.07786    -0.02453    -0.12753    -0.02328     0.03966    -0.01395
 PY  C   9   0.05701    -0.17475    -0.06920     0.05747    -0.14467    -0.04624
 PZ  C   9   0.05600     0.02360    -0.09914    -0.04094     0.07911    -0.01468
  
  S  C  10   0.11723    -0.25717    -0.07203    -0.00774    -0.11364    -0.07242
 PX  C  10   0.03304     0.03333     0.00619    -0.07664    -0.00846     0.03220
 PY  C  10   0.03546     0.12731     0.11800    -0.04460    -0.14693    -0.05535
 PZ  C  10   0.01994    -0.00577    -0.02735    -0.05684     0.03851     0.03617
  
  S  C  11   0.00862     0.17116    -0.17895    -0.13715     0.14899     0.00368
 PX  C  11   0.15412    -0.02334    -0.10271    -0.04284    -0.01244     0.03427
 PY  C  11   0.01094    -0.11985     0.02129     0.03865     0.18883     0.07481
 PZ  C  11   0.13767     0.01056    -0.10003    -0.05519    -0.06107    -0.00146
  
  S  C  12   0.36053     0.12857    -0.14156     0.01165    -0.12295     0.04153
 PX  C  12   0.03928    -0.04390     0.05624     0.09450    -0.03167     0.03609
 PY  C  12  -0.03576     0.01419    -0.13691    -0.10120     0.10099     0.03506
 PZ  C  12   0.04598    -0.04486     0.09022     0.11389    -0.05640     0.01993
  
  S  C  13   0.26413    -0.08845     0.28182     0.25970    -0.03666     0.01199
 PX  C  13   0.06660     0.02747    -0.01692     0.07295    -0.05008     0.03244
 PY  C  13   0.12233     0.12463    -0.14765    -0.03483    -0.16936    -0.00146
 PZ  C  13   0.02665    -0.01059     0.02713     0.07623     0.00255     0.02808
  
  S  C  14  -0.12413    -0.25879     0.26930     0.00004     0.23756     0.01235
 PX  C  14   0.12559     0.00454     0.11201     0.12956     0.00018    -0.00746
 PY  C  14   0.02443     0.04663    -0.02794    -0.01808    -0.10598    -0.04717
 PZ  C  14   0.10729    -0.00937     0.11134     0.12185     0.03069     0.00200
  
  S  C  15  -0.30729    -0.09952    -0.15077    -0.12617    -0.04347     0.02902
 PX  C  15  -0.02450    -0.02736     0.06700    -0.06181     0.04834    -0.03583
 PY  C  15  -0.01274     0.11921    -0.10880     0.02162    -0.15841    -0.06336
 PZ  C  15  -0.02191    -0.05941     0.09636    -0.07028     0.08909    -0.03276
  
  S  C  16  -0.21277     0.18241    -0.14213     0.05312    -0.16358    -0.06179
 PX  C  16  -0.03521     0.03929    -0.00482    -0.13524     0.06024    -0.00916
 PY  C  16   0.04822     0.07827     0.16038     0.06578     0.11076    -0.01656
 PZ  C  16  -0.05209     0.01457    -0.04575    -0.16113     0.02451    -0.04367
  
  S  N  17   0.17727     0.00179     0.07518     0.09644    -0.10665    -0.06966
 PX  N  17  -0.15942     0.08516     0.12514     0.09552    -0.04790     0.07499
 PY  N  17  -0.01809    -0.05031     0.22146    -0.21763     0.02221    -0.02125
 PZ  N  17  -0.14802     0.08895     0.06308     0.08828    -0.03738    -0.04351
  
  S  C  18   0.18764    -0.06781    -0.15428    -0.00001     0.18085    -0.02726
 PX  C  18   0.14633    -0.02437    -0.05605     0.10303    -0.08753     0.12990
 PY  C  18   0.05309    -0.03237     0.02959    -0.15211    -0.01396    -0.18428
 PZ  C  18   0.06442    -0.01428    -0.04076    -0.00123    -0.05001    -0.10723
  
  S  C  19  -0.11025     0.00010    -0.03799    -0.11541     0.14132    -0.17401
 PX  C  19   0.13978    -0.05217    -0.03811    -0.11168     0.10349    -0.11620
 PY  C  19   0.03874    -0.01507    -0.00803    -0.06974    -0.00418    -0.02477
 PZ  C  19   0.07181    -0.02543    -0.02868    -0.05816     0.03965    -0.07394
  
  S  C  20  -0.22448     0.06436     0.01832     0.18098    -0.15135     0.19438
 PX  C  20  -0.05610     0.01208     0.03424    -0.05498     0.04097    -0.11966
 PY  C  20  -0.02221    -0.00153    -0.02053    -0.03680     0.06912    -0.01604
 PZ  C  20  -0.03943     0.00440    -0.00473    -0.03799     0.06673    -0.05865
  
  S  C  21  -0.00126     0.01429     0.05447     0.02669    -0.17358    -0.05880
 PX  C  21  -0.05372     0.02347     0.10922    -0.08157    -0.06382    -0.17061
 PY  C  21  -0.10484     0.02953    -0.00276     0.12479    -0.05507     0.17497
 PZ  C  21  -0.09883     0.03081     0.03687     0.06559    -0.06484     0.06532
  
  S  C  22   0.02590     0.01330     0.16719    -0.15191    -0.10853    -0.20003
 PX  C  22  -0.00149    -0.00173    -0.01103     0.02120     0.08419     0.16501
 PY  C  22  -0.04134     0.01437     0.01675     0.04260    -0.00856     0.04352
 PZ  C  22  -0.03432     0.01029     0.00371     0.04429     0.02237     0.09085
  
  S  C  23   0.07546    -0.01306    -0.03186     0.07135     0.10755     0.26152
 PX  C  23   0.05186    -0.01899    -0.08560     0.06218     0.01850     0.12357
 PY  C  23   0.03538    -0.01209    -0.06797     0.05416     0.06312     0.02143
 PZ  C  23   0.03045    -0.01363    -0.09967     0.08154     0.04508     0.05919
  
  S  C  24   0.20521    -0.06761    -0.14934    -0.03601     0.21695     0.03901
 PX  C  24   0.01057     0.00229     0.03352    -0.02835    -0.08574    -0.09854
 PY  C  24  -0.01697     0.00674    -0.00415     0.05536    -0.05238     0.07805
 PZ  C  24  -0.00955     0.00616     0.00954     0.03167    -0.07214     0.02100
  
  S  C  25  -0.03853    -0.13774    -0.09548     0.08286    -0.08036    -0.09996
 PX  C  25   0.03407     0.12068     0.07085    -0.04992     0.06238     0.06738
 PY  C  25   0.04837     0.15526     0.08600    -0.02432     0.05589    -0.03390
 PZ  C  25   0.00820     0.02093     0.01373    -0.00700     0.00439    -0.00163
  
  S  O  26   0.02257     0.08130     0.02941     0.01963     0.04851    -0.05082
 PX  O  26  -0.00299    -0.00829     0.00021    -0.00607     0.00421     0.00609
 PY  O  26   0.01248     0.04721     0.02433     0.00161     0.02939    -0.03002
 PZ  O  26   0.00167     0.00503     0.00319    -0.00049     0.00258    -0.00373
  
  S  O  27   0.02530     0.07617     0.05787    -0.06504     0.02193     0.09165
 PX  O  27   0.01303     0.04406     0.02484    -0.00983     0.01497    -0.00503
 PY  O  27   0.03073     0.12050     0.09039    -0.11209     0.08531     0.19741
 PZ  O  27   0.00469     0.01667     0.01295    -0.01595     0.01040     0.02651
  
  S  H  28   0.02852     0.00175     0.06724    -0.15076    -0.08125     0.18276
  
  S  H  29  -0.02335     0.20256    -0.03388     0.08047     0.16169    -0.04759
  
  S  H  30   0.00168     0.03448    -0.05305    -0.15154    -0.03487     0.08498
  
  S  H  31   0.08473    -0.10513    -0.03845    -0.06680    -0.05849    -0.00354
  
  S  H  32   0.18959     0.03736    -0.07900     0.03060    -0.05084     0.05395
  
  S  H  33   0.13900    -0.06148     0.17284     0.19550    -0.00179     0.03061
  
  S  H  34  -0.05709    -0.15304     0.16539     0.02982     0.18632     0.03460
  
  S  H  35  -0.12735    -0.06796    -0.08739    -0.02592     0.00107     0.07220
  
  S  H  36  -0.02769    -0.01012    -0.02575    -0.10821     0.06634    -0.11052
  
  S  H  37  -0.08532     0.02435    -0.01591     0.11024    -0.07518     0.16410
  
  S  H  38   0.04347    -0.00429     0.07045    -0.11097    -0.04394    -0.13871
  
  S  H  39   0.04668    -0.01276    -0.04621     0.05638     0.04169     0.19686
  
  S  H  40   0.08777    -0.03106    -0.08557     0.00905     0.12670     0.08137
  
  S  H  41   0.09407    -0.03275    -0.08057    -0.00933     0.13031     0.04908
  
  S  H  42   0.11066    -0.03690    -0.06480    -0.06246     0.13781    -0.04909
  
  S  H  43   0.02772     0.09897     0.07199    -0.08103     0.05694     0.13033




    ROOT NO.   19          20          21          22          23          24

           -25.44430   -24.70429   -24.44609   -24.16707   -23.19847   -22.69146
  
  
  S  N   1  -0.02709     0.01238     0.11009     0.04287    -0.11343     0.10405
 PX  N   1  -0.00134    -0.00403    -0.01946    -0.00725     0.02661    -0.02864
 PY  N   1  -0.01674     0.00518     0.02422    -0.02249    -0.02861     0.00592
 PZ  N   1  -0.00951    -0.00268     0.00134    -0.00135    -0.00081    -0.00197
  
  S  C   2   0.01535    -0.02713    -0.15435    -0.04053     0.17400    -0.14816
 PX  C   2   0.02983    -0.02775    -0.18124    -0.05410     0.18746    -0.15691
 PY  C   2  -0.03586     0.01884     0.06631    -0.06071    -0.07136     0.01501
 PZ  C   2  -0.01839    -0.00229     0.00869    -0.00543    -0.00330    -0.00442
  
  S  C   3   0.00713    -0.01650    -0.05063     0.06999     0.11335    -0.00347
 PX  C   3  -0.02954     0.03382     0.23892     0.13117    -0.20763     0.24235
 PY  C   3  -0.05636     0.05180     0.12736    -0.17393    -0.16509     0.04453
 PZ  C   3  -0.01950     0.00829     0.02732    -0.02496    -0.00842    -0.01030
  
  S  C   4  -0.01391    -0.00063     0.10381     0.10475    -0.07884     0.03466
 PX  C   4  -0.04062     0.05778     0.22761    -0.00742    -0.15362     0.07954
 PY  C   4   0.03215    -0.00851     0.04427     0.23211     0.07183     0.14987
 PZ  C   4  -0.01118     0.01169     0.03502     0.01490     0.04385    -0.02491
  
  S  C   5  -0.09445    -0.04620    -0.08386    -0.13367    -0.10930     0.02227
 PX  C   5  -0.02295     0.05006     0.10293    -0.09383     0.01352    -0.12849
 PY  C   5   0.07525    -0.00096    -0.05532    -0.02487    -0.01351    -0.08592
 PZ  C   5  -0.02635     0.02971     0.03771    -0.05028     0.10711    -0.13785
  
  S  C   6   0.12229     0.06931     0.10188    -0.01787    -0.08222     0.09606
 PX  C   6  -0.08785    -0.09441    -0.14545     0.00207    -0.09667     0.11273
 PY  C   6   0.07310     0.00235    -0.09389    -0.05224    -0.01692     0.00131
 PZ  C   6  -0.10021    -0.09828    -0.15285     0.03394    -0.04528     0.08972
  
  S  C   7   0.06232     0.07803     0.13957    -0.05735     0.10508    -0.16708
 PX  C   7  -0.07076    -0.08317    -0.05192     0.07391    -0.07425     0.11085
 PY  C   7   0.08150     0.10471     0.19478     0.03446    -0.01668     0.04003
 PZ  C   7  -0.09522    -0.09785    -0.11785     0.07680    -0.05530     0.09696
  
  S  C   8  -0.10290    -0.12332    -0.20182    -0.00668    -0.06999    -0.04821
 PX  C   8  -0.07031    -0.02971     0.02315     0.11388    -0.04445     0.03346
 PY  C   8  -0.08750    -0.05542     0.00532     0.13817     0.04907     0.02861
 PZ  C   8  -0.04465     0.00636     0.01857     0.09661    -0.05376     0.02856
  
  S  C   9   0.07515    -0.01090    -0.01670     0.13546     0.01871     0.04843
 PX  C   9   0.15959     0.07480     0.06745    -0.04644     0.08545     0.01062
 PY  C   9  -0.02727    -0.01296    -0.04471     0.10111     0.10236     0.05406
 PZ  C   9   0.15456     0.07607     0.06827    -0.05859     0.05942    -0.00767
  
  S  C  10   0.07246     0.10195     0.09551    -0.07495     0.17945    -0.09435
 PX  C  10   0.08623     0.07943     0.08507    -0.10122     0.03713    -0.11414
 PY  C  10  -0.13538    -0.00740     0.02662    -0.17032    -0.06493    -0.09046
 PZ  C  10   0.11928     0.07162     0.04934    -0.03794     0.08016    -0.09419
  
  S  C  11   0.04068    -0.04522     0.05995    -0.13154     0.01664     0.09567
 PX  C  11   0.12161    -0.00624    -0.09888    -0.02013    -0.06295     0.05569
 PY  C  11   0.19897     0.08334    -0.01413     0.05654    -0.09237    -0.04928
 PZ  C  11   0.05958    -0.02625    -0.08663    -0.02396    -0.03248     0.06313
  
  S  C  12   0.07760     0.01937    -0.17793     0.05192    -0.20143    -0.04736
 PX  C  12   0.04841     0.08016    -0.05181     0.11156    -0.12040    -0.13802
 PY  C  12   0.18053     0.02740    -0.04672    -0.05714    -0.11018     0.01186
 PZ  C  12  -0.00457     0.06684    -0.03424     0.12153    -0.08007    -0.13084
  
  S  C  13  -0.08254     0.07072     0.09037     0.11141     0.08359    -0.06689
 PX  C  13   0.02332     0.07238    -0.04244     0.11039    -0.10215    -0.13523
 PY  C  13  -0.05140    -0.02671    -0.14645     0.06567    -0.11517    -0.05735
 PZ  C  13   0.03696     0.07397     0.00302     0.08419    -0.06165    -0.10811
  
  S  C  14   0.13286    -0.00140     0.05678    -0.12336    -0.00783     0.08516
 PX  C  14  -0.07082     0.02238     0.12565     0.00589     0.14683     0.03896
 PY  C  14  -0.14523    -0.06915     0.02401     0.00606     0.14987     0.05761
 PZ  C  14  -0.02072     0.03979     0.10903     0.00730     0.08860     0.01706
  
  S  C  15   0.09844     0.02794    -0.16145     0.10516    -0.16297    -0.12807
 PX  C  15  -0.03993    -0.07584     0.03538    -0.10978     0.07935     0.10546
 PY  C  15  -0.16296    -0.02965     0.09962     0.05738     0.20558     0.03087
 PZ  C  15   0.01747    -0.06368     0.00844    -0.10413     0.00648     0.08114
  
  S  C  16  -0.12912     0.05373     0.12863     0.09407     0.11573    -0.08267
 PX  C  16  -0.10061    -0.10839     0.00941    -0.12902     0.05851     0.07251
 PY  C  16  -0.01480     0.01907     0.10248    -0.10109    -0.01648     0.01447
 PZ  C  16  -0.08318    -0.10043    -0.01343    -0.06253     0.05152     0.05724
  
  S  N  17   0.15095     0.04183    -0.01780    -0.04121     0.00749     0.08925
 PX  N  17  -0.07922     0.07578     0.03122    -0.01349    -0.04335    -0.18516
 PY  N  17  -0.03133    -0.06266    -0.15070    -0.16303    -0.08303    -0.06010
 PZ  N  17  -0.06076     0.12077     0.08315     0.10767    -0.03417    -0.15213
  
  S  C  18  -0.03509    -0.21598     0.09932     0.02953    -0.00682     0.03168
 PX  C  18   0.12327     0.01677    -0.07307    -0.10745     0.08325     0.18519
 PY  C  18   0.06822     0.05251    -0.03595     0.02217     0.01515     0.10056
 PZ  C  18   0.09491     0.08620    -0.02041     0.07566     0.02322     0.13062
  
  S  C  19  -0.16914     0.20976    -0.00295     0.13244    -0.03493    -0.00934
 PX  C  19   0.01205    -0.21657     0.09915     0.03964    -0.02742    -0.05394
 PY  C  19  -0.01664     0.18487    -0.07256    -0.01806     0.04924     0.09979
 PZ  C  19  -0.01436     0.06505    -0.01349     0.03980     0.01059     0.06981
  
  S  C  20   0.07234     0.09203    -0.11254    -0.11797     0.04888     0.10533
 PX  C  20  -0.03761    -0.06791     0.09137     0.10857    -0.06789    -0.16149
 PY  C  20  -0.13599     0.24457    -0.06829     0.01819     0.01112     0.05388
 PZ  C  20  -0.11582     0.15839    -0.01680     0.06497    -0.02214    -0.01445
  
  S  C  21   0.25254    -0.18069     0.04573     0.02522     0.01815     0.04608
 PX  C  21   0.06658    -0.00588     0.05245     0.10519    -0.02955    -0.05964
 PY  C  21   0.03069    -0.09157    -0.02485    -0.11603     0.01253    -0.02204
 PZ  C  21   0.04766    -0.06631     0.00002    -0.04010    -0.00500    -0.03680
  
  S  C  22   0.07467     0.19465    -0.05176     0.06019     0.02723     0.09710
 PX  C  22  -0.18018     0.16067    -0.10298    -0.13905     0.02389     0.01586
 PY  C  22   0.02461    -0.18814     0.07303    -0.01559    -0.03187    -0.13176
 PZ  C  22  -0.04458    -0.07507     0.01630    -0.04815    -0.02195    -0.09667
  
  S  C  23  -0.17683     0.06046    -0.07543    -0.16816     0.02971     0.00228
 PX  C  23  -0.02151     0.08387    -0.07372    -0.06290     0.04148     0.11221
 PY  C  23   0.01049    -0.23692     0.11687     0.02376    -0.02024    -0.07610
 PZ  C  23   0.00819    -0.12595     0.05945     0.03767    -0.02050    -0.03562
  
  S  C  24  -0.22092     0.02978     0.02320     0.00459    -0.03746    -0.09974
 PX  C  24   0.13847    -0.02589     0.01404     0.05726     0.02170     0.09166
 PY  C  24   0.06737    -0.06289    -0.01930    -0.06679     0.02813     0.04864
 PZ  C  24   0.10231    -0.05198    -0.01112    -0.02629     0.02871     0.07432
  
  S  C  25  -0.04705     0.04199     0.11886    -0.14482    -0.19976     0.06465
 PX  C  25   0.03399    -0.02938    -0.07547     0.11463     0.12656    -0.01059
 PY  C  25   0.01861    -0.01534    -0.09898    -0.09122     0.00558    -0.12292
 PZ  C  25   0.00100    -0.00308    -0.01588    -0.01009     0.01213    -0.02498
  
  S  O  26   0.02142    -0.02353    -0.12092    -0.02400     0.11656    -0.10692
 PX  O  26   0.00490    -0.00603    -0.02512     0.01250     0.05173    -0.03518
 PY  O  26   0.01184    -0.01279    -0.07431    -0.04220     0.04082    -0.08339
 PZ  O  26   0.00091    -0.00197    -0.01101    -0.00589     0.00996    -0.01563
  
  S  O  27   0.01500    -0.00985     0.00800     0.10377     0.04652     0.03579
 PX  O  27   0.00442    -0.00188    -0.01723    -0.03102    -0.02458    -0.02669
 PY  O  27   0.05971    -0.05211    -0.08457     0.33071     0.28802     0.05285
 PZ  O  27   0.00724    -0.00721    -0.01227     0.04281     0.04079     0.00279
  
  S  H  28  -0.02932     0.03857     0.19926     0.05094    -0.13175     0.06883
  
  S  H  29   0.14906     0.08614     0.07882    -0.04156    -0.00665    -0.00807
  
  S  H  30   0.09283     0.12009     0.13092    -0.09614     0.11698    -0.18220
  
  S  H  31   0.11892     0.12018     0.11209    -0.11090     0.12988    -0.15308
  
  S  H  32   0.13268     0.07482    -0.13736     0.08124    -0.21740    -0.12010
  
  S  H  33  -0.00677     0.10323     0.06336     0.12461    -0.00050    -0.12901
  
  S  H  34   0.14945     0.04779     0.03396    -0.06647    -0.08196     0.01089
  
  S  H  35   0.12026     0.07689    -0.14373     0.09827    -0.20414    -0.14227
  
  S  H  36  -0.09672     0.25025    -0.05393     0.06361     0.01887     0.07286
  
  S  H  37   0.01440     0.15284    -0.12845    -0.12015     0.06763     0.16232
  
  S  H  38   0.01557     0.24200    -0.07973     0.04419     0.03938     0.15442
  
  S  H  39  -0.10008     0.14881    -0.11718    -0.12282     0.04008     0.08290
  
  S  H  40  -0.15009     0.01551    -0.00255    -0.04011    -0.02005    -0.07367
  
  S  H  41  -0.14935     0.02090     0.00754    -0.01702    -0.02479    -0.08001
  
  S  H  42  -0.15052     0.06901     0.02446     0.05818    -0.03795    -0.07798
  
  S  H  43   0.03831    -0.03250    -0.05255     0.20191     0.17120     0.02775




    ROOT NO.   25          26          27          28          29          30

           -20.82025   -20.42019   -19.18704   -18.80874   -18.33378   -18.11169
  
  
  S  N   1   0.00830    -0.04439    -0.04240     0.04795    -0.07692    -0.05701
 PX  N   1  -0.00829     0.02616     0.02237    -0.02511     0.04860     0.03704
 PY  N   1   0.00760     0.03356     0.04406    -0.01658     0.00210     0.07843
 PZ  N   1  -0.00663     0.03165     0.00905     0.00648     0.00994    -0.00581
  
  S  C   2  -0.01526     0.09421     0.05673    -0.05497     0.10020     0.05927
 PX  C   2  -0.01106     0.07785     0.04440    -0.04119     0.06844     0.03670
 PY  C   2   0.02349     0.05225     0.08244    -0.03388     0.00085     0.13331
 PZ  C   2  -0.00794     0.05239     0.01743     0.00712     0.01844    -0.01057
  
  S  C   3   0.09001     0.04908     0.01324     0.01513    -0.03179    -0.06311
 PX  C   3   0.08859    -0.09934    -0.06087     0.07562    -0.13870    -0.09863
 PY  C   3   0.12361     0.04889     0.17716    -0.05100    -0.12554     0.17241
 PZ  C   3   0.01718     0.05760     0.04027    -0.00434     0.01760    -0.02513
  
  S  C   4  -0.16798    -0.04034    -0.07855    -0.01040     0.14136     0.03708
 PX  C   4   0.03360     0.02215     0.09393    -0.10128     0.16255     0.21116
 PY  C   4   0.14300    -0.05102    -0.10016     0.05467     0.01577    -0.14006
 PZ  C   4   0.03343     0.05999     0.01594    -0.00405     0.06153    -0.08830
  
  S  C   5  -0.00426     0.11399     0.08352     0.05520    -0.15231     0.00913
 PX  C   5  -0.05018     0.04671     0.07244    -0.09089     0.09445     0.03656
 PY  C   5  -0.20558    -0.11923    -0.07458     0.00063    -0.02061     0.07209
 PZ  C   5  -0.00213     0.08566     0.04193    -0.02821     0.09799    -0.14277
  
  S  C   6   0.14786    -0.11087     0.01989    -0.04117     0.01972     0.03518
 PX  C   6  -0.01536     0.03019    -0.01536     0.07856    -0.18926     0.08167
 PY  C   6   0.04169    -0.24759    -0.02267    -0.02533    -0.15073     0.04797
 PZ  C   6  -0.03894     0.10252    -0.02508     0.12601    -0.12534    -0.01955
  
  S  C   7  -0.10422     0.11869    -0.01590     0.03895    -0.01166    -0.02195
 PX  C   7   0.02192     0.05913    -0.05050    -0.02625     0.06676     0.05656
 PY  C   7   0.12165     0.02074     0.07842    -0.08292     0.24459    -0.07950
 PZ  C   7  -0.02200     0.04914    -0.04789     0.05555     0.02562     0.02641
  
  S  C   8  -0.01473    -0.08090    -0.04618    -0.04595    -0.05116     0.04441
 PX  C   8  -0.07073     0.00847     0.03669    -0.14605     0.12723    -0.02536
 PY  C   8  -0.24724     0.15869    -0.03993     0.09007     0.03171     0.02565
 PZ  C   8  -0.00111    -0.04792     0.10406    -0.03533     0.18945    -0.07304
  
  S  C   9  -0.15468    -0.17437     0.00447    -0.04594     0.06087     0.06226
 PX  C   9   0.01426    -0.04051    -0.08034     0.05297    -0.12152     0.07320
 PY  C   9   0.09608    -0.09265    -0.15399     0.02860     0.07726    -0.04129
 PZ  C   9  -0.01293    -0.01705    -0.01298     0.11180    -0.09053     0.03532
  
  S  C  10   0.17096    -0.07613    -0.02520    -0.01343    -0.01957    -0.08269
 PX  C  10   0.04986    -0.05659    -0.00266    -0.04832    -0.05258     0.03360
 PY  C  10   0.07954     0.23027     0.17562    -0.02986    -0.02030    -0.09016
 PZ  C  10   0.02267    -0.11121    -0.05753     0.00752    -0.03004    -0.01928
  
  S  C  11  -0.10089     0.15120     0.07016     0.06556    -0.11049     0.04905
 PX  C  11   0.01702     0.06799    -0.12647     0.00581    -0.03267     0.06670
 PY  C  11  -0.11323    -0.05481     0.03030     0.02056    -0.04085     0.09673
 PZ  C  11   0.04787     0.07014    -0.10649     0.06668     0.02527     0.02260
  
  S  C  12   0.09402     0.10374    -0.04245    -0.02300     0.09178    -0.06541
 PX  C  12   0.01775    -0.02354     0.03908    -0.02079     0.03179    -0.04157
 PY  C  12  -0.02192     0.21815    -0.07141     0.15289    -0.09318     0.06100
 PZ  C  12   0.02311    -0.08507     0.06221    -0.03376     0.07479    -0.05951
  
  S  C  13  -0.08428    -0.14232     0.06040    -0.00809    -0.06270     0.05370
 PX  C  13  -0.04117    -0.03314     0.11972     0.02105    -0.08007     0.01252
 PY  C  13   0.12530    -0.09477     0.04571    -0.15243     0.17613    -0.13079
 PZ  C  13  -0.07199    -0.00396     0.09935     0.07969    -0.10981     0.04699
  
  S  C  14   0.04121     0.16162    -0.08349     0.00474     0.07648    -0.05118
 PX  C  14  -0.10129     0.01637    -0.05083     0.07520    -0.10878     0.08172
 PY  C  14   0.00851    -0.24222    -0.02936    -0.08834     0.02917     0.05577
 PZ  C  14  -0.09232     0.08440    -0.03484     0.11783    -0.09021     0.05971
  
  S  C  15   0.01173    -0.14017     0.06937    -0.02195    -0.04023     0.04843
 PX  C  15   0.08107    -0.00770    -0.06895    -0.09137     0.10865    -0.06639
 PY  C  15  -0.08104    -0.09505    -0.09069     0.10730    -0.06857     0.09465
 PZ  C  15   0.10459     0.01758    -0.03020    -0.06072     0.15584    -0.08141
  
  S  C  16  -0.05276     0.04519    -0.02201     0.12565    -0.05848    -0.00275
 PX  C  16   0.00010    -0.05320     0.09549    -0.10719    -0.07416    -0.01495
 PY  C  16   0.06909     0.18521     0.06376    -0.02671     0.09871    -0.14602
 PZ  C  16  -0.01196    -0.11506     0.10455     0.03609    -0.01546     0.02904
  
  S  N  17   0.15274     0.02755    -0.15058     0.01507     0.07317     0.02390
 PX  N  17   0.09609     0.06666    -0.08087    -0.12150    -0.10316    -0.08292
 PY  N  17   0.21337    -0.23755     0.08666    -0.02916    -0.10540     0.01369
 PZ  N  17   0.03877     0.09244     0.01872     0.18587     0.11094    -0.09065
  
  S  C  18  -0.07260     0.00009     0.08304    -0.04864     0.05648    -0.00602
 PX  C  18  -0.06373     0.03411    -0.11725    -0.17675    -0.06008     0.05252
 PY  C  18   0.02565    -0.08182     0.07733     0.16388     0.06232     0.04707
 PZ  C  18  -0.05389     0.01685     0.02012     0.14582     0.12864     0.04772
  
  S  C  19  -0.02915     0.02465     0.06645    -0.01969    -0.00808    -0.06471
 PX  C  19  -0.00835    -0.08853     0.22706     0.21652     0.10352    -0.03710
 PY  C  19  -0.07582    -0.00716     0.11003    -0.03332    -0.04905    -0.08388
 PZ  C  19  -0.06902    -0.01426     0.16828     0.08105     0.06551    -0.07622
  
  S  C  20   0.01738     0.00270    -0.10054    -0.02510     0.00687     0.07598
 PX  C  20   0.06281     0.03913    -0.12629    -0.04792    -0.07937     0.01293
 PY  C  20  -0.01181     0.05682    -0.12188    -0.18726    -0.05994     0.02308
 PZ  C  20   0.01040     0.06529    -0.13555    -0.14136    -0.04234     0.02514
  
  S  C  21  -0.09896    -0.00946     0.14471    -0.04366    -0.04305    -0.09245
 PX  C  21   0.03675     0.05516    -0.21468    -0.08733    -0.06401     0.09388
 PY  C  21   0.07858    -0.06172     0.00614     0.19798     0.06553     0.05193
 PZ  C  21   0.06677    -0.01927    -0.07419     0.12596     0.04777     0.08045
  
  S  C  22   0.00802     0.00641    -0.06362     0.07434     0.06253     0.07114
 PX  C  22   0.11458    -0.07667     0.03858     0.26761     0.13108     0.03779
 PY  C  22   0.06496    -0.00973    -0.05027     0.01369    -0.05999    -0.01239
 PZ  C  22   0.08044    -0.02691    -0.02090     0.12271     0.01970     0.01134
  
  S  C  23   0.01631    -0.02863     0.07177    -0.02850    -0.03540    -0.07326
 PX  C  23  -0.11438     0.00669     0.12491    -0.18480    -0.09745    -0.10066
 PY  C  23  -0.03772     0.05128    -0.06592    -0.21905    -0.07842    -0.01738
 PZ  C  23  -0.09236     0.05829     0.00442    -0.18714    -0.06593    -0.03799
  
  S  C  24   0.06023     0.00409    -0.04828     0.01443    -0.00409     0.00961
 PX  C  24  -0.14869     0.03098     0.14347    -0.23333    -0.09723    -0.13687
 PY  C  24  -0.02701    -0.05895     0.19053     0.14833     0.06719    -0.07390
 PZ  C  24  -0.07884    -0.02832     0.19199     0.03337     0.04035    -0.09159
  
  S  C  25  -0.01732    -0.07207    -0.03714     0.05019    -0.12925    -0.14744
 PX  C  25   0.06174     0.02881     0.00364     0.01856    -0.05977    -0.11910
 PY  C  25  -0.28261    -0.09632    -0.19748     0.02451     0.18599    -0.13280
 PZ  C  25  -0.03586     0.00957    -0.01671     0.00338     0.04302    -0.04546
  
  S  O  26  -0.03400     0.06782     0.07200    -0.07734     0.15195     0.29786
 PX  O  26   0.00776     0.06214     0.09331    -0.08671     0.15747     0.37440
 PY  O  26  -0.13826    -0.02573    -0.09503     0.00510     0.12660    -0.05960
 PZ  O  26  -0.01847     0.00887    -0.00432    -0.00268     0.03461    -0.00868
  
  S  O  27   0.07916     0.03624     0.07196    -0.03067    -0.00257     0.16577
 PX  O  27  -0.13966    -0.08468    -0.17706     0.06678     0.04661    -0.32885
 PY  O  27   0.32280     0.15672     0.17130    -0.01910    -0.14359    -0.00399
 PZ  O  27   0.03828     0.02969     0.02283    -0.00050    -0.00361    -0.02852
  
  S  H  28  -0.04952    -0.00401     0.03106    -0.08339     0.19733     0.18064
  
  S  H  29   0.11460    -0.24659     0.00661    -0.10747     0.02136     0.03338
  
  S  H  30  -0.06637     0.00417     0.04542     0.01247    -0.07825    -0.05729
  
  S  H  31   0.13025    -0.09347    -0.03038    -0.03169    -0.04888    -0.03836
  
  S  H  32   0.05864     0.10674    -0.02046     0.03832     0.04252    -0.04544
  
  S  H  33  -0.12887    -0.06799     0.12906     0.08934    -0.18033     0.09560
  
  S  H  34  -0.00355     0.26960    -0.02838     0.09251    -0.00281    -0.05579
  
  S  H  35  -0.02856    -0.03042     0.12870    -0.00535    -0.09106     0.03265
  
  S  H  36  -0.08498     0.01260     0.14132    -0.01653    -0.02509    -0.11565
  
  S  H  37  -0.02987    -0.00769    -0.00951    -0.03426     0.04113     0.04113
  
  S  H  38  -0.04909     0.01293     0.00250     0.00730     0.07569     0.04857
  
  S  H  39  -0.05279    -0.02763     0.14076    -0.06746    -0.06755    -0.09838
  
  S  H  40   0.09163    -0.02666    -0.04603     0.16928     0.07937     0.06240
  
  S  H  41   0.08171    -0.01066    -0.07364     0.08250     0.01567     0.04591
  
  S  H  42   0.04299     0.05401    -0.18493    -0.14326    -0.07287     0.06371
  
  S  H  43   0.16654     0.08070     0.07166    -0.00228    -0.06685    -0.05358




    ROOT NO.   31          32          33          34          35          36

           -17.28042   -16.81621   -16.73446   -16.51195   -16.38393   -15.93666
  
  
  S  N   1   0.04661    -0.06566    -0.17001    -0.07982     0.03334     0.00724
 PX  N   1  -0.03625     0.05029     0.13517     0.06685    -0.03033    -0.00605
 PY  N   1  -0.00077    -0.00024     0.01674     0.04936    -0.00393    -0.00936
 PZ  N   1  -0.02499    -0.01496    -0.02125    -0.03958    -0.03266     0.11454
  
  S  C   2  -0.06313     0.06634     0.17693     0.07721    -0.03870    -0.01462
 PX  C   2  -0.03606     0.02972     0.07746     0.02806    -0.01608    -0.00537
 PY  C   2   0.00110     0.00412     0.03094     0.07555    -0.00258    -0.01150
 PZ  C   2  -0.03892    -0.01908    -0.02710    -0.05954    -0.04690     0.16729
  
  S  C   3  -0.01220    -0.01619    -0.04218    -0.04686     0.00097    -0.02309
 PX  C   3   0.06311    -0.06913    -0.18475    -0.09333     0.03606     0.00034
 PY  C   3  -0.04758     0.03761     0.09949     0.19500     0.02880     0.01525
 PZ  C   3  -0.06277    -0.00995    -0.01604    -0.08341    -0.05768     0.26948
  
  S  C   4   0.02909    -0.00180     0.01381    -0.00618    -0.02615    -0.00474
 PX  C   4  -0.00757     0.10481     0.26543     0.07833    -0.06192    -0.03089
 PY  C   4   0.08468    -0.02717    -0.08867    -0.21220    -0.01817    -0.09636
 PZ  C   4  -0.04899    -0.00798    -0.03070    -0.14227    -0.04825     0.11165
  
  S  C   5  -0.05512    -0.07031    -0.10063     0.09542    -0.02492     0.02875
 PX  C   5  -0.07553     0.01776     0.06729     0.11403    -0.01227    -0.01013
 PY  C   5   0.02651     0.01231     0.00161     0.09540     0.07476     0.07480
 PZ  C   5  -0.08614    -0.02983    -0.07146    -0.07357    -0.04742     0.02548
  
  S  C   6   0.01855     0.05809     0.08225    -0.10487     0.00435     0.02218
 PX  C   6   0.05201    -0.03375    -0.03755     0.09520     0.03079    -0.01873
 PY  C   6   0.09858     0.01780     0.00393     0.13546     0.07605     0.02324
 PZ  C   6   0.02851    -0.04956    -0.09392    -0.03112    -0.00768    -0.00823
  
  S  C   7  -0.03584    -0.04234    -0.07242     0.04113     0.00021    -0.01543
 PX  C   7  -0.00162     0.11577     0.17470    -0.19488     0.04751    -0.02151
 PY  C   7  -0.09785    -0.01032     0.00911    -0.12118    -0.11365     0.01903
 PZ  C   7   0.05092     0.12095     0.14308    -0.20679     0.05169    -0.00764
  
  S  C   8   0.06275     0.10536     0.11444    -0.05206     0.06642     0.02477
 PX  C   8  -0.05897    -0.02965     0.00622     0.09888     0.03192     0.01655
 PY  C   8   0.00644     0.02334     0.03318     0.02904     0.10422    -0.01891
 PZ  C   8  -0.03558    -0.01558    -0.02333     0.03758    -0.04414     0.04569
  
  S  C   9  -0.05039    -0.05738    -0.04143     0.16641    -0.03721     0.05559
 PX  C   9   0.02065    -0.03766    -0.03027     0.04157    -0.03422    -0.03061
 PY  C   9   0.14830    -0.01174    -0.01603     0.05534    -0.02971    -0.03479
 PZ  C   9  -0.01755    -0.03082    -0.06516    -0.03364    -0.05464     0.01210
  
  S  C  10   0.04699     0.01119    -0.02007    -0.08033     0.02241    -0.05281
 PX  C  10   0.03751     0.11020     0.12542    -0.12131     0.13792    -0.02025
 PY  C  10  -0.12690     0.02028     0.00406    -0.13107     0.00141    -0.00463
 PZ  C  10   0.06540     0.07717     0.04146    -0.15933     0.10784     0.01935
  
  S  C  11  -0.11348     0.00104    -0.01042    -0.11356    -0.08325    -0.06549
 PX  C  11   0.05931     0.04697     0.07033     0.04053    -0.14259     0.01042
 PY  C  11  -0.07540    -0.02357    -0.01097     0.09252    -0.04799     0.09990
 PZ  C  11   0.06812     0.05604     0.04764    -0.01711    -0.14287     0.00382
  
  S  C  12   0.07569     0.00593     0.00884     0.05410     0.01586     0.00981
 PX  C  12   0.03696    -0.03488     0.00165     0.07903     0.24215     0.08192
 PY  C  12   0.09553     0.06640     0.13313    -0.02567     0.13157     0.10866
 PZ  C  12   0.00347    -0.04742    -0.04509     0.06672     0.17362     0.05675
  
  S  C  13  -0.07803    -0.00630    -0.02221    -0.02858    -0.10035    -0.02039
 PX  C  13  -0.10907    -0.04048    -0.03133    -0.10340     0.08581    -0.06146
 PY  C  13  -0.03268    -0.07564    -0.12866     0.05912    -0.01224    -0.08423
 PZ  C  13  -0.09466    -0.01396     0.00174    -0.11834     0.07469    -0.02576
  
  S  C  14   0.08949     0.00045     0.00668     0.07856     0.07010     0.03818
 PX  C  14   0.06119     0.07262     0.08997    -0.01094    -0.09826     0.02698
 PY  C  14  -0.02716     0.00173    -0.00602     0.08425    -0.10833     0.09469
 PZ  C  14   0.05381     0.06660     0.07716    -0.04137    -0.06498     0.00113
  
  S  C  15  -0.08381    -0.01252    -0.00479    -0.02787    -0.03997     0.01302
 PX  C  15   0.06112    -0.04867    -0.02994     0.11732     0.18509     0.07034
 PY  C  15   0.10786     0.04458     0.11470     0.06326     0.19224     0.13544
 PZ  C  15   0.00104    -0.05680    -0.07134     0.07798     0.10404     0.02913
  
  S  C  16   0.08802     0.00198     0.03289    -0.00041     0.17151     0.00775
 PX  C  16  -0.09182    -0.02121    -0.01743    -0.10606     0.08319    -0.05160
 PY  C  16  -0.02732    -0.04491    -0.11154    -0.05113    -0.04391    -0.12700
 PZ  C  16  -0.09615     0.00728     0.00423    -0.10541     0.06360     0.00350
  
  S  N  17  -0.00322    -0.02133    -0.01584     0.01665    -0.11261    -0.00504
 PX  N  17   0.16703     0.00531    -0.00050     0.04055     0.02054    -0.01019
 PY  N  17   0.01452     0.05875     0.04304    -0.14491    -0.04601     0.02341
 PZ  N  17   0.15352     0.03636    -0.00650     0.04949    -0.02774    -0.00519
  
  S  C  18  -0.13204    -0.01657    -0.02168    -0.04197     0.16782    -0.01126
 PX  C  18  -0.09107    -0.05967    -0.03671     0.03437    -0.04227     0.01935
 PY  C  18  -0.05571    -0.05371     0.02969    -0.02373    -0.03305    -0.01382
 PZ  C  18  -0.06107     0.04214     0.00621     0.01101    -0.09368    -0.01113
  
  S  C  19   0.12617     0.03142     0.04392     0.00113    -0.04845     0.00022
 PX  C  19  -0.02042    -0.02107     0.01045    -0.02272     0.12494    -0.01672
 PY  C  19   0.14516    -0.05026     0.00111     0.08665    -0.05336     0.03081
 PZ  C  19   0.10084     0.08577    -0.00463     0.03949    -0.01945     0.01439
  
  S  C  20  -0.13331    -0.02182    -0.01634    -0.03555     0.03111    -0.01023
 PX  C  20   0.11007    -0.01948     0.06273     0.00046    -0.19625    -0.00675
 PY  C  20  -0.07698    -0.09842     0.01609    -0.03909     0.10591     0.00423
 PZ  C  20  -0.03153     0.12044    -0.04774    -0.01627    -0.00455     0.00157
  
  S  C  21   0.14715     0.03178     0.02145     0.01644    -0.08293     0.00871
 PX  C  21  -0.08137    -0.10459     0.00828     0.01755    -0.08477     0.00707
 PY  C  21  -0.02707    -0.17447     0.08627    -0.00519    -0.04930    -0.01381
 PZ  C  21  -0.08779     0.19478    -0.12334     0.04733    -0.07013    -0.00362
  
  S  C  22  -0.11331    -0.03599    -0.02016     0.02183     0.04891    -0.00171
 PX  C  22  -0.03409    -0.06144     0.02747     0.01001     0.05959    -0.00462
 PY  C  22   0.12539    -0.07399     0.03401     0.05502    -0.13546     0.03131
 PZ  C  22   0.05918     0.10805    -0.05224     0.06109    -0.10178     0.01674
  
  S  C  23   0.12268     0.02544     0.00885     0.00833    -0.02917     0.01792
 PX  C  23   0.12840     0.03059     0.05141    -0.06009    -0.08463    -0.00837
 PY  C  23  -0.05962    -0.06033    -0.02815    -0.00717     0.16774     0.01047
 PZ  C  23  -0.01208     0.08037    -0.03378    -0.02677     0.03781    -0.00940
  
  S  C  24   0.01434     0.00387     0.00327     0.00304    -0.01385     0.00191
 PX  C  24   0.14302    -0.11205     0.11599    -0.08862     0.04357    -0.00083
 PY  C  24   0.12438    -0.31177     0.20132    -0.00594     0.02523    -0.00414
 PZ  C  24   0.06335     0.44448    -0.21927     0.07221     0.06706     0.01377
  
  S  C  25  -0.09709     0.02343     0.05619     0.08916     0.01462     0.02815
 PX  C  25  -0.11421     0.04587     0.11817     0.10446    -0.00193     0.00198
 PY  C  25   0.01487     0.01532     0.03800    -0.09023    -0.03406    -0.11036
 PZ  C  25  -0.04446    -0.00641    -0.00891    -0.11384    -0.07511     0.45354
  
  S  O  26   0.19930    -0.06945    -0.17384    -0.14155     0.00483    -0.02364
 PX  O  26   0.27152    -0.09823    -0.25009    -0.20054     0.01209    -0.04858
 PY  O  26   0.01842     0.00212     0.00823    -0.08538    -0.02851    -0.10396
 PZ  O  26  -0.01655    -0.01071    -0.02144    -0.09913    -0.05853     0.37874
  
  S  O  27   0.10522    -0.04712    -0.12226    -0.03078     0.03044     0.02470
 PX  O  27  -0.15126     0.07318     0.18598    -0.01807    -0.06232    -0.09115
 PY  O  27  -0.12083     0.04755     0.12561     0.14994     0.00942    -0.05901
 PZ  O  27  -0.05821    -0.00033     0.00728    -0.08609    -0.07584     0.55120
  
  S  H  28   0.01464     0.08553     0.21958     0.04367    -0.06079    -0.02557
  
  S  H  29   0.04988     0.07305     0.10012     0.02952     0.04965     0.01961
  
  S  H  30  -0.03005    -0.16457    -0.22408     0.27207    -0.04929     0.00684
  
  S  H  31   0.07488     0.12155     0.10031    -0.21900     0.16167    -0.02652
  
  S  H  32   0.11372     0.00554     0.06205     0.07754     0.27920     0.13135
  
  S  H  33  -0.14067    -0.01061     0.01072    -0.15759     0.04446    -0.03452
  
  S  H  34   0.07905     0.01497     0.02621    -0.03954     0.10739    -0.06015
  
  S  H  35  -0.12640     0.02303    -0.02278    -0.14080    -0.27102    -0.11795
  
  S  H  36   0.21183     0.02197     0.01279     0.08893    -0.09256     0.03196
  
  S  H  37  -0.17867    -0.03243    -0.05171    -0.02948     0.20334     0.00197
  
  S  H  38  -0.17705    -0.02357    -0.00746    -0.05535     0.17139    -0.03216
  
  S  H  39   0.17736     0.05751     0.05515    -0.04091    -0.15095    -0.00399
  
  S  H  40  -0.07472     0.29102    -0.18782     0.09657    -0.00282     0.00787
  
  S  H  41   0.00623    -0.43659     0.23349    -0.03908    -0.04342    -0.01057
  
  S  H  42  -0.09039     0.10038    -0.07522    -0.03161    -0.02766    -0.00137
  
  S  H  43  -0.09644     0.04011     0.10595     0.07061    -0.01450    -0.00663




    ROOT NO.   37          38          39          40          41          42

           -15.78553   -15.48841   -15.40650   -15.26008   -15.06744   -14.88568
  
  
  S  N   1   0.05827    -0.05822     0.00964     0.01791    -0.13145    -0.03519
 PX  N   1  -0.05875     0.06001    -0.01386    -0.01313     0.13809     0.04853
 PY  N   1  -0.01393     0.01206    -0.03197     0.02616    -0.00338     0.05767
 PZ  N   1  -0.02866     0.01211    -0.02392     0.03663    -0.03460     0.07766
  
  S  C   2  -0.06509     0.04963    -0.00980    -0.00608     0.08354     0.04120
 PX  C   2  -0.01903     0.00481     0.00016     0.00341    -0.01725     0.00435
 PY  C   2  -0.00945     0.01406    -0.03580     0.02683     0.00297     0.05617
 PZ  C   2  -0.03443     0.01361    -0.02668     0.03961    -0.03895     0.08271
  
  S  C   3  -0.01700    -0.01790     0.02566    -0.00671    -0.04884     0.01101
 PX  C   3   0.04330    -0.03705     0.02020    -0.00567    -0.04435    -0.02314
 PY  C   3   0.08105     0.00680    -0.04159     0.02162     0.02505    -0.00175
 PZ  C   3  -0.00935     0.00171    -0.01374     0.00495    -0.02223     0.01143
  
  S  C   4  -0.03229     0.00830    -0.00197     0.00546     0.01555     0.01156
 PX  C   4  -0.14300     0.10105     0.01239    -0.05345     0.17940     0.09012
 PY  C   4  -0.14898     0.02542     0.07137    -0.07287     0.04338     0.05716
 PZ  C   4  -0.00084    -0.01691     0.08416     0.00772    -0.05484    -0.01926
  
  S  C   5   0.00201    -0.02413     0.02262     0.02850    -0.01648     0.06070
 PX  C   5   0.01981    -0.09135     0.04437    -0.05365    -0.08813    -0.13271
 PY  C   5   0.17473     0.00448    -0.15828     0.10434    -0.04509    -0.03637
 PZ  C   5   0.11381    -0.10560     0.21968    -0.00490    -0.09075    -0.16162
  
  S  C   6  -0.01609     0.03977    -0.00083     0.01444    -0.01235     0.02499
 PX  C   6  -0.11843     0.05989    -0.16404    -0.01482     0.07754     0.15201
 PY  C   6   0.08678    -0.04549     0.01080    -0.17424     0.15338    -0.20962
 PZ  C   6  -0.01532     0.09576    -0.05203     0.09977     0.07627     0.18586
  
  S  C   7   0.01437     0.00051    -0.06275     0.05294     0.00157     0.06203
 PX  C   7  -0.03958     0.04303    -0.11672     0.05557    -0.15268    -0.01274
 PY  C   7  -0.04124    -0.01994     0.16124     0.09884    -0.13925     0.10344
 PZ  C   7   0.14058     0.11426    -0.03925     0.10556    -0.00380    -0.04179
  
  S  C   8   0.12470    -0.02985     0.00774    -0.05391    -0.03344    -0.08417
 PX  C   8  -0.07070    -0.10789    -0.03460    -0.06369    -0.19093    -0.12681
 PY  C   8   0.16081     0.06423    -0.16091     0.07614     0.03687    -0.15378
 PZ  C   8   0.18896    -0.03424     0.18916     0.04470     0.04652    -0.04000
  
  S  C   9   0.01548    -0.03451     0.02115     0.02721    -0.00863    -0.02266
 PX  C   9  -0.23503     0.03480    -0.14206    -0.02795    -0.01093     0.11730
 PY  C   9  -0.05514    -0.02602     0.04283    -0.15518     0.20295    -0.06409
 PZ  C   9   0.06601     0.09945     0.03899     0.13280     0.14992     0.15760
  
  S  C  10  -0.02129     0.00508    -0.00743    -0.05361     0.03856    -0.02825
 PX  C  10   0.04883     0.07335    -0.23702     0.06725    -0.12345     0.02498
 PY  C  10   0.08887    -0.04228     0.14583     0.03838    -0.14395    -0.05942
 PZ  C  10   0.19094     0.09222    -0.12066     0.13242     0.00466     0.02892
  
  S  C  11  -0.02682     0.05190    -0.01175    -0.00461     0.01454    -0.04151
 PX  C  11  -0.03335    -0.10661    -0.03641    -0.15158    -0.19582     0.02396
 PY  C  11   0.09532     0.00475     0.03141     0.16442    -0.11859     0.19007
 PZ  C  11   0.20524    -0.02995     0.11774    -0.08166     0.09967     0.03539
  
  S  C  12   0.03340    -0.04997     0.00827    -0.05629     0.00329    -0.02219
 PX  C  12  -0.15085    -0.01999     0.02805     0.11745    -0.08861     0.01102
 PY  C  12  -0.04538    -0.08276     0.27779     0.02457    -0.07572     0.06326
 PZ  C  12   0.02294     0.04692     0.04165     0.16045     0.09527     0.03898
  
  S  C  13   0.03189     0.02145    -0.04779     0.00448    -0.03170     0.05473
 PX  C  13  -0.19496     0.09357    -0.02410     0.02568     0.05114    -0.13485
 PY  C  13   0.03627     0.08630    -0.21520     0.00395     0.15085    -0.09916
 PZ  C  13  -0.08260     0.09459     0.10354     0.05930     0.12128    -0.05754
  
  S  C  14   0.01622    -0.02373    -0.00373     0.03597    -0.00800     0.01766
 PX  C  14   0.04036    -0.13417     0.04441    -0.13334    -0.13785     0.03057
 PY  C  14   0.11648    -0.02685     0.03039     0.12839    -0.18598     0.27619
 PZ  C  14   0.11392    -0.07458     0.09364    -0.13044     0.04617    -0.01241
  
  S  C  15  -0.00738     0.01252     0.03952     0.01201    -0.06051     0.06292
 PX  C  15  -0.15330     0.02526    -0.03380     0.17883    -0.06302     0.00502
 PY  C  15  -0.04233    -0.06972     0.22336     0.04791     0.00426    -0.02978
 PZ  C  15   0.03709     0.10553    -0.01116     0.18017     0.09565     0.06816
  
  S  C  16  -0.09301     0.00232     0.01844    -0.01577     0.08863    -0.06056
 PX  C  16  -0.24626     0.02191    -0.02834    -0.00402    -0.05695    -0.15140
 PY  C  16   0.04727     0.10135    -0.18965    -0.00172     0.13980    -0.00802
 PZ  C  16   0.05819     0.07297     0.18020     0.08757     0.17758    -0.05723
  
  S  N  17  -0.03657     0.02412    -0.00134     0.04056    -0.01669     0.03750
 PX  N  17  -0.14433    -0.07170    -0.12557    -0.18527    -0.12292     0.14138
 PY  N  17  -0.05571    -0.03398     0.22277    -0.05736     0.05270     0.14170
 PZ  N  17   0.26363    -0.00536    -0.03780    -0.02116     0.18096     0.16553
  
  S  C  18   0.04239    -0.04248    -0.01445    -0.08200     0.00684     0.03960
 PX  C  18  -0.04192     0.19664     0.08535     0.09666    -0.06009    -0.16200
 PY  C  18  -0.15622    -0.13210    -0.02411     0.12746     0.02189    -0.07961
 PZ  C  18   0.08664    -0.01943    -0.04737     0.13661     0.00101    -0.11836
  
  S  C  19  -0.04809    -0.04608    -0.05524     0.01784    -0.05402    -0.00469
 PX  C  19  -0.00350    -0.11719    -0.03276    -0.10099     0.05581     0.09728
 PY  C  19  -0.04868     0.28381     0.08774    -0.03224    -0.09203    -0.07666
 PZ  C  19   0.06229     0.18701     0.02060    -0.04225    -0.08152    -0.03373
  
  S  C  20   0.02105    -0.07974     0.00772     0.04809     0.07598    -0.00562
 PX  C  20  -0.10912    -0.18521    -0.08888     0.20794    -0.01176    -0.10423
 PY  C  20   0.05297     0.07391     0.06033    -0.12271     0.01352     0.09785
 PZ  C  20   0.02957    -0.00284    -0.00280    -0.00327    -0.01281     0.02617
  
  S  C  21  -0.02760     0.02660     0.00955     0.06177    -0.00576    -0.03501
 PX  C  21   0.00985     0.16347     0.07471     0.06412    -0.03630    -0.14661
 PY  C  21  -0.03707    -0.11666    -0.05369     0.10624     0.02590    -0.08213
 PZ  C  21  -0.04276    -0.02269    -0.01335     0.10736     0.00117    -0.11642
  
  S  C  22   0.00396     0.07136    -0.00984    -0.06420    -0.07787    -0.03349
 PX  C  22  -0.01938    -0.05755    -0.04342    -0.04314     0.00490     0.06846
 PY  C  22  -0.01447     0.27847     0.13359     0.05369    -0.01478    -0.06105
 PZ  C  22   0.02152     0.18384     0.06720     0.01114    -0.01499    -0.01976
  
  S  C  23   0.01467     0.06818     0.05944     0.02689     0.04679     0.03338
 PX  C  23  -0.07440    -0.24365    -0.04103     0.20824     0.09679    -0.06348
 PY  C  23   0.02099     0.08548     0.03818    -0.16281    -0.03381     0.08082
 PZ  C  23   0.10283    -0.02617    -0.02225    -0.08231    -0.00386     0.03996
  
  S  C  24  -0.00348     0.00170     0.00017    -0.00185     0.00037     0.01801
 PX  C  24   0.07988    -0.09899     0.03657    -0.00950     0.17181     0.18103
 PY  C  24   0.02417     0.05643    -0.09740    -0.15036    -0.20408     0.00813
 PZ  C  24  -0.09223     0.00315    -0.02670    -0.09745    -0.07257     0.07701
  
  S  C  25   0.05633    -0.00924    -0.02333     0.01706    -0.01010    -0.02128
 PX  C  25   0.03366     0.00343    -0.03271     0.03001     0.00647    -0.03779
 PY  C  25  -0.10249     0.02111     0.04742    -0.01469     0.01428     0.03773
 PZ  C  25  -0.06324     0.02278    -0.10648    -0.09006     0.08979    -0.03439
  
  S  O  26  -0.03517    -0.00621     0.03540    -0.02306    -0.01227     0.02738
 PX  O  26  -0.05290    -0.00865     0.06608    -0.04185    -0.01617     0.05615
 PY  O  26  -0.10470     0.01191     0.05980    -0.01840    -0.01985     0.07665
 PZ  O  26  -0.05994     0.01958    -0.09336    -0.08890     0.08405    -0.02634
  
  S  O  27   0.07269    -0.02228    -0.02198     0.01990    -0.01140    -0.07453
 PX  O  27  -0.17716     0.04523     0.07628    -0.05557     0.02547     0.15854
 PY  O  27   0.02524     0.00254     0.00601     0.02873    -0.02366     0.03995
 PZ  O  27  -0.06930     0.03133    -0.16019    -0.13367     0.14508    -0.05145
  
  S  H  28  -0.13649     0.09223     0.00749    -0.04445     0.16073     0.08148
  
  S  H  29   0.08526    -0.07296     0.08014    -0.16315     0.04815    -0.27423
  
  S  H  30  -0.05770    -0.08597     0.05226    -0.08485     0.11237     0.05203
  
  S  H  31   0.12925     0.10003    -0.20613     0.09790    -0.07209     0.01876
  
  S  H  32  -0.08106    -0.06254     0.18352     0.11653    -0.05748     0.04900
  
  S  H  33  -0.15449     0.09512     0.09169     0.05229     0.04233    -0.05677
  
  S  H  34  -0.06113    -0.00748    -0.00473    -0.12465     0.16947    -0.23681
  
  S  H  35   0.10148    -0.01302    -0.08222    -0.18316    -0.02689     0.01952
  
  S  H  36  -0.02035     0.29225     0.05529    -0.02152    -0.13371    -0.08692
  
  S  H  37   0.11486     0.14119     0.09772    -0.19264     0.04707     0.11705
  
  S  H  38  -0.00045    -0.26829    -0.13902    -0.07672    -0.01202     0.04797
  
  S  H  39  -0.06542    -0.19758    -0.02211     0.23585     0.10797    -0.06667
  
  S  H  40  -0.10043     0.07598    -0.03478    -0.04011    -0.15618    -0.08891
  
  S  H  41   0.06405     0.04151    -0.03620    -0.01137    -0.07896    -0.06555
  
  S  H  42   0.02071    -0.07483     0.08782     0.14261     0.22117     0.01627
  
  S  H  43  -0.03209     0.01474     0.00697    -0.00795     0.00529     0.05683




    ROOT NO.   43          44          45          46          47          48

[...]
    Config     555   0.04737712  0.00224459
    Config     556   0.09195615  0.00845593
    Config     562  -0.11072935  0.01226099
    Config     566   0.07007121  0.00490997
    Config     568   0.04458284  0.00198763
    Config     575  -0.13274296  0.01762069
    Config     576   0.04322109  0.00186806
    Config     579  -0.09089210  0.00826137
    Config     586  -0.07583286  0.00575062
    Config     598   0.11980077  0.01435222
    Config     601   0.10843176  0.01175745
    Config     605  -0.07576133  0.00573978
    Config     606  -0.09752330  0.00951079
    Config     623   0.09030705  0.00815536
    Config     628   0.04446891  0.00197748
    Config     633  -0.06067728  0.00368173
    Config     635   0.04212609  0.00177461
    Config     637  -0.06398836  0.00409451
    Config     642  -0.04207496  0.00177030
    Config     647  -0.05263630  0.00277058
    Config     654   0.04864144  0.00236599
    Config     658  -0.06851668  0.00469454
    Config     670   0.06305408  0.00397582
    Config     673   0.04360689  0.00190156
    Config     677  -0.04249168  0.00180554
    Config     684  -0.04038115  0.00163064
    Config     700   0.06325361  0.00400102
    Config     703   0.05952834  0.00354362
    Config     704  -0.06229763  0.00388099
    Config     708  -0.05542149  0.00307154
    Config     714  -0.05042211  0.00254239
    Config     727  -0.04878958  0.00238042
    Config     733   0.04783355  0.00228805
    Config     735  -0.04304763  0.00185310
    Config     757  -0.04606479  0.00212196
    Config     758  -0.04439923  0.00197129
    Config     770  -0.07080431  0.00501325
    Config     776   0.04168099  0.00173730
    Config     787   0.04028307  0.00162273
    Config     812   0.06069048  0.00368333
    Config     860   0.04280387  0.00183217
 Total coeff printed             0.79593856
  
State  500 12.5477     CI coeff  CI percent
    Config     254  -0.05342849  0.00285460
    Config     265   0.04760661  0.00226639
    Config     273  -0.04095067  0.00167696
    Config     302   0.06567756  0.00431354
    Config     308   0.05675442  0.00322106
    Config     313  -0.04320519  0.00186669
    Config     318  -0.07173679  0.00514617
    Config     321  -0.06171128  0.00380828
    Config     326  -0.08199490  0.00672316
    Config     329   0.04853191  0.00235535
    Config     340  -0.08059256  0.00649516
    Config     346  -0.04093177  0.00167541
    Config     348   0.04622212  0.00213648
    Config     353  -0.05645141  0.00318676
    Config     355   0.04420958  0.00195449
    Config     357   0.04232971  0.00179180
    Config     372   0.04406283  0.00194153
    Config     374   0.05618296  0.00315653
    Config     376   0.10401261  0.01081862
    Config     386   0.07137848  0.00509489
    Config     394   0.12289022  0.01510201
    Config     396   0.04000952  0.00160076
    Config     399  -0.10997937  0.01209546
    Config     402   0.06091156  0.00371022
    Config     403  -0.08073591  0.00651829
    Config     407  -0.05508832  0.00303472
    Config     408  -0.04813679  0.00231715
    Config     419  -0.19566595  0.03828516
    Config     430  -0.26977881  0.07278061
    Config     432  -0.12407215  0.01539390
    Config     438  -0.05118413  0.00261981
    Config     446   0.05079424  0.00258006
    Config     452  -0.05075695  0.00257627
    Config     453   0.04975529  0.00247559
    Config     454   0.07909837  0.00625655
    Config     460   0.04553374  0.00207332
    Config     463   0.04997695  0.00249770
    Config     464  -0.06274881  0.00393741
    Config     465   0.04304563  0.00185293
    Config     468   0.08732013  0.00762481
    Config     470  -0.07978663  0.00636591
    Config     475  -0.05274555  0.00278209
    Config     477  -0.05621117  0.00315970
    Config     478  -0.04574622  0.00209272
    Config     488  -0.04114840  0.00169319
    Config     489  -0.04984027  0.00248405
    Config     490  -0.04490416  0.00201638
    Config     499  -0.05185827  0.00268928
    Config     504   0.11591926  0.01343728
    Config     507  -0.04661104  0.00217259
    Config     512  -0.04825243  0.00232830
    Config     514  -0.19929708  0.03971933
    Config     517  -0.04801001  0.00230496
    Config     526   0.04540578  0.00206169
    Config     533   0.50559627  0.25562758
    Config     536  -0.04862023  0.00236393
    Config     539   0.07161340  0.00512848
    Config     549   0.05950354  0.00354067
    Config     560  -0.05280048  0.00278789
    Config     565  -0.05300557  0.00280959
    Config     566   0.06210159  0.00385661
    Config     575  -0.06533009  0.00426802
    Config     582   0.05197693  0.00270160
    Config     588   0.05044309  0.00254451
    Config     595  -0.04236864  0.00179510
    Config     599  -0.04107438  0.00168710
    Config     601  -0.25310223  0.06406074
    Config     604   0.06752783  0.00456001
    Config     619   0.04572651  0.00209091
    Config     623  -0.08790977  0.00772813
    Config     628  -0.07228978  0.00522581
    Config     655   0.04795277  0.00229947
    Config     658  -0.09187061  0.00844021
    Config     666   0.05445625  0.00296548
    Config     674  -0.05076591  0.00257718
    Config     677   0.05811130  0.00337692
    Config     694  -0.04498197  0.00202338
    Config     737   0.05674258  0.00321972
    Config     772   0.04750733  0.00225695
    Config     775  -0.04004651  0.00160372
    Config     787   0.04956571  0.00245676
    Config     820   0.05082034  0.00258271
    Config     839  -0.11919239  0.01420683
    Config     860  -0.08278227  0.00685290
    Config     867   0.10167144  0.01033708
    Config     879   0.05234550  0.00274005
    Config    1008  -0.05323007  0.00283344
 Total coeff printed             0.80667353
  

 -------------------------------------------------------------------------------
 INDO CIS EPS=37.5 N**2=1.34
 Dye7
 Calculo de Estados Excitados


     1SCF WAS SPECIFIED, SO BFGS WAS NOT USED                 
     SCF FIELD WAS ACHIEVED                                   


                              INDO CALCULATION
                                                       MOPAC2016 (Version: 21.013L)
                                                       Thu Oct 21 09:36:38 2021
                                                       No. of days remaining =  84




          FINAL HEAT OF FORMATION =    -108062.35125 KCAL/MOL = -452132.87761 KJ/MOL
          VAN DER WAALS AREA      =        368.52 SQUARE ANGSTROMS


          TOTAL ENERGY            =      -4907.58783 EV
          ELECTRONIC ENERGY       =      -4335.06331 EV  POINT GROUP:     C1  
          CORE-CORE REPULSION     =       -572.52452 EV

          DIELECTRIC ENERGY       =         -0.47356 EV
          COSMO AREA              =        368.52 SQUARE ANGSTROMS
          COSMO VOLUME            =        410.24 CUBIC ANGSTROMS

          IONIZATION POTENTIAL    =          7.386667 EV
          HOMO LUMO ENERGIES (EV) =         -7.387 -0.821
          NO. OF FILLED LEVELS    =         65
          MOLECULAR WEIGHT        =        352.3916

          MOLECULAR DIMENSIONS (Angstroms)

            Atom       Atom       Distance
            H    43    H    42    14.62240
            H    41    H    33     9.53599
            H    28    H    37     3.39817


          SCF CALCULATIONS        =          2
 
          WALL-CLOCK TIME         =  6 MINUTES AND  9.652 SECONDS
          COMPUTATION TIME        =  6 MINUTES AND 53.979 SECONDS




   ATOM   CHEMICAL          X               Y               Z
  NUMBER   SYMBOL      (ANGSTROMS)     (ANGSTROMS)     (ANGSTROMS)
 
     1       N          0.00016445  *   0.00917844  *   0.00898929  *
     2       C          1.15642712  *  -0.00105185  *  -0.00469446  *
     3       C          2.57428969  *  -0.00074409  *  -0.00223040  *
     4       C          3.30361224  *  -1.12373961  *  -0.14007252  *
     5       C          2.71411250  *  -2.43139708  *  -0.36128240  *
     6       C          1.68987167  *  -2.59479691  *  -1.30645291  *
     7       C          1.10511968  *  -3.82901443  *  -1.53022178  *
     8       C          1.56709160  *  -4.90345515  *  -0.77202492  *
     9       C          2.62873949  *  -4.75240238  *   0.16617523  *
    10       C          3.20729758  *  -3.51417323  *   0.36565098  *
    11       C          2.87741940  *  -6.05154527  *   0.73854481  *
    12       C          3.77617801  *  -6.50386538  *   1.69126784  *
    13       C          3.74617498  *  -7.84610024  *   2.03898417  *
    14       C          2.82848229  *  -8.72526986  *   1.45416582  *
    15       C          1.91802555  *  -8.29993533  *   0.49902271  *
    16       C          1.96054406  *  -6.95637771  *   0.13954236  *
    17       N          1.16678322  *  -6.24745018  *  -0.78774638  *
    18       C          0.11570556  *  -6.79084900  *  -1.56787513  *
    19       C         -1.13774297  *  -6.17252982  *  -1.56144191  *
    20       C         -2.15675405  *  -6.70862652  *  -2.33440114  *
    21       C         -1.93972824  *  -7.85519932  *  -3.09641498  *
    22       C         -0.68848757  *  -8.46415731  *  -3.09023944  *
    23       C          0.34840609  *  -7.93516428  *  -2.33308590  *
    24       C         -3.04862617  *  -8.40538286  *  -3.91873795  *
    25       C          3.25230416  *   1.28719464  *   0.19486063  *
    26       O          4.45945427  *   1.47116009  *   0.26273627  *
    27       O          2.41396685  *   2.33742645  *   0.30356252  *
    28       H          4.40194463  *  -1.08691504  *  -0.07656138  *
    29       H          1.35783519  *  -1.73733212  *  -1.90204991  *
    30       H          0.31883710  *  -3.95420378  *  -2.27834688  *
    31       H          4.02208775  *  -3.39523163  *   1.08555957  *
    32       H          4.48554012  *  -5.81251023  *   2.15281177  *
    33       H          4.44789148  *  -8.22664991  *   2.78661795  *
    34       H          2.82803638  *  -9.77607008  *   1.76132226  *
    35       H          1.19267581  *  -8.98811282  *   0.06010226  *
    36       H         -1.32346148  *  -5.28422470  *  -0.94850233  *
    37       H         -3.14022673  *  -6.22774984  *  -2.33866647  *
    38       H         -0.50851526  *  -9.36307205  *  -3.68833486  *
    39       H          1.33566330  *  -8.40813754  *  -2.35018687  *
    40       H         -3.99281120  *  -8.45930789  *  -3.35556475  *
    41       H         -3.23781408  *  -7.77306335  *  -4.80008558  *
    42       H         -2.85207885  *  -9.42036941  *  -4.29393483  *
    43       H          2.90418364  *   3.16185207  *   0.43551535  *

                             CARTESIAN COORDINATES

   1    N        0.000164453     0.009178441     0.008989290
   2    C        1.156427123    -0.001051854    -0.004694460
   3    C        2.574289690    -0.000744087    -0.002230398
   4    C        3.303612235    -1.123739612    -0.140072520
   5    C        2.714112497    -2.431397076    -0.361282395
   6    C        1.689871672    -2.594796908    -1.306452907
   7    C        1.105119676    -3.829014434    -1.530221781
   8    C        1.567091596    -4.903455149    -0.772024923
   9    C        2.628739486    -4.752402382     0.166175228
  10    C        3.207297583    -3.514173231     0.365650975
  11    C        2.877419397    -6.051545268     0.738544805
  12    C        3.776178005    -6.503865382     1.691267837
  13    C        3.746174983    -7.846100242     2.038984168
  14    C        2.828482292    -8.725269861     1.454165818
  15    C        1.918025553    -8.299935326     0.499022707
  16    C        1.960544063    -6.956377711     0.139542357
  17    N        1.166783224    -6.247450184    -0.787746380
  18    C        0.115705555    -6.790848997    -1.567875126
  19    C       -1.137742974    -6.172529818    -1.561441910
  20    C       -2.156754055    -6.708626517    -2.334401135
  21    C       -1.939728239    -7.855199322    -3.096414976
  22    C       -0.688487569    -8.464157306    -3.090239439
  23    C        0.348406093    -7.935164277    -2.333085902
  24    C       -3.048626166    -8.405382859    -3.918737952
  25    C        3.252304157     1.287194642     0.194860633
  26    O        4.459454272     1.471160089     0.262736272
  27    O        2.413966853     2.337426454     0.303562521
  28    H        4.401944627    -1.086915040    -0.076561376
  29    H        1.357835186    -1.737332121    -1.902049910
  30    H        0.318837100    -3.954203785    -2.278346877
  31    H        4.022087752    -3.395231630     1.085559568
  32    H        4.485540118    -5.812510233     2.152811768
  33    H        4.447891483    -8.226649909     2.786617952
  34    H        2.828036376    -9.776070079     1.761322255
  35    H        1.192675811    -8.988112825     0.060102256
  36    H       -1.323461481    -5.284224702    -0.948502327
  37    H       -3.140226732    -6.227749841    -2.338666466
  38    H       -0.508515263    -9.363072050    -3.688334859
  39    H        1.335663300    -8.408137540    -2.350186871
  40    H       -3.992811205    -8.459307894    -3.355564753
  41    H       -3.237814084    -7.773063349    -4.800085583
  42    H       -2.852078848    -9.420369409    -4.293934835
  43    H        2.904183644     3.161852067     0.435515353


           Empirical Formula: C23 H16 N2 O2  =    43 atoms



      MOLECULAR POINT GROUP   :   C1  


                  EIGENVALUES  
 -48.66191 -46.84056 -44.21018 -43.44886 -41.80748 -39.68696 -39.19098 -37.27379
 -36.29228 -34.99674 -33.84475 -32.65669 -32.13126 -30.82864 -29.88977 -27.63219
 -26.69941 -25.82802 -25.44430 -24.70429 -24.44609 -24.16707 -23.19847 -22.69146
 -20.82025 -20.42019 -19.18704 -18.80874 -18.33378 -18.11169 -17.28042 -16.81621
 -16.73446 -16.51195 -16.38393 -15.93666 -15.78553 -15.48841 -15.40650 -15.26008
 -15.06744 -14.88568 -14.42790 -14.08054 -13.59747 -13.38076 -13.15706 -12.99718
 -12.85610 -12.80190 -12.39638 -12.36792 -12.19719 -11.97797 -11.84973 -11.74559
 -11.25713 -10.89296 -10.10995  -9.81622  -9.09558  -8.88532  -8.58403  -7.77948
  -7.38667  -0.82115   0.15860   0.63079   0.76124   0.80931   0.89727   1.24747
   1.46135   1.69401   2.14692   2.52155   2.69067   2.85544   3.00450   3.13938
   3.20868   3.41334   3.47350   3.72054   3.84901   4.07572   4.09443   4.23476
   4.37367   4.55029   4.78220   5.15383   5.56256   5.79949   5.85807   6.09091
   6.29136   6.39578   6.50388   6.55329   7.01255   7.02029   7.33426   7.90895
   8.59305   8.71074   9.04099   9.12326   9.39617   9.78218  10.51456  10.90464
  11.17840  11.56236  11.68708  11.87893  12.08872  12.56592  12.59019  12.79809
  13.02689  14.14814  14.71221  15.03984


              NET ATOMIC CHARGES AND DIPOLE CONTRIBUTIONS

  ATOM NO.   TYPE          CHARGE      No. of ELECS.   s-Pop       p-Pop       
    1          N          -0.408533        5.4085     1.75360     3.65493
    2          C           0.224791        3.7752     1.14946     2.62575
    3          C           0.013255        3.9867     0.99987     2.98688
    4          C           0.140917        3.8591     1.10713     2.75195
    5          C          -0.003160        4.0032     1.03493     2.96823
    6          C          -0.007266        4.0073     1.08333     2.92393
    7          C          -0.039366        4.0394     1.07763     2.96174
    8          C           0.092495        3.9075     1.05150     2.85601
    9          C          -0.011791        4.0118     1.04880     2.96299
   10          C          -0.002277        4.0023     1.08094     2.92133
   11          C          -0.014767        4.0148     1.04697     2.96780
   12          C          -0.018162        4.0182     1.07926     2.93890
   13          C          -0.044179        4.0442     1.07765     2.96653
   14          C          -0.023271        4.0233     1.08082     2.94246
   15          C          -0.040172        4.0402     1.07655     2.96362
   16          C           0.078936        3.9211     1.05083     2.87023
   17          N          -0.125921        5.1259     1.22807     3.89785
   18          C           0.085871        3.9141     1.03688     2.87725
   19          C          -0.028633        4.0286     1.08183     2.94680
   20          C          -0.030764        4.0308     1.08050     2.95026
   21          C           0.014716        3.9853     1.04591     2.93938
   22          C          -0.031265        4.0313     1.08066     2.95060
   23          C          -0.028636        4.0286     1.08189     2.94675
   24          C          -0.016442        4.0164     1.04883     2.96762
   25          C           0.503476        3.4965     1.04645     2.45007
   26          O          -0.617706        6.6177     1.81674     4.80097
   27          O          -0.309974        6.3100     1.68698     4.62299
   28          H           0.068770        0.9312     0.93123
   29          H           0.031179        0.9688     0.96882
   30          H           0.031724        0.9683     0.96828
   31          H           0.034923        0.9651     0.96508
   32          H           0.025616        0.9744     0.97438
   33          H           0.016181        0.9838     0.98382
   34          H           0.019536        0.9805     0.98046
   35          H           0.029536        0.9705     0.97046
   36          H           0.028453        0.9715     0.97155
   37          H           0.022164        0.9778     0.97784
   38          H           0.022260        0.9777     0.97774
   39          H           0.028904        0.9711     0.97110
   40          H           0.013612        0.9864     0.98639
   41          H           0.019057        0.9809     0.98094
   42          H           0.007062        0.9929     0.99294
   43          H           0.248851        0.7511     0.75115
 DIPOLE           X         Y         Z       TOTAL
 POINT-CHG.    -0.258    -5.338    -1.670     5.599
 HYBRID         1.165     0.609     0.042     1.316
 SUM            0.907    -4.729    -1.628     5.083


          ATOMIC ORBITAL ELECTRON POPULATIONS

     Atom    s        px        py        pz   
    1  N   1.75360   1.23161   1.22737   1.19595
    2  C   1.14946   0.95138   0.80878   0.86559
    3  C   0.99987   0.90268   0.92411   1.16009
    4  C   1.10713   0.98989   1.00328   0.75878
    5  C   1.03493   1.00918   0.95276   1.00629
    6  C   1.08333   0.97033   0.96932   0.98429
    7  C   1.07763   0.99264   0.97983   0.98927
    8  C   1.05150   0.98120   0.88683   0.98797
    9  C   1.04880   1.00173   0.95504   1.00623
   10  C   1.08094   0.96689   0.97652   0.97793
   11  C   1.04697   0.99739   0.97268   0.99773
   12  C   1.07926   0.97544   0.97697   0.98648
   13  C   1.07765   0.98883   0.98742   0.99028
   14  C   1.08082   1.00021   0.94981   0.99244
   15  C   1.07655   0.99409   0.95880   1.01073
   16  C   1.05083   0.96208   0.96247   0.94569
   17  N   1.22807   1.35376   1.12205   1.42204
   18  C   1.03688   0.92884   0.98526   0.96315
   19  C   1.08183   0.97967   0.96937   0.99776
   20  C   1.08050   0.95604   0.98545   1.00876
   21  C   1.04591   0.98126   0.98458   0.97355
   22  C   1.08066   0.98844   0.96856   0.99360
   23  C   1.08189   0.96012   0.98368   1.00295
   24  C   1.04883   0.98866   0.98791   0.99104
   25  C   1.04645   0.88078   0.90238   0.66691
   26  O   1.81674   1.27804   1.95372   1.56921
   27  O   1.68698   1.53035   1.21773   1.87491
   28  H   0.93123
   29  H   0.96882
   30  H   0.96828
   31  H   0.96508
   32  H   0.97438
   33  H   0.98382
   34  H   0.98046
   35  H   0.97046
   36  H   0.97155
   37  H   0.97784
   38  H   0.97774
   39  H   0.97110
   40  H   0.98639
   41  H   0.98094
   42  H   0.99294
   43  H   0.75115

 **********************
 *                    *
 * JOB ENDED NORMALLY *
 *                    *
 **********************



 TOTAL JOB TIME:           369.97 SECONDS

 == MOPAC DONE ==
