 *******************************************************************************
 ** Site#: 4824         For non-commercial use only    Version 21.013L 64BITS **
 *******************************************************************************
 ** Cite this program as: MOPAC2016, Version: 21.013L, James J. P. Stewart,   **
 ** Stewart Computational Chemistry, web: HTTP://OpenMOPAC.net. Days left:  84**
 *******************************************************************************
 **                                                                           **
 **                                MOPAC2016                                  **
 **                                                                           **
 *******************************************************************************

                              INDO CALCULATION RESULTS

 *******************************************************************************
 *  CALCULATION DONE:                                Thu Oct 21 12:42:43 2021  *
 *  INDO       - The INDO Hamiltonian to be used
 *  CIS        - C.I. USES 1 ELECTRON EXCITATIONS ONLY
 *  EPS= 36.70 - USE ANDREAS KLAMT'S COSMO IMPLICIT SOLVATION MODEL
 *  n**2 =  1.430 for COSMO-CI
 *  T=         - A TIME OF 172800.0 SECONDS REQUESTED
 *  DUMP=N     - RESTART FILE WRITTEN EVERY 7200.0 SECONDS REQUESTED
 *******************************************************************************
INDO CIS EPS=36.7 N**2=1.43
 Dye80
 Calculo de Estados Excitados
   ATOM   CHEMICAL          X               Y               Z
  NUMBER   SYMBOL      (ANGSTROMS)     (ANGSTROMS)     (ANGSTROMS)
 
     1       N          0.00000000  *   0.00000000  *   0.00000000  *
     2       C          1.15653340  *   0.00000000  *   0.00000000  *
     3       C          2.57319143  *   0.02061288  *   0.00000000  *
     4       C          3.32543085  *  -1.09807469  *  -0.00636837  *
     5       C          2.77714032  *  -2.42025287  *   0.04374842  *
     6       C          1.66473161  *  -2.83416067  *   0.72694081  *
     7       C          1.43160319  *  -4.23570429  *   0.56712099  *
     8       C          2.37476832  *  -4.82623478  *  -0.22764042  *
     9       S          3.54515965  *  -3.71141227  *  -0.78005986  *
    10       C          2.40483386  *  -6.21918755  *  -0.60520029  *
    11       C          3.62219260  *  -6.92006850  *  -0.60617081  *
    12       C          3.68657213  *  -8.25674513  *  -0.95703611  *
    13       C          2.49414507  *  -8.88063163  *  -1.31907138  *
    14       C          1.25418203  *  -8.18404570  *  -1.30500642  *
    15       C          1.21061497  *  -6.84726136  *  -0.94796645  *
    16       C          0.23351400  *  -9.12147037  *  -1.69702760  *
    17       C         -1.14324807  *  -8.98586270  *  -1.85808058  *
    18       C         -1.82949940  * -10.10716920  *  -2.26664774  *
    19       C         -3.24950827  * -10.28550876  *  -2.52083182  *
    20       C         -4.29499453  *  -9.39320462  *  -2.41615007  *
    21       C         -5.58003515  *  -9.84479144  *  -2.72946524  *
    22       C         -5.79689683  * -11.15353407  *  -3.13430125  *
    23       C         -4.73490959  * -12.05808298  *  -3.24030598  *
    24       C         -3.47037930  * -11.61520468  *  -2.93224245  *
    25       C         -2.17347933  * -12.38285425  *  -2.96623564  *
    26       C         -1.17495589  * -11.34041671  *  -2.52252473  *
    27       C          0.18014287  * -11.50055556  *  -2.37260976  *
    28       C          0.87657891  * -10.36441995  *  -1.94095361  *
    29       N          2.25805295  * -10.21027644  *  -1.70922299  *
    30       C          3.23835798  * -11.22545572  *  -1.83064176  *
    31       C          3.03803308  * -12.45481430  *  -1.19734129  *
    32       C          4.00280709  * -13.44461072  *  -1.32938030  *
    33       C          5.15587266  * -13.21092879  *  -2.06941594  *
    34       C          5.34785972  * -11.98206937  *  -2.68977902  *
    35       C          4.39080045  * -10.98185474  *  -2.58234836  *
    36       C         -2.20722084  * -13.54769687  *  -1.98785865  *
    37       C         -1.86346826  * -12.86016542  *  -4.37739285  *
    38       C          3.23065946  *   1.33386435  *  -0.02407381  *
    39       O          4.43492283  *   1.54447407  *  -0.05947501  *
    40       O          2.37506408  *   2.37537266  *  -0.00090251  *
    41       H          4.42341062  *  -1.02636188  *  -0.05847069  *
    42       H          1.03113557  *  -2.20592135  *   1.35051626  *
    43       H          0.59967620  *  -4.75241965  *   1.04012766  *
    44       H          4.54125140  *  -6.40274179  *  -0.31161304  *
    45       H          4.63282222  *  -8.80174780  *  -0.93560069  *
    46       H          0.25893928  *  -6.30887858  *  -0.94650441  *
    47       H         -1.64151048  *  -8.03312992  *  -1.66934610  *
    48       H         -4.12698601  *  -8.36197733  *  -2.09787680  *
    49       H         -6.42410014  *  -9.15291586  *  -2.65326438  *
    50       H         -6.81050150  * -11.48696997  *  -3.37515976  *
    51       H         -4.91000206  * -13.08820695  *  -3.55996662  *
    52       H          0.68225468  * -12.44474624  *  -2.58895034  *
    53       H          2.14285996  * -12.63680895  *  -0.59397035  *
    54       H          3.85465292  * -14.41254036  *  -0.84047630  *
    55       H          5.91294454  * -13.99483110  *  -2.16368659  *
    56       H          6.25593033  * -11.80098680  *  -3.27328121  *
    57       H          4.53693137  * -10.02438432  *  -3.09247132  *
    58       H         -2.42714969  * -13.21732080  *  -0.96261214  *
    59       H         -2.97756464  * -14.28410958  *  -2.25793069  *
    60       H         -1.24685636  * -14.08155013  *  -1.95334585  *
    61       H         -0.89072718  * -13.36919360  *  -4.43361337  *
    62       H         -2.62106596  * -13.56773040  *  -4.74353067  *
    63       H         -1.83086518  * -12.02782780  *  -5.09493072  *
    64       H          2.85192022  *   3.21785134  *  -0.01996701  *
 


          CARTESIAN COORDINATES 

    NO.       ATOM           X           Y           Z

     1         N          0.0000      0.0000      0.0000
     2         C          1.1565      0.0000      0.0000
     3         C          2.5732      0.0206      0.0000
     4         C          3.3254     -1.0981     -0.0064
     5         C          2.7771     -2.4203      0.0437
     6         C          1.6647     -2.8342      0.7269
     7         C          1.4316     -4.2357      0.5671
     8         C          2.3748     -4.8262     -0.2276
     9         S          3.5452     -3.7114     -0.7801
    10         C          2.4048     -6.2192     -0.6052
    11         C          3.6222     -6.9201     -0.6062
    12         C          3.6866     -8.2567     -0.9570
    13         C          2.4941     -8.8806     -1.3191
    14         C          1.2542     -8.1840     -1.3050
    15         C          1.2106     -6.8473     -0.9480
    16         C          0.2335     -9.1215     -1.6970
    17         C         -1.1432     -8.9859     -1.8581
    18         C         -1.8295    -10.1072     -2.2666
    19         C         -3.2495    -10.2855     -2.5208
    20         C         -4.2950     -9.3932     -2.4162
    21         C         -5.5800     -9.8448     -2.7295
    22         C         -5.7969    -11.1535     -3.1343
    23         C         -4.7349    -12.0581     -3.2403
    24         C         -3.4704    -11.6152     -2.9322
    25         C         -2.1735    -12.3829     -2.9662
    26         C         -1.1750    -11.3404     -2.5225
    27         C          0.1801    -11.5006     -2.3726
    28         C          0.8766    -10.3644     -1.9410
    29         N          2.2581    -10.2103     -1.7092
    30         C          3.2384    -11.2255     -1.8306
    31         C          3.0380    -12.4548     -1.1973
    32         C          4.0028    -13.4446     -1.3294
    33         C          5.1559    -13.2109     -2.0694
    34         C          5.3479    -11.9821     -2.6898
    35         C          4.3908    -10.9819     -2.5823
    36         C         -2.2072    -13.5477     -1.9879
    37         C         -1.8635    -12.8602     -4.3774
    38         C          3.2307      1.3339     -0.0241
    39         O          4.4349      1.5445     -0.0595
    40         O          2.3751      2.3754     -0.0009
    41         H          4.4234     -1.0264     -0.0585
    42         H          1.0311     -2.2059      1.3505
    43         H          0.5997     -4.7524      1.0401
    44         H          4.5413     -6.4027     -0.3116
    45         H          4.6328     -8.8017     -0.9356
    46         H          0.2589     -6.3089     -0.9465
    47         H         -1.6415     -8.0331     -1.6693
    48         H         -4.1270     -8.3620     -2.0979
    49         H         -6.4241     -9.1529     -2.6533
    50         H         -6.8105    -11.4870     -3.3752
    51         H         -4.9100    -13.0882     -3.5600
    52         H          0.6823    -12.4447     -2.5890
    53         H          2.1429    -12.6368     -0.5940
    54         H          3.8547    -14.4125     -0.8405
    55         H          5.9129    -13.9948     -2.1637
    56         H          6.2559    -11.8010     -3.2733
    57         H          4.5369    -10.0244     -3.0925
    58         H         -2.4271    -13.2173     -0.9626
    59         H         -2.9776    -14.2841     -2.2579
    60         H         -1.2469    -14.0816     -1.9533
    61         H         -0.8907    -13.3692     -4.4336
    62         H         -2.6211    -13.5677     -4.7435
    63         H         -1.8309    -12.0278     -5.0949
    64         H          2.8519      3.2179     -0.0200

           Empirical Formula: C35 H24 N2 O2 S  =    64 atoms



      MOLECULAR POINT GROUP   :   C1  


      RHF CALCULATION, NO. OF DOUBLY OCCUPIED LEVELS = 96

 WARNING: INDO only performs single-point calculations

 Summary of symmetry occupancy in each shell:

 SHELL     
    1   96
    v   88
 TOTAL 184




    ROOT NO.    1           2           3           4           5           6

           -48.79406   -47.18672   -46.82472   -44.05510   -43.46649   -42.54011
  
  
  S  N   1   0.00039    -0.00085     0.04015    -0.02146     0.03783    -0.04871
 PX  N   1   0.00022    -0.00050     0.02471    -0.01135     0.01989    -0.02525
 PY  N   1  -0.00007     0.00005     0.00388     0.00353    -0.00544     0.00560
 PZ  N   1   0.00002    -0.00002     0.00016    -0.00070     0.00107    -0.00106
  
  S  C   2   0.00087    -0.00207     0.11413    -0.03779     0.06563    -0.08145
 PX  C   2   0.00025    -0.00072     0.04943    -0.00624     0.01047    -0.01146
 PY  C   2  -0.00022     0.00008     0.02207     0.01218    -0.01871     0.01926
 PZ  C   2   0.00004    -0.00004     0.00014    -0.00141     0.00214    -0.00212
  
  S  C   3   0.00124    -0.00349     0.22844    -0.04358     0.07690    -0.09604
 PX  C   3   0.00001    -0.00027     0.03184     0.00311    -0.00426     0.00356
 PY  C   3  -0.00035    -0.00020     0.07739     0.02751    -0.04277     0.04526
 PZ  C   3   0.00002    -0.00001    -0.00154    -0.00107     0.00160    -0.00153
  
  S  C   4   0.00197    -0.00336     0.11583    -0.07851     0.12664    -0.13964
 PX  C   4  -0.00056     0.00082    -0.01810     0.02290    -0.03634     0.03908
 PY  C   4  -0.00064     0.00031     0.04706     0.02232    -0.03049     0.02352
 PZ  C   4   0.00008    -0.00009     0.00048    -0.00279     0.00423    -0.00417
  
  S  C   5   0.00604    -0.00691     0.05307    -0.16863     0.24445    -0.22203
 PX  C   5  -0.00121     0.00129    -0.00343     0.03107    -0.04339     0.03628
 PY  C   5  -0.00240     0.00219     0.01507     0.04144    -0.05008     0.02692
 PZ  C   5   0.00026    -0.00034     0.00247    -0.01049     0.01576    -0.01511
  
  S  C   6   0.00705    -0.00754     0.03535    -0.17424     0.24529    -0.21023
 PX  C   6   0.00144    -0.00168     0.00956    -0.04193     0.06021    -0.05307
 PY  C   6  -0.00257     0.00233     0.00526     0.03983    -0.04805     0.02710
 PZ  C   6  -0.00167     0.00177    -0.00711     0.03972    -0.05509     0.04567
  
  S  C   7   0.01471    -0.01296     0.01931    -0.19886     0.24644    -0.16293
 PX  C   7   0.00359    -0.00350     0.00601    -0.05961     0.07638    -0.05272
 PY  C   7  -0.00357     0.00216     0.00586    -0.01216     0.03472    -0.05274
 PZ  C   7  -0.00381     0.00322    -0.00309     0.04094    -0.04675     0.02459
  
  S  C   8   0.02952    -0.02381     0.01685    -0.24668     0.26501    -0.11174
 PX  C   8  -0.00146     0.00106    -0.00130     0.01831    -0.02130     0.01446
 PY  C   8  -0.01162     0.00767     0.00641    -0.00324     0.04510    -0.08997
 PZ  C   8  -0.00230     0.00135     0.00224    -0.01071     0.02361    -0.03057
  
  S  S   9   0.00962    -0.00891     0.01886    -0.14089     0.17961    -0.12459
 PX  S   9  -0.00416     0.00399    -0.00784     0.07105    -0.09219     0.06631
 PY  S   9  -0.00377     0.00283     0.00551     0.01012     0.00180    -0.02605
 PZ  S   9   0.00223    -0.00230     0.00652    -0.04777     0.06483    -0.05104
  
  S  C  10   0.08718    -0.05970     0.00608    -0.28193     0.18340     0.10089
 PX  C  10  -0.00320     0.00089    -0.00035     0.00824    -0.00261     0.00657
 PY  C  10  -0.03469     0.02127     0.00226     0.03130     0.01963    -0.07846
 PZ  C  10  -0.00941     0.00555     0.00071     0.00647     0.00806    -0.02129
  
  S  C  11   0.08459    -0.05807     0.00254    -0.20971     0.12034     0.13435
 PX  C  11  -0.03300     0.02167    -0.00090     0.07958    -0.03849    -0.04595
 PY  C  11  -0.02243     0.01395     0.00094     0.00932     0.00784    -0.03853
 PZ  C  11  -0.01113     0.00711     0.00013     0.01430    -0.00376    -0.01749
  
  S  C  12   0.13472    -0.08395     0.00006    -0.14042     0.07653     0.14978
 PX  C  12  -0.06123     0.03548     0.00012     0.06058    -0.01298    -0.05441
 PY  C  12  -0.01637     0.00637     0.00096    -0.06357     0.02388     0.02628
 PZ  C  12  -0.01446     0.00761     0.00029    -0.00911     0.00347    -0.00148
  
  S  C  13   0.33421    -0.17373    -0.00272    -0.11549    -0.01377     0.15053
 PX  C  13  -0.08634     0.03257     0.00091     0.02142     0.05965     0.00784
 PY  C  13  -0.07618     0.03244     0.00190    -0.10694     0.04812     0.04790
 PZ  C  13  -0.03218     0.01308     0.00065    -0.02766     0.02090     0.01473
  
  S  C  14   0.27344    -0.12382    -0.00114    -0.18798    -0.03804     0.11124
 PX  C  14   0.03781    -0.03484    -0.00004    -0.04749     0.03295     0.06801
 PY  C  14  -0.09727     0.03342     0.00184    -0.04595     0.07701     0.03279
 PZ  C  14  -0.02051     0.00385     0.00050    -0.01987     0.02568     0.01872
  
  S  C  15   0.11381    -0.06454     0.00275    -0.23123     0.09479     0.11144
 PX  C  15   0.02847    -0.02207     0.00092    -0.07837     0.04619     0.05233
 PY  C  15  -0.04510     0.02098     0.00136     0.01662     0.03185    -0.03529
 PZ  C  15  -0.00791     0.00234     0.00057    -0.00834     0.01686    -0.00260
  
  S  C  16   0.28921    -0.03420    -0.00179    -0.06687    -0.16469    -0.10159
 PX  C  16   0.08861    -0.08094    -0.00140    -0.01656    -0.01144     0.06828
 PY  C  16  -0.05174    -0.01684     0.00038    -0.02505     0.04390     0.06586
 PZ  C  16  -0.00203    -0.01617    -0.00009    -0.00891     0.01084     0.02789
  
  S  C  17   0.14162     0.08885     0.00044    -0.03384    -0.10580    -0.13711
 PX  C  17   0.04238    -0.02643    -0.00055    -0.01381    -0.03783    -0.03098
 PY  C  17  -0.04626    -0.05180    -0.00032    -0.00202     0.03655     0.06641
 PZ  C  17  -0.00685    -0.01825    -0.00017    -0.00247     0.00476     0.01399
  
  S  C  18   0.16686     0.27159     0.00261    -0.01220    -0.06794    -0.14501
 PX  C  18   0.02839    -0.03760    -0.00073    -0.00456    -0.06100    -0.09873
 PY  C  18  -0.02915    -0.08959    -0.00101    -0.00555    -0.00965     0.02206
 PZ  C  18  -0.00442    -0.03111    -0.00040    -0.00214    -0.01132    -0.00767
  
  S  C  19   0.11460     0.32138     0.00372    -0.00370     0.06879     0.15282
 PX  C  19   0.02454     0.02721     0.00018    -0.00119    -0.04532    -0.14311
 PY  C  19  -0.02754    -0.08566    -0.00100    -0.00196    -0.01672    -0.00780
 PZ  C  19  -0.00439    -0.02064    -0.00026    -0.00071    -0.01125    -0.02273
  
  S  C  20   0.04938     0.16502     0.00201    -0.00299     0.07894     0.23369
 PX  C  20   0.01040     0.02039     0.00021    -0.00106    -0.01027    -0.03634
 PY  C  20  -0.02053    -0.07303    -0.00089     0.00021    -0.03540    -0.09535
 PZ  C  20  -0.00438    -0.01795    -0.00023    -0.00009    -0.01158    -0.03245
  
  S  C  21   0.03343     0.13005     0.00164    -0.00120     0.08740     0.26481
 PX  C  21   0.01420     0.05174     0.00064    -0.00055     0.02787     0.07945
 PY  C  21  -0.00960    -0.03817    -0.00048    -0.00003    -0.02472    -0.07024
 PZ  C  21  -0.00071    -0.00348    -0.00005    -0.00009    -0.00306    -0.00867
  
  S  C  22   0.03392     0.13417     0.00169    -0.00043     0.09024     0.26473
 PX  C  22   0.01681     0.06337     0.00079    -0.00010     0.03555     0.09694
 PY  C  22   0.00331     0.01333     0.00017    -0.00036     0.01065     0.03639
 PZ  C  22   0.00336     0.01290     0.00016    -0.00012     0.00815     0.02431
  
  S  C  23   0.05271     0.19069     0.00235     0.00102     0.09363     0.23281
 PX  C  23   0.01885     0.05786     0.00068     0.00088     0.00901    -0.00439
 PY  C  23   0.01476     0.05602     0.00070    -0.00054     0.03460     0.10300
 PZ  C  23   0.00692     0.02429     0.00030    -0.00002     0.01118     0.02880
  
  S  C  24   0.11752     0.36103     0.00425     0.00217     0.09246     0.15471
 PX  C  24   0.03022     0.06322     0.00064     0.00117    -0.02897    -0.12866
 PY  C  24   0.01353     0.03880     0.00046    -0.00209     0.01522     0.06069
 PZ  C  24   0.00817     0.02005     0.00022    -0.00041     0.00020    -0.00112
  
  S  C  25   0.13119     0.35441     0.00400     0.00838     0.02681    -0.09346
 PX  C  25   0.00175    -0.01891    -0.00030     0.00146    -0.02198    -0.05458
 PY  C  25   0.03193     0.07340     0.00079    -0.00153    -0.00167    -0.00794
 PZ  C  25   0.00937     0.01820     0.00018    -0.00013    -0.00355    -0.01008
  
  S  C  26   0.18189     0.30181     0.00287     0.00391    -0.07076    -0.21890
 PX  C  26  -0.00399    -0.09800    -0.00136     0.00336    -0.03970    -0.03920
 PY  C  26   0.02899    -0.00043    -0.00021    -0.00717    -0.03693    -0.03173
 PZ  C  26   0.00759    -0.01459    -0.00026    -0.00129    -0.01598    -0.01453
  
  S  C  27   0.17486     0.09505     0.00001     0.03035    -0.09319    -0.19420
 PX  C  27  -0.00014    -0.08215    -0.00114     0.01879     0.01543     0.05396
 PY  C  27   0.06306     0.00073    -0.00042    -0.00241    -0.05007    -0.05191
 PZ  C  27   0.01850    -0.01211    -0.00030     0.00353    -0.01098    -0.00718
  
  S  C  28   0.35431    -0.06490    -0.00313     0.02442    -0.16098    -0.12770
 PX  C  28   0.07056    -0.09739    -0.00175     0.03349     0.02473     0.08900
 PY  C  28   0.07641    -0.04190    -0.00084    -0.03817    -0.04405     0.02592
 PZ  C  28   0.02992    -0.02563    -0.00048    -0.00436    -0.00673     0.02042
  
  S  N  29   0.44711    -0.21576    -0.00573     0.11495    -0.05692     0.03631
 PX  N  29  -0.05703     0.01168     0.00045     0.03968     0.07267     0.02068
 PY  N  29   0.05628    -0.02756    -0.00041    -0.06557    -0.04840     0.03370
 PZ  N  29   0.00826    -0.00611    -0.00006    -0.01097    -0.00304     0.01094
  
  S  C  30   0.21387    -0.11894    -0.00339     0.28935     0.20008    -0.00647
 PX  C  30  -0.05541     0.02133     0.00062     0.04213     0.08076    -0.00239
 PY  C  30   0.05607    -0.02824    -0.00063    -0.05279    -0.07358     0.02485
 PZ  C  30   0.00710    -0.00311    -0.00008    -0.00567    -0.00973     0.00100
  
  S  C  31   0.10471    -0.05913    -0.00186     0.25540     0.21008    -0.03018
 PX  C  31   0.00028    -0.00678    -0.00018     0.07633     0.08537    -0.00426
 PY  C  31   0.04295    -0.02276    -0.00065     0.03184     0.00855     0.00140
 PZ  C  31  -0.02135     0.01275     0.00040    -0.05860    -0.05004     0.00603
  
  S  C  32   0.04981    -0.03432    -0.00110     0.23552     0.22638    -0.02840
 PX  C  32  -0.00315     0.00011     0.00002     0.01085     0.01588     0.00023
 PY  C  32   0.02326    -0.01557    -0.00049     0.09088     0.08428    -0.00947
 PZ  C  32  -0.00835     0.00623     0.00020    -0.04407    -0.04346     0.00457
  
  S  C  33   0.04195    -0.03149    -0.00100     0.23100     0.22973    -0.02528
 PX  C  33  -0.01482     0.01045     0.00033    -0.06976    -0.06675     0.00782
 PY  C  33   0.01526    -0.01120    -0.00034     0.07164     0.06978    -0.00639
 PZ  C  33   0.00186    -0.00124    -0.00004     0.00883     0.00815    -0.00142
  
  S  C  34   0.04935    -0.03629    -0.00110     0.23255     0.22967    -0.02027
 PX  C  34  -0.02182     0.01519     0.00046    -0.08458    -0.07995     0.00682
 PY  C  34   0.00241    -0.00109    -0.00001    -0.01556    -0.01685     0.00482
 PZ  C  34   0.01143    -0.00830    -0.00026     0.05309     0.05160    -0.00509
  
  S  C  35   0.10301    -0.06589    -0.00186     0.24576     0.22062    -0.00582
 PX  C  35  -0.03987     0.02172     0.00060    -0.02680    -0.00732    -0.00415
 PY  C  35  -0.00260     0.00429     0.00022    -0.08642    -0.08600     0.01528
 PZ  C  35   0.02600    -0.01610    -0.00045     0.05046     0.04235    -0.00036
  
  S  C  36   0.06197     0.17399     0.00198     0.00662     0.01659    -0.05888
 PX  C  36   0.00176    -0.00254    -0.00006     0.00099    -0.00590    -0.01684
 PY  C  36   0.02558     0.06908     0.00078     0.00159     0.00442    -0.01979
 PZ  C  36  -0.01460    -0.04353    -0.00050    -0.00157    -0.00537     0.01249
  
  S  C  37   0.06203     0.17432     0.00199     0.00638     0.01638    -0.05899
 PX  C  37  -0.00406    -0.01897    -0.00024     0.00032    -0.00751    -0.01149
 PY  C  37   0.01404     0.03632     0.00041     0.00041     0.00134    -0.00908
 PZ  C  37   0.02568     0.07078     0.00080     0.00236     0.00512    -0.02488
  
  S  C  38   0.00085    -0.00530     0.51330     0.02036    -0.02377     0.01472
 PX  C  38  -0.00001    -0.00014     0.01795     0.00226    -0.00277     0.00081
 PY  C  38   0.00000    -0.00110     0.13794     0.02414    -0.03904     0.04593
 PZ  C  38   0.00000     0.00000    -0.00081    -0.00023     0.00034    -0.00029
  
  S  O  39   0.00059    -0.00413     0.41253     0.02185    -0.02767     0.01995
 PX  O  39  -0.00024     0.00175    -0.17595    -0.00995     0.01301    -0.01041
 PY  O  39  -0.00005     0.00011    -0.00534     0.00355    -0.00652     0.00896
 PZ  O  39   0.00001    -0.00005     0.00512     0.00026    -0.00033     0.00025
  
  S  O  40   0.00070    -0.00553     0.57150     0.04554    -0.06746     0.07180
 PX  O  40   0.00018    -0.00152     0.15843     0.01327    -0.01971     0.02081
 PY  O  40  -0.00011     0.00067    -0.06425    -0.00152     0.00102     0.00093
 PZ  O  40  -0.00000     0.00005    -0.00486    -0.00043     0.00064    -0.00068
  
  S  H  41   0.00063    -0.00119     0.05102    -0.02410     0.03942    -0.04439
  
  S  H  42   0.00177    -0.00201     0.01583    -0.04999     0.07291    -0.06724
  
  S  H  43   0.00647    -0.00514     0.00502    -0.06349     0.07251    -0.04013
  
  S  H  44   0.02019    -0.01469     0.00123    -0.06459     0.04477     0.03236
  
  S  H  45   0.04524    -0.02844    -0.00020    -0.02031     0.02992     0.04210
  
  S  H  46   0.03222    -0.01604     0.00146    -0.07573     0.03561     0.01944
  
  S  H  47   0.03887     0.02557     0.00022    -0.01577    -0.02488    -0.02666
  
  S  H  48   0.01517     0.04491     0.00054    -0.00176     0.01821     0.05913
  
  S  H  49   0.00763     0.03073     0.00039    -0.00037     0.02339     0.07406
  
  S  H  50   0.00776     0.03206     0.00041    -0.00009     0.02442     0.07403
  
  S  H  51   0.01669     0.05976     0.00073     0.00078     0.02683     0.05903
  
  S  H  52   0.05905     0.02864    -0.00007     0.02555    -0.01428    -0.06009
  
  S  H  53   0.04502    -0.02014    -0.00068     0.07357     0.04972    -0.01380
  
  S  H  54   0.01205    -0.00822    -0.00027     0.06240     0.06068    -0.00847
  
  S  H  55   0.00954    -0.00748    -0.00024     0.06096     0.06203    -0.00709
  
  S  H  56   0.01186    -0.00904    -0.00027     0.06120     0.06200    -0.00513
  
  S  H  57   0.04335    -0.02665    -0.00068     0.06537     0.05850     0.00602
  
  S  H  58   0.02731     0.07449     0.00084     0.00248     0.00647    -0.02277
  
  S  H  59   0.02193     0.06606     0.00077     0.00245     0.01001    -0.01435
  
  S  H  60   0.02471     0.06358     0.00070     0.00378     0.00343    -0.03233
  
  S  H  61   0.02466     0.06373     0.00071     0.00353     0.00322    -0.03235
  
  S  H  62   0.02195     0.06617     0.00077     0.00238     0.00996    -0.01436
  
  S  H  63   0.02736     0.07471     0.00085     0.00232     0.00633    -0.02286
  
  S  H  64   0.00028    -0.00231     0.24056     0.02042    -0.03062     0.03310




    ROOT NO.    7           8           9          10          11          12

           -41.76759   -40.34768   -39.69646   -39.15677   -36.60653   -36.38862
  
  
  S  N   1  -0.06615    -0.03704    -0.00764     0.40123    -0.16716     0.49521
 PX  N   1  -0.03375    -0.01815    -0.00332     0.18788    -0.06569     0.19021
 PY  N   1   0.00614     0.00224     0.00851    -0.00212    -0.00200     0.00463
 PZ  N   1  -0.00110    -0.00028     0.00005     0.00070     0.00028    -0.00031
  
  S  C   2  -0.10615    -0.05411    -0.03535     0.47877    -0.10423     0.27375
 PX  C   2  -0.01241    -0.00309    -0.02359    -0.05570     0.09917    -0.32236
 PY  C   2   0.02126     0.00820     0.03539    -0.00652    -0.00675     0.01740
 PZ  C   2  -0.00219    -0.00056     0.00021     0.00141     0.00064    -0.00093
  
  S  C   3  -0.12464    -0.06506    -0.19303     0.32586     0.03959    -0.19473
 PX  C   3   0.00278    -0.00297    -0.10577    -0.09836     0.02276    -0.07015
 PY  C   3   0.05149     0.02056     0.06331    -0.05437    -0.02472     0.07883
 PZ  C   3  -0.00150    -0.00022     0.00248     0.00138     0.00067    -0.00103
  
  S  C   4  -0.16366    -0.07011    -0.22335     0.21842     0.08558    -0.30197
 PX  C   4   0.04463     0.01685     0.01672    -0.08841    -0.01593     0.05669
 PY  C   4   0.01610    -0.00659    -0.08612     0.03915    -0.01067     0.00115
 PZ  C   4  -0.00432    -0.00115     0.00066     0.00381     0.00160    -0.00344
  
  S  C   5  -0.21177    -0.04516    -0.00659     0.02600     0.07476    -0.17744
 PX  C   5   0.03053     0.00164    -0.03031     0.01636     0.00149    -0.02869
 PY  C   5   0.00410    -0.02063    -0.09956     0.14724     0.02179    -0.10569
 PZ  C   5  -0.01490    -0.00292     0.00455     0.00179     0.00413    -0.00229
  
  S  C   6  -0.18569    -0.02385     0.07468    -0.06605     0.03817    -0.02242
 PX  C   6  -0.04855    -0.00822     0.00815    -0.01381     0.01842    -0.04540
 PY  C   6   0.00764    -0.01509    -0.06336     0.11656     0.01081    -0.06417
 PZ  C   6   0.03874     0.00389    -0.01728     0.02232    -0.00838     0.01108
  
  S  C   7  -0.09974     0.01797     0.12873    -0.19126    -0.01352     0.11383
 PX  C   7  -0.03480     0.00309     0.03841    -0.05949    -0.00539     0.01948
 PY  C   7  -0.06423    -0.01597     0.01773    -0.01175     0.02368    -0.02968
 PZ  C   7   0.00830    -0.00694    -0.02238     0.03716     0.00786    -0.02358
  
  S  C   8  -0.00719     0.04494     0.11629    -0.19304    -0.07240     0.14626
 PX  C   8   0.00780    -0.00528    -0.01514     0.02307    -0.00877    -0.02738
 PY  C   8  -0.11231    -0.02174     0.04420    -0.05616     0.03988    -0.02064
 PZ  C   8  -0.03251    -0.00359     0.02031    -0.02843     0.00838     0.00877
  
  S  S   9  -0.08582     0.00088     0.06255    -0.10323    -0.00374    -0.00375
 PX  S   9   0.04658    -0.00222    -0.04461     0.06581     0.00189    -0.01930
 PY  S   9  -0.04324    -0.01608    -0.01777     0.02831     0.03798    -0.06454
 PZ  S   9  -0.04049    -0.00181     0.02698    -0.04106     0.00495    -0.00208
  
  S  C  10   0.24782     0.07654    -0.00688    -0.01563    -0.10008     0.08428
 PX  C  10   0.00499    -0.01063    -0.00514     0.00914    -0.04944    -0.02799
 PY  C  10  -0.08847    -0.00233     0.05050    -0.07925    -0.01801     0.06417
 PZ  C  10  -0.02274    -0.00127     0.01467    -0.02318    -0.01271     0.01723
  
  S  C  11   0.24213     0.03406    -0.04528     0.05543    -0.15264    -0.04103
 PX  C  11  -0.08203    -0.01812     0.01413    -0.01580     0.00620    -0.00834
 PY  C  11  -0.03415     0.01388     0.02413    -0.04123     0.00986     0.05951
 PZ  C  11  -0.02176     0.00110     0.00874    -0.01368     0.00402     0.01524
  
  S  C  12   0.18427    -0.03725    -0.05151     0.07878    -0.16116    -0.12515
 PX  C  12  -0.05550     0.01198     0.01715    -0.02644    -0.00565     0.02466
 PY  C  12   0.07742     0.04101    -0.01950     0.02378     0.00035     0.00295
 PZ  C  12   0.01217     0.01340    -0.00263     0.00232     0.00104     0.00548
  
  S  C  13   0.04214    -0.12190    -0.02280     0.04686     0.00091    -0.09372
 PX  C  13   0.05328    -0.00802    -0.00523     0.00608    -0.17216    -0.04514
 PY  C  13   0.15712     0.09086    -0.04693     0.06193     0.04714    -0.01709
 PZ  C  13   0.05066     0.02345    -0.01365     0.01793    -0.01063    -0.01048
  
  S  C  14   0.09744     0.04995    -0.04912     0.07299     0.27338    -0.00213
 PX  C  14   0.05766    -0.05653    -0.01144     0.02038    -0.06326    -0.04084
 PY  C  14   0.11563     0.03654    -0.02015     0.02271    -0.06712    -0.00346
 PZ  C  14   0.03973     0.00198    -0.00702     0.00891    -0.02672    -0.00626
  
  S  C  15   0.21323     0.08702    -0.03860     0.04169     0.08732     0.05014
 PX  C  15   0.08876     0.00437    -0.01407     0.01640    -0.04630    -0.00377
 PY  C  15  -0.02147    -0.00490     0.02764    -0.04614    -0.08545     0.03950
 PZ  C  15   0.00709    -0.00031     0.00641    -0.01177    -0.03035     0.01210
  
  S  C  16  -0.05140     0.22837    -0.02435     0.02500     0.26392     0.05706
 PX  C  16  -0.04270    -0.12855     0.01309    -0.00805     0.09182     0.00802
 PY  C  16   0.03535    -0.04248    -0.00859     0.01653     0.04972    -0.02048
 PZ  C  16   0.00358    -0.03039    -0.00036     0.00319     0.02592    -0.00431
  
  S  C  17   0.00290     0.32557    -0.03564     0.03162     0.01814    -0.02074
 PX  C  17  -0.00467     0.04095    -0.00401     0.00388     0.11490     0.04902
 PY  C  17  -0.00498    -0.09242     0.00688    -0.00330     0.05638     0.01246
 PZ  C  17  -0.00212    -0.01975     0.00136    -0.00040     0.03200     0.01057
  
  S  C  18   0.04462     0.25118    -0.02911     0.02543    -0.21560    -0.12549
 PX  C  18   0.01610     0.09819    -0.00694     0.00269     0.06701     0.06434
 PY  C  18  -0.04275     0.07626    -0.00565     0.00397     0.04283     0.01820
 PZ  C  18  -0.00989     0.03527    -0.00254     0.00145     0.02181     0.01456
  
  S  C  19  -0.09884     0.11034    -0.01096     0.01047    -0.19653    -0.13352
 PX  C  19   0.10960    -0.01248    -0.00549     0.00796    -0.08437    -0.06271
 PY  C  19  -0.02222     0.07017    -0.00500     0.00269    -0.01104     0.00392
 PZ  C  19   0.00938     0.01815    -0.00220     0.00189    -0.01524    -0.00783
  
  S  C  20  -0.18724     0.14680    -0.00682     0.00216    -0.07024    -0.02804
 PX  C  20   0.02973     0.00816    -0.00362     0.00480    -0.06516    -0.05146
 PY  C  20   0.06864    -0.02990     0.00004     0.00119     0.00551     0.00040
 PZ  C  20   0.02387    -0.00741    -0.00050     0.00102    -0.00777    -0.00726
  
  S  C  21  -0.21163     0.11719    -0.00049    -0.00542     0.05117     0.06282
 PX  C  21  -0.06041     0.03559    -0.00099    -0.00024    -0.01601    -0.00741
 PY  C  21   0.05202    -0.01470    -0.00138     0.00258    -0.03578    -0.02748
 PZ  C  21   0.00619     0.00090    -0.00054     0.00070    -0.01252    -0.00892
  
  S  C  22  -0.20310     0.07848     0.00338    -0.00862     0.12185     0.10175
 PX  C  22  -0.06896     0.01947     0.00132    -0.00251     0.02454     0.01707
 PY  C  22  -0.03281     0.03006    -0.00129     0.00011    -0.01408    -0.00097
 PZ  C  22  -0.01927     0.01138    -0.00018    -0.00033    -0.00051     0.00217
  
  S  C  23  -0.14619    -0.01970     0.00894    -0.01024     0.15077     0.09050
 PX  C  23   0.02572    -0.05472     0.00300    -0.00065     0.00008    -0.01644
 PY  C  23  -0.08130     0.04668    -0.00063    -0.00145     0.00299     0.01056
 PZ  C  23  -0.01955     0.00550     0.00025    -0.00051     0.00084     0.00066
  
  S  C  24  -0.04218    -0.10587     0.00852    -0.00414     0.01529    -0.02383
 PX  C  24   0.12348    -0.07905    -0.00013     0.00453    -0.07497    -0.06280
 PY  C  24  -0.06354     0.09906    -0.00752     0.00509    -0.10663    -0.05644
 PZ  C  24  -0.00047     0.01701    -0.00217     0.00210    -0.04130    -0.02512
  
  S  C  25   0.18119    -0.30254     0.01834    -0.00829     0.09514     0.02626
 PX  C  25   0.02735     0.01736    -0.00153     0.00011    -0.01230     0.01521
 PY  C  25  -0.00053     0.05669    -0.00687     0.00636    -0.12067    -0.07139
 PZ  C  25   0.00374     0.01874    -0.00217     0.00181    -0.03650    -0.01818
  
  S  C  26   0.13135     0.05888    -0.00857     0.00536    -0.10641    -0.01048
 PX  C  26  -0.03532     0.09825    -0.00173    -0.00527     0.04952     0.08260
 PY  C  26  -0.03399     0.16668    -0.01422     0.01005    -0.07518    -0.03827
 PZ  C  26  -0.01492     0.06163    -0.00426     0.00203    -0.01463     0.00113
  
  S  C  27   0.02261     0.10819     0.00509    -0.01934    -0.05256     0.10026
 PX  C  27  -0.06010    -0.03395     0.01124    -0.01405    -0.01029     0.00673
 PY  C  27  -0.02777     0.09973    -0.00398    -0.00103    -0.00813     0.01354
 PZ  C  27  -0.01669     0.02345     0.00067    -0.00263    -0.00541     0.00529
  
  S  C  28  -0.13046     0.08113     0.02157    -0.03700     0.05236     0.09325
 PX  C  28  -0.07758    -0.18913     0.03053    -0.03115    -0.04091    -0.01997
 PY  C  28  -0.03281     0.00618    -0.00589     0.01235     0.14019    -0.01243
 PZ  C  28  -0.01971    -0.02623     0.00291    -0.00131     0.03103    -0.00589
  
  S  N  29  -0.21518    -0.25569     0.06772    -0.08136    -0.18924    -0.01496
 PX  N  29   0.04196    -0.03053    -0.00142     0.00251    -0.14915    -0.04981
 PY  N  29  -0.00847    -0.01271    -0.01020     0.02024     0.12874    -0.02238
 PZ  N  29   0.00249    -0.00772    -0.00235     0.00478     0.01409    -0.00912
  
  S  C  30  -0.01119    -0.07422     0.02554    -0.03646    -0.22874    -0.01996
 PX  C  30   0.07881     0.07943    -0.02490     0.03225     0.08481    -0.01429
 PY  C  30  -0.06896    -0.09769     0.02025    -0.02262    -0.10645    -0.03011
 PZ  C  30  -0.00953    -0.01036     0.00316    -0.00419    -0.00873     0.00569
  
  S  C  31   0.05811     0.04503    -0.00202    -0.00327    -0.03048     0.02871
 PX  C  31   0.04925     0.05018    -0.01371     0.01714     0.06092    -0.00204
 PY  C  31  -0.02517    -0.04076     0.01249    -0.01682    -0.09192    -0.00779
 PZ  C  31  -0.01557    -0.01182     0.00142    -0.00075     0.00530    -0.00128
  
  S  C  32   0.10771     0.11656    -0.02528     0.02878     0.14252     0.02945
 PX  C  32   0.01339     0.01706    -0.00555     0.00775     0.04321    -0.00313
 PY  C  32   0.03464     0.03187    -0.00622     0.00636     0.01306     0.00403
 PZ  C  32  -0.02153    -0.02277     0.00546    -0.00659    -0.02928    -0.00106
  
  S  C  33   0.11770     0.12987    -0.03121     0.03788     0.18949     0.01606
 PX  C  33  -0.03049    -0.03090     0.00652    -0.00717    -0.02701    -0.00656
 PY  C  33   0.03248     0.03078    -0.00737     0.00869     0.02387    -0.00282
 PZ  C  33   0.00354     0.00424    -0.00062     0.00048     0.00486     0.00438
  
  S  C  34   0.11200     0.11106    -0.02793     0.03417     0.12693    -0.00687
 PX  C  34  -0.03349    -0.02819     0.00634    -0.00701    -0.00866     0.00244
 PY  C  34  -0.01258    -0.02177     0.00465    -0.00565    -0.05254    -0.01156
 PZ  C  34   0.02418     0.02405    -0.00559     0.00653     0.02542     0.00227
  
  S  C  35   0.07120     0.02932    -0.00863     0.00970    -0.05876    -0.03702
 PX  C  35   0.02298     0.04196    -0.01158     0.01526     0.08727     0.00727
 PY  C  35  -0.04620    -0.05810     0.01181    -0.01327    -0.06854    -0.01226
 PZ  C  35   0.00895    -0.00238     0.00071    -0.00137    -0.02622    -0.00498
  
  S  C  36   0.11921    -0.23496     0.01673    -0.00999     0.15495     0.07359
 PX  C  36   0.00926     0.00318    -0.00023    -0.00023    -0.00628     0.00461
 PY  C  36   0.03511    -0.05248     0.00290    -0.00108     0.00431    -0.00206
 PZ  C  36  -0.02976     0.06256    -0.00446     0.00260    -0.04023    -0.01777
  
  S  C  37   0.11932    -0.23500     0.01670    -0.00992     0.15523     0.07333
 PX  C  37  -0.00147     0.02333    -0.00161     0.00056    -0.01676    -0.00005
 PY  C  37   0.01365    -0.01215     0.00014     0.00048    -0.01686    -0.01147
 PZ  C  37   0.04490    -0.07733     0.00507    -0.00273     0.03325     0.01454
  
  S  C  38   0.00749    -0.00818    -0.13714    -0.04325    -0.00521     0.00289
 PX  C  38  -0.00335    -0.01649    -0.35092    -0.22742    -0.03912     0.14143
 PY  C  38   0.05947     0.03568     0.19836    -0.09165    -0.00739     0.05778
 PZ  C  38  -0.00021     0.00036     0.00955     0.00648     0.00138    -0.00478
  
  S  O  39   0.01188    -0.02037    -0.50393    -0.32857    -0.06040     0.20999
 PX  O  39  -0.00840     0.00374     0.13473     0.09883     0.01483    -0.05208
 PY  O  39   0.01301     0.01031     0.08959     0.00422     0.00093     0.00520
 PZ  O  39   0.00018    -0.00014    -0.00417    -0.00294    -0.00039     0.00139
  
  S  O  40   0.08897     0.05911     0.51932     0.06039     0.03598    -0.09216
 PX  O  40   0.02514     0.01391     0.07759    -0.03258     0.00269     0.00199
 PY  O  40   0.00300     0.00250    -0.01068    -0.04483    -0.00002     0.01147
 PZ  O  40  -0.00081    -0.00045    -0.00262     0.00080    -0.00002    -0.00023
  
  S  H  41  -0.05313    -0.02476    -0.10729     0.05274     0.03064    -0.10937
  
  S  H  42  -0.06501    -0.01390     0.00851     0.02594     0.01018    -0.00325
  
  S  H  43  -0.01622     0.01076     0.03819    -0.05838    -0.00763     0.05073
  
  S  H  44   0.06971     0.01231    -0.00778     0.00649    -0.06789    -0.00594
  
  S  H  45   0.04635    -0.02348    -0.01232     0.02022    -0.08444    -0.05144
  
  S  H  46   0.05743     0.04170    -0.00406    -0.00111     0.04156     0.03797
  
  S  H  47   0.00009     0.10750    -0.01343     0.01313     0.01003    -0.01492
  
  S  H  48  -0.05189     0.05913    -0.00399     0.00249    -0.03779    -0.01909
  
  S  H  49  -0.06155     0.03767    -0.00030    -0.00167     0.01896     0.02396
  
  S  H  50  -0.05837     0.02274     0.00122    -0.00294     0.04914     0.04071
  
  S  H  51  -0.02934    -0.03250     0.00467    -0.00432     0.07511     0.04162
  
  S  H  52   0.01343    -0.00556     0.00735    -0.01266    -0.02343     0.04612
  
  S  H  53   0.00455     0.00123     0.00454    -0.00829    -0.03148     0.01741
  
  S  H  54   0.03065     0.03548    -0.00775     0.00896     0.05292     0.01233
  
  S  H  55   0.03417     0.04033    -0.01002     0.01252     0.07261     0.00624
  
  S  H  56   0.03238     0.03327    -0.00888     0.01125     0.04594    -0.00388
  
  S  H  57   0.01466    -0.01017    -0.00032     0.00101    -0.04983    -0.02425
  
  S  H  58   0.04543    -0.08610     0.00595    -0.00341     0.05153     0.02352
  
  S  H  59   0.04344    -0.10311     0.00773    -0.00477     0.08275     0.03794
  
  S  H  60   0.05184    -0.09506     0.00715    -0.00482     0.06860     0.03924
  
  S  H  61   0.05187    -0.09510     0.00713    -0.00478     0.06885     0.03912
  
  S  H  62   0.04348    -0.10314     0.00772    -0.00475     0.08284     0.03784
  
  S  H  63   0.04551    -0.08609     0.00593    -0.00337     0.05166     0.02335
  
  S  H  64   0.04125     0.02616     0.19682    -0.01239     0.01211    -0.02210




    ROOT NO.   13          14          15          16          17          18

           -35.80296   -34.14781   -33.25764   -32.71082   -32.55165   -31.69029
  
  
  S  N   1  -0.15780     0.08699    -0.03434     0.01139     0.01859     0.02524
 PX  N   1  -0.05665     0.02428    -0.00807     0.00200     0.00341     0.00302
 PY  N   1   0.00027    -0.00646     0.00467    -0.00310    -0.00453    -0.01026
 PZ  N   1  -0.00046     0.00166    -0.00100     0.00071     0.00095     0.00204
  
  S  C   2  -0.05590    -0.02214     0.01931    -0.01159    -0.01725    -0.03384
 PX  C   2   0.12822    -0.11320     0.05284    -0.02175    -0.03393    -0.05395
 PY  C   2  -0.00124    -0.01721     0.01314    -0.00837    -0.01257    -0.02833
 PZ  C   2  -0.00080     0.00331    -0.00201     0.00138     0.00187     0.00398
  
  S  C   3   0.13155    -0.18786     0.09510    -0.04340    -0.06556    -0.10842
 PX  C   3   0.02502    -0.01696     0.00600    -0.00242    -0.00299    -0.00209
 PY  C   3  -0.02515    -0.01401     0.01951    -0.01327    -0.02146    -0.05399
 PZ  C   3  -0.00082     0.00362    -0.00226     0.00146     0.00205     0.00435
  
  S  C   4   0.12915    -0.07285     0.01324    -0.00142     0.00226     0.02869
 PX  C   4  -0.02416     0.01257    -0.00244    -0.00143    -0.00154    -0.00870
 PY  C   4   0.03346    -0.10160     0.06133    -0.02923    -0.04587    -0.08160
 PZ  C   4  -0.00062     0.00550    -0.00351     0.00251     0.00339     0.00751
  
  S  C   5  -0.00012     0.14800    -0.09244     0.04267     0.06696     0.11040
 PX  C   5   0.02970    -0.04171     0.01637    -0.01229    -0.01343    -0.02303
 PY  C   5   0.06874    -0.06624     0.01823    -0.00033     0.00040     0.03088
 PZ  C   5  -0.00873     0.02307    -0.01215     0.00981     0.01204     0.02589
  
  S  C   6  -0.07707     0.18051    -0.08772     0.05465     0.06982     0.12126
 PX  C   6  -0.00029     0.04044    -0.02457     0.00611     0.01266     0.01172
 PY  C   6   0.04000    -0.01073    -0.00995     0.00366     0.01082     0.02953
 PZ  C   6   0.00989    -0.02672     0.01271    -0.00370    -0.00613    -0.00285
  
  S  C   7  -0.06865    -0.01739     0.03522     0.00467    -0.01199    -0.00028
 PX  C   7  -0.01301     0.01023    -0.00030    -0.01086    -0.01209    -0.03696
 PY  C   7  -0.04349     0.14251    -0.07194     0.02959     0.04361     0.05138
 PZ  C   7  -0.00040     0.03608    -0.02176     0.01074     0.01599     0.02629
  
  S  C   8   0.02537    -0.19738     0.11374    -0.07772    -0.10326    -0.17865
 PX  C   8   0.01906     0.04362    -0.02844    -0.02124    -0.01075    -0.06562
 PY  C   8  -0.07984     0.16612    -0.06904     0.03555     0.04523     0.03940
 PZ  C   8  -0.02707     0.03225    -0.00843     0.01135     0.01022     0.01774
  
  S  S   9  -0.00687     0.04046    -0.01879    -0.02640    -0.01989    -0.08874
 PX  S   9   0.01966    -0.02150     0.00541     0.00584     0.00613     0.02687
 PY  S   9  -0.01513     0.07081    -0.04255     0.03759     0.04652     0.09717
 PZ  S   9  -0.01494     0.03575    -0.01608     0.00131     0.00443    -0.00643
  
  S  C  10   0.13994    -0.26238     0.09247    -0.06325    -0.07705    -0.06020
 PX  C  10   0.03653     0.11396    -0.05397    -0.05866    -0.03766    -0.17943
 PY  C  10  -0.00415    -0.11500     0.08209    -0.04524    -0.06091    -0.12537
 PZ  C  10   0.00355    -0.02109     0.01814    -0.02010    -0.02255    -0.05669
  
  S  C  11   0.15392     0.14067    -0.07790    -0.08784    -0.03960    -0.24058
 PX  C  11  -0.02389     0.06047    -0.00386    -0.00210     0.00810    -0.05804
 PY  C  11   0.01050    -0.17255     0.06865    -0.03056    -0.05111    -0.04143
 PZ  C  11  -0.00097    -0.03854     0.01703    -0.00811    -0.01217    -0.01873
  
  S  C  12   0.06639     0.36961    -0.09857    -0.01423     0.04320    -0.14236
 PX  C  12   0.01753    -0.03407     0.03597    -0.01382    -0.00318    -0.06018
 PY  C  12   0.05192     0.00951    -0.05672    -0.02583    -0.01299    -0.03525
 PZ  C  12   0.01697    -0.00554    -0.01692    -0.00946    -0.00397    -0.02062
  
  S  C  13  -0.11897     0.19374    -0.06727    -0.00381    -0.03785    -0.01484
 PX  C  13   0.09944     0.13428     0.02355     0.01793     0.07069    -0.05917
 PY  C  13   0.03542     0.07421    -0.07142     0.02908     0.04773     0.10066
 PZ  C  13   0.02497     0.03588    -0.02921     0.01076     0.02502     0.01580
  
  S  C  14  -0.17681    -0.04656    -0.02093     0.09681     0.06891     0.21674
 PX  C  14   0.01230     0.07510    -0.07605    -0.03799    -0.06975     0.02886
 PY  C  14   0.07626    -0.04963     0.02605     0.07372     0.09462     0.16806
 PZ  C  14   0.02244    -0.00429    -0.00638     0.01485     0.01642     0.04900
  
  S  C  15  -0.00235    -0.24931     0.08698     0.11481     0.09898     0.31843
 PX  C  15   0.04866    -0.01079    -0.02290    -0.03168    -0.03985     0.00230
 PY  C  15   0.06194    -0.08950     0.05653    -0.05471    -0.06197    -0.09354
 PZ  C  15   0.02369    -0.02890     0.01327    -0.01956    -0.02318    -0.02513
  
  S  C  16  -0.07498     0.00321     0.08285     0.03565     0.11689    -0.11149
 PX  C  16  -0.08688    -0.04945    -0.08413    -0.06659    -0.16012     0.08126
 PY  C  16  -0.09705    -0.04032     0.02837     0.09460     0.08662     0.05526
 PZ  C  16  -0.03817    -0.01936    -0.00696     0.01678     0.00203     0.02598
  
  S  C  17  -0.05343     0.03516     0.16062     0.16599     0.28099    -0.24776
 PX  C  17   0.04362     0.01913     0.02831    -0.02665     0.04132     0.01456
 PY  C  17  -0.02945    -0.03687     0.00036     0.04200     0.00561     0.03019
 PZ  C  17  -0.00159    -0.00765     0.00352     0.00792     0.00775     0.01011
  
  S  C  18  -0.15647    -0.00886     0.02308     0.00527     0.07264    -0.07342
 PX  C  18   0.15895     0.08713     0.04931    -0.02261     0.06228    -0.02467
 PY  C  18   0.01721     0.01635     0.07051     0.13308     0.10283    -0.16438
 PZ  C  18   0.02807     0.01685     0.02620     0.03430     0.03795    -0.04959
  
  S  C  19  -0.24020    -0.10416    -0.06121     0.05129    -0.08237    -0.00123
 PX  C  19  -0.10988    -0.02428     0.00063    -0.07712     0.05168     0.00529
 PY  C  19   0.03107     0.01815     0.01705     0.20225    -0.05195    -0.08368
 PZ  C  19  -0.00677     0.00161     0.00462     0.04661    -0.00736    -0.02288
  
  S  C  20  -0.01985    -0.02052    -0.03836     0.36826    -0.23242    -0.05636
 PX  C  20  -0.10429    -0.04332    -0.00449    -0.03220     0.04425    -0.03346
 PY  C  20  -0.00063     0.00677     0.01243     0.02811     0.00912    -0.02234
 PZ  C  20  -0.01512    -0.00430     0.00282     0.00337     0.00895    -0.01111
  
  S  C  21   0.16015     0.06529    -0.00786     0.24623    -0.18046     0.02465
 PX  C  21  -0.01168    -0.01466    -0.01575     0.07169    -0.05517    -0.01232
 PY  C  21  -0.05294    -0.02264    -0.01322     0.10261    -0.06452    -0.02498
 PZ  C  21  -0.01680    -0.00858    -0.00606     0.03960    -0.02635    -0.00889
  
  S  C  22   0.21246     0.09363     0.04214    -0.10634     0.08659     0.04130
 PX  C  22   0.02552     0.00258     0.00401    -0.06006     0.03907     0.00026
 PY  C  22   0.01447     0.00545    -0.01906     0.13925    -0.11730     0.01592
 PZ  C  22   0.00779     0.00191    -0.00491     0.03118    -0.02788     0.00461
  
  S  C  23   0.12883     0.04570     0.06673    -0.31708     0.27442    -0.02681
 PX  C  23  -0.06338    -0.03549    -0.00385    -0.02561     0.02018    -0.02618
 PY  C  23   0.03066     0.00807    -0.00989    -0.02103    -0.01639     0.03495
 PZ  C  23  -0.00031    -0.00285    -0.00357    -0.00967    -0.00162     0.00633
  
  S  C  24  -0.11490    -0.06340    -0.00526    -0.25969     0.13580     0.01769
 PX  C  24  -0.12557    -0.04366    -0.03189     0.05615    -0.08472     0.03108
 PY  C  24  -0.07314    -0.03367    -0.04996     0.01483    -0.09193     0.06572
 PZ  C  24  -0.03880    -0.01609    -0.01947     0.01235    -0.03791     0.02354
  
  S  C  25  -0.01670    -0.00678     0.01153     0.05101    -0.01806    -0.00851
 PX  C  25   0.07558     0.03552    -0.02045     0.10097    -0.10655     0.06200
 PY  C  25  -0.10587    -0.04022    -0.05426    -0.15134    -0.03043     0.12636
 PZ  C  25  -0.01911    -0.00719    -0.02058    -0.02857    -0.02198     0.04590
  
  S  C  26   0.10658     0.06138    -0.06094    -0.07175    -0.13283     0.20159
 PX  C  26   0.22613     0.07717    -0.00062     0.02747    -0.03748     0.03430
 PY  C  26  -0.03802     0.00706     0.01736    -0.07532     0.06595    -0.04190
 PZ  C  26   0.02232     0.01219     0.00297    -0.01719     0.01486    -0.00666
  
  S  C  27   0.36956     0.06786    -0.09626    -0.04753    -0.16291     0.22118
 PX  C  27  -0.00914    -0.06590    -0.01624    -0.00487     0.03122    -0.03764
 PY  C  27   0.04650     0.01838     0.00933    -0.06660     0.00360    -0.02157
 PZ  C  27   0.01412    -0.00783    -0.00571    -0.01785     0.01035    -0.01155
  
  S  C  28   0.16445    -0.03377    -0.06400    -0.11962    -0.13640     0.00154
 PX  C  28  -0.09463    -0.10727    -0.02810     0.00549    -0.04487    -0.02309
 PY  C  28  -0.17400     0.00105     0.03806    -0.01072     0.00006    -0.11776
 PZ  C  28  -0.05965    -0.02117    -0.00418     0.00132     0.00103    -0.03689
  
  S  N  29   0.00322    -0.09422     0.03359    -0.01478    -0.03443    -0.06350
 PX  N  29   0.02732     0.06554     0.10586     0.08789     0.14721     0.01929
 PY  N  29  -0.14709     0.08396    -0.00782    -0.05658    -0.11726    -0.07524
 PZ  N  29  -0.02815     0.01265    -0.02623     0.00199     0.00216    -0.02250
  
  S  C  30   0.10191    -0.06622     0.11312     0.12563     0.23170     0.08244
 PX  C  30  -0.06787     0.09240     0.10735    -0.01003    -0.02526     0.01987
 PY  C  30  -0.00544     0.05517     0.14397    -0.00854    -0.03171    -0.01362
 PZ  C  30   0.01658    -0.04599    -0.10976     0.01527     0.04149    -0.02842
  
  S  C  31   0.08868    -0.17083    -0.30587     0.10696     0.23867    -0.01033
 PX  C  31  -0.04410     0.01029    -0.03032    -0.00813    -0.00303    -0.03065
 PY  C  31   0.04067    -0.00548     0.11534     0.03295     0.05019     0.06138
 PZ  C  31  -0.00662     0.00318    -0.02543    -0.00797    -0.01184    -0.02004
  
  S  C  32  -0.03019    -0.09935    -0.37766    -0.01090     0.02711    -0.14129
 PX  C  32  -0.04059     0.04395     0.05254    -0.05434    -0.10980    -0.02529
 PY  C  32   0.00318    -0.01755    -0.01731     0.02108     0.04409     0.01861
 PZ  C  32   0.01844    -0.01603    -0.02187     0.02183     0.04492     0.00333
  
  S  C  33  -0.09889     0.03282    -0.09103    -0.12082    -0.22311    -0.10400
 PX  C  33   0.00157     0.03264     0.09716    -0.01711    -0.04766     0.02504
 PY  C  33  -0.02059     0.03774     0.10508    -0.01360    -0.03872     0.04234
 PZ  C  33   0.00702    -0.03316    -0.09819     0.01537     0.04354    -0.03292
  
  S  C  34  -0.09982     0.14156     0.27980    -0.10748    -0.24223     0.05582
 PX  C  34   0.00739    -0.01057    -0.04068    -0.01499    -0.02721    -0.02413
 PY  C  34   0.01613     0.02825     0.11893     0.03430     0.05431     0.06115
 PZ  C  34  -0.01160    -0.00299    -0.02759    -0.00557    -0.00602    -0.01490
  
  S  C  35  -0.02838     0.13956     0.39708     0.01932    -0.00255     0.12577
 PX  C  35  -0.04122     0.04183     0.02909    -0.05772    -0.11654     0.00032
 PY  C  35   0.02321     0.00528    -0.00630     0.02029     0.04149    -0.01817
 PZ  C  35   0.00926    -0.00987    -0.01154     0.02503     0.05229    -0.00268
  
  S  C  36   0.07699     0.03059     0.05227     0.19451     0.00501    -0.12849
 PX  C  36   0.02566     0.01016    -0.01114     0.03994    -0.04444     0.02786
 PY  C  36  -0.01156    -0.00556    -0.00824    -0.01876    -0.01083     0.02922
 PZ  C  36  -0.01486    -0.00564    -0.01390    -0.03094    -0.00797     0.02701
  
  S  C  37   0.07604     0.03266     0.05798     0.19352    -0.00099    -0.13035
 PX  C  37   0.02162     0.00903    -0.01319     0.03164    -0.04445     0.03170
 PY  C  37  -0.01976    -0.00813    -0.01265    -0.03528    -0.01077     0.03663
 PZ  C  37   0.01270     0.00423     0.00375     0.02576    -0.01032     0.00074
  
  S  C  38   0.01393    -0.04989     0.03269    -0.01730    -0.02713    -0.05571
 PX  C  38  -0.06736     0.07645    -0.03889     0.01858     0.02812     0.05084
 PY  C  38  -0.05276     0.09650    -0.05333     0.02596     0.03956     0.07143
 PZ  C  38   0.00209    -0.00196     0.00092    -0.00037    -0.00058    -0.00090
  
  S  O  39  -0.09170     0.08321    -0.03713     0.01645     0.02411     0.03785
 PX  O  39   0.02271    -0.01853     0.00742    -0.00304    -0.00430    -0.00551
 PY  O  39  -0.00981     0.02344    -0.01374     0.00695     0.01062     0.01997
 PZ  O  39  -0.00063     0.00057    -0.00025     0.00012     0.00017     0.00028
  
  S  O  40   0.01413     0.02637    -0.01934     0.01036     0.01631     0.03314
 PX  O  40  -0.01007     0.02381    -0.01353     0.00673     0.01024     0.01879
 PY  O  40  -0.01574     0.04068    -0.02633     0.01417     0.02224     0.04736
 PZ  O  40   0.00033    -0.00067     0.00037    -0.00017    -0.00027    -0.00047
  
  S  H  41   0.04809    -0.03042     0.00681    -0.00250    -0.00136     0.00565
  
  S  H  42  -0.02491     0.06455    -0.03435     0.02478     0.03162     0.06402
  
  S  H  43  -0.01781    -0.04368     0.03227     0.00342    -0.00679     0.01246
  
  S  H  44   0.06595     0.04614    -0.01948    -0.05349    -0.03140    -0.16006
  
  S  H  45   0.02684     0.16442    -0.00483    -0.00469     0.02531    -0.08465
  
  S  H  46  -0.00908    -0.14054     0.07146     0.05925     0.05414     0.12590
  
  S  H  47  -0.05066    -0.00876     0.07272     0.11612     0.12875    -0.10623
  
  S  H  48  -0.02183    -0.01076    -0.00986     0.19516    -0.09901    -0.04803
  
  S  H  49   0.06397     0.02971    -0.00207     0.12649    -0.08807     0.00843
  
  S  H  50   0.08695     0.04296     0.02211    -0.04848     0.04521     0.01697
  
  S  H  51   0.05425     0.02229     0.04015    -0.13528     0.14177    -0.03458
  
  S  H  52   0.16095     0.00521    -0.06036     0.01867    -0.06732     0.10781
  
  S  H  53   0.06303    -0.08627    -0.15606     0.04910     0.10475     0.00081
  
  S  H  54  -0.00878    -0.04660    -0.18384    -0.00610     0.01092    -0.07502
  
  S  H  55  -0.03977     0.01507    -0.04400    -0.06063    -0.11347    -0.05637
  
  S  H  56  -0.04026     0.06725     0.13580    -0.05420    -0.12321     0.02616
  
  S  H  57  -0.00870     0.08294     0.19384     0.00797    -0.00331     0.04943
  
  S  H  58   0.02240     0.00885     0.01641     0.06539     0.00125    -0.04301
  
  S  H  59   0.03496     0.01416     0.03602     0.08391     0.03084    -0.08986
  
  S  H  60   0.05790     0.02191     0.01943     0.11881    -0.01964    -0.05120
  
  S  H  61   0.05740     0.02316     0.02257     0.11826    -0.02270    -0.05201
  
  S  H  62   0.03460     0.01493     0.03828     0.08350     0.02839    -0.09069
  
  S  H  63   0.02182     0.01006     0.01968     0.06485    -0.00222    -0.04403
  
  S  H  64  -0.00707     0.03664    -0.02371     0.01254     0.01959     0.04021




    ROOT NO.   19          20          21          22          23          24

           -31.23385   -30.72174   -29.67427   -29.27656   -28.13117   -27.61552
  
  
  S  N   1  -0.00042    -0.11436     0.04019     0.00731     0.04445    -0.03645
 PX  N   1  -0.00006    -0.02010     0.00717    -0.00178     0.00966     0.00124
 PY  N   1   0.00012     0.01602     0.00107    -0.01420     0.03081     0.02420
 PZ  N   1  -0.00002     0.00063    -0.00232     0.00279    -0.00903    -0.00256
  
  S  C   2   0.00041     0.07959    -0.01855    -0.02587     0.00496     0.05067
 PX  C   2   0.00076     0.17624    -0.05183    -0.02761    -0.03332     0.06882
 PY  C   2   0.00034     0.05818    -0.00477    -0.03689     0.06806     0.06655
 PZ  C   2  -0.00003     0.00053    -0.00416     0.00519    -0.01657    -0.00457
  
  S  C   3   0.00134     0.25867    -0.04930    -0.05907     0.02869     0.06983
 PX  C   3  -0.00004    -0.03355     0.02422     0.00510     0.03947    -0.05566
 PY  C   3   0.00078     0.17224    -0.04169    -0.07808     0.09843     0.17871
 PZ  C   3  -0.00004    -0.00134    -0.00379     0.00575    -0.01795    -0.00564
  
  S  C   4  -0.00067    -0.21965     0.08876     0.06012     0.01914    -0.18880
 PX  C   4   0.00004    -0.02012     0.02427    -0.02204     0.09315     0.01192
 PY  C   4   0.00110     0.23386    -0.05190    -0.04097    -0.00233     0.01964
 PZ  C   4  -0.00006     0.00294    -0.00945     0.01116    -0.03738    -0.01056
  
  S  C   5  -0.00144    -0.29170     0.05575     0.02767     0.03201     0.04611
 PX  C   5  -0.00006    -0.12331     0.07969    -0.02637     0.15323    -0.01773
 PY  C   5  -0.00049    -0.11241     0.02903     0.08916    -0.12561    -0.19373
 PZ  C   5  -0.00013     0.04306    -0.04367     0.03700    -0.12541    -0.03028
  
  S  C   6  -0.00067     0.12970    -0.14545     0.09432    -0.31444    -0.00785
 PX  C   6  -0.00030    -0.10512     0.03645    -0.03024     0.08798     0.07819
 PY  C   6  -0.00060    -0.16248     0.03300     0.03494    -0.07181    -0.03359
 PZ  C   6   0.00007     0.03344    -0.01817     0.02588    -0.07730    -0.05887
  
  S  C   7   0.00076     0.31773    -0.08642     0.06906    -0.09878    -0.17073
 PX  C   7   0.00025    -0.01606     0.02708    -0.05901     0.10696     0.07609
 PY  C   7  -0.00033     0.04609    -0.07685    -0.01335    -0.08593     0.12515
 PZ  C   7  -0.00019     0.01845    -0.03931     0.02534    -0.10251    -0.01724
  
  S  C   8   0.00134     0.00210     0.10038    -0.08069     0.14468    -0.07464
 PX  C   8   0.00008    -0.13216     0.02781    -0.10420     0.03816     0.14422
 PY  C   8  -0.00003     0.09420    -0.03935    -0.06336     0.13355     0.16326
 PZ  C   8   0.00012     0.09958    -0.03566     0.02169    -0.02382    -0.04273
  
  S  S   9   0.00018    -0.21637     0.12107    -0.17391     0.33085     0.23511
 PX  S   9  -0.00020     0.00823    -0.02000     0.05446    -0.09972    -0.08125
 PY  S   9  -0.00079    -0.06428     0.00421     0.05125     0.03853     0.00625
 PZ  S   9  -0.00001    -0.02939     0.01409    -0.03554     0.06929     0.06259
  
  S  C  10   0.00000    -0.15285     0.04610     0.04491    -0.11120    -0.07291
 PX  C  10   0.00076    -0.07960    -0.02303    -0.14830    -0.10076     0.08745
 PY  C  10   0.00089    -0.01579     0.08379    -0.03827     0.05601    -0.12095
 PZ  C  10   0.00041     0.00405     0.01377    -0.01729    -0.01519    -0.05139
  
  S  C  11   0.00068    -0.12298    -0.08975    -0.13329    -0.23798     0.10178
 PX  C  11   0.00038     0.03003    -0.00977    -0.04285     0.00096    -0.00394
 PY  C  11   0.00021    -0.10649     0.05652    -0.03374    -0.05459    -0.00156
 PZ  C  11   0.00012    -0.01918     0.01157    -0.01067    -0.02054    -0.00882
  
  S  C  12   0.00057     0.12514    -0.03992     0.01122     0.07607    -0.06991
 PX  C  12   0.00028    -0.03731    -0.01951    -0.04421    -0.06677     0.00607
 PY  C  12  -0.00010    -0.07090    -0.09046    -0.07695    -0.15602     0.12011
 PZ  C  12   0.00010    -0.02396    -0.02876    -0.02504    -0.05623     0.03594
  
  S  C  13   0.00056     0.14082     0.10894     0.05105     0.18090    -0.14647
 PX  C  13  -0.00027     0.06070     0.00930     0.11015     0.08942    -0.05298
 PY  C  13  -0.00057     0.02044    -0.09996    -0.06489     0.00727     0.08148
 PZ  C  13   0.00034     0.01564    -0.02776     0.00058     0.01064     0.02217
  
  S  C  14  -0.00054     0.03847    -0.00598    -0.11232     0.06714     0.10407
 PX  C  14  -0.00004     0.03816     0.00913     0.05460     0.03935    -0.04033
 PY  C  14  -0.00160     0.00606    -0.03553     0.13556     0.05053     0.12020
 PZ  C  14   0.00033     0.00885    -0.00929     0.04553     0.01661     0.02629
  
  S  C  15  -0.00185    -0.00095    -0.00096     0.16855     0.06203     0.06027
 PX  C  15  -0.00008    -0.03027    -0.00586     0.02575    -0.03826    -0.02207
 PY  C  15   0.00038    -0.02558     0.04049     0.07129    -0.03806    -0.15213
 PZ  C  15   0.00032    -0.00360     0.00837     0.02798    -0.02147    -0.05674
  
  S  C  16   0.00065    -0.03193    -0.02390    -0.17302    -0.05292    -0.03896
 PX  C  16   0.00019    -0.01152    -0.01786    -0.11895    -0.03161    -0.02103
 PY  C  16  -0.00135     0.01941     0.03758    -0.01442     0.03570     0.10005
 PZ  C  16   0.00308     0.00391     0.00703    -0.02076     0.00349     0.02607
  
  S  C  17  -0.00048    -0.01571     0.03563     0.12931    -0.01335     0.07313
 PX  C  17  -0.00075     0.00129    -0.00982    -0.10882    -0.00039    -0.05234
 PY  C  17  -0.00192    -0.01035    -0.03082    -0.03085     0.01078     0.05183
 PZ  C  17   0.00687    -0.00269    -0.01032    -0.02417     0.00251     0.00705
  
  S  C  18  -0.00026     0.02197     0.13362     0.11254    -0.05655     0.06382
 PX  C  18  -0.00419     0.02967     0.05524     0.01127     0.02449    -0.07219
 PY  C  18  -0.00841    -0.03817    -0.08574     0.11068     0.02463     0.02539
 PZ  C  18   0.02915    -0.00659    -0.01677     0.03253     0.01040    -0.00318
  
  S  C  19   0.00015    -0.05352    -0.17377     0.00800     0.04657     0.00546
 PX  C  19  -0.00453     0.02738     0.16574     0.02853    -0.10661     0.10010
 PY  C  19  -0.00808    -0.01569    -0.04292     0.07706     0.03567     0.00798
 PZ  C  19   0.02960    -0.00057     0.01154     0.02597    -0.00511     0.01656
  
  S  C  20   0.00113    -0.04778    -0.17653    -0.01059     0.07943    -0.07718
 PX  C  20  -0.00124    -0.03554    -0.12984     0.06268     0.06169     0.01554
 PY  C  20  -0.00188     0.00640     0.04783     0.01661    -0.03089     0.02229
 PZ  C  20   0.00690    -0.00328    -0.00498     0.01369     0.00004     0.00856
  
  S  C  21   0.00079     0.05696     0.25298    -0.07720    -0.13922     0.03455
 PX  C  21  -0.00016    -0.03454    -0.16962    -0.00799     0.10024    -0.08418
 PY  C  21  -0.00040    -0.02517    -0.08427    -0.01520     0.02265    -0.04265
 PZ  C  21   0.00314    -0.01216    -0.04846    -0.00550     0.02088    -0.02430
  
  S  C  22  -0.00061     0.08699     0.33422     0.03431    -0.12526     0.13026
 PX  C  22  -0.00118    -0.01878    -0.12123     0.00973     0.08760    -0.06346
 PY  C  22  -0.00147     0.01474     0.08451    -0.06250    -0.06866     0.00548
 PZ  C  22   0.00706     0.00150     0.00673    -0.01645    -0.00702    -0.00758
  
  S  C  23  -0.00100    -0.00591    -0.08614     0.09671     0.08882    -0.02190
 PX  C  23  -0.00422    -0.04762    -0.18441    -0.02567     0.05534    -0.07828
 PY  C  23  -0.00894     0.01091     0.01631    -0.02146     0.00932    -0.00638
 PZ  C  23   0.03076    -0.00376    -0.02175    -0.00974     0.01065    -0.01311
  
  S  C  24  -0.00031    -0.04752    -0.18446    -0.04155     0.03944    -0.05480
 PX  C  24  -0.01272     0.01537     0.13096    -0.06329    -0.11633     0.06371
 PY  C  24  -0.02624     0.00405    -0.00592    -0.03646     0.01358     0.00316
 PZ  C  24   0.09156     0.00325     0.01730    -0.01929    -0.01273     0.00996
  
  S  C  25   0.00069     0.00596     0.06765    -0.05024    -0.05355     0.01754
 PX  C  25  -0.04403     0.04333     0.10282    -0.00596     0.03215     0.00823
 PY  C  25  -0.08861     0.03151     0.08939    -0.07194    -0.03331     0.01746
 PZ  C  25   0.30786     0.01481     0.04090    -0.02069    -0.00472     0.00598
  
  S  C  26   0.00054     0.09365     0.18323    -0.04601     0.05170    -0.04048
 PX  C  26  -0.01324     0.00250    -0.12748     0.04210     0.13852    -0.07780
 PY  C  26  -0.02650    -0.00198     0.01353     0.03719    -0.03136    -0.01764
 PZ  C  26   0.09125    -0.00037    -0.01499     0.01635     0.01062    -0.01548
  
  S  C  27  -0.00026     0.01426    -0.16457     0.03258     0.15087    -0.00369
 PX  C  27  -0.00518    -0.06441    -0.13326     0.03165    -0.06741     0.10089
 PY  C  27  -0.00889    -0.01903    -0.04504     0.00482    -0.02910    -0.03653
 PZ  C  27   0.03171    -0.01473    -0.03351     0.00380    -0.02029     0.00779
  
  S  C  28   0.00049    -0.09028    -0.19604    -0.02605    -0.09076     0.01703
 PX  C  28  -0.00145    -0.04368     0.01549     0.06051    -0.09518     0.13298
 PY  C  28  -0.00119     0.00043     0.09791    -0.11840    -0.06285    -0.10288
 PZ  C  28   0.00765    -0.00583     0.02789    -0.02606    -0.03576    -0.00028
  
  S  N  29  -0.00062    -0.03342     0.06737     0.21115    -0.03446     0.08566
 PX  N  29  -0.00085     0.07682     0.11787     0.09152     0.14373    -0.05452
 PY  N  29   0.00107     0.06081     0.11613    -0.05135     0.07968    -0.22369
 PZ  N  29   0.00155     0.02629     0.04019    -0.00161     0.02653    -0.03770
  
  S  C  30  -0.00195    -0.00697     0.00836    -0.07908    -0.01826     0.05145
 PX  C  30   0.00095     0.02407     0.02559    -0.15769     0.03374    -0.17149
 PY  C  30   0.00050     0.01017     0.06154     0.17686     0.06906    -0.00148
 PZ  C  30  -0.00030     0.01166     0.00920     0.02041    -0.00915     0.03948
  
  S  C  31  -0.00260     0.03065    -0.00602    -0.19679    -0.04123    -0.02358
 PX  C  31  -0.00175     0.02106     0.04380    -0.04063     0.01907    -0.09442
 PY  C  31   0.00037    -0.03129    -0.04079    -0.01377    -0.04579     0.11145
 PZ  C  31   0.00060     0.00950     0.01356     0.02692     0.01462    -0.01382
  
  S  C  32  -0.00366     0.06632     0.09769     0.07803     0.07616    -0.12825
 PX  C  32   0.00050    -0.01084     0.01323     0.16941     0.02424     0.06289
 PY  C  32  -0.00040    -0.00133    -0.01577    -0.11385    -0.03332    -0.01658
 PZ  C  32  -0.00017     0.00875     0.00440    -0.04761     0.00208    -0.03393
  
  S  C  33   0.00040    -0.00608     0.02966     0.34567     0.03952     0.13760
 PX  C  33   0.00159    -0.02384    -0.03131     0.06465    -0.01818     0.09638
 PY  C  33   0.00139    -0.02532    -0.04337    -0.07516    -0.04636     0.02424
 PZ  C  33  -0.00148     0.02498     0.03750    -0.00447     0.03081    -0.06647
  
  S  C  34   0.00470    -0.06782    -0.08886     0.05856    -0.06227     0.12152
 PX  C  34   0.00025    -0.00209    -0.00057     0.10904     0.00412     0.07610
 PY  C  34   0.00079    -0.00397    -0.02105    -0.17730    -0.01270    -0.10174
 PZ  C  34  -0.00045     0.00587     0.01278     0.01485     0.00730    -0.00546
  
  S  C  35   0.00267    -0.02340    -0.02937    -0.19569     0.00178    -0.12454
 PX  C  35   0.00215    -0.02330    -0.04750     0.00119    -0.03447     0.02650
 PY  C  35  -0.00046     0.02576     0.03809     0.05210     0.05309    -0.03892
 PZ  C  35  -0.00084     0.01465     0.02422    -0.01784     0.01391    -0.02037
  
  S  C  36   0.50228    -0.02555    -0.03110     0.04966    -0.00767     0.00116
 PX  C  36  -0.01428     0.01564     0.03449    -0.00589     0.01534     0.00558
 PY  C  36   0.01724     0.00976     0.03313    -0.03013    -0.01188     0.00447
 PZ  C  36   0.06765     0.00607     0.00914    -0.00431     0.00306     0.00109
  
  S  C  37  -0.50191    -0.02413    -0.03268     0.04692    -0.00842     0.00217
 PX  C  37  -0.00259     0.01589     0.03315    -0.00427     0.01666     0.00511
 PY  C  37  -0.05094     0.01045     0.03037    -0.02759    -0.00968     0.00385
 PZ  C  37   0.05029     0.00410     0.01915    -0.01335    -0.00453     0.00261
  
  S  C  38   0.00076     0.16338    -0.03761    -0.06033     0.06759     0.13058
 PX  C  38  -0.00065    -0.12561     0.02391     0.04530    -0.05529    -0.08900
 PY  C  38  -0.00090    -0.17334     0.02986     0.05300    -0.05936    -0.06814
 PZ  C  38   0.00001     0.00382    -0.00145    -0.00026    -0.00189     0.00117
  
  S  O  39  -0.00042    -0.06585     0.00304     0.02197    -0.04177    -0.01509
 PX  O  39   0.00005     0.00473     0.00137    -0.00022     0.00059    -0.00616
 PY  O  39  -0.00025    -0.04705     0.00659     0.01658    -0.02547    -0.01896
 PZ  O  39  -0.00000    -0.00009    -0.00022     0.00027    -0.00091    -0.00023
  
  S  O  40  -0.00046    -0.10141     0.02620     0.03305    -0.02367    -0.07724
 PX  O  40  -0.00024    -0.04534     0.00781     0.01449    -0.01613    -0.01889
 PY  O  40  -0.00066    -0.14642     0.03756     0.06067    -0.06885    -0.16062
 PZ  O  40   0.00001     0.00163    -0.00051    -0.00025    -0.00039     0.00054
  
  S  H  41  -0.00026    -0.10900     0.05533     0.01365     0.06664    -0.08201
  
  S  H  42  -0.00040     0.05696    -0.07927     0.07670    -0.23724    -0.06231
  
  S  H  43   0.00029     0.15710    -0.04370     0.07336    -0.09810    -0.15911
  
  S  H  44   0.00060    -0.07921    -0.03034    -0.10153    -0.13091     0.05102
  
  S  H  45   0.00049     0.06285    -0.00355     0.00182     0.05042    -0.07041
  
  S  H  46  -0.00075     0.01402     0.01234     0.09448     0.03802    -0.00781
  
  S  H  47  -0.00033    -0.01378    -0.00036     0.07772     0.00323     0.07794
  
  S  H  48   0.00056    -0.02420    -0.07391     0.01555     0.02850    -0.02062
  
  S  H  49   0.00044     0.03346     0.16678    -0.04067    -0.10523     0.03849
  
  S  H  50  -0.00031     0.04971     0.21309     0.02475    -0.09654     0.09978
  
  S  H  51  -0.00039    -0.00512    -0.03388     0.06531     0.03209     0.00170
  
  S  H  52  -0.00099     0.00111    -0.09167     0.01908     0.07244     0.04637
  
  S  H  53   0.00087     0.00971    -0.02182    -0.06660    -0.01967     0.02201
  
  S  H  54  -0.00163     0.03613     0.05588     0.06997     0.05369    -0.06971
  
  S  H  55   0.00032    -0.00327     0.01814     0.22730     0.03012     0.10124
  
  S  H  56   0.00261    -0.03617    -0.04995     0.05849    -0.03245     0.08917
  
  S  H  57   0.00145    -0.00026    -0.00328    -0.06348     0.02676    -0.08064
  
  S  H  58   0.28133    -0.00866    -0.00745     0.01601    -0.00613     0.00128
  
  S  H  59   0.22371    -0.02415    -0.04769     0.04162    -0.00373    -0.00486
  
  S  H  60   0.22334    -0.00621    -0.00883     0.03009     0.01221     0.00270
  
  S  H  61  -0.22321    -0.00564    -0.00957     0.02918     0.01204     0.00306
  
  S  H  62  -0.22377    -0.02352    -0.04852     0.04023    -0.00418    -0.00423
  
  S  H  63  -0.28142    -0.00785    -0.00823     0.01450    -0.00652     0.00180
  
  S  H  64  -0.00055    -0.12009     0.02972     0.04580    -0.04815    -0.11309




    ROOT NO.   25          26          27          28          29          30

           -26.98181   -26.12995   -25.85507   -24.87596   -24.73048   -24.50540
  
  
  S  N   1   0.00536     0.10993     0.01478    -0.03945     0.06991     0.06179
 PX  N   1   0.00001    -0.00160    -0.00197     0.00396    -0.00970    -0.00979
 PY  N   1  -0.00087     0.01565    -0.01001    -0.01624     0.00765     0.00893
 PZ  N   1  -0.00012    -0.00768     0.00108     0.00249    -0.00141    -0.00074
  
  S  C   2  -0.00526    -0.09807    -0.01961     0.04559    -0.08527    -0.07927
 PX  C   2  -0.00817    -0.15393    -0.02471     0.05988    -0.10724    -0.09667
 PY  C   2  -0.00293     0.02451    -0.02565    -0.03792     0.01694     0.02169
 PZ  C   2  -0.00025    -0.01449     0.00175     0.00471    -0.00316    -0.00192
  
  S  C   3  -0.00397    -0.02978    -0.00277     0.02016    -0.00986    -0.01368
 PX  C   3   0.00870     0.18814     0.03757    -0.06967     0.15154     0.13417
 PY  C   3  -0.01155    -0.04011    -0.07028    -0.06921     0.00818     0.02984
 PZ  C   3  -0.00029    -0.01720     0.00191     0.00660    -0.00553    -0.00423
  
  S  C   4   0.01814     0.23216     0.06711    -0.03149     0.10177     0.07559
 PX  C   4   0.00435     0.15957     0.00107    -0.08399     0.11029     0.10317
 PY  C   4   0.00105     0.04948     0.03719     0.00820     0.07738     0.05825
 PZ  C   4  -0.00067    -0.03449     0.00385     0.01311    -0.01062    -0.00834
  
  S  C   5  -0.00639    -0.08389    -0.06244    -0.01831    -0.07419    -0.05018
 PX  C   5   0.00784     0.16835    -0.00022    -0.05291     0.04412     0.03561
 PY  C   5   0.01145     0.02804     0.05722     0.04233    -0.01759    -0.02619
 PZ  C   5  -0.00200    -0.08709     0.01324     0.02738    -0.01183    -0.00715
  
  S  C   6  -0.00913    -0.20672     0.00640     0.02041     0.00529     0.02209
 PX  C   6  -0.00668    -0.05187    -0.04611     0.00061    -0.05497    -0.04454
 PY  C   6  -0.00331    -0.16513    -0.00886     0.06164    -0.09716    -0.07798
 PZ  C   6   0.00366     0.00513     0.03170     0.00653     0.03000     0.02656
  
  S  C   7   0.01470     0.24310     0.06825    -0.03540     0.09659     0.06248
 PX  C   7  -0.00890    -0.01618    -0.02596     0.01343    -0.01810    -0.02327
 PY  C   7  -0.01082    -0.11959    -0.02145    -0.02077     0.04247     0.05330
 PZ  C   7   0.00142    -0.01982     0.02163    -0.01014     0.04144     0.04195
  
  S  C   8  -0.00317     0.04789     0.03819     0.08125    -0.02474    -0.05153
 PX  C   8  -0.00644    -0.15159     0.00799     0.03335     0.01232     0.02192
 PY  C   8   0.00402     0.08170    -0.02877    -0.05567     0.03277     0.03361
 PZ  C   8   0.00685     0.10811     0.01933    -0.02492     0.03615     0.02246
  
  S  S   9  -0.00566    -0.01546    -0.05127    -0.02074    -0.01310     0.00188
 PX  S   9   0.00722     0.01577     0.02542    -0.00639     0.01238     0.01467
 PY  S   9  -0.00254     0.07909    -0.05928    -0.07566    -0.00442     0.00299
 PZ  S   9  -0.00237     0.00740    -0.01828    -0.01628     0.00426     0.00601
  
  S  C  10  -0.05438    -0.15340    -0.06250     0.04480     0.01225    -0.01700
 PX  C  10   0.00886    -0.09064     0.09907     0.04649     0.09768     0.07927
 PY  C  10   0.03544     0.00555     0.08801     0.07408    -0.07415    -0.05816
 PZ  C  10   0.01306     0.02380     0.04557     0.02310     0.00115    -0.00329
  
  S  C  11   0.07881    -0.02385     0.14497    -0.06513     0.04880     0.09724
 PX  C  11   0.10042     0.08925     0.13344    -0.05797    -0.08257     0.00462
 PY  C  11  -0.03056    -0.17602     0.03331     0.06153     0.04768     0.04338
 PZ  C  11   0.00810    -0.02122     0.03168     0.00860     0.00315     0.01072
  
  S  C  12   0.11187     0.18785     0.03869    -0.02681    -0.12665    -0.09224
 PX  C  12   0.11292     0.04187     0.12967    -0.10223    -0.10104     0.01672
 PY  C  12   0.00428     0.03278     0.03939    -0.08260     0.06382     0.07998
 PZ  C  12   0.01830     0.02607     0.03146    -0.02559     0.00796     0.01611
  
  S  C  13  -0.13260    -0.02261    -0.07800     0.17659     0.02537    -0.05677
 PX  C  13   0.11413     0.04086    -0.02703     0.00434    -0.08661    -0.08607
 PY  C  13  -0.04647     0.09013    -0.07219    -0.03125     0.06493     0.00113
 PZ  C  13   0.00053     0.05017    -0.02474     0.02375     0.01073    -0.03072
  
  S  C  14   0.00544    -0.00680     0.10330     0.00801     0.06280     0.05712
 PX  C  14  -0.20929    -0.01027    -0.18696     0.05710     0.07888     0.00279
 PY  C  14   0.05442     0.00018    -0.05524    -0.07860    -0.03396     0.01625
 PZ  C  14  -0.01540     0.00812    -0.04058    -0.00339     0.00405    -0.00105
  
  S  C  15   0.05981    -0.00408    -0.04560    -0.11428    -0.10799    -0.01643
 PX  C  15  -0.12183    -0.05442    -0.14495     0.03170     0.08222    -0.00500
 PY  C  15  -0.01053     0.00464    -0.04773     0.00320    -0.08053    -0.07007
 PZ  C  15  -0.01982     0.00956    -0.03047     0.00687    -0.00634    -0.02065
  
  S  C  16   0.20515     0.00124     0.09603    -0.01238     0.01562    -0.07510
 PX  C  16  -0.11473     0.01013     0.04026    -0.06313     0.02034     0.05108
 PY  C  16   0.09361    -0.00411     0.21248     0.07129    -0.03052     0.06207
 PZ  C  16   0.00798     0.00684     0.06302     0.02055    -0.00581     0.01816
  
  S  C  17   0.03903     0.01470     0.04924     0.11551    -0.05313     0.03174
 PX  C  17   0.23548    -0.02288     0.02155    -0.00628     0.02236    -0.11306
 PY  C  17   0.10334     0.01619     0.16777     0.04002    -0.06644     0.05242
 PZ  C  17   0.06191     0.00295     0.04898     0.01304    -0.01525    -0.00366
  
  S  C  18  -0.22389     0.02732    -0.08454    -0.04290     0.02023     0.01611
 PX  C  18   0.09505    -0.05704    -0.13200     0.08388     0.05766    -0.03612
 PY  C  18  -0.10174     0.01239     0.01049     0.03857    -0.03357     0.05565
 PZ  C  18  -0.01525    -0.00371    -0.01617     0.02436    -0.00145     0.00921
  
  S  C  19  -0.12325     0.00977     0.14495    -0.12876    -0.00290    -0.11752
 PX  C  19  -0.10667     0.07395    -0.05347    -0.04737    -0.04020     0.08810
 PY  C  19  -0.17705    -0.01625     0.04806     0.03286     0.00467     0.15491
 PZ  C  19  -0.06573     0.00609     0.00602     0.00283    -0.00435     0.05647
  
  S  C  20   0.01285    -0.04806    -0.03007     0.09523     0.02124     0.18234
 PX  C  20  -0.18950    -0.00825     0.17739    -0.06936    -0.00331    -0.01720
 PY  C  20  -0.01514     0.02012    -0.08835     0.07402    -0.02485     0.22514
 PZ  C  20  -0.03148     0.00458     0.00020     0.01124    -0.00753     0.06171
  
  S  C  21   0.17138     0.05720    -0.21443     0.01731    -0.02719     0.01444
 PX  C  21   0.03893    -0.06986     0.04586     0.05521     0.04738    -0.02597
 PY  C  21   0.07843    -0.01001    -0.13244     0.10011    -0.00361     0.18721
 PZ  C  21   0.02802    -0.01291    -0.03126     0.03655     0.00580     0.04973
  
  S  C  22  -0.17161     0.05554     0.12470    -0.09835    -0.02403    -0.03833
 PX  C  22   0.02121    -0.06236     0.05249     0.04326     0.04388    -0.07071
 PY  C  22   0.14587     0.03672    -0.11668    -0.04053    -0.01650    -0.13256
 PZ  C  22   0.04477     0.00150    -0.02580    -0.00540     0.00163    -0.04807
  
  S  C  23  -0.11838    -0.04852     0.02696     0.11141     0.01705     0.19849
 PX  C  23   0.17936    -0.01247    -0.16845     0.05792    -0.00449    -0.01396
 PY  C  23   0.02093    -0.01678     0.09875    -0.05765     0.02045    -0.20591
 PZ  C  23   0.03178    -0.00670     0.00410    -0.00830     0.00534    -0.06089
  
  S  C  24   0.20062     0.00898    -0.12963     0.03444    -0.02688    -0.02098
 PX  C  24   0.06865     0.07348    -0.06187    -0.04358    -0.04938     0.04388
 PY  C  24  -0.03356    -0.01271     0.17074    -0.11841     0.02593    -0.24082
 PZ  C  24   0.00033     0.00670     0.04006    -0.04027     0.00061    -0.06263
  
  S  C  25   0.12847     0.01773    -0.01958     0.09946    -0.04175     0.14016
 PX  C  25  -0.08867    -0.06216     0.25156     0.03669     0.03637    -0.03606
 PY  C  25   0.10209     0.00754     0.02166     0.03711    -0.01691     0.03564
 PZ  C  25   0.01671    -0.00727     0.04253     0.01557     0.00087     0.00498
  
  S  C  26   0.02108    -0.09626     0.11046     0.12213     0.05914     0.06253
 PX  C  26  -0.03772    -0.07161     0.04307     0.04049     0.02696     0.00572
 PY  C  26  -0.05191     0.01997    -0.21149    -0.09805     0.04345    -0.08779
 PZ  C  26  -0.02071    -0.00229    -0.05456    -0.01855     0.01482    -0.02661
  
  S  C  27  -0.02162    -0.01514     0.11101     0.02134    -0.05243     0.07991
[...]
    Config    1061  -0.04130745  0.00170631
    Config    1125  -0.04190895  0.00175636
    Config    1175   0.04120053  0.00169748
 Total coeff printed             0.71173164
  

 -------------------------------------------------------------------------------
 INDO CIS EPS=36.7 N**2=1.43
 Dye80
 Calculo de Estados Excitados


     1SCF WAS SPECIFIED, SO BFGS WAS NOT USED                 
     SCF FIELD WAS ACHIEVED                                   


                              INDO CALCULATION
                                                       MOPAC2016 (Version: 21.013L)
                                                       Thu Oct 21 12:47:31 2021
                                                       No. of days remaining =  84




          FINAL HEAT OF FORMATION =    -156971.23755 KCAL/MOL = -656767.65791 KJ/MOL
          VAN DER WAALS AREA      =        528.91 SQUARE ANGSTROMS


          TOTAL ENERGY            =      -7138.35982 EV
          ELECTRONIC ENERGY       =      -7197.45531 EV  POINT GROUP:     C1  
          CORE-CORE REPULSION     =         59.09549 EV

          DIELECTRIC ENERGY       =         -0.48739 EV
          COSMO AREA              =        528.91 SQUARE ANGSTROMS
          COSMO VOLUME            =        621.36 CUBIC ANGSTROMS

          IONIZATION POTENTIAL    =          7.108459 EV
          HOMO LUMO ENERGIES (EV) =         -7.108 -1.098
          NO. OF FILLED LEVELS    =         96
          MOLECULAR WEIGHT        =        536.6468

          MOLECULAR DIMENSIONS (Angstroms)

            Atom       Atom       Distance
            H    64    H    59    18.58252
            H    55    H    49    13.24719
            H    42    H    63     5.17926


          SCF CALCULATIONS        =          2
 
          WALL-CLOCK TIME         =  4 MINUTES AND 48.066 SECONDS
          COMPUTATION TIME        =  4 MINUTES AND 53.189 SECONDS




   ATOM   CHEMICAL          X               Y               Z
  NUMBER   SYMBOL      (ANGSTROMS)     (ANGSTROMS)     (ANGSTROMS)
 
     1       N          0.00000000  *   0.00000000  *   0.00000000  *
     2       C          1.15653340  *   0.00000000  *   0.00000000  *
     3       C          2.57319143  *   0.02061288  *   0.00000000  *
     4       C          3.32543085  *  -1.09807469  *  -0.00636837  *
     5       C          2.77714032  *  -2.42025287  *   0.04374842  *
     6       C          1.66473161  *  -2.83416067  *   0.72694081  *
     7       C          1.43160319  *  -4.23570429  *   0.56712099  *
     8       C          2.37476832  *  -4.82623478  *  -0.22764042  *
     9       S          3.54515965  *  -3.71141227  *  -0.78005986  *
    10       C          2.40483386  *  -6.21918755  *  -0.60520029  *
    11       C          3.62219260  *  -6.92006850  *  -0.60617081  *
    12       C          3.68657213  *  -8.25674513  *  -0.95703611  *
    13       C          2.49414507  *  -8.88063163  *  -1.31907138  *
    14       C          1.25418203  *  -8.18404570  *  -1.30500642  *
    15       C          1.21061497  *  -6.84726136  *  -0.94796645  *
    16       C          0.23351400  *  -9.12147037  *  -1.69702760  *
    17       C         -1.14324807  *  -8.98586270  *  -1.85808058  *
    18       C         -1.82949940  * -10.10716920  *  -2.26664774  *
    19       C         -3.24950827  * -10.28550876  *  -2.52083182  *
    20       C         -4.29499453  *  -9.39320462  *  -2.41615007  *
    21       C         -5.58003515  *  -9.84479144  *  -2.72946524  *
    22       C         -5.79689683  * -11.15353407  *  -3.13430125  *
    23       C         -4.73490959  * -12.05808298  *  -3.24030598  *
    24       C         -3.47037930  * -11.61520468  *  -2.93224245  *
    25       C         -2.17347933  * -12.38285425  *  -2.96623564  *
    26       C         -1.17495589  * -11.34041671  *  -2.52252473  *
    27       C          0.18014287  * -11.50055556  *  -2.37260976  *
    28       C          0.87657891  * -10.36441995  *  -1.94095361  *
    29       N          2.25805295  * -10.21027644  *  -1.70922299  *
    30       C          3.23835798  * -11.22545572  *  -1.83064176  *
    31       C          3.03803308  * -12.45481430  *  -1.19734129  *
    32       C          4.00280709  * -13.44461072  *  -1.32938030  *
    33       C          5.15587266  * -13.21092879  *  -2.06941594  *
    34       C          5.34785972  * -11.98206937  *  -2.68977902  *
    35       C          4.39080045  * -10.98185474  *  -2.58234836  *
    36       C         -2.20722084  * -13.54769687  *  -1.98785865  *
    37       C         -1.86346826  * -12.86016542  *  -4.37739285  *
    38       C          3.23065946  *   1.33386435  *  -0.02407381  *
    39       O          4.43492283  *   1.54447407  *  -0.05947501  *
    40       O          2.37506408  *   2.37537266  *  -0.00090251  *
    41       H          4.42341062  *  -1.02636188  *  -0.05847069  *
    42       H          1.03113557  *  -2.20592135  *   1.35051626  *
    43       H          0.59967620  *  -4.75241965  *   1.04012766  *
    44       H          4.54125140  *  -6.40274179  *  -0.31161304  *
    45       H          4.63282222  *  -8.80174780  *  -0.93560069  *
    46       H          0.25893928  *  -6.30887858  *  -0.94650441  *
    47       H         -1.64151048  *  -8.03312992  *  -1.66934610  *
    48       H         -4.12698601  *  -8.36197733  *  -2.09787680  *
    49       H         -6.42410014  *  -9.15291586  *  -2.65326438  *
    50       H         -6.81050150  * -11.48696997  *  -3.37515976  *
    51       H         -4.91000206  * -13.08820695  *  -3.55996662  *
    52       H          0.68225468  * -12.44474624  *  -2.58895034  *
    53       H          2.14285996  * -12.63680895  *  -0.59397035  *
    54       H          3.85465292  * -14.41254036  *  -0.84047630  *
    55       H          5.91294454  * -13.99483110  *  -2.16368659  *
    56       H          6.25593033  * -11.80098680  *  -3.27328121  *
    57       H          4.53693137  * -10.02438432  *  -3.09247132  *
    58       H         -2.42714969  * -13.21732080  *  -0.96261214  *
    59       H         -2.97756464  * -14.28410958  *  -2.25793069  *
    60       H         -1.24685636  * -14.08155013  *  -1.95334585  *
    61       H         -0.89072718  * -13.36919360  *  -4.43361337  *
    62       H         -2.62106596  * -13.56773040  *  -4.74353067  *
    63       H         -1.83086518  * -12.02782780  *  -5.09493072  *
    64       H          2.85192022  *   3.21785134  *  -0.01996701  *

                             CARTESIAN COORDINATES

   1    N        0.000000000     0.000000000     0.000000000
   2    C        1.156533404     0.000000000     0.000000000
   3    C        2.573191426     0.020612882     0.000000000
   4    C        3.325430852    -1.098074694    -0.006368374
   5    C        2.777140322    -2.420252871     0.043748422
   6    C        1.664731610    -2.834160669     0.726940812
   7    C        1.431603191    -4.235704288     0.567120992
   8    C        2.374768317    -4.826234779    -0.227640416
   9    S        3.545159655    -3.711412270    -0.780059861
  10    C        2.404833856    -6.219187551    -0.605200292
  11    C        3.622192604    -6.920068498    -0.606170806
  12    C        3.686572131    -8.256745125    -0.957036115
  13    C        2.494145066    -8.880631627    -1.319071383
  14    C        1.254182029    -8.184045703    -1.305006416
  15    C        1.210614975    -6.847261364    -0.947966449
  16    C        0.233513999    -9.121470368    -1.697027599
  17    C       -1.143248072    -8.985862698    -1.858080580
  18    C       -1.829499395   -10.107169200    -2.266647744
  19    C       -3.249508266   -10.285508760    -2.520831817
  20    C       -4.294994531    -9.393204625    -2.416150070
  21    C       -5.580035145    -9.844791443    -2.729465238
  22    C       -5.796896825   -11.153534070    -3.134301248
  23    C       -4.734909591   -12.058082980    -3.240305980
  24    C       -3.470379304   -11.615204680    -2.932242448
  25    C       -2.173479328   -12.382854250    -2.966235636
  26    C       -1.174955890   -11.340416710    -2.522524729
  27    C        0.180142867   -11.500555560    -2.372609764
  28    C        0.876578906   -10.364419950    -1.940953610
  29    N        2.258052947   -10.210276440    -1.709222989
  30    C        3.238357980   -11.225455720    -1.830641763
  31    C        3.038033083   -12.454814300    -1.197341294
  32    C        4.002807087   -13.444610720    -1.329380298
  33    C        5.155872663   -13.210928790    -2.069415941
  34    C        5.347859715   -11.982069370    -2.689779020
  35    C        4.390800450   -10.981854740    -2.582348359
  36    C       -2.207220844   -13.547696870    -1.987858649
  37    C       -1.863468264   -12.860165420    -4.377392851
  38    C        3.230659462     1.333864354    -0.024073812
  39    O        4.434922832     1.544474067    -0.059475010
  40    O        2.375064079     2.375372663    -0.000902514
  41    H        4.423410623    -1.026361875    -0.058470691
  42    H        1.031135569    -2.205921353     1.350516259
  43    H        0.599676198    -4.752419651     1.040127664
  44    H        4.541251402    -6.402741790    -0.311613041
  45    H        4.632822224    -8.801747795    -0.935600685
  46    H        0.258939282    -6.308878577    -0.946504413
  47    H       -1.641510482    -8.033129916    -1.669346103
  48    H       -4.126986012    -8.361977326    -2.097876796
  49    H       -6.424100143    -9.152915861    -2.653264376
  50    H       -6.810501501   -11.486969970    -3.375159762
  51    H       -4.910002057   -13.088206950    -3.559966621
  52    H        0.682254678   -12.444746240    -2.588950343
  53    H        2.142859959   -12.636808950    -0.593970351
  54    H        3.854652922   -14.412540360    -0.840476301
  55    H        5.912944535   -13.994831100    -2.163686589
  56    H        6.255930328   -11.800986800    -3.273281207
  57    H        4.536931375   -10.024384320    -3.092471322
  58    H       -2.427149690   -13.217320800    -0.962612143
  59    H       -2.977564645   -14.284109580    -2.257930694
  60    H       -1.246856364   -14.081550130    -1.953345854
  61    H       -0.890727177   -13.369193600    -4.433613372
  62    H       -2.621065962   -13.567730400    -4.743530671
  63    H       -1.830865182   -12.027827800    -5.094930722
  64    H        2.851920216     3.217851341    -0.019967005


           Empirical Formula: C35 H24 N2 O2 S  =    64 atoms



      MOLECULAR POINT GROUP   :   C1  


                  EIGENVALUES  
 -48.79406 -47.18672 -46.82472 -44.05510 -43.46649 -42.54011 -41.76759 -40.34768
 -39.69646 -39.15677 -36.60653 -36.38862 -35.80296 -34.14781 -33.25764 -32.71082
 -32.55165 -31.69029 -31.23385 -30.72174 -29.67427 -29.27656 -28.13117 -27.61552
 -26.98181 -26.12995 -25.85507 -24.87596 -24.73048 -24.50540 -23.93060 -23.53360
 -23.00632 -22.24039 -21.94584 -21.67148 -20.62949 -20.21326 -19.94567 -19.52888
 -18.38333 -18.19048 -18.08625 -18.00216 -17.80953 -17.72790 -16.93069 -16.89660
 -16.63851 -16.57803 -16.35793 -16.27103 -15.97445 -15.88022 -15.73249 -15.50305
 -15.34085 -15.04622 -14.87562 -14.71823 -14.48909 -14.36136 -14.18036 -13.99787
 -13.88045 -13.71859 -13.51989 -13.32780 -13.25771 -13.15583 -13.00842 -12.94268
 -12.88405 -12.61736 -12.45375 -12.37286 -12.18606 -12.12463 -11.99609 -11.79991
 -11.61354 -11.45657 -11.36438 -11.26523 -10.87504 -10.30152  -9.98840  -9.89057
  -9.50752  -9.07044  -8.96961  -8.79760  -8.42587  -8.00639  -7.34860  -7.10846
  -1.09779   0.15882   0.22386   0.35555   0.73549   0.79718   0.84741   0.91698
   1.19388   1.46784   1.60369   1.67467   2.05622   2.15721   2.47201   2.64254
   2.65811   2.81503   2.91925   2.94569   2.97023   3.13827   3.24854   3.32912
   3.41914   3.59064   3.74055   3.77800   3.89165   4.04152   4.09931   4.11017
   4.27227   4.33925   4.44808   4.48113   4.52641   4.97421   5.06862   5.41953
   5.43943   5.52588   5.62109   5.78458   5.90670   6.12634   6.25392   6.32967
   6.40124   6.58602   6.66039   6.73630   6.97396   7.02396   7.21190   7.34405
   7.73059   8.13088   8.50558   8.58499   8.68513   8.86705   9.03331   9.08549
   9.22259   9.76147  10.01358  10.06459  10.23368  10.73235  10.76320  10.87306
  11.08017  11.19835  11.36888  11.68081  11.98118  12.19760  12.47109  12.58208
  12.81526  12.85120  13.16952  13.34560  13.65822  14.16185  14.80111  15.50115


              NET ATOMIC CHARGES AND DIPOLE CONTRIBUTIONS

  ATOM NO.   TYPE          CHARGE      No. of ELECS.   s-Pop       p-Pop       
    1          N          -0.409179        5.4092     1.75361     3.65556
    2          C           0.223569        3.7764     1.14914     2.62729
    3          C           0.013205        3.9868     0.99942     2.98737
    4          C           0.138388        3.8616     1.09479     2.76682
    5          C           0.007734        3.9923     1.06209     2.93018
    6          C           0.018813        3.9812     1.09645     2.88473
    7          C          -0.059758        4.0598     1.08217     2.97759
    8          C           0.072714        3.9273     1.08824     2.83904
    9          S          -0.041128        6.0411     1.77189     4.26924
   10          C           0.008448        3.9916     1.03751     2.95404
   11          C          -0.024244        4.0242     1.08185     2.94240
   12          C          -0.037942        4.0379     1.07889     2.95905
   13          C           0.073600        3.9264     1.04999     2.87641
   14          C          -0.016420        4.0164     1.05106     2.96536
   15          C          -0.022980        4.0230     1.08168     2.94130
   16          C          -0.030587        4.0306     1.04845     2.98214
   17          C          -0.021714        4.0217     1.08123     2.94048
   18          C          -0.025580        4.0256     1.04974     2.97584
   19          C          -0.005057        4.0051     1.05124     2.95381
   20          C          -0.029937        4.0299     1.08029     2.94965
   21          C          -0.037007        4.0370     1.07962     2.95739
   22          C          -0.030636        4.0306     1.08120     2.94944
   23          C          -0.037851        4.0379     1.07810     2.95975
   24          C           0.011002        3.9890     1.06941     2.91958
   25          C           0.046610        3.9534     0.99665     2.95674
   26          C           0.014594        3.9854     1.07344     2.91196
   27          C          -0.056525        4.0565     1.07608     2.98044
   28          C           0.073114        3.9269     1.05598     2.87090
   29          N          -0.130716        5.1307     1.22852     3.90220
   30          C           0.097299        3.9027     1.03914     2.86356
   31          C          -0.031220        4.0312     1.07922     2.95200
   32          C          -0.015939        4.0159     1.08089     2.93505
   33          C          -0.030744        4.0307     1.07702     2.95372
   34          C          -0.015947        4.0159     1.08090     2.93505
   35          C          -0.031209        4.0312     1.07920     2.95201
   36          C          -0.011796        4.0118     1.05648     2.95531
   37          C          -0.011825        4.0118     1.05651     2.95532
   38          C           0.502242        3.4978     1.04549     2.45227
   39          O          -0.619080        6.6191     1.81679     4.80229
   40          O          -0.310329        6.3103     1.68698     4.62335
   41          H           0.065517        0.9345     0.93448
   42          H           0.046370        0.9536     0.95363
   43          H           0.035172        0.9648     0.96483
   44          H           0.025575        0.9744     0.97442
   45          H           0.030689        0.9693     0.96931
   46          H           0.029811        0.9702     0.97019
   47          H           0.028342        0.9717     0.97166
   48          H           0.023626        0.9764     0.97637
   49          H           0.016813        0.9832     0.98319
   50          H           0.018199        0.9818     0.98180
   51          H           0.022344        0.9777     0.97766
   52          H           0.030235        0.9698     0.96976
   53          H           0.029045        0.9710     0.97095
   54          H           0.023813        0.9762     0.97619
   55          H           0.021761        0.9782     0.97824
   56          H           0.023798        0.9762     0.97620
   57          H           0.029410        0.9706     0.97059
   58          H           0.007446        0.9926     0.99255
   59          H           0.007170        0.9928     0.99283
   60          H           0.008012        0.9920     0.99199
   61          H           0.007783        0.9922     0.99222
   62          H           0.007342        0.9927     0.99266
   63          H           0.007080        0.9929     0.99292
   64          H           0.248663        0.7513     0.75134
 DIPOLE           X         Y         Z       TOTAL
 POINT-CHG.     1.722    -7.620    -0.072     7.812
 HYBRID         0.143     0.586     0.986     1.156
 SUM            1.865    -7.034     0.914     7.335


          ATOMIC ORBITAL ELECTRON POPULATIONS

     Atom    s        px        py        pz   
    1  N   1.75361   1.23162   1.23209   1.19185
    2  C   1.14914   0.95153   0.80440   0.87135
    3  C   0.99942   0.90352   0.92007   1.16379
    4  C   1.09479   0.98688   0.99690   0.78303
    5  C   1.06209   0.99695   0.90442   1.02881
    6  C   1.09645   0.94421   0.99026   0.95027
    7  C   1.08217   0.96836   0.97248   1.03675
    8  C   1.08824   0.94447   0.93768   0.95689
    9  S   1.77189   1.43727   1.16018   1.67178
   10  C   1.03751   0.98739   0.95223   1.01442
   11  C   1.08185   0.95288   0.98461   1.00491
   12  C   1.07889   0.94631   0.98202   1.03072
   13  C   1.04999   0.99313   0.89157   0.99171
   14  C   1.05106   0.98377   0.96076   1.02083
   15  C   1.08168   0.95089   0.97419   1.01622
   16  C   1.04845   0.95298   0.98158   1.04758
   17  C   1.08123   0.97974   0.95773   1.00301
   18  C   1.04974   0.96653   0.97631   1.03301
   19  C   1.05124   0.96328   0.98808   1.00246
   20  C   1.08029   0.99289   0.94959   1.00717
   21  C   1.07962   0.96432   0.97532   1.01775
   22  C   1.08120   0.95149   0.99282   1.00513
   23  C   1.07810   0.98798   0.94994   1.02184
   24  C   1.06941   0.96093   0.99558   0.96308
   25  C   0.99665   0.99150   0.98125   0.98398
   26  C   1.07344   0.97051   0.98853   0.95293
   27  C   1.07608   0.96850   0.94980   1.06214
   28  C   1.05598   0.88287   0.99471   0.99332
   29  N   1.22852   1.09827   1.12523   1.67870
   30  C   1.03914   0.93883   0.93591   0.98882
   31  C   1.07922   0.96961   0.98262   0.99977
   32  C   1.08089   0.99503   0.95772   0.98230
   33  C   1.07702   0.97393   0.97030   1.00949
   34  C   1.08090   0.96168   0.99615   0.97722
   35  C   1.07920   0.98881   0.96175   1.00145
   36  C   1.05648   0.99353   0.97605   0.98574
   37  C   1.05651   0.99236   0.98880   0.97415
   38  C   1.04549   0.87884   0.90800   0.66542
   39  O   1.81679   1.28119   1.95617   1.56493
   40  O   1.68698   1.52802   1.20797   1.88736
   41  H   0.93448
   42  H   0.95363
   43  H   0.96483
   44  H   0.97442
   45  H   0.96931
   46  H   0.97019
   47  H   0.97166
   48  H   0.97637
   49  H   0.98319
   50  H   0.98180
   51  H   0.97766
   52  H   0.96976
   53  H   0.97095
   54  H   0.97619
   55  H   0.97824
   56  H   0.97620
   57  H   0.97059
   58  H   0.99255
   59  H   0.99283
   60  H   0.99199
   61  H   0.99222
   62  H   0.99266
   63  H   0.99292
   64  H   0.75134

 **********************
 *                    *
 * JOB ENDED NORMALLY *
 *                    *
 **********************



 TOTAL JOB TIME:           288.33 SECONDS

 == MOPAC DONE ==
