 *******************************************************************************
 ** Site#: 4824         For non-commercial use only    Version 21.013L 64BITS **
 *******************************************************************************
 ** Cite this program as: MOPAC2016, Version: 21.013L, James J. P. Stewart,   **
 ** Stewart Computational Chemistry, web: HTTP://OpenMOPAC.net. Days left:  84**
 *******************************************************************************
 **                                                                           **
 **                                MOPAC2016                                  **
 **                                                                           **
 *******************************************************************************

                              INDO CALCULATION RESULTS

 *******************************************************************************
 *  CALCULATION DONE:                                Thu Oct 21 15:53:58 2021  *
 *  INDO       - The INDO Hamiltonian to be used
 *  CIS        - C.I. USES 1 ELECTRON EXCITATIONS ONLY
 *  EPS=  8.93 - USE ANDREAS KLAMT'S COSMO IMPLICIT SOLVATION MODEL
 *  n**2 =  1.420 for COSMO-CI
 *  T=         - A TIME OF 172800.0 SECONDS REQUESTED
 *  DUMP=N     - RESTART FILE WRITTEN EVERY 7200.0 SECONDS REQUESTED
 *******************************************************************************
INDO CIS EPS=8.93 N**2=1.42
 Dye75
 Calculo de Estados Excitados
   ATOM   CHEMICAL          X               Y               Z
  NUMBER   SYMBOL      (ANGSTROMS)     (ANGSTROMS)     (ANGSTROMS)
 
     1       C          0.00000000  *   0.00000000  *   0.00000000  *
     2       C          1.51999833  *   0.00000000  *   0.00000000  *
     3       C          2.06144934  *   1.42741614  *   0.00000000  *
     4       C          3.58833112  *   1.42840498  *  -0.00125243  *
     5       C          4.12843292  *   2.85675881  *   0.00068287  *
     6       C          5.65552638  *   2.85766004  *  -0.00221792  *
     7       C          6.19561342  *   4.28604681  *   0.00125447  *
     8       C          7.72270300  *   4.28685955  *  -0.00269889  *
     9       C          8.26276817  *   5.71523704  *   0.00051402  *
    10       C          9.78941817  *   5.71537424  *   0.00595556  *
    11       C         10.33442121  *   7.14338712  *  -0.01335125  *
    12       C         11.86030986  *   7.17142731  *   0.06219563  *
    13       C         12.41259677  *   7.54251827  *   1.44889839  *
    14       C         11.89415355  *   6.61979222  *   2.56285955  *
    15       C         11.19297777  *   7.31292073  *   3.73003119  *
    16       C          9.70289648  *   7.51680750  *   3.46625638  *
    17       C          9.05383594  *   8.31403586  *   4.59454215  *
    18       C          7.55681732  *   8.48414803  *   4.34525792  *
    19       C          6.91030014  *   9.29442415  *   5.46657721  *
    20       C          5.41273335  *   9.46172366  *   5.21897268  *
    21       C          4.76676115  *  10.27335707  *   6.33967947  *
    22       C          3.26914900  *  10.44060754  *   6.09253017  *
    23       C          2.62337155  *  11.25215733  *   7.21311083  *
    24       C          1.12602203  *  11.42040859  *   6.96747201  *
    25       C          0.48416451  *  12.22834032  *   8.08356387  *
    26       C         12.26833470  *   9.02327507  *   1.69522853  *
    27       C         11.22631407  *   9.94250769  *   1.88247076  *
    28       C         11.72044306  *  11.23557416  *   2.03298646  *
    29       S         13.42452761  *  11.30079726  *   1.94632565  *
    30       C         13.51685610  *   9.66404144  *   1.71602437  *
    31       C         14.53201372  *   8.68487090  *   1.52052933  *
    32       C         13.92067470  *   7.44797814  *   1.36933838  *
    33       C         14.85524666  *   6.40391764  *   1.17162130  *
    34       C         16.13536773  *   6.90256011  *   1.18586232  *
    35       S         16.20409650  *   8.60738779  *   1.42600942  *
    36       C         17.33545519  *   6.12297286  *   0.99993382  *
    37       C         18.45857334  *   6.35697213  *   1.80829151  *
    38       C         19.62368182  *   5.62361822  *   1.66027918  *
    39       C         19.64315114  *   4.63841502  *   0.67551810  *
    40       C         18.50449694  *   4.38822578  *  -0.13953336  *
    41       C         17.35040575  *   5.13407725  *   0.01916829  *
    42       C         18.85028232  *   3.30833204  *  -1.02879633  *
    43       C         18.14770215  *   2.64882212  *  -2.02394785  *
    44       C         18.77917991  *   1.61668105  *  -2.70177954  *
    45       C         20.09218042  *   1.24693830  *  -2.39312308  *
    46       C         20.81911411  *   1.89409736  *  -1.40585090  *
    47       C         20.18772775  *   2.93413269  *  -0.72898720  *
    48       N         20.69793481  *   3.79872598  *   0.26445953  *
    49       C         21.90409085  *   3.53091180  *   1.04251079  *
    50       C         21.67022697  *   2.44770820  *   2.10563178  *
    51       C         22.95434850  *   2.19782172  *   2.89027849  *
    52       C         22.73545676  *   1.12488046  *   3.94430294  *
    53       C         10.85547517  *  12.35105676  *   2.23903049  *
    54       C         11.24050621  *  13.63639008  *   2.39978362  *
    55       C         10.29088690  *  14.73698857  *   2.59605899  *
    56       O         10.51039328  *  15.93314298  *   2.49250589  *
    57       O          9.04371036  *  14.33135567  *   2.93286851  *
    58       C         12.59432399  *  14.05275431  *   2.38412581  *
    59       N         13.69237113  *  14.41780908  *   2.37594492  *
    60       H          9.78159458  *  12.10379707  *   2.25894026  *
    61       H         -0.41706622  *   0.50610484  *  -0.88259716  *
    62       H         -0.40933197  *  -1.02063077  *   0.00027449  *
    63       H         -0.41708897  *   0.50662878  *   0.88228177  *
    64       H          1.90223246  *  -0.56141898  *   0.87873920  *
    65       H          1.90220884  *  -0.56140387  *  -0.87876002  *
    66       H          1.67320132  *   1.98510378  *  -0.87838657  *
    67       H          1.67453461  *   1.98445110  *   0.87939118  *
    68       H          3.97498006  *   0.86852551  *   0.87648441  *
    69       H          3.97345435  *   0.87134068  *  -0.88144140  *
    70       H          3.74065521  *   3.41687777  *  -0.87639549  *
    71       H          3.74391776  *   3.41317136  *   0.88155292  *
    72       H          6.04322922  *   2.29654835  *   0.87426586  *
    73       H          6.03981852  *   2.30204279  *  -0.88368776  *
    74       H          5.80746786  *   4.84749291  *  -0.87481125  *
    75       H          5.81167317  *   4.84122047  *   0.88316928  *
    76       H          8.11128573  *   3.72583377  *   0.87345515  *
    77       H          8.10616899  *   3.73126273  *  -0.88455275  *
    78       H          7.87974869  *   6.27500002  *  -0.87878037  *
    79       H          7.87441431  *   6.27189518  *   0.88018869  *
    80       H         10.17582427  *   5.17996276  *   0.90434795  *
    81       H         10.17871194  *   5.13944951  *  -0.85969269  *
    82       H          9.99129046  *   7.66183165  *  -0.93400008  *
    83       H          9.88328178  *   7.73269079  *   0.81569974  *
    84       H         12.29216125  *   6.19542477  *  -0.24828074  *
    85       H         12.26160947  *   7.88865656  *  -0.68637117  *
    86       H         11.23088041  *   5.83166835  *   2.13657649  *
    87       H         12.74710735  *   6.03112513  *   2.96947182  *
    88       H         11.31842389  *   6.69779628  *   4.64884837  *
    89       H         11.69178884  *   8.26997278  *   3.98734416  *
    90       H          9.55138362  *   8.03035558  *   2.48593100  *
    91       H          9.19568090  *   6.53604156  *   3.34336332  *
    92       H          9.22841300  *   7.81317440  *   5.57018681  *
    93       H          9.54308559  *   9.30600515  *   4.69722240  *
    94       H          7.38226272  *   8.97528105  *   3.36450834  *
    95       H          7.06575840  *   7.49226246  *   4.25345763  *
    96       H          7.08680442  *   8.80414885  *   6.44731758  *
    97       H          7.39963090  *  10.28730012  *   5.55703847  *
    98       H          5.23614966  *   9.95071915  *   4.23760959  *
    99       H          4.92304419  *   8.46889480  *   5.13022263  *
   100       H          4.94344841  *   9.78455087  *   7.32112455  *
   101       H          5.25625317  *  11.26628703  *   6.42844887  *
   102       H          3.09217978  *  10.92951053  *   5.11118696  *
   103       H          2.77937118  *   9.44780659  *   6.00397069  *
   104       H          2.79860830  *  10.76411248  *   8.19516253  *
   105       H          3.11152406  *  12.24565325  *   7.30255463  *
   106       H          0.94490898  *  11.91095327  *   5.98765607  *
   107       H          0.63203135  *  10.42954297  *   6.88008206  *
   108       H          0.91524495  *  13.23619819  *   8.16989221  *
   109       H         -0.59582992  *  12.36052542  *   7.92427373  *
   110       H          0.60099649  *  11.74860188  *   9.06603983  *
   111       H         10.16929328  *   9.67620377  *   1.92545540  *
   112       H         14.58707818  *   5.35915932  *   1.04152666  *
   113       H         18.41285782  *   7.13103125  *   2.58153282  *
   114       H         20.48820191  *   5.81700176  *   2.29798584  *
   115       H         16.48263366  *   4.94853940  *  -0.61916230  *
   116       H         17.12211205  *   2.94164452  *  -2.26164105  *
   117       H         18.24465724  *   1.08064371  *  -3.49084904  *
   118       H         20.55708165  *   0.42441490  *  -2.94602132  *
   119       H         21.84289452  *   1.59503819  *  -1.17480286  *
   120       H         22.71942511  *   3.23429120  *   0.34202244  *
   121       H         22.25309350  *   4.48137762  *   1.50818226  *
   122       H         20.84685349  *   2.74638799  *   2.78828469  *
   123       H         21.31425844  *   1.50988473  *   1.62846483  *
   124       H         23.77824650  *   1.90024769  *   2.20726656  *
   125       H         23.30942981  *   3.13582801  *   3.36770097  *
   126       H         22.42723223  *   0.16514694  *   3.50495807  *
   127       H         23.65010687  *   0.92769832  *   4.52211416  *
   128       H         21.95859469  *   1.40551688  *   4.67014972  *
   129       H          8.45444762  *  15.08910318  *   3.05426805  *
 


          CARTESIAN COORDINATES 

    NO.       ATOM           X           Y           Z

     1         C          0.0000      0.0000      0.0000
     2         C          1.5200      0.0000      0.0000
     3         C          2.0614      1.4274      0.0000
     4         C          3.5883      1.4284     -0.0013
     5         C          4.1284      2.8568      0.0007
     6         C          5.6555      2.8577     -0.0022
     7         C          6.1956      4.2860      0.0013
     8         C          7.7227      4.2869     -0.0027
     9         C          8.2628      5.7152      0.0005
    10         C          9.7894      5.7154      0.0060
    11         C         10.3344      7.1434     -0.0134
    12         C         11.8603      7.1714      0.0622
    13         C         12.4126      7.5425      1.4489
    14         C         11.8942      6.6198      2.5629
    15         C         11.1930      7.3129      3.7300
    16         C          9.7029      7.5168      3.4663
    17         C          9.0538      8.3140      4.5945
    18         C          7.5568      8.4841      4.3453
    19         C          6.9103      9.2944      5.4666
    20         C          5.4127      9.4617      5.2190
    21         C          4.7668     10.2734      6.3397
    22         C          3.2691     10.4406      6.0925
    23         C          2.6234     11.2522      7.2131
    24         C          1.1260     11.4204      6.9675
    25         C          0.4842     12.2283      8.0836
    26         C         12.2683      9.0233      1.6952
    27         C         11.2263      9.9425      1.8825
    28         C         11.7204     11.2356      2.0330
    29         S         13.4245     11.3008      1.9463
    30         C         13.5169      9.6640      1.7160
    31         C         14.5320      8.6849      1.5205
    32         C         13.9207      7.4480      1.3693
    33         C         14.8552      6.4039      1.1716
    34         C         16.1354      6.9026      1.1859
    35         S         16.2041      8.6074      1.4260
    36         C         17.3355      6.1230      0.9999
    37         C         18.4586      6.3570      1.8083
    38         C         19.6237      5.6236      1.6603
    39         C         19.6432      4.6384      0.6755
    40         C         18.5045      4.3882     -0.1395
    41         C         17.3504      5.1341      0.0192
    42         C         18.8503      3.3083     -1.0288
    43         C         18.1477      2.6488     -2.0239
    44         C         18.7792      1.6167     -2.7018
    45         C         20.0922      1.2469     -2.3931
    46         C         20.8191      1.8941     -1.4059
    47         C         20.1877      2.9341     -0.7290
    48         N         20.6979      3.7987      0.2645
    49         C         21.9041      3.5309      1.0425
    50         C         21.6702      2.4477      2.1056
    51         C         22.9543      2.1978      2.8903
    52         C         22.7355      1.1249      3.9443
    53         C         10.8555     12.3511      2.2390
    54         C         11.2405     13.6364      2.3998
    55         C         10.2909     14.7370      2.5961
    56         O         10.5104     15.9331      2.4925
    57         O          9.0437     14.3314      2.9329
    58         C         12.5943     14.0528      2.3841
    59         N         13.6924     14.4178      2.3759
    60         H          9.7816     12.1038      2.2589
    61         H         -0.4171      0.5061     -0.8826
    62         H         -0.4093     -1.0206      0.0003
    63         H         -0.4171      0.5066      0.8823
    64         H          1.9022     -0.5614      0.8787
    65         H          1.9022     -0.5614     -0.8788
    66         H          1.6732      1.9851     -0.8784
    67         H          1.6745      1.9845      0.8794
    68         H          3.9750      0.8685      0.8765
    69         H          3.9735      0.8713     -0.8814
    70         H          3.7407      3.4169     -0.8764
    71         H          3.7439      3.4132      0.8816
    72         H          6.0432      2.2965      0.8743
    73         H          6.0398      2.3020     -0.8837
    74         H          5.8075      4.8475     -0.8748
    75         H          5.8117      4.8412      0.8832
    76         H          8.1113      3.7258      0.8735
    77         H          8.1062      3.7313     -0.8846
    78         H          7.8797      6.2750     -0.8788
    79         H          7.8744      6.2719      0.8802
    80         H         10.1758      5.1800      0.9043
    81         H         10.1787      5.1394     -0.8597
    82         H          9.9913      7.6618     -0.9340
    83         H          9.8833      7.7327      0.8157
    84         H         12.2922      6.1954     -0.2483
    85         H         12.2616      7.8887     -0.6864
    86         H         11.2309      5.8317      2.1366
    87         H         12.7471      6.0311      2.9695
    88         H         11.3184      6.6978      4.6488
    89         H         11.6918      8.2700      3.9873
    90         H          9.5514      8.0304      2.4859
    91         H          9.1957      6.5360      3.3434
    92         H          9.2284      7.8132      5.5702
    93         H          9.5431      9.3060      4.6972
    94         H          7.3823      8.9753      3.3645
    95         H          7.0658      7.4923      4.2535
    96         H          7.0868      8.8041      6.4473
    97         H          7.3996     10.2873      5.5570
    98         H          5.2361      9.9507      4.2376
    99         H          4.9230      8.4689      5.1302
   100         H          4.9434      9.7846      7.3211
   101         H          5.2563     11.2663      6.4284
   102         H          3.0922     10.9295      5.1112
   103         H          2.7794      9.4478      6.0040
   104         H          2.7986     10.7641      8.1952
   105         H          3.1115     12.2457      7.3026
   106         H          0.9449     11.9110      5.9877
   107         H          0.6320     10.4295      6.8801
   108         H          0.9152     13.2362      8.1699
   109         H         -0.5958     12.3605      7.9243
   110         H          0.6010     11.7486      9.0660
   111         H         10.1693      9.6762      1.9255
   112         H         14.5871      5.3592      1.0415
   113         H         18.4129      7.1310      2.5815
   114         H         20.4882      5.8170      2.2980
   115         H         16.4826      4.9485     -0.6192
   116         H         17.1221      2.9416     -2.2616
   117         H         18.2447      1.0806     -3.4908
   118         H         20.5571      0.4244     -2.9460
   119         H         21.8429      1.5950     -1.1748
   120         H         22.7194      3.2343      0.3420
   121         H         22.2531      4.4814      1.5082
   122         H         20.8469      2.7464      2.7883
   123         H         21.3143      1.5099      1.6285
   124         H         23.7782      1.9002      2.2073
   125         H         23.3094      3.1358      3.3677
   126         H         22.4272      0.1651      3.5050
   127         H         23.6501      0.9277      4.5221
   128         H         21.9586      1.4055      4.6701
   129         H          8.4544     15.0891      3.0543

           Empirical Formula: C53 H70 N2 O2 S2  =   129 atoms



      MOLECULAR POINT GROUP   :   C1  


      RHF CALCULATION, NO. OF DOUBLY OCCUPIED LEVELS = 158

 WARNING: INDO only performs single-point calculations

 Summary of symmetry occupancy in each shell:

 SHELL     
    1  158
    v  148
 TOTAL 306




    ROOT NO.    1           2           3           4           5           6

           -48.54914   -48.11969   -46.73323   -43.84334   -43.38898   -43.29402
  
  
  S  C   1   0.00001     0.00019    -0.00004    -0.02583     0.06473    -0.04345
 PX  C   1   0.00001     0.00008    -0.00002    -0.00989     0.02432    -0.01625
 PY  C   1   0.00000     0.00003    -0.00001    -0.00289     0.00692    -0.00460
 PZ  C   1   0.00000    -0.00000     0.00000     0.00000    -0.00000     0.00000
  
  S  C   2   0.00003     0.00043    -0.00008    -0.04661     0.11322    -0.07548
 PX  C   2   0.00001     0.00009    -0.00001    -0.00436     0.00887    -0.00566
 PY  C   2   0.00001     0.00014    -0.00002    -0.01235     0.02902    -0.01920
 PZ  C   2  -0.00000     0.00000    -0.00000     0.00000    -0.00001     0.00000
  
  S  C   3   0.00007     0.00089    -0.00015    -0.06857     0.15861    -0.10462
 PX  C   3   0.00002     0.00031    -0.00005    -0.01453     0.03010    -0.01934
 PY  C   3   0.00000     0.00005    -0.00000     0.00329    -0.01025     0.00715
 PZ  C   3   0.00000     0.00000    -0.00000     0.00001    -0.00002     0.00001
  
  S  C   4   0.00014     0.00177    -0.00027    -0.08977     0.19355    -0.12565
 PX  C   4   0.00003     0.00030    -0.00003     0.00004    -0.00628     0.00500
 PY  C   4   0.00004     0.00053    -0.00007    -0.01747     0.03369    -0.02127
 PZ  C   4   0.00000     0.00000    -0.00000    -0.00003     0.00006    -0.00004
  
  S  C   5   0.00029     0.00349    -0.00047    -0.11060     0.21720    -0.13792
 PX  C   5   0.00010     0.00118    -0.00014    -0.01805     0.02672    -0.01561
 PY  C   5   0.00002     0.00019    -0.00001     0.00905    -0.02415     0.01633
 PZ  C   5   0.00000     0.00001    -0.00000     0.00003    -0.00010     0.00007
  
  S  C   6   0.00058     0.00687    -0.00083    -0.13093     0.22815    -0.14060
 PX  C   6   0.00011     0.00116    -0.00011     0.00417    -0.01925     0.01378
 PY  C   6   0.00018     0.00204    -0.00023    -0.02263     0.03145    -0.01807
 PZ  C   6   0.00000     0.00004    -0.00000    -0.00014     0.00014    -0.00005
  
  S  C   7   0.00118     0.01351    -0.00145    -0.15079     0.22577    -0.13337
 PX  C   7   0.00041     0.00458    -0.00044    -0.02126     0.01724    -0.00769
 PY  C   7   0.00007     0.00073    -0.00003     0.01454    -0.03242     0.02106
 PZ  C   7   0.00002     0.00016    -0.00001    -0.00018    -0.00013     0.00026
  
  S  C   8   0.00240     0.02658    -0.00257    -0.16942     0.21035    -0.11764
 PX  C   8   0.00044     0.00458    -0.00034     0.00848    -0.02773     0.01840
 PY  C   8   0.00073     0.00789    -0.00069    -0.02739     0.02204    -0.01004
 PZ  C   8   0.00007     0.00074    -0.00005    -0.00108     0.00026     0.00033
  
  S  C   9   0.00474     0.05095    -0.00438    -0.18632     0.18212    -0.09387
 PX  C   9   0.00162     0.01685    -0.00130    -0.02212     0.00362     0.00077
 PY  C   9   0.00024     0.00225    -0.00003     0.02003    -0.03357     0.02021
 PZ  C   9   0.00029     0.00298    -0.00018    -0.00369     0.00032     0.00166
  
  S  C  10   0.00912     0.09477    -0.00754    -0.19172     0.14351    -0.07069
 PX  C  10   0.00149     0.01409    -0.00093     0.01841    -0.02985     0.01498
 PY  C  10   0.00239     0.02449    -0.00173    -0.02484     0.00626    -0.00210
 PZ  C  10   0.00102     0.01035    -0.00068    -0.00876     0.00071     0.00229
  
  S  C  11   0.01460     0.14843    -0.01053    -0.17023     0.08930    -0.04787
 PX  C  11   0.00388     0.03736    -0.00255     0.00392    -0.01338    -0.00003
 PY  C  11  -0.00046    -0.00521     0.00093     0.03224    -0.02956     0.01309
 PZ  C  11   0.00273     0.02749    -0.00162    -0.01775    -0.00027     0.00308
  
  S  C  12   0.02382     0.22999    -0.01590    -0.09115     0.03537    -0.04230
 PX  C  12   0.00214     0.01506    -0.00094     0.05174    -0.02214     0.00392
 PY  C  12   0.00255     0.02486    -0.00105     0.01426    -0.01632    -0.00105
 PZ  C  12   0.00758     0.07279    -0.00475    -0.00979    -0.00555    -0.00402
  
  S  C  13   0.04108     0.38778    -0.02468    -0.01937    -0.02563    -0.03440
 PX  C  13   0.00535     0.03964    -0.00280     0.07805    -0.01345    -0.00769
 PY  C  13   0.00509     0.04960    -0.00123     0.03478    -0.03528    -0.00879
 PZ  C  13   0.00027     0.00380     0.00021    -0.00425    -0.01100     0.01351
  
  S  C  14   0.02367     0.23013    -0.01549    -0.10985     0.00634     0.01747
 PX  C  14   0.00197     0.01396    -0.00116     0.04282    -0.00685    -0.01344
 PY  C  14   0.00621     0.06108    -0.00350    -0.01195    -0.01203     0.00314
 PZ  C  14  -0.00440    -0.04097     0.00304    -0.00383    -0.00641     0.01990
  
  S  C  15   0.01549     0.15733    -0.00929    -0.15194    -0.00487     0.07857
 PX  C  15   0.00108     0.00844    -0.00075     0.03633    -0.00527    -0.02975
 PY  C  15   0.00043     0.00467     0.00045    -0.00028    -0.00712     0.00585
 PZ  C  15  -0.00509    -0.05036     0.00313     0.02184     0.00058     0.00335
  
  S  C  16   0.01093     0.11472    -0.00604    -0.19454     0.00692     0.13742
 PX  C  16   0.00313     0.03148    -0.00193    -0.01015    -0.00350    -0.01386
 PY  C  16   0.00033     0.00371     0.00044    -0.01187    -0.00410     0.01979
 PZ  C  16  -0.00100    -0.00958     0.00048    -0.01197    -0.00284     0.03127
  
  S  C  17   0.00558     0.06047    -0.00262    -0.17925     0.00417     0.19820
 PX  C  17   0.00099     0.01005    -0.00048     0.01065    -0.00265    -0.03660
 PY  C  17  -0.00071    -0.00759     0.00070     0.01221    -0.00125    -0.00182
 PZ  C  17  -0.00155    -0.01638     0.00068     0.02780    -0.00058    -0.01616
  
  S  C  18   0.00297     0.03305    -0.00132    -0.16618     0.00754     0.24326
 PX  C  18   0.00103     0.01114    -0.00045    -0.02066     0.00002     0.00386
 PY  C  18  -0.00015    -0.00157     0.00020    -0.00616    -0.00010     0.02178
 PZ  C  18  -0.00009    -0.00076    -0.00000    -0.01640     0.00057     0.03770
  
  S  C  19   0.00143     0.01649    -0.00058    -0.14554     0.00741     0.27330
 PX  C  19   0.00029     0.00311    -0.00009     0.00370    -0.00088    -0.03002
 PY  C  19  -0.00024    -0.00274     0.00016     0.01222    -0.00050    -0.01254
 PZ  C  19  -0.00035    -0.00390     0.00013     0.02185    -0.00095    -0.03136
  
  S  C  20   0.00071     0.00845    -0.00031    -0.12593     0.00766     0.28475
 PX  C  20   0.00025     0.00285    -0.00010    -0.01794     0.00068     0.02174
 PY  C  20  -0.00005    -0.00053     0.00004    -0.00379     0.00037     0.01748
 PZ  C  20  -0.00000     0.00002    -0.00001    -0.01253     0.00090     0.03667
  
  S  C  21   0.00035     0.00426    -0.00015    -0.10574     0.00720     0.27738
 PX  C  21   0.00007     0.00081    -0.00002     0.00022    -0.00033    -0.01519
 PY  C  21  -0.00006    -0.00074     0.00003     0.00999    -0.00055    -0.01976
 PZ  C  21  -0.00008    -0.00097     0.00003     0.01666    -0.00102    -0.03809
  
  S  C  22   0.00017     0.00216    -0.00009    -0.08550     0.00640     0.25139
 PX  C  22   0.00006     0.00073    -0.00003    -0.01489     0.00091     0.03400
 PY  C  22  -0.00001    -0.00014     0.00001    -0.00136     0.00020     0.00869
 PZ  C  22   0.00000     0.00002    -0.00000    -0.00747     0.00065     0.02635
  
  S  C  23   0.00008     0.00108    -0.00005    -0.06510     0.00522     0.20860
 PX  C  23   0.00002     0.00021    -0.00001    -0.00312     0.00012     0.00385
 PY  C  23  -0.00002    -0.00019     0.00001     0.00762    -0.00056    -0.02180
 PZ  C  23  -0.00002    -0.00025     0.00001     0.01155    -0.00088    -0.03481
  
  S  C  24   0.00004     0.00053    -0.00002    -0.04417     0.00372     0.15019
 PX  C  24   0.00002     0.00020    -0.00001    -0.01217     0.00097     0.03881
 PY  C  24  -0.00000    -0.00004     0.00000     0.00123    -0.00008    -0.00284
 PZ  C  24  -0.00000    -0.00000    -0.00000    -0.00223     0.00021     0.00890
  
  S  C  25   0.00002     0.00023    -0.00001    -0.02445     0.00212     0.08634
 PX  C  25   0.00001     0.00007    -0.00000    -0.00639     0.00054     0.02178
 PY  C  25  -0.00000    -0.00005     0.00000     0.00475    -0.00041    -0.01642
 PZ  C  25  -0.00000    -0.00006     0.00000     0.00565    -0.00048    -0.01961
  
  S  C  26   0.03637     0.35309    -0.01125     0.02579    -0.12097    -0.03948
 PX  C  26   0.00770     0.06785    -0.00502     0.05960    -0.01832    -0.01609
 PY  C  26  -0.00516    -0.04529     0.00954     0.01359    -0.03903    -0.00271
 PZ  C  26  -0.00114    -0.00966     0.00169    -0.00730    -0.00640     0.00770
  
  S  C  27   0.01787     0.18220     0.01112    -0.02150    -0.10992    -0.01361
 PX  C  27   0.00694     0.06907    -0.00085     0.02081    -0.04712    -0.01749
 PY  C  27  -0.00319    -0.03067     0.01068     0.01836    -0.01375    -0.00467
 PZ  C  27  -0.00052    -0.00477     0.00145    -0.00417    -0.00038     0.00562
  
  S  C  28   0.01139     0.11814     0.03989     0.00726    -0.11061    -0.01974
 PX  C  28   0.00167     0.01638    -0.00878     0.01007    -0.01103    -0.00607
 PY  C  28  -0.00501    -0.05069     0.01703    -0.00197     0.03137     0.00626
 PZ  C  28  -0.00072    -0.00718     0.00300    -0.00207     0.00468     0.00236
  
  S  S  29   0.00992     0.09983     0.01374     0.02526    -0.08159    -0.02054
 PX  S  29  -0.00364    -0.03803    -0.00953    -0.00324     0.03775     0.00786
 PY  S  29  -0.00585    -0.05789     0.00446    -0.01664     0.03723     0.01083
 PZ  S  29  -0.00060    -0.00579     0.00118    -0.00249     0.00292     0.00143
  
  S  C  30   0.02958     0.27830    -0.00783     0.09456    -0.11123    -0.04094
 PX  C  30  -0.00544    -0.05976    -0.00153     0.01061     0.04527     0.01100
 PY  C  30  -0.01142    -0.10064     0.00928    -0.04138     0.00036     0.00851
 PZ  C  30  -0.00137    -0.01136     0.00144    -0.00797    -0.00277     0.00235
  
  S  C  31   0.03341     0.26514    -0.01682     0.18285    -0.00620    -0.01402
 PX  C  31  -0.00947    -0.10405     0.00508    -0.00673     0.04528     0.02173
 PY  C  31  -0.00850    -0.05316     0.00509    -0.05802    -0.03081    -0.00744
 PZ  C  31  -0.00081    -0.00295     0.00053    -0.00867    -0.00704    -0.00111
  
  S  C  32   0.04174     0.33168    -0.02306     0.17582     0.01959    -0.01344
 PX  C  32  -0.00182    -0.05444     0.00256     0.07339     0.04318     0.02219
 PY  C  32   0.00708     0.07312    -0.00379     0.03303    -0.03001    -0.01359
 PZ  C  32   0.00092     0.01188    -0.00056    -0.00033    -0.00772     0.00002
  
  S  C  33   0.03216     0.14949    -0.01226     0.18468     0.10189     0.03507
 PX  C  33   0.00468    -0.02578     0.00148     0.04028     0.03863     0.02281
 PY  C  33   0.00800     0.06480    -0.00500     0.06539     0.01535     0.00127
 PZ  C  33   0.00054     0.01063    -0.00078     0.00629    -0.00116    -0.00079
  
  S  C  34   0.04463     0.09920    -0.00895     0.22798     0.16700     0.07622
 PX  C  34   0.00588    -0.04566     0.00353    -0.02494     0.02177     0.01835
 PY  C  34  -0.00771     0.01631    -0.00109    -0.00456    -0.02927    -0.01765
 PZ  C  34  -0.00188     0.00418    -0.00029    -0.00090    -0.00658    -0.00384
  
  S  S  35   0.01974     0.08647    -0.00696     0.13693     0.06297     0.02437
 PX  S  35  -0.00561    -0.05209     0.00391    -0.05430    -0.00591     0.00179
 PY  S  35  -0.01025    -0.03208     0.00291    -0.06682    -0.04322    -0.01839
 PZ  S  35  -0.00094    -0.00203     0.00022    -0.00611    -0.00488    -0.00200
  
  S  C  36   0.10428     0.02435    -0.00355     0.22726     0.27149     0.14539
 PX  C  36   0.03086    -0.01513     0.00103     0.00866     0.03855     0.02461
 PY  C  36  -0.02425     0.00789    -0.00044    -0.01138    -0.02976    -0.01793
 PZ  C  36  -0.00794     0.00169    -0.00007    -0.00327    -0.00704    -0.00403
  
  S  C  37   0.09912     0.00495    -0.00167     0.16724     0.22381     0.12345
 PX  C  37   0.00430    -0.00653     0.00061    -0.02257    -0.01853    -0.00872
 PY  C  37  -0.03458     0.00322     0.00008    -0.03392    -0.05288    -0.03005
 PZ  C  37  -0.03246     0.00003     0.00038    -0.04552    -0.06258    -0.03466
  
  S  C  38   0.15146    -0.01104    -0.00050     0.11477     0.17221     0.09758
 PX  C  38  -0.01691    -0.00193     0.00046    -0.05502    -0.07599    -0.04206
 PY  C  38  -0.04572     0.00617    -0.00021     0.00427     0.00142     0.00011
 PZ  C  38  -0.05367     0.00515     0.00003    -0.02398    -0.03765    -0.02151
  
  S  C  39   0.36749    -0.04039     0.00055     0.06541     0.11539     0.06770
 PX  C  39   0.02532    -0.00677     0.00057    -0.05983    -0.08077    -0.04420
 PY  C  39  -0.09439     0.01435    -0.00068     0.05231     0.06946     0.03804
 PZ  C  39  -0.08194     0.01099    -0.00039     0.02133     0.02746     0.01505
  
  S  C  40   0.30175    -0.02941     0.00001     0.08932     0.13511     0.07610
 PX  C  40   0.10715    -0.01582     0.00066    -0.02985    -0.03332    -0.01728
 PY  C  40  -0.03583     0.00813    -0.00059     0.05612     0.07837     0.04369
 PZ  C  40   0.01784     0.00029    -0.00027     0.04078     0.06092     0.03458
  
  S  C  41   0.13101     0.00417    -0.00185     0.16542     0.21543     0.11741
 PX  C  41   0.05673    -0.00916     0.00030     0.02562     0.04714     0.02770
 PY  C  41  -0.01079     0.00731    -0.00066     0.03358     0.03710     0.01947
 PZ  C  41   0.01824     0.00342    -0.00058     0.04830     0.06244     0.03412
  
  S  C  42   0.29901    -0.03683     0.00102    -0.04598    -0.07210    -0.04247
 PX  C  42   0.08715    -0.01189     0.00044    -0.02672    -0.03605    -0.01994
 PY  C  42   0.02794    -0.00232    -0.00007     0.02847     0.05022     0.02976
 PZ  C  42   0.07068    -0.00817     0.00015     0.01438     0.03085     0.01899
  
  S  C  43   0.12291    -0.01559     0.00050    -0.04905    -0.08934    -0.05401
 PX  C  43   0.05079    -0.00688     0.00026    -0.02548    -0.04355    -0.02585
 PY  C  43   0.00814    -0.00058    -0.00003     0.01036     0.01849     0.01098
 PZ  C  43   0.03360    -0.00404     0.00010    -0.00283    -0.00411    -0.00243
  
  S  C  44   0.08888    -0.01197     0.00047    -0.05777    -0.10478    -0.06304
 PX  C  44   0.01973    -0.00275     0.00012    -0.01394    -0.02434    -0.01448
 PY  C  44   0.02397    -0.00314     0.00011    -0.01131    -0.02006    -0.01204
 PZ  C  44   0.03311    -0.00442     0.00017    -0.01797    -0.03169    -0.01895
  
  S  C  45   0.09246    -0.01263     0.00051    -0.06267    -0.11154    -0.06672
 PX  C  45  -0.01485     0.00199    -0.00008     0.00936     0.01745     0.01059
 PY  C  45   0.03546    -0.00479     0.00018    -0.02003    -0.03475    -0.02067
 PZ  C  45   0.02675    -0.00362     0.00014    -0.01459    -0.02466    -0.01456
  
  S  C  46   0.14965    -0.02017     0.00077    -0.07405    -0.12203    -0.07153
 PX  C  46  -0.04582     0.00612    -0.00023     0.02354     0.04132     0.02470
 PY  C  46   0.04951    -0.00651     0.00022    -0.01317    -0.01787    -0.00990
 PZ  C  46   0.02577    -0.00334     0.00011    -0.00131     0.00302     0.00260
  
  S  C  47   0.36627    -0.04746     0.00156    -0.09116    -0.13054    -0.07383
 PX  C  47  -0.03458     0.00395    -0.00007    -0.00104     0.00168     0.00181
 PY  C  47   0.09659    -0.01191     0.00031     0.00438     0.01834     0.01226
 PZ  C  47   0.07666    -0.00963     0.00027     0.00282     0.01735     0.01211
  
  S  N  48   0.47489    -0.06098     0.00192    -0.07569    -0.07989    -0.04009
 PX  N  48  -0.09768     0.01174    -0.00027    -0.00429    -0.01091    -0.00656
 PY  N  48  -0.01894     0.00304    -0.00017     0.02000     0.02998     0.01696
 PZ  N  48  -0.01626     0.00215    -0.00007     0.00572     0.01053     0.00648
  
  S  C  49   0.21019    -0.02776     0.00097    -0.05591    -0.06584    -0.03399
 PX  C  49  -0.08947     0.01160    -0.00038     0.01539     0.01580     0.00780
 PY  C  49   0.00098     0.00009    -0.00003     0.00733     0.01154     0.00654
 PZ  C  49  -0.03760     0.00493    -0.00017     0.00744     0.00884     0.00474
  
  S  C  50   0.11629    -0.01563     0.00058    -0.04291    -0.05402    -0.02837
 PX  C  50  -0.00867     0.00102    -0.00002    -0.00262    -0.00445    -0.00249
 PY  C  50   0.02972    -0.00388     0.00013    -0.00569    -0.00568    -0.00273
 PZ  C  50  -0.03625     0.00479    -0.00017     0.00852     0.00993     0.00518
  
  S  C  51   0.04897    -0.00678     0.00028    -0.02768    -0.03693    -0.01965
 PX  C  51  -0.01465     0.00199    -0.00008     0.00660     0.00852     0.00449
 PY  C  51   0.00520    -0.00068     0.00002    -0.00071    -0.00049    -0.00019
 PZ  C  51  -0.01163     0.00157    -0.00006     0.00418     0.00519     0.00273
  
  S  C  52   0.02142    -0.00302     0.00013    -0.01543    -0.02123    -0.01137
 PX  C  52  -0.00195     0.00026    -0.00001     0.00077     0.00097     0.00051
 PY  C  52   0.00619    -0.00086     0.00004    -0.00389    -0.00524    -0.00279
 PZ  C  52  -0.00743     0.00104    -0.00004     0.00465     0.00630     0.00336
  
  S  C  53   0.00382     0.04198     0.12018    -0.00161    -0.05187    -0.00633
 PX  C  53   0.00092     0.00962    -0.00530     0.00220    -0.01453    -0.00323
 PY  C  53  -0.00131    -0.01307     0.05449     0.00141     0.01433     0.00128
 PZ  C  53  -0.00021    -0.00214     0.00913    -0.00029     0.00281     0.00073
  
  S  C  54   0.00194     0.02323     0.22230     0.00074    -0.02522    -0.00391
 PX  C  54  -0.00004    -0.00109    -0.06678     0.00067    -0.00550    -0.00116
 PY  C  54  -0.00051    -0.00497     0.05327     0.00025     0.01358     0.00166
 PZ  C  54  -0.00006    -0.00054     0.01289    -0.00007     0.00225     0.00037
  
  S  C  55   0.00157     0.02182     0.51190     0.00087     0.01095     0.00090
 PX  C  55  -0.00020    -0.00325    -0.12243     0.00022    -0.00873    -0.00137
 PY  C  55  -0.00007    -0.00021     0.06896     0.00065     0.00999     0.00091
 PZ  C  55   0.00004     0.00074     0.02865    -0.00004     0.00202     0.00032
  
  S  O  56   0.00099     0.01458     0.41266     0.00135     0.01686     0.00135
 PX  O  56  -0.00012    -0.00181    -0.05748    -0.00006    -0.00329    -0.00041
 PY  O  56  -0.00042    -0.00606    -0.16578    -0.00050    -0.00596    -0.00047
 PZ  O  56   0.00005     0.00071     0.02155     0.00004     0.00109     0.00012
  
  S  O  57   0.00155     0.02219     0.57473     0.00018     0.01967     0.00264
 PX  O  57   0.00035     0.00494     0.11391     0.00001     0.00203     0.00026
 PY  O  57   0.00024     0.00377     0.12314     0.00031     0.00667     0.00072
 PZ  O  57  -0.00011    -0.00154    -0.03490     0.00001    -0.00063    -0.00008
  
  S  C  58   0.00105     0.01244     0.09698     0.00124    -0.01946    -0.00347
 PX  C  58  -0.00036    -0.00431    -0.04782    -0.00022     0.00280     0.00047
 PY  C  58  -0.00030    -0.00329     0.00221    -0.00021     0.00605     0.00094
 PZ  C  58  -0.00002    -0.00023     0.00252    -0.00004     0.00068     0.00012
  
  S  N  59   0.00036     0.00431     0.03219     0.00063    -0.00990    -0.00181
 PX  N  59  -0.00020    -0.00244    -0.01973    -0.00034     0.00483     0.00090
 PY  N  59  -0.00008    -0.00091    -0.00343    -0.00006     0.00261     0.00043
 PZ  N  59   0.00000     0.00001     0.00051     0.00000     0.00010     0.00002
  
  S  H  60   0.00159     0.01758     0.06002    -0.00314    -0.01870    -0.00074
  
  S  H  61   0.00001     0.00008    -0.00002    -0.01110     0.02778    -0.01864
  
  S  H  62   0.00000     0.00006    -0.00001    -0.00879     0.02226    -0.01498
  
  S  H  63   0.00001     0.00008    -0.00002    -0.01110     0.02778    -0.01864
  
  S  H  64   0.00001     0.00019    -0.00003    -0.01964     0.04752    -0.03166
  
  S  H  65   0.00001     0.00019    -0.00003    -0.01964     0.04753    -0.03166
  
  S  H  66   0.00003     0.00039    -0.00006    -0.02903     0.06691    -0.04410
  
  S  H  67   0.00003     0.00039    -0.00006    -0.02904     0.06693    -0.04411
  
  S  H  68   0.00006     0.00078    -0.00012    -0.03802     0.08166    -0.05297
  
  S  H  69   0.00006     0.00077    -0.00012    -0.03802     0.08166    -0.05297
  
  S  H  70   0.00013     0.00152    -0.00020    -0.04685     0.09167    -0.05817
  
  S  H  71   0.00013     0.00154    -0.00020    -0.04688     0.09168    -0.05815
  
  S  H  72   0.00026     0.00304    -0.00036    -0.05551     0.09632    -0.05930
  
  S  H  73   0.00026     0.00299    -0.00036    -0.05543     0.09631    -0.05934
  
  S  H  74   0.00051     0.00583    -0.00062    -0.06376     0.09527    -0.05629
  
  S  H  75   0.00054     0.00608    -0.00064    -0.06420     0.09531    -0.05599
  
  S  H  76   0.00112     0.01225    -0.00116    -0.07239     0.08890    -0.04945
  
  S  H  77   0.00102     0.01126    -0.00109    -0.07114     0.08876    -0.04996
  
  S  H  78   0.00191     0.02062    -0.00178    -0.07726     0.07656    -0.04004
  
  S  H  79   0.00234     0.02503    -0.00203    -0.08344     0.07704    -0.03658
  
  S  H  80   0.00522     0.05350    -0.00414    -0.09022     0.06211    -0.02812
  
  S  H  81   0.00354     0.03668    -0.00300    -0.07655     0.06060    -0.03126
  
  S  H  82   0.00495     0.05065    -0.00359    -0.06521     0.03739    -0.02087
  
  S  H  83   0.00834     0.08510    -0.00519    -0.09155     0.03532    -0.01221
  
  S  H  84   0.00975     0.09121    -0.00669    -0.03741     0.02334    -0.01818
  
  S  H  85   0.01022     0.09727    -0.00643    -0.02204     0.00744    -0.01840
  
  S  H  86   0.00983     0.09698    -0.00681    -0.07340     0.01909     0.00441
  
  S  H  87   0.00992     0.09197    -0.00644    -0.02713     0.00404     0.00607
  
  S  H  88   0.00505     0.05154    -0.00318    -0.05967    -0.00031     0.03534
  
  S  H  89   0.00819     0.08245    -0.00404    -0.05959    -0.01137     0.03277
  
  S  H  90   0.00689     0.07161    -0.00315    -0.09916     0.00529     0.05433
  
  S  H  91   0.00444     0.04665    -0.00272    -0.08604     0.00866     0.05646
  
  S  H  92   0.00220     0.02386    -0.00114    -0.07392     0.00179     0.08388
  
  S  H  93   0.00265     0.02847    -0.00071    -0.07557    -0.00022     0.08380
  
  S  H  94   0.00143     0.01581    -0.00048    -0.07170     0.00340     0.10231
  
  S  H  95   0.00128     0.01420    -0.00064    -0.07081     0.00396     0.10234
  
  S  H  96   0.00061     0.00705    -0.00027    -0.06149     0.00311     0.11535
  
  S  H  97   0.00064     0.00734    -0.00013    -0.06160     0.00297     0.11528
  
  S  H  98   0.00032     0.00377    -0.00012    -0.05342     0.00325     0.12007
  
  S  H  99   0.00031     0.00370    -0.00015    -0.05341     0.00329     0.12013
  
  S  H 100   0.00015     0.00186    -0.00007    -0.04480     0.00304     0.11703
  
  S  H 101   0.00015     0.00188    -0.00005    -0.04479     0.00303     0.11699
  
  S  H 102   0.00008     0.00095    -0.00004    -0.03621     0.00270     0.10598
  
  S  H 103   0.00008     0.00095    -0.00004    -0.03622     0.00270     0.10601
  
  S  H 104   0.00004     0.00048    -0.00002    -0.02757     0.00220     0.08797
  
  S  H 105   0.00004     0.00048    -0.00002    -0.02757     0.00220     0.08795
  
  S  H 106   0.00002     0.00023    -0.00001    -0.01862     0.00156     0.06300
  
  S  H 107   0.00002     0.00023    -0.00001    -0.01862     0.00156     0.06301
  
  S  H 108   0.00001     0.00010    -0.00000    -0.01051     0.00091     0.03704
  
  S  H 109   0.00001     0.00007    -0.00000    -0.00831     0.00073     0.02975
  
  S  H 110   0.00001     0.00010    -0.00001    -0.01051     0.00091     0.03705
  
  S  H 111   0.00639     0.06596     0.00467    -0.03437    -0.02726     0.00864
  
  S  H 112   0.01215     0.04594    -0.00384     0.05324     0.03922     0.01428
  
  S  H 113   0.02415     0.00444    -0.00072     0.05416     0.06776     0.03686
  
  S  H 114   0.04928    -0.00439    -0.00006     0.02623     0.04126     0.02371
  
  S  H 115   0.03720     0.00546    -0.00091     0.05438     0.06445     0.03405
  
  S  H 116   0.03358    -0.00386     0.00009    -0.00890    -0.01830    -0.01140
  
  S  H 117   0.02027    -0.00274     0.00011    -0.01516    -0.02813    -0.01701
  
  S  H 118   0.02135    -0.00295     0.00012    -0.01690    -0.03055    -0.01833
  
  S  H 119   0.04952    -0.00671     0.00026    -0.02404    -0.03800    -0.02196
  
  S  H 120   0.07597    -0.01015     0.00037    -0.02426    -0.03034    -0.01604
  
  S  H 121   0.07604    -0.00991     0.00033    -0.01717    -0.01881    -0.00936
  
  S  H 122   0.05336    -0.00704     0.00025    -0.01631    -0.01977    -0.01022
  
  S  H 123   0.05456    -0.00733     0.00027    -0.02030    -0.02617    -0.01392
  
  S  H 124   0.02100    -0.00291     0.00012    -0.01189    -0.01591    -0.00848
  
  S  H 125   0.02089    -0.00288     0.00012    -0.01127    -0.01489    -0.00789
  
  S  H 126   0.00957    -0.00135     0.00006    -0.00674    -0.00928    -0.00497
  
  S  H 127   0.00658    -0.00093     0.00004    -0.00525    -0.00730    -0.00392
  
  S  H 128   0.00952    -0.00133     0.00006    -0.00656    -0.00899    -0.00481
  
  S  H 129   0.00061     0.00887     0.24290     0.00019     0.00978     0.00125




    ROOT NO.    7           8           9          10          11          12

           -42.63714   -42.49521   -42.07197   -41.66711   -40.87728   -40.24480
  
  
  S  C   1   0.10066    -0.05118     0.03624     0.11442     0.15030     0.06313
 PX  C   1   0.03651    -0.01843     0.01277     0.03941     0.04932     0.01982
 PY  C   1   0.00991    -0.00495     0.00333     0.00994     0.01155     0.00432
 PZ  C   1  -0.00000     0.00000    -0.00000    -0.00000    -0.00000    -0.00000
  
  S  C   2   0.16667    -0.08383     0.05742     0.17537     0.21497     0.08503
 PX  C   2   0.00850    -0.00382     0.00163     0.00194    -0.00564    -0.00509
 PY  C   2   0.04012    -0.01991     0.01307     0.03815     0.04206     0.01494
 PZ  C   2  -0.00001     0.00000    -0.00000    -0.00001    -0.00001    -0.00000
  
  S  C   3   0.21345    -0.10541     0.06814     0.19591     0.20975     0.07280
 PX  C   3   0.03145    -0.01458     0.00744     0.01515     0.00015    -0.00592
 PY  C   3  -0.02056     0.01086    -0.00848    -0.02892    -0.04253    -0.01900
 PZ  C   3  -0.00002     0.00001    -0.00001    -0.00002    -0.00002    -0.00000
  
  S  C   4   0.22641    -0.10842     0.06323     0.16143     0.12411     0.02650
 PX  C   4  -0.02262     0.01253    -0.01075    -0.03842    -0.05772    -0.02509
 PY  C   4   0.02944    -0.01298     0.00529     0.00614    -0.01438    -0.01180
 PZ  C   4   0.00007    -0.00003     0.00002     0.00006     0.00004     0.00001
  
  S  C   5   0.20567    -0.09342     0.04456     0.08375    -0.00689    -0.03153
 PX  C   5   0.00463     0.00048    -0.00543    -0.02883    -0.05557    -0.02506
 PY  C   5  -0.03768     0.01894    -0.01268    -0.03683    -0.03700    -0.01080
 PZ  C   5  -0.00010     0.00005    -0.00001    -0.00002     0.00001     0.00002
  
  S  C   6   0.15418    -0.06283     0.01607    -0.01654    -0.13537    -0.07544
 PX  C   6  -0.03959     0.02028    -0.01386    -0.03891    -0.03081    -0.00435
 PY  C   6   0.00328     0.00150    -0.00631    -0.03021    -0.04903    -0.01859
 PZ  C   6   0.00004    -0.00002     0.00004     0.00004    -0.00006    -0.00003
  
  S  C   7   0.07969    -0.02181    -0.01574    -0.11225    -0.21412    -0.08549
 PX  C   7  -0.02484     0.01522    -0.01383    -0.04396    -0.03706    -0.00433
 PY  C   7  -0.03303     0.01485    -0.00621    -0.00758     0.01803     0.01468
 PZ  C   7  -0.00027     0.00010     0.00014     0.00031     0.00024     0.00015
  
  S  C   8  -0.00656     0.02292    -0.04499    -0.17849    -0.21344    -0.05724
 PX  C   8  -0.03381     0.01518    -0.00602    -0.00075     0.03764     0.02329
 PY  C   8  -0.02465     0.01493    -0.01259    -0.03632    -0.01818     0.00426
 PZ  C   8  -0.00083     0.00035     0.00031     0.00054     0.00032     0.00032
  
  S  C   9  -0.09042     0.06278    -0.06325    -0.19776    -0.13589    -0.00372
 PX  C   9  -0.03886     0.01982    -0.01208    -0.01692     0.03134     0.02293
 PY  C   9  -0.00888     0.00073     0.00650     0.02913     0.04792     0.01671
 PZ  C   9  -0.00308     0.00119     0.00148     0.00254     0.00173     0.00132
  
  S  C  10  -0.15483     0.09151    -0.07796    -0.17102    -0.00621     0.04852
 PX  C  10  -0.00513    -0.00005     0.00157     0.03520     0.05644     0.01208
 PY  C  10  -0.03243     0.01589    -0.00931    -0.01064     0.03319     0.01809
 PZ  C  10  -0.00871     0.00366     0.00143     0.00529     0.00844     0.00382
  
  S  C  11  -0.16751     0.08878    -0.06832    -0.11519     0.09937     0.06870
 PX  C  11  -0.00855     0.00382    -0.01083     0.01406     0.04574     0.00388
 PY  C  11   0.02889    -0.01980     0.02073     0.03191     0.00314    -0.00968
 PZ  C  11  -0.01675     0.00575     0.00421     0.00726     0.01804     0.00698
  
  S  C  12  -0.11531     0.06819    -0.09555    -0.04675     0.14760     0.03327
 PX  C  12   0.04543    -0.01757    -0.00904     0.03189    -0.01679    -0.02820
 PY  C  12   0.01599    -0.01262     0.00827     0.00363     0.00166    -0.00977
 PZ  C  12  -0.01504     0.00791    -0.01469     0.01209     0.03661    -0.00109
  
  S  C  13  -0.04674     0.03061    -0.08984     0.02970     0.14542    -0.01924
 PX  C  13   0.06634    -0.01600    -0.04304     0.01943    -0.04711    -0.04511
 PY  C  13   0.04800    -0.03865     0.03171    -0.01870    -0.02647    -0.02522
 PZ  C  13   0.00179    -0.00757     0.02822     0.02690    -0.00380     0.00174
  
  S  C  14  -0.12261     0.05873    -0.01571     0.08369     0.14712     0.04330
 PX  C  14   0.03248    -0.00754    -0.03147    -0.00619    -0.00788    -0.02166
 PY  C  14  -0.01051    -0.00039     0.00837     0.01625     0.02520     0.00060
 PZ  C  14   0.00516    -0.00926     0.03833     0.02488    -0.02287     0.00552
  
  S  C  15  -0.12791     0.04134     0.09085     0.14486     0.08210     0.05849
 PX  C  15   0.02129    -0.00669    -0.03183    -0.03357     0.01785    -0.00987
 PY  C  15   0.00739    -0.00858     0.01733     0.00098    -0.01299    -0.00287
 PZ  C  15   0.02503    -0.00936     0.00180    -0.00425    -0.03648    -0.01077
  
  S  C  16  -0.12962     0.04222     0.13464     0.18765    -0.00286     0.04814
 PX  C  16  -0.02367     0.00627     0.00276    -0.00072     0.04636     0.01943
 PY  C  16   0.00138    -0.00381     0.02038     0.01781    -0.01937    -0.00343
 PZ  C  16   0.00159    -0.00061     0.02085     0.04194    -0.02693    -0.00647
  
  S  C  17  -0.06689     0.02357     0.13668     0.21835    -0.11208    -0.00762
 PX  C  17  -0.01868     0.00300     0.00003    -0.01755     0.04515     0.02410
 PY  C  17   0.01591    -0.00552    -0.00946    -0.01390    -0.00952    -0.00965
 PZ  C  17   0.02146    -0.00589    -0.02334    -0.02608    -0.00128    -0.01038
  
  S  C  18  -0.00075     0.00842     0.09547     0.19151    -0.17373    -0.06015
 PX  C  18  -0.02930     0.00770     0.03036     0.03611    -0.00080     0.01367
 PY  C  18   0.01362    -0.00332    -0.00321     0.00239    -0.01682    -0.01203
 PZ  C  18   0.01297    -0.00215     0.00298     0.01802    -0.02891    -0.01635
  
  S  C  19   0.07066    -0.00981     0.03226     0.11918    -0.17243    -0.08871
 PX  C  19  -0.03259     0.00767     0.02596     0.02837    -0.00040     0.01114
 PY  C  19   0.00809    -0.00271    -0.01467    -0.02476     0.01746     0.00396
 PZ  C  19   0.00212    -0.00162    -0.01590    -0.03084     0.02877     0.01020
  
  S  C  20   0.13051    -0.02570    -0.03857     0.01451    -0.10762    -0.07738
 PX  C  20  -0.01054     0.00374     0.02503     0.04663    -0.04588    -0.01916
 PY  C  20   0.01754    -0.00426    -0.01513    -0.01986     0.01019     0.00094
 PZ  C  20   0.02546    -0.00571    -0.01651    -0.01653     0.00078    -0.00524
  
  S  C  21   0.17164    -0.03757    -0.10102    -0.09367    -0.00353    -0.03172
 PX  C  21  -0.02559     0.00666     0.02998     0.04863    -0.04562    -0.02095
 PY  C  21  -0.00501     0.00061    -0.00375    -0.01295     0.02120     0.01279
 PZ  C  21  -0.01726     0.00336     0.00424    -0.00443     0.01919     0.01386
  
  S  C  22   0.18753    -0.04323    -0.14169    -0.17701     0.10182     0.02807
 PX  C  22   0.01417    -0.00259    -0.00078     0.01110    -0.02959    -0.02159
 PY  C  22   0.01181    -0.00304    -0.01359    -0.02263     0.02377     0.01273
 PZ  C  22   0.02458    -0.00596    -0.02284    -0.03366     0.02908     0.01356
  
  S  C  23   0.17605    -0.04185    -0.15188    -0.21343     0.17025     0.07551
 PX  C  23  -0.00388     0.00133     0.00957     0.02066    -0.03024    -0.01988
 PY  C  23  -0.01531     0.00346     0.01050     0.01158    -0.00313     0.00151
 PZ  C  23  -0.02677     0.00621     0.02077     0.02645    -0.01580    -0.00446
  
  S  C  24   0.13715    -0.03320    -0.12766    -0.19051     0.17388     0.08783
 PX  C  24   0.03238    -0.00767    -0.02746    -0.03787     0.02846     0.01158
 PY  C  24  -0.00100     0.00015    -0.00045    -0.00227     0.00519     0.00404
 PZ  C  24   0.00970    -0.00243    -0.01039    -0.01706     0.01861     0.01077
  
  S  C  25   0.08272    -0.02024    -0.08045    -0.12411     0.12136     0.06509
 PX  C  25   0.01993    -0.00483    -0.01856    -0.02768     0.02516     0.01262
 PY  C  25  -0.01528     0.00371     0.01446     0.02185    -0.02041    -0.01051
 PZ  C  25  -0.01837     0.00447     0.01750     0.02656    -0.02506    -0.01301
  
  S  C  26   0.07149    -0.10925     0.14437    -0.09257     0.01625    -0.01863
 PX  C  26   0.05231    -0.01612    -0.03935     0.00493    -0.02191    -0.04452
 PY  C  26   0.05073    -0.06796     0.12879    -0.07887    -0.07023     0.01799
 PZ  C  26   0.00061    -0.00879     0.03084     0.00176    -0.00915     0.00782
  
  S  C  27   0.05348    -0.12900     0.26432    -0.14077    -0.04152     0.04994
 PX  C  27   0.04320    -0.05544     0.07810    -0.05969    -0.01852    -0.00205
 PY  C  27   0.03031    -0.02984     0.04809    -0.04080    -0.04176     0.01182
 PZ  C  27  -0.00158    -0.00069     0.00915     0.00608    -0.00495     0.00352
  
  S  C  28   0.08591    -0.14953     0.28999    -0.18084    -0.09634     0.07008
 PX  C  28   0.01360    -0.01178     0.00715    -0.00987    -0.00159    -0.01107
 PY  C  28  -0.01965     0.03346    -0.05445     0.02822     0.00153     0.00929
 PZ  C  28  -0.00417     0.00528    -0.00625     0.00616     0.00015     0.00235
  
  S  S  29   0.07640    -0.10624     0.17701    -0.11892    -0.06732     0.02170
 PX  S  29  -0.02934     0.05061    -0.09616     0.06176     0.02958    -0.02153
 PY  S  29  -0.03612     0.04335    -0.05912     0.03960     0.01887     0.01063
 PZ  S  29  -0.00356     0.00312    -0.00212     0.00260     0.00090     0.00289
  
  S  C  30   0.13249    -0.11847     0.10707    -0.08705    -0.06509    -0.05301
 PX  C  30  -0.01783     0.05013    -0.09723     0.05963    -0.00217    -0.01385
 PY  C  30  -0.02050    -0.01496     0.08075    -0.04287    -0.00874     0.04154
 PZ  C  30  -0.00293    -0.00484     0.01939    -0.00617    -0.00125     0.00748
  
  S  C  31   0.13399    -0.00844    -0.13653     0.06403    -0.11993    -0.08632
 PX  C  31  -0.02263     0.03202    -0.01828     0.02241    -0.03023     0.02986
 PY  C  31  -0.02235    -0.02985     0.08485    -0.05127     0.03956     0.01331
 PZ  C  31  -0.00243    -0.00613     0.01503    -0.00658     0.00696     0.00091
  
  S  C  32   0.09737     0.03472    -0.20710     0.10233    -0.06881    -0.07740
 PX  C  32   0.04488     0.01716    -0.04550     0.03717    -0.10986     0.00020
 PY  C  32   0.04083    -0.02633    -0.00147    -0.00644    -0.01430    -0.03496
 PZ  C  32   0.00307    -0.00525     0.00686     0.00381     0.00258    -0.00413
  
  S  C  33   0.07021     0.06937    -0.16640     0.10226    -0.13224     0.00180
 PX  C  33   0.00995     0.01128     0.01027     0.00384    -0.04352     0.02785
 PY  C  33   0.04036     0.01414    -0.07515     0.04188    -0.05553    -0.02460
 PZ  C  33   0.00524     0.00067    -0.01098     0.00788    -0.00576    -0.00563
  
  S  C  34   0.06031     0.07980    -0.10288     0.08047    -0.15915     0.06458
 PX  C  34  -0.04032    -0.00501     0.08640    -0.04449     0.04793     0.04771
 PY  C  34   0.02026    -0.00837    -0.03824     0.01691    -0.01665    -0.03532
 PZ  C  34   0.00435    -0.00236    -0.00941     0.00473    -0.00403    -0.00778
  
  S  S  35   0.06560     0.03283    -0.09999     0.06323    -0.11704    -0.00690
 PX  S  35  -0.04008    -0.00703     0.06097    -0.03321     0.05229     0.02785
 PY  S  35  -0.02301    -0.02328     0.04474    -0.03135     0.05385    -0.01078
 PZ  S  35  -0.00159    -0.00285     0.00413    -0.00273     0.00496    -0.00191
  
  S  C  36  -0.03865     0.08122     0.10460    -0.02460    -0.03643     0.16785
 PX  C  36  -0.03317    -0.00522     0.06551    -0.03461     0.04553     0.01990
 PY  C  36   0.01835    -0.00466    -0.04107     0.02052    -0.02675    -0.01157
 PZ  C  36   0.00224    -0.00546    -0.01000     0.00472    -0.00642     0.00039
  
  S  C  37  -0.06073     0.03900     0.12440    -0.04545     0.01160     0.14056
 PX  C  37  -0.00912    -0.01843     0.00553    -0.00753     0.02023    -0.01719
 PY  C  37   0.02191    -0.00356    -0.04102     0.01847    -0.01792    -0.02339
 PZ  C  37   0.01732    -0.01319    -0.03887     0.01498    -0.00805    -0.03155
  
  S  C  38  -0.08124    -0.02628     0.10497    -0.04771     0.04150     0.07352
 PX  C  38   0.01526    -0.03247    -0.05684     0.02186    -0.01316    -0.04514
 PY  C  38   0.01218     0.02549     0.00455     0.00086    -0.00829     0.02477
 PZ  C  38   0.01943     0.00701    -0.02595     0.01272    -0.01650     0.00541
  
  S  C  39  -0.09000    -0.08200     0.07272    -0.04333     0.07664    -0.09824
 PX  C  39  -0.00111    -0.07852    -0.08032     0.02990    -0.02037    -0.05367
 PY  C  39  -0.00894     0.03768     0.04921    -0.01663    -0.00278     0.09627
 PZ  C  39  -0.01071    -0.00701     0.00438     0.00050    -0.01751     0.08023
  
  S  C  40  -0.03325     0.06553     0.13260    -0.05890     0.07747    -0.04884
 PX  C  40  -0.00608    -0.03294    -0.01569     0.00083     0.02161    -0.09101
 PY  C  40  -0.03221    -0.00944     0.03694    -0.01457     0.00229     0.06259
 PZ  C  40  -0.03504    -0.02655     0.02767    -0.01341     0.01171     0.01970
  
  S  C  41  -0.03836     0.08195     0.12858    -0.04477     0.01560     0.10710
 PX  C  41  -0.02199     0.00826     0.05363    -0.02600     0.03318     0.00201
 PY  C  41  -0.00609     0.00176     0.00131     0.00348    -0.01779     0.03661
 PZ  C  41  -0.01688     0.00675     0.02719    -0.00875    -0.00253     0.03897
  
  S  C  42   0.11437     0.22045     0.05762    -0.01514     0.01859    -0.02688
 PX  C  42   0.01380     0.00342    -0.01536     0.00554     0.00269    -0.04304
 PY  C  42  -0.05688    -0.08166     0.01026    -0.01232     0.03250    -0.07183
 PZ  C  42  -0.04878    -0.07881     0.00147    -0.00879     0.03189    -0.08835
  
  S  C  43   0.15116     0.27579     0.04540    -0.00056    -0.03181     0.11833
 PX  C  43   0.05982     0.10138     0.00994     0.00278    -0.01457     0.03991
 PY  C  43  -0.02181    -0.03182     0.00363    -0.00482     0.01407    -0.03473
 PZ  C  43   0.00911     0.02035     0.00842    -0.00319     0.00606    -0.01283
  
  S  C  44   0.16165     0.28131     0.03085     0.00808    -0.05150     0.16077
 PX  C  44   0.03250     0.05312     0.00237     0.00319    -0.01203     0.03114
 PY  C  44   0.03121     0.05544     0.00787     0.00040    -0.00654     0.02150
 PZ  C  44   0.04656     0.08032     0.00873     0.00203    -0.01250     0.03680
  
  S  C  45   0.15911     0.26743     0.01928     0.01279    -0.05751     0.16273
 PX  C  45  -0.03031    -0.05541    -0.00907    -0.00001     0.00714    -0.02685
 PY  C  45   0.04757     0.07952     0.00601     0.00331    -0.01433     0.03800
 PZ  C  45   0.03024     0.04789     0.00085     0.00333    -0.01046     0.02371
  
  S  C  46   0.13417     0.19982    -0.01056     0.02082    -0.05508     0.11483
 PX  C  46  -0.06140    -0.10707    -0.01331    -0.00167     0.01376    -0.04084
 PY  C  46   0.00634     0.00001    -0.00906     0.00345    -0.00007    -0.01885
 PZ  C  46  -0.02575    -0.05700    -0.01748     0.00336     0.00514    -0.03457
  
  S  C  47   0.09228     0.10956    -0.02578     0.01549    -0.00755    -0.06126
 PX  C  47  -0.03508    -0.08778    -0.04008     0.01381    -0.01648     0.01046
 PY  C  47  -0.04915    -0.08920    -0.00708    -0.00661     0.03588    -0.11659
 PZ  C  47  -0.06679    -0.13632    -0.03144     0.00258     0.02200    -0.09619
  
  S  N  48  -0.07342    -0.23101    -0.11365     0.02996     0.01558    -0.19469
 PX  N  48  -0.00306    -0.03071    -0.03710     0.01906    -0.04292     0.09803
 PY  N  48  -0.01125     0.00461     0.02541    -0.01206     0.01739    -0.01403
 PZ  N  48  -0.02635    -0.05691    -0.02107     0.00749    -0.01536     0.04251
  
  S  C  49  -0.07082    -0.24106    -0.15127     0.05755    -0.08142     0.11779
 PX  C  49   0.01851     0.05508     0.02559    -0.00642    -0.00552     0.05349
 PY  C  49  -0.00002     0.01567     0.02081    -0.01047     0.02378    -0.06055
 PZ  C  49  -0.00397    -0.00627    -0.00477     0.00424    -0.02081     0.08251
  
  S  C  50  -0.06161    -0.21943    -0.15337     0.06547    -0.12849     0.30893
 PX  C  50  -0.00569    -0.02332    -0.02053     0.01040    -0.02750     0.08323
 PY  C  50  -0.01020    -0.02914    -0.01402     0.00415    -0.00085    -0.01560
 PZ  C  50   0.00430     0.01738     0.00944    -0.00190    -0.00757     0.04857
  
  S  C  51  -0.04682    -0.17041    -0.12751     0.05842    -0.13413     0.37459
 PX  C  51   0.01053     0.03761     0.02700    -0.01191     0.02519    -0.06508
 PY  C  51  -0.00114    -0.00223     0.00043    -0.00090     0.00517    -0.02200
 PZ  C  51   0.00452     0.01661     0.01107    -0.00423     0.00528    -0.00326
  
  S  C  52  -0.02819    -0.10391    -0.08046     0.03811    -0.09375     0.27802
 PX  C  52   0.00117     0.00412     0.00286    -0.00122     0.00233    -0.00533
 PY  C  52  -0.00707    -0.02559    -0.01926     0.00893    -0.02104     0.06006
 PZ  C  52   0.00775     0.02866     0.02182    -0.01009     0.02350    -0.06622
  
  S  C  53   0.04248    -0.08155     0.17890    -0.11532    -0.07957     0.07899
 PX  C  53   0.01323    -0.02200     0.04402    -0.03056    -0.01988     0.01806
 PY  C  53  -0.00863     0.01708    -0.03279     0.01593     0.00443     0.00116
 PZ  C  53  -0.00216     0.00370    -0.00678     0.00451     0.00170    -0.00094
  
  S  C  54   0.02469    -0.04635     0.10703    -0.07619    -0.06175     0.07134
 PX  C  54   0.00513    -0.00868     0.01819    -0.01340    -0.01057     0.01298
 PY  C  54  -0.01104     0.02080    -0.04481     0.02844     0.01857    -0.01562
 PZ  C  54  -0.00191     0.00348    -0.00739     0.00498     0.00339    -0.00345
  
  S  C  55  -0.00638     0.01184    -0.02193     0.01089     0.00367     0.00153
 PX  C  55   0.00792    -0.01448     0.03244    -0.02362    -0.02048     0.02832
 PY  C  55  -0.00844     0.01677    -0.03881     0.02532     0.01855    -0.01586
 PZ  C  55  -0.00181     0.00331    -0.00738     0.00537     0.00465    -0.00663
  
  S  O  56  -0.01210     0.02372    -0.05126     0.03044     0.01833    -0.00900
 PX  O  56   0.00279    -0.00525     0.01176    -0.00811    -0.00657     0.00794
 PY  O  56   0.00409    -0.00798     0.01680    -0.00963    -0.00532     0.00194
 PZ  O  56  -0.00087     0.00166    -0.00368     0.00243     0.00183    -0.00199
  
  S  O  57  -0.01523     0.02765    -0.05808     0.03929     0.03089    -0.04158
 PX  O  57  -0.00118     0.00189    -0.00285     0.00141     0.00031    -0.00021
 PY  O  57  -0.00538     0.01029    -0.02290     0.01529     0.01199    -0.01419
 PZ  O  57   0.00040    -0.00063     0.00101    -0.00057    -0.00028     0.00033
  
  S  C  58   0.02008    -0.03689     0.08596    -0.06424    -0.05608     0.07145
 PX  C  58  -0.00258     0.00461    -0.00967     0.00611     0.00327    -0.00120
 PY  C  58  -0.00516     0.00936    -0.01970     0.01276     0.00787    -0.00583
 PZ  C  58  -0.00058     0.00104    -0.00217     0.00147     0.00094    -0.00085
  
  S  N  59   0.01084    -0.02012     0.04859    -0.03787    -0.03592     0.04960
 PX  N  59  -0.00525     0.00969    -0.02320     0.01797     0.01676    -0.02282
 PY  N  59  -0.00260     0.00490    -0.01148     0.00847     0.00726    -0.00914
 PZ  N  59  -0.00008     0.00016    -0.00034     0.00022     0.00011    -0.00006
  
  S  H  60   0.01364    -0.02904     0.06636    -0.03981    -0.02764     0.02766
  
  S  H  61   0.04311    -0.02191     0.01550     0.04889     0.06413     0.02692
  
  S  H  62   0.03527    -0.01800     0.01288     0.04112     0.05522     0.02363
  
  S  H  63   0.04311    -0.02191     0.01550     0.04889     0.06414     0.02692
  
  S  H  64   0.06950    -0.03491     0.02383     0.07251     0.08826     0.03471
  
  S  H  65   0.06951    -0.03492     0.02383     0.07252     0.08827     0.03472
  
  S  H  66   0.08952    -0.04416     0.02845     0.08156     0.08683     0.03001
  
  S  H  67   0.08953    -0.04416     0.02846     0.08156     0.08682     0.03001
  
  S  H  68   0.09493    -0.04540     0.02638     0.06713     0.05126     0.01088
  
  S  H  69   0.09492    -0.04540     0.02638     0.06712     0.05124     0.01087
  
  S  H  70   0.08628    -0.03915     0.01861     0.03486    -0.00284    -0.01296
  
  S  H  71   0.08626    -0.03914     0.01862     0.03487    -0.00285    -0.01297
  
  S  H  72   0.06465    -0.02631     0.00671    -0.00685    -0.05595    -0.03103
  
  S  H  73   0.06471    -0.02633     0.00667    -0.00693    -0.05599    -0.03106
  
  S  H  74   0.03355    -0.00920    -0.00657    -0.04681    -0.08866    -0.03523
  
  S  H  75   0.03326    -0.00908    -0.00636    -0.04643    -0.08861    -0.03513
  
  S  H  76  -0.00339     0.00992    -0.01879    -0.07388    -0.08769    -0.02328
  
  S  H  77  -0.00227     0.00945    -0.01918    -0.07473    -0.08841    -0.02378
  
  S  H  78  -0.03631     0.02553    -0.02648    -0.08339    -0.05761    -0.00216
  
  S  H  79  -0.04076     0.02715    -0.02333    -0.07864    -0.05626    -0.00046
  
  S  H  80  -0.07506     0.04345    -0.03386    -0.06550     0.00823     0.02417
  
  S  H  81  -0.06087     0.03711    -0.03477    -0.07342    -0.00583     0.01800
  
  S  H  82  -0.06261     0.03355    -0.02692    -0.05224     0.03101     0.02589
  
  S  H  83  -0.08342     0.03819    -0.01089    -0.03970     0.04713     0.03580
  
  S  H  84  -0.05110     0.03522    -0.05159    -0.01895     0.05811     0.01513
  
  S  H  85  -0.03182     0.01985    -0.03770    -0.01949     0.05130     0.00600
  
  S  H  86  -0.07692     0.03862    -0.01255     0.02203     0.06988     0.03038
  
  S  H  87  -0.03807     0.02403    -0.01962     0.03938     0.05093     0.01140
  
  S  H  88  -0.04966     0.01728     0.03670     0.06411     0.02652     0.02262
  
  S  H  89  -0.04516     0.00791     0.05106     0.05686     0.03033     0.02198
  
  S  H  90  -0.06772     0.02010     0.06280     0.06509     0.00787     0.02829
  
  S  H  91  -0.05777     0.02147     0.05057     0.07545    -0.00312     0.01997
  
  S  H  92  -0.02669     0.00995     0.05554     0.09264    -0.04724    -0.00426
  
  S  H  93  -0.02675     0.00781     0.06099     0.08973    -0.04700    -0.00258
  
  S  H  94  -0.00119     0.00355     0.04076     0.07849    -0.07160    -0.02402
  
  S  H  95  -0.00062     0.00400     0.03896     0.07942    -0.07212    -0.02491
  
  S  H  96   0.02979    -0.00411     0.01333     0.04984    -0.07140    -0.03665
  
  S  H  97   0.02974    -0.00426     0.01375     0.04953    -0.07130    -0.03643
  
  S  H  98   0.05469    -0.01077    -0.01605     0.00597    -0.04449    -0.03179
  
  S  H  99   0.05475    -0.01074    -0.01618     0.00602    -0.04454    -0.03187
  
  S  H 100   0.07204    -0.01575    -0.04221    -0.03899    -0.00146    -0.01306
  
  S  H 101   0.07201    -0.01575    -0.04217    -0.03899    -0.00145    -0.01304
  
  S  H 102   0.07862    -0.01810    -0.05912    -0.07361     0.04205     0.01152
  
  S  H 103   0.07865    -0.01811    -0.05915    -0.07363     0.04206     0.01152
  
  S  H 104   0.07386    -0.01754    -0.06344    -0.08888     0.07049     0.03113
  
  S  H 105   0.07385    -0.01753    -0.06343    -0.08886     0.07048     0.03112
  
  S  H 106   0.05720    -0.01383    -0.05298    -0.07878     0.07140     0.03586
  
  S  H 107   0.05721    -0.01383    -0.05299    -0.07880     0.07142     0.03587
  
  S  H 108   0.03542    -0.00866    -0.03441    -0.05303     0.05179     0.02776
  
  S  H 109   0.02897    -0.00711    -0.02859    -0.04458     0.04457     0.02435
  
  S  H 110   0.03543    -0.00867    -0.03441    -0.05303     0.05179     0.02776
  
  S  H 111  -0.00685    -0.02895     0.08993    -0.02727    -0.00533     0.02688
  
  S  H 112   0.01182     0.02688    -0.04509     0.02833    -0.03017     0.01096
  
  S  H 113  -0.01438     0.01365     0.03009    -0.00900    -0.00550     0.04826
  
  S  H 114  -0.02761    -0.02521     0.01842    -0.00956     0.00765     0.02411
  
  S  H 115  -0.00257     0.03682     0.03082    -0.00773    -0.00534     0.03724
  
  S  H 116   0.04060     0.07934     0.01755    -0.00213    -0.00717     0.03563
  
  S  H 117   0.04531     0.07961     0.00914     0.00227    -0.01564     0.05085
  
  S  H 118   0.04438     0.07453     0.00486     0.00403    -0.01798     0.05190
  
  S  H 119   0.03119     0.03593    -0.01486     0.01032    -0.02148     0.03864
  
  S  H 120  -0.02293    -0.08870    -0.06210     0.02473    -0.03765     0.06000
  
  S  H 121  -0.03186    -0.09796    -0.05672     0.02145    -0.03260     0.05747
  
  S  H 122  -0.02765    -0.09288    -0.06179     0.02604    -0.05112     0.12481
  
  S  H 123  -0.02274    -0.08775    -0.06465     0.02779    -0.05388     0.12662
  
  S  H 124  -0.01913    -0.07051    -0.05312     0.02431    -0.05539     0.15341
  
  S  H 125  -0.01991    -0.07130    -0.05261     0.02400    -0.05489     0.15308
  
  S  H 126  -0.01195    -0.04435    -0.03446     0.01631    -0.04002     0.11842
  
  S  H 127  -0.00990    -0.03659    -0.02864     0.01371    -0.03448     0.10415
  
  S  H 128  -0.01217    -0.04456    -0.03431     0.01622    -0.03987     0.11830
  
  S  H 129  -0.00775     0.01437    -0.03103     0.02099     0.01658    -0.02127




    ROOT NO.   13          14          15          16          17          18

           -39.64228   -39.53934   -39.18345   -38.46547   -37.16164   -37.00734
  
  
  S  C   1  -0.10306     0.11766    -0.07598    -0.16344     0.14102     0.17487
 PX  C   1  -0.03088     0.03495    -0.02188    -0.04387     0.03224     0.03908
 PY  C   1  -0.00620     0.00690    -0.00407    -0.00700     0.00311     0.00341
 PZ  C   1   0.00000    -0.00000     0.00000     0.00000    -0.00000     0.00000
  
  S  C   2  -0.13050     0.14736    -0.09148    -0.18067     0.13006     0.15743
 PX  C   2   0.01250    -0.01507     0.01153     0.03244    -0.03946    -0.05054
 PY  C   2  -0.02013     0.02216    -0.01245    -0.01875     0.00370     0.00278
 PZ  C   2   0.00000    -0.00000     0.00000     0.00000     0.00000     0.00000
  
  S  C   3  -0.09606     0.10535    -0.05854    -0.08664     0.01903     0.01607
 PX  C   3   0.01802    -0.02209     0.01750     0.05002    -0.05739    -0.07269
 PY  C   3   0.03224    -0.03699     0.02419     0.05246    -0.04320    -0.05298
 PZ  C   3   0.00000    -0.00001     0.00000    -0.00000     0.00001     0.00002
  
  S  C   4  -0.00866     0.00372     0.01054     0.07055    -0.11242    -0.14460
 PX  C   4   0.04028    -0.04564     0.02843     0.05393    -0.02860    -0.03227
 PY  C   4   0.02593    -0.03065     0.02178     0.05202    -0.04377    -0.05324
 PZ  C   4  -0.00000     0.00000    -0.00000     0.00002    -0.00004    -0.00004
  
  S  C   5   0.08300    -0.09957     0.07320     0.17916    -0.14731    -0.17812
 PX  C   5   0.03888    -0.04354     0.02566     0.03976    -0.00161     0.00319
 PY  C   5   0.00955    -0.00928     0.00234    -0.01062     0.03076     0.04079
 PZ  C   5  -0.00004     0.00004    -0.00004    -0.00009     0.00006     0.00010
  
  S  C   6   0.13105    -0.14921     0.09308     0.16625    -0.05677    -0.05619
 PX  C   6  -0.00683     0.01045    -0.01244    -0.04828     0.06081     0.07643
 PY  C   6   0.02262    -0.02395     0.01091     0.00177     0.02985     0.04067
 PZ  C   6   0.00010    -0.00016     0.00003     0.00012    -0.00008     0.00002
  
  S  C   7   0.11020    -0.11843     0.05833     0.03995     0.08233     0.11481
 PX  C   7  -0.01119     0.01613    -0.01738    -0.05993     0.05813     0.07002
 PY  C   7  -0.03066     0.03580    -0.02437    -0.05024     0.02250     0.02343
 PZ  C   7   0.00000    -0.00017    -0.00015    -0.00001    -0.00020     0.00009
  
  S  C   8   0.03113    -0.02334    -0.01014    -0.11222     0.15094     0.18609
 PX  C   8  -0.04157     0.04721    -0.02814    -0.04055    -0.01335    -0.02335
 PY  C   8  -0.02202     0.02751    -0.02184    -0.05289     0.02356     0.02361
 PZ  C   8   0.00031    -0.00091    -0.00034     0.00013    -0.00048     0.00100
  
  S  C   9  -0.06408     0.08522    -0.07253    -0.19077     0.09163     0.09300
 PX  C   9  -0.04139     0.04739    -0.02466    -0.02324    -0.03811    -0.05467
 PY  C   9  -0.01443     0.01398    -0.00264     0.02127    -0.04579    -0.05914
 PZ  C   9   0.00110    -0.00322    -0.00116     0.00062    -0.00204     0.00264
  
  S  C  10  -0.13026     0.15723    -0.08718    -0.13066    -0.04233    -0.08436
 PX  C  10  -0.00299     0.00073     0.01508     0.06402    -0.04960    -0.06146
 PY  C  10  -0.02731     0.03270    -0.00885     0.00815    -0.04207    -0.06329
 PZ  C  10   0.00253    -0.00748    -0.00096     0.00696    -0.00681     0.00948
  
  S  C  11  -0.12891     0.16313    -0.04509    -0.00891    -0.12247    -0.21113
 PX  C  11  -0.00202     0.00853     0.02578     0.06448    -0.01658    -0.04376
 PY  C  11   0.03065    -0.03238     0.02307     0.02788     0.01093     0.01605
 PZ  C  11   0.00507    -0.01013     0.00216     0.01384    -0.01059     0.01164
  
  S  C  12  -0.08648     0.12667     0.03673     0.13205    -0.05482    -0.20483
 PX  C  12   0.02849    -0.03184     0.02580     0.02535     0.06082     0.04512
 PY  C  12   0.01550    -0.00234     0.02389     0.00771     0.02650     0.00113
 PZ  C  12   0.00768    -0.00624     0.02417     0.04784     0.01327     0.01572
  
  S  C  13   0.01201     0.01967     0.11208     0.18365     0.08219    -0.00213
 PX  C  13   0.00621    -0.00153     0.01496    -0.00755     0.09106     0.00776
 PY  C  13   0.03000     0.01460     0.04546    -0.03954     0.06941    -0.00589
 PZ  C  13   0.03736    -0.06005    -0.00301    -0.00744    -0.00019     0.10779
  
  S  C  14   0.04407    -0.11678     0.01024     0.14483    -0.06975     0.19307
 PX  C  14  -0.00819     0.02555     0.02258     0.02309     0.04124    -0.02335
 PY  C  14   0.02117    -0.02210     0.01977     0.02311     0.01063     0.03240
 PZ  C  14   0.03004    -0.05664    -0.02188    -0.03584    -0.01538     0.07647
  
  S  C  15   0.10113    -0.22456    -0.04942     0.02358    -0.08723     0.25680
 PX  C  15  -0.01115     0.03787     0.03218     0.04181     0.00748     0.00895
 PY  C  15   0.00586     0.00085     0.00139    -0.02045     0.01065    -0.02042
 PZ  C  15  -0.00763     0.01334    -0.00907    -0.03248     0.02026    -0.03802
  
  S  C  16   0.08601    -0.21595    -0.09554    -0.08101    -0.03357     0.09308
 PX  C  16   0.02097    -0.04042     0.00122     0.03164    -0.04925     0.10027
 PY  C  16   0.00405    -0.00478    -0.00599    -0.02160     0.01574    -0.03444
 PZ  C  16   0.01388    -0.03179    -0.01334    -0.02468     0.02804    -0.01067
  
  S  C  17   0.04590    -0.12434    -0.07552    -0.12143     0.09360    -0.11575
 PX  C  17   0.02380    -0.05049    -0.01271     0.00783    -0.05084     0.09443
 PY  C  17  -0.01394     0.03479     0.01364     0.00859     0.01134    -0.03015
 PZ  C  17  -0.01584     0.03913     0.01925     0.01894     0.00857    -0.01452
  
  S  C  18  -0.02412     0.03942    -0.00955    -0.07297     0.14324    -0.23019
 PX  C  18   0.02590    -0.06522    -0.03396    -0.04216     0.01524    -0.01505
 PY  C  18  -0.01377     0.03345     0.01446     0.01180     0.00716    -0.01731
 PZ  C  18  -0.01393     0.03220     0.01282     0.00530     0.02048    -0.03318
  
  S  C  19  -0.07810     0.17752     0.06547     0.02814     0.07699    -0.13928
 PX  C  19   0.02235    -0.05694    -0.03141    -0.04564     0.04290    -0.06291
 PY  C  19  -0.00209     0.00776     0.00751     0.01796    -0.02797     0.04350
 PZ  C  19   0.00432    -0.00721     0.00177     0.01391    -0.03056     0.05043
  
  S  C  20  -0.09208     0.22142     0.10234     0.10977    -0.05547     0.07165
 PX  C  20  -0.01243     0.02585     0.00530    -0.01181     0.04917    -0.08375
 PY  C  20  -0.00368     0.01080     0.00807     0.01681    -0.02837     0.04582
 PZ  C  20  -0.01049     0.02698     0.01536     0.02380    -0.02961     0.04678
  
  S  C  21  -0.05765     0.14622     0.07980     0.11731    -0.14041     0.22041
 PX  C  21  -0.01767     0.03998     0.01444     0.00525     0.02487    -0.04561
 PY  C  21   0.01399    -0.03325    -0.01483    -0.01460     0.00350    -0.00257
 PZ  C  21   0.01700    -0.04116    -0.01951    -0.02237     0.01458    -0.02019
  
  S  C  22   0.00679    -0.00719     0.01083     0.04551    -0.10632     0.17751
 PX  C  22  -0.02800     0.06871     0.03431     0.04526    -0.04865     0.07549
 PY  C  22   0.01353    -0.03222    -0.01461    -0.01602     0.01111    -0.01589
 PZ  C  22   0.01264    -0.02939    -0.01221    -0.01071     0.00139     0.00010
  
  S  C  23   0.06790    -0.15728    -0.06470    -0.05745     0.01877    -0.02090
 PX  C  23  -0.02536     0.06233     0.03158     0.04434    -0.05950     0.09589
 PY  C  23   0.00473    -0.01259    -0.00788    -0.01445     0.02546    -0.04204
 PZ  C  23  -0.00103     0.00094    -0.00201    -0.00844     0.02141    -0.03616
  
  S  C  24   0.09178    -0.21884    -0.10049    -0.11874     0.12393    -0.19465
 PX  C  24   0.00897    -0.02004    -0.00693    -0.00211    -0.01250     0.02294
 PY  C  24   0.00580    -0.01453    -0.00781    -0.01228     0.02015    -0.03330
 PZ  C  24   0.01278    -0.03115    -0.01540    -0.02112     0.02908    -0.04724
  
  S  C  25   0.07234    -0.17440    -0.08329    -0.10717     0.13400    -0.21558
 PX  C  25   0.01305    -0.03104    -0.01413    -0.01628     0.01563    -0.02419
 PY  C  25  -0.01117     0.02672     0.01240     0.01494    -0.01608     0.02532
 PZ  C  25  -0.01397     0.03347     0.01562     0.01908    -0.02120     0.03355
  
  S  C  26   0.08304     0.04810     0.13394    -0.05025     0.05004     0.00475
 PX  C  26   0.01058     0.01626     0.04554     0.00179     0.11608    -0.00117
 PY  C  26   0.01460     0.02399    -0.02090    -0.12525    -0.07946    -0.01467
 PZ  C  26   0.01437    -0.02297    -0.01115    -0.02079    -0.02266     0.03749
  
  S  C  27   0.04526     0.02959    -0.00750    -0.12077    -0.15606    -0.00815
 PX  C  27   0.02599     0.02844     0.04123    -0.05490    -0.00732    -0.00163
 PY  C  27  -0.02297     0.01127    -0.04889    -0.01786    -0.04262    -0.01347
 PZ  C  27   0.00201    -0.01318    -0.01250    -0.00185    -0.00754     0.01334
  
  S  C  28  -0.04566     0.02254    -0.12232    -0.05172    -0.16238    -0.02102
 PX  C  28   0.01514     0.00932     0.04667    -0.03453     0.02799     0.00151
 PY  C  28  -0.06935    -0.02860    -0.07750     0.10896     0.03242     0.00095
 PZ  C  28  -0.00876    -0.00711    -0.01466     0.01668     0.00249     0.00341
  
  S  S  29  -0.01031     0.02575    -0.01580    -0.07465    -0.03609    -0.01116
 PX  S  29   0.01291    -0.00910     0.02665     0.02323     0.04876     0.00634
 PY  S  29  -0.04913    -0.03117    -0.04742     0.08403     0.01364     0.00544
 PZ  S  29  -0.00689    -0.00506    -0.00854     0.01020    -0.00114     0.00244
  
  S  C  30   0.06611     0.05477     0.10575    -0.11362     0.11353    -0.00586
 PX  C  30  -0.02713    -0.02277    -0.03566     0.03519     0.03203     0.00255
 PY  C  30  -0.00790     0.00439    -0.03791    -0.04305    -0.11083    -0.00794
 PZ  C  30   0.00363    -0.00467    -0.00507    -0.00889    -0.01912     0.00964
  
  S  C  31  -0.01167    -0.01376    -0.03188    -0.06813     0.11023     0.00096
 PX  C  31  -0.03575    -0.02721    -0.09393    -0.02917    -0.11718    -0.00079
 PY  C  31   0.03093     0.02636     0.06362    -0.00066     0.02740    -0.00265
 PZ  C  31   0.00870     0.00058     0.01299     0.00070     0.00888     0.00844
  
  S  C  32  -0.03735    -0.02623    -0.04452     0.03142     0.07542     0.00060
 PX  C  32  -0.03847    -0.03532    -0.12577    -0.10121    -0.09467     0.00103
 PY  C  32   0.02311     0.01438     0.04965    -0.01604     0.10074    -0.00136
 PZ  C  32   0.01273    -0.01074     0.01061     0.00155     0.01676     0.02734
  
  S  C  33  -0.07313    -0.05521    -0.17393    -0.05454    -0.14194    -0.00157
 PX  C  33  -0.00700    -0.01023    -0.04305    -0.04939    -0.06530     0.00072
 PY  C  33  -0.02557    -0.02028    -0.05902    -0.02682    -0.01283    -0.00084
[...]
  78    H        7.879748692     6.275000018    -0.878780365
  79    H        7.874414306     6.271895185     0.880188690
  80    H       10.175824270     5.179962755     0.904347953
  81    H       10.178711940     5.139449509    -0.859692687
  82    H        9.991290456     7.661831646    -0.934000077
  83    H        9.883281784     7.732690787     0.815699738
  84    H       12.292161250     6.195424765    -0.248280738
  85    H       12.261609470     7.888656558    -0.686371169
  86    H       11.230880410     5.831668351     2.136576487
  87    H       12.747107350     6.031125133     2.969471824
  88    H       11.318423890     6.697796277     4.648848367
  89    H       11.691788840     8.269972782     3.987344156
  90    H        9.551383620     8.030355576     2.485931000
  91    H        9.195680895     6.536041559     3.343363322
  92    H        9.228413000     7.813174401     5.570186809
  93    H        9.543085589     9.306005145     4.697222399
  94    H        7.382262724     8.975281053     3.364508342
  95    H        7.065758400     7.492262456     4.253457627
  96    H        7.086804417     8.804148853     6.447317580
  97    H        7.399630901    10.287300120     5.557038470
  98    H        5.236149661     9.950719150     4.237609593
  99    H        4.923044193     8.468894796     5.130222630
 100    H        4.943448407     9.784550866     7.321124553
 101    H        5.256253169    11.266287030     6.428448868
 102    H        3.092179783    10.929510530     5.111186960
 103    H        2.779371178     9.447806593     6.003970691
 104    H        2.798608295    10.764112480     8.195162530
 105    H        3.111524058    12.245653250     7.302554627
 106    H        0.944908977    11.910953270     5.987656070
 107    H        0.632031345    10.429542970     6.880082064
 108    H        0.915244953    13.236198190     8.169892208
 109    H       -0.595829919    12.360525420     7.924273735
 110    H        0.600996486    11.748601880     9.066039833
 111    H       10.169293280     9.676203765     1.925455401
 112    H       14.587078180     5.359159317     1.041526665
 113    H       18.412857820     7.131031248     2.581532818
 114    H       20.488201910     5.817001765     2.297985844
 115    H       16.482633660     4.948539399    -0.619162305
 116    H       17.122112050     2.941644519    -2.261641050
 117    H       18.244657240     1.080643715    -3.490849043
 118    H       20.557081650     0.424414895    -2.946021318
 119    H       21.842894520     1.595038194    -1.174802865
 120    H       22.719425110     3.234291202     0.342022436
 121    H       22.253093500     4.481377616     1.508182261
 122    H       20.846853490     2.746387990     2.788284688
 123    H       21.314258440     1.509884729     1.628464834
 124    H       23.778246500     1.900247686     2.207266556
 125    H       23.309429810     3.135828010     3.367700971
 126    H       22.427232230     0.165146938     3.504958072
 127    H       23.650106870     0.927698315     4.522114163
 128    H       21.958594690     1.405516879     4.670149719
 129    H        8.454447623    15.089103180     3.054268054


           Empirical Formula: C53 H70 N2 O2 S2  =   129 atoms



      MOLECULAR POINT GROUP   :   C1  


                  EIGENVALUES  
 -48.54914 -48.11969 -46.73323 -43.84334 -43.38898 -43.29402 -42.63714 -42.49521
 -42.07197 -41.66711 -40.87728 -40.24480 -39.64228 -39.53934 -39.18345 -38.46547
 -37.16164 -37.00734 -36.53893 -35.99623 -34.91456 -34.18520 -33.50248 -33.14726
 -32.43038 -31.57206 -31.22094 -30.64594 -30.14316 -29.68888 -29.61523 -28.96605
 -27.92932 -27.76989 -26.93865 -26.49852 -26.36680 -26.19814 -25.86891 -25.77394
 -25.56303 -25.27407 -25.10922 -25.10361 -24.58922 -24.20208 -24.19563 -23.92047
 -23.77667 -23.64004 -23.40024 -23.02020 -22.52975 -22.12382 -21.63860 -21.47942
 -21.34371 -20.78520 -20.73534 -20.53185 -20.41013 -20.22278 -20.04158 -19.85370
 -19.77559 -19.65465 -19.23339 -19.07856 -18.93578 -18.92707 -18.83131 -18.45710
 -18.34338 -18.27332 -17.93030 -17.60539 -17.55046 -17.35693 -17.31445 -17.29281
 -17.16285 -16.86159 -16.67982 -16.64777 -16.35415 -16.09952 -16.04101 -15.86956
 -15.83259 -15.77893 -15.68142 -15.62815 -15.42544 -15.34054 -15.29822 -15.23404
 -15.10790 -15.07897 -14.83619 -14.72459 -14.64277 -14.38555 -14.29250 -14.22587
 -14.10148 -14.04510 -13.99662 -13.92116 -13.89516 -13.78590 -13.65088 -13.57870
 -13.54644 -13.52057 -13.48478 -13.46004 -13.44871 -13.40492 -13.37470 -13.28282
 -13.17650 -13.14179 -13.03326 -13.01217 -12.97059 -12.88153 -12.76190 -12.72136
 -12.62857 -12.60936 -12.56096 -12.45609 -12.42743 -12.40900 -12.40386 -12.39749
 -12.36762 -12.13235 -12.05455 -11.99823 -11.88821 -11.79216 -11.68458 -11.37106
 -11.21048 -11.12711 -11.03528 -10.87002 -10.81498 -10.80013 -10.04420  -9.74558
  -9.71481  -9.17356  -8.71501  -7.78580  -7.66123  -6.70472  -1.42519  -0.10523
   0.17259   0.60307   0.84471   1.03752   1.34541   1.53381   1.60100   1.97519
   2.04268   2.16850   2.37950   2.38176   2.64827   2.71768   2.81920   2.85663
   3.03602   3.07345   3.16201   3.21869   3.35681   3.37093   3.43037   3.45956
   3.65134   3.66200   3.75741   3.86152   3.88282   3.88845   3.90451   4.02467
   4.08412   4.10934   4.16418   4.21037   4.23472   4.24544   4.34301   4.37061
   4.41071   4.50999   4.58259   4.65076   4.65745   4.77491   4.95789   5.01641
   5.08682   5.14146   5.21298   5.24425   5.29339   5.35130   5.37530   5.44080
   5.47492   5.63844   5.68463   5.86962   6.31236   6.32965   6.44098   6.53978
   6.57902   6.60347   6.63610   6.67260   6.72000   6.75252   6.75588   6.76044
   6.77329   6.77490   6.78283   6.78715   6.79456   6.79873   6.81272   6.82438
   6.84046   6.84851   6.85490   6.87668   6.92179   6.94124   6.98026   7.00004
   7.00592   7.02034   7.02420   7.05541   7.05632   7.07558   7.08948   7.10810
   7.88096   8.05546   8.22115   8.37309   8.42588   8.45059   8.51719   8.52444
   8.53520   8.54582   8.56263   8.58460   8.63024   8.67958   8.71028   8.71060
   8.71983   8.72650   8.73525   8.82319   8.94983   8.97897   9.05916   9.34685
   9.59090   9.63630   9.75983   9.88660   9.98002  10.32743  10.42102  10.66367
  10.87431  10.89851  11.04890  11.06913  11.27349  11.50353  11.56530  11.74657
  12.07561  12.09411  12.45496  12.68711  12.98644  13.17988  13.78574  14.08250
  14.40611  15.10862


              NET ATOMIC CHARGES AND DIPOLE CONTRIBUTIONS

  ATOM NO.   TYPE          CHARGE      No. of ELECS.   s-Pop       p-Pop       
    1          C          -0.027955        4.0280     1.05492     2.97304
    2          C          -0.007061        4.0071     1.04480     2.96226
    3          C          -0.008621        4.0086     1.05052     2.95810
    4          C          -0.011696        4.0117     1.05216     2.95954
    5          C          -0.011995        4.0120     1.05222     2.95978
    6          C          -0.012000        4.0120     1.05227     2.95973
    7          C          -0.011868        4.0119     1.05224     2.95963
    8          C          -0.011755        4.0118     1.05217     2.95958
    9          C          -0.012108        4.0121     1.05237     2.95974
   10          C          -0.012562        4.0126     1.05587     2.95669
   11          C          -0.017345        4.0173     1.05737     2.95998
   12          C           0.005807        3.9942     1.05475     2.93945
   13          C           0.055953        3.9440     1.01234     2.93171
   14          C          -0.003178        4.0032     1.05810     2.94507
   15          C          -0.010553        4.0106     1.05440     2.95615
   16          C          -0.016917        4.0169     1.05804     2.95888
   17          C          -0.012048        4.0120     1.05222     2.95983
   18          C          -0.011741        4.0117     1.05215     2.95959
   19          C          -0.011578        4.0116     1.05215     2.95943
   20          C          -0.011717        4.0117     1.05221     2.95951
   21          C          -0.011888        4.0119     1.05219     2.95970
   22          C          -0.011624        4.0116     1.05215     2.95947
   23          C          -0.008585        4.0086     1.05051     2.95807
   24          C          -0.007009        4.0070     1.04480     2.96221
   25          C          -0.027971        4.0280     1.05493     2.97304
   26          C          -0.036134        4.0361     1.07176     2.96438
   27          C           0.032508        3.9675     1.10520     2.86229
   28          C          -0.025186        4.0252     1.06223     2.96296
   29          S          -0.021494        6.0215     1.76130     4.26020
   30          C           0.055822        3.9442     1.08806     2.85612
   31          C          -0.028415        4.0284     1.06918     2.95924
   32          C           0.023757        3.9762     1.09185     2.88439
   33          C          -0.055059        4.0551     1.08081     2.97425
   34          C           0.061820        3.9382     1.09299     2.84519
   35          S          -0.046332        6.0463     1.76795     4.27838
   36          C           0.007350        3.9927     1.03767     2.95498
   37          C          -0.024710        4.0247     1.08167     2.94304
   38          C          -0.039103        4.0391     1.07753     2.96157
   39          C           0.078998        3.9210     1.05089     2.87011
   40          C          -0.014406        4.0144     1.05029     2.96411
   41          C          -0.023386        4.0234     1.08135     2.94204
   42          C          -0.016491        4.0165     1.04732     2.96917
   43          C          -0.020480        4.0205     1.07914     2.94134
   44          C          -0.045252        4.0453     1.07741     2.96784
   45          C          -0.024115        4.0241     1.08057     2.94354
   46          C          -0.042689        4.0427     1.07563     2.96706
   47          C           0.078591        3.9214     1.05172     2.86969
   48          N          -0.156500        5.1565     1.26021     3.89629
   49          C           0.073984        3.9260     1.04887     2.87714
   50          C          -0.001170        4.0012     1.05075     2.95042
   51          C          -0.006392        4.0064     1.04342     2.96297
   52          C          -0.026904        4.0269     1.05449     2.97242
   53          C           0.113538        3.8865     1.09214     2.79432
   54          C          -0.010730        4.0107     0.99949     3.01124
   55          C           0.494044        3.5060     1.04633     2.45962
   56          O          -0.618403        6.6184     1.81584     4.80257
   57          O          -0.314711        6.3147     1.68916     4.62555
   58          C           0.212842        3.7872     1.15302     2.63414
   59          N          -0.408397        5.4084     1.75387     3.65453
   60          H           0.055731        0.9443     0.94427
   61          H           0.007828        0.9922     0.99217
   62          H           0.000402        0.9996     0.99960
   63          H           0.007808        0.9922     0.99219
   64          H           0.006176        0.9938     0.99382
   65          H           0.006182        0.9938     0.99382
   66          H           0.006874        0.9931     0.99313
   67          H           0.006832        0.9932     0.99317
   68          H           0.006306        0.9937     0.99369
   69          H           0.006359        0.9936     0.99364
   70          H           0.006214        0.9938     0.99379
   71          H           0.006182        0.9938     0.99382
   72          H           0.006017        0.9940     0.99398
   73          H           0.006058        0.9939     0.99394
   74          H           0.006170        0.9938     0.99383
   75          H           0.006154        0.9938     0.99385
   76          H           0.006158        0.9938     0.99384
   77          H           0.006144        0.9939     0.99386
   78          H           0.006938        0.9931     0.99306
   79          H           0.006425        0.9936     0.99358
   80          H           0.012476        0.9875     0.98752
   81          H           0.008000        0.9920     0.99200
   82          H           0.004706        0.9953     0.99529
   83          H           0.015917        0.9841     0.98408
   84          H           0.008043        0.9920     0.99196
   85          H           0.003077        0.9969     0.99692
   86          H           0.017580        0.9824     0.98242
   87          H           0.002904        0.9971     0.99710
   88          H           0.000583        0.9994     0.99942
   89          H           0.012242        0.9878     0.98776
   90          H           0.016120        0.9839     0.98388
   91          H           0.007561        0.9924     0.99244
   92          H           0.007324        0.9927     0.99268
   93          H           0.006630        0.9934     0.99337
   94          H           0.006832        0.9932     0.99317
   95          H           0.006005        0.9940     0.99399
   96          H           0.005757        0.9942     0.99424
   97          H           0.006855        0.9931     0.99315
   98          H           0.006504        0.9935     0.99350
   99          H           0.005600        0.9944     0.99440
  100          H           0.005926        0.9941     0.99407
  101          H           0.006543        0.9935     0.99346
  102          H           0.006532        0.9935     0.99347
  103          H           0.005992        0.9940     0.99401
  104          H           0.006742        0.9933     0.99326
  105          H           0.007086        0.9929     0.99291
  106          H           0.006215        0.9938     0.99378
  107          H           0.005914        0.9941     0.99409
  108          H           0.007996        0.9920     0.99200
  109          H           0.000268        0.9997     0.99973
  110          H           0.007765        0.9922     0.99223
  111          H           0.053012        0.9470     0.94699
  112          H           0.038545        0.9615     0.96146
  113          H           0.023104        0.9769     0.97690
  114          H           0.027506        0.9725     0.97249
  115          H           0.028090        0.9719     0.97191
  116          H           0.023881        0.9761     0.97612
  117          H           0.015978        0.9840     0.98402
  118          H           0.018695        0.9813     0.98131
  119          H           0.026664        0.9733     0.97334
  120          H           0.019921        0.9801     0.98008
  121          H           0.020209        0.9798     0.97979
  122          H           0.012504        0.9875     0.98750
  123          H           0.012489        0.9875     0.98751
  124          H           0.008247        0.9918     0.99175
  125          H           0.008304        0.9917     0.99170
  126          H           0.008211        0.9918     0.99179
  127          H           0.001085        0.9989     0.99892
  128          H           0.008269        0.9917     0.99173
  129          H           0.245852        0.7541     0.75415
 DIPOLE           X         Y         Z       TOTAL
 POINT-CHG.    -0.547   -13.836    -0.372    13.852
 HYBRID        -3.809    -2.452     0.297     4.540
 SUM           -4.356   -16.288    -0.075    16.860


          ATOMIC ORBITAL ELECTRON POPULATIONS

     Atom    s        px        py        pz   
    1  C   1.05492   0.99087   0.98896   0.99321
    2  C   1.04480   0.99087   0.98561   0.98579
    3  C   1.05052   0.99108   0.98004   0.98698
    4  C   1.05216   0.99033   0.98299   0.98622
    5  C   1.05222   0.99124   0.98246   0.98608
    6  C   1.05227   0.99114   0.98268   0.98591
    7  C   1.05224   0.99097   0.98263   0.98604
    8  C   1.05217   0.99133   0.98224   0.98601
    9  C   1.05237   0.99025   0.98319   0.98630
   10  C   1.05587   0.99107   0.97973   0.98589
   11  C   1.05737   0.97959   0.99151   0.98887
   12  C   1.05475   0.98764   0.98456   0.96725
   13  C   1.01234   0.98145   0.97455   0.97571
   14  C   1.05810   0.98713   0.97210   0.98585
   15  C   1.05440   0.99638   0.98696   0.97281
   16  C   1.05804   0.98719   0.98850   0.98319
   17  C   1.05222   0.99367   0.98613   0.98002
   18  C   1.05215   0.99144   0.98675   0.98140
   19  C   1.05215   0.99290   0.98656   0.97997
   20  C   1.05221   0.99252   0.98618   0.98081
   21  C   1.05219   0.99250   0.98670   0.98050
   22  C   1.05215   0.99289   0.98619   0.98040
   23  C   1.05051   0.98924   0.98739   0.98144
   24  C   1.04480   0.99743   0.98578   0.97900
   25  C   1.05493   0.98700   0.99291   0.99313
   26  C   1.07176   0.98563   0.94472   1.03403
   27  C   1.10520   0.94816   0.99776   0.91636
   28  C   1.06223   0.87902   0.96234   1.12160
   29  S   1.76130   1.19122   1.20044   1.86854
   30  C   1.08806   1.00101   0.89362   0.96149
   31  C   1.06918   0.86924   0.97987   1.11013
   32  C   1.09185   0.95950   1.00960   0.91529
   33  C   1.08081   0.96946   0.93169   1.07309
   34  C   1.09299   0.99235   0.89623   0.95661
   35  S   1.76795   1.20118   1.19594   1.88126
   36  C   1.03767   0.96526   0.99299   0.99673
   37  C   1.08167   0.98346   0.97925   0.98033
   38  C   1.07753   0.96959   0.99940   0.99258
   39  C   1.05089   0.93408   0.95394   0.98208
   40  C   1.05029   0.97555   0.98837   1.00019
   41  C   1.08135   0.96230   0.98834   0.99140
   42  C   1.04732   0.98728   0.99407   0.98782
   43  C   1.07914   0.95114   0.99464   0.99556
   44  C   1.07741   0.98338   0.99933   0.98513
   45  C   1.08057   0.98805   0.97004   0.98545
   46  C   1.07563   0.95299   1.00651   1.00756
   47  C   1.05172   0.98331   0.94309   0.94329
   48  N   1.26021   1.18742   1.36786   1.34101
   49  C   1.04887   0.90677   0.99764   0.97274
   50  C   1.05075   0.98354   0.98159   0.98529
   51  C   1.04342   0.98017   0.98813   0.99467
   52  C   1.05449   0.99053   0.99185   0.99004
   53  C   1.09214   0.98346   0.98374   0.82713
   54  C   0.99949   0.89223   0.93029   1.18871
   55  C   1.04633   0.85525   0.92047   0.68391
   56  O   1.81584   1.92272   1.29531   1.58454
   57  O   1.68916   1.24755   1.52699   1.85101
   58  C   1.15302   0.93860   0.82313   0.87241
   59  N   1.75387   1.23315   1.22294   1.19844
   60  H   0.94427
   61  H   0.99217
   62  H   0.99960
   63  H   0.99219
   64  H   0.99382
   65  H   0.99382
   66  H   0.99313
   67  H   0.99317
   68  H   0.99369
   69  H   0.99364
   70  H   0.99379
   71  H   0.99382
   72  H   0.99398
   73  H   0.99394
   74  H   0.99383
   75  H   0.99385
   76  H   0.99384
   77  H   0.99386
   78  H   0.99306
   79  H   0.99358
   80  H   0.98752
   81  H   0.99200
   82  H   0.99529
   83  H   0.98408
   84  H   0.99196
   85  H   0.99692
   86  H   0.98242
   87  H   0.99710
   88  H   0.99942
   89  H   0.98776
   90  H   0.98388
   91  H   0.99244
   92  H   0.99268
   93  H   0.99337
   94  H   0.99317
   95  H   0.99399
   96  H   0.99424
   97  H   0.99315
   98  H   0.99350
   99  H   0.99440
  100  H   0.99407
  101  H   0.99346
  102  H   0.99347
  103  H   0.99401
  104  H   0.99326
  105  H   0.99291
  106  H   0.99378
  107  H   0.99409
  108  H   0.99200
  109  H   0.99973
  110  H   0.99223
  111  H   0.94699
  112  H   0.96146
  113  H   0.97690
  114  H   0.97249
  115  H   0.97191
  116  H   0.97612
  117  H   0.98402
  118  H   0.98131
  119  H   0.97334
  120  H   0.98008
  121  H   0.97979
  122  H   0.98750
  123  H   0.98751
  124  H   0.99175
  125  H   0.99170
  126  H   0.99179
  127  H   0.99892
  128  H   0.99173
  129  H   0.75415

 **********************
 *                    *
 * JOB ENDED NORMALLY *
 *                    *
 **********************



 TOTAL JOB TIME:           822.39 SECONDS

 == MOPAC DONE ==
