 *******************************************************************************
 ** Site#: 4824         For non-commercial use only    Version 21.013L 64BITS **
 *******************************************************************************
 ** Cite this program as: MOPAC2016, Version: 21.013L, James J. P. Stewart,   **
 ** Stewart Computational Chemistry, web: HTTP://OpenMOPAC.net. Days left:  84**
 *******************************************************************************
 **                                                                           **
 **                                MOPAC2016                                  **
 **                                                                           **
 *******************************************************************************

                              INDO CALCULATION RESULTS

 *******************************************************************************
 *  CALCULATION DONE:                                Thu Oct 21 13:41:43 2021  *
 *  INDO       - The INDO Hamiltonian to be used
 *  CIS        - C.I. USES 1 ELECTRON EXCITATIONS ONLY
 *  EPS=  8.93 - USE ANDREAS KLAMT'S COSMO IMPLICIT SOLVATION MODEL
 *  n**2 =  1.420 for COSMO-CI
 *  T=         - A TIME OF 172800.0 SECONDS REQUESTED
 *  DUMP=N     - RESTART FILE WRITTEN EVERY 7200.0 SECONDS REQUESTED
 *******************************************************************************
INDO CIS EPS=8.93 N**2=1.42
 Dye76
 Calculo de Estados Excitados
   ATOM   CHEMICAL          X               Y               Z
  NUMBER   SYMBOL      (ANGSTROMS)     (ANGSTROMS)     (ANGSTROMS)
 
     1       N          0.00000000  *   0.00000000  *   0.00000000  *
     2       C          1.15661538  *   0.00000000  *   0.00000000  *
     3       C          2.57297339  *   0.02341087  *   0.00000000  *
     4       C          3.32927131  *  -1.09113225  *   0.06714207  *
     5       C          2.79004905  *  -2.41682590  *   0.08582333  *
     6       C          1.67176181  *  -2.87059589  *  -0.56356199  *
     7       C          1.45090050  *  -4.26316042  *  -0.33829486  *
     8       C          2.40889426  *  -4.81238046  *   0.47212815  *
     9       S          3.57826736  *  -3.66171238  *   0.95817442  *
    10       C          2.48166681  *  -6.16711454  *   0.91062922  *
    11       S          1.06857904  *  -7.05560201  *   1.29206603  *
    12       C          1.98470566  *  -8.46315401  *   1.67481115  *
    13       C          3.32946420  *  -8.23979350  *   1.53563591  *
    14       C          3.61620088  *  -6.90755456  *   1.08431766  *
    15       C          4.42341195  *  -9.14514824  *   1.83770002  *
    16       C          4.64966548  * -10.32868353  *   1.12555258  *
    17       O          3.79011427  * -10.56244887  *   0.09545002  *
    18       C          3.59444043  * -11.91224343  *  -0.25726410  *
    19       C          5.72450592  * -11.16936018  *   1.42870247  *
    20       C          6.58879242  * -10.81600007  *   2.45246254  *
    21       C          6.41148592  *  -9.64102161  *   3.17101677  *
    22       C          5.33680655  *  -8.81217174  *   2.85225600  *
    23       O          5.09100410  *  -7.61697535  *   3.46042600  *
    24       C          5.72277126  *  -7.37966683  *   4.69391452  *
    25       C          1.31827902  *  -9.64498798  *   2.11628673  *
    26       S          1.98138756  * -10.58143096  *   3.40608092  *
    27       C          0.69008271  * -11.70480028  *   3.33203252  *
    28       C         -0.22397569  * -11.37392133  *   2.37840402  *
    29       C          0.13418387  * -10.17106521  *   1.67561664  *
    30       C         -0.76535820  *  -9.63274086  *   0.67046410  *
    31       C         -2.05665382  *  -9.22430657  *   1.04606953  *
    32       O         -2.33018729  *  -9.38289713  *   2.37163750  *
    33       C         -3.47199472  *  -8.73821067  *   2.87880102  *
    34       C         -2.96446714  *  -8.72048441  *   0.11543002  *
    35       C         -2.58393970  *  -8.63972900  *  -1.21749164  *
    36       C         -1.32813255  *  -9.05283509  *  -1.63290646  *
    37       C         -0.42873737  *  -9.54996391  *  -0.68563878  *
    38       O          0.80277967  * -10.03417293  *  -1.00744928  *
    39       C          1.39496371  *  -9.51267731  *  -2.17390745  *
    40       C          0.61305941  * -12.84211902  *   4.21804256  *
    41       C          1.76371331  * -13.59277929  *   4.50082053  *
    42       C          1.72216201  * -14.69743429  *   5.33631707  *
    43       C          0.49121468  * -15.03912973  *   5.88886984  *
    44       C         -0.67669102  * -14.27715685  *   5.61506452  *
    45       C         -0.61879231  * -13.18033139  *   4.77405539  *
    46       C         -1.75766272  * -14.88111638  *   6.35350239  *
    47       C         -3.10165726  * -14.57004069  *   6.47057690  *
    48       C         -3.89120889  * -15.36062866  *   7.29344841  *
    49       C         -3.34863232  * -16.44579814  *   7.98722654  *
    50       C         -2.00709170  * -16.78214187  *   7.88168943  *
    51       C         -1.21510695  * -15.99232624  *   7.05372316  *
    52       N          0.14661361  * -16.14286159  *   6.70201634  *
    53       C          1.11366015  * -16.89422669  *   7.49909242  *
    54       C          1.56082184  * -16.12559884  *   8.74080270  *
    55       C          3.22641725  *   1.33755374  *  -0.04493754  *
    56       O          4.42979775  *   1.55472572  *  -0.01361439  *
    57       O          2.36836074  *   2.37401425  *  -0.13203438  *
    58       H          4.42683103  *  -1.01078744  *   0.11822488  *
    59       H          1.02620033  *  -2.27638363  *  -1.20780325  *
    60       H          0.61423430  *  -4.80483942  *  -0.77328801  *
    61       H          4.63204409  *  -6.55959508  *   0.90983805  *
    62       H          3.46676640  * -12.59161264  *   0.60140356  *
    63       H          2.65679750  * -11.90385211  *  -0.83499748  *
    64       H          4.40471520  * -12.29270064  *  -0.90075884  *
    65       H          5.90862311  * -12.09036446  *   0.87243142  *
    66       H          7.43248889  * -11.47092286  *   2.69497168  *
    67       H          7.12375186  *  -9.39455252  *   3.96015192  *
    68       H          5.57115294  *  -8.18234986  *   5.43407300  *
    69       H          6.80237368  *  -7.18243323  *   4.58874740  *
    70       H          5.23326568  *  -6.46355526  *   5.05964538  *
    71       H         -1.12762545  * -11.93367311  *   2.14881288  *
    72       H         -4.41248386  *  -9.19841648  *   2.53357111  *
    73       H         -3.38651029  *  -8.88856551  *   3.96635321  *
    74       H         -3.49991411  *  -7.65574940  *   2.67206606  *
    75       H         -3.96746912  *  -8.39427545  *   0.39541026  *
    76       H         -3.29306732  *  -8.24844493  *  -1.95489173  *
    77       H         -1.07426359  *  -8.99316699  *  -2.69280904  *
    78       H          1.00034076  *  -9.98737139  *  -3.08731868  *
    79       H          1.31374020  *  -8.41779093  *  -2.27270787  *
    80       H          2.45993833  *  -9.77389810  *  -2.07000318  *
    81       H          2.71778846  * -13.30455030  *   4.04734165  *
    82       H          2.62569580  * -15.27289132  *   5.54493006  *
    83       H         -1.51921902  * -12.59681550  *   4.56446953  *
    84       H         -3.52078039  * -13.72085590  *   5.92528265  *
    85       H         -4.95502786  * -15.13324724  *   7.40335449  *
    86       H         -3.99998778  * -17.04561427  *   8.63078528  *
    87       H         -1.59925795  * -17.63383897  *   8.42839459  *
    88       H          0.66309924  * -17.87462559  *   7.77890030  *
    89       H          1.98638548  * -17.14970077  *   6.85420460  *
    90       H          0.72058419  * -15.89079795  *   9.41020008  *
    91       H          2.28714938  * -16.70522806  *   9.32818319  *
    92       H          2.04188056  * -15.16969393  *   8.48748765  *
    93       H          2.84324170  *   3.21736216  *  -0.15656828  *
 


          CARTESIAN COORDINATES 

    NO.       ATOM           X           Y           Z

     1         N          0.0000      0.0000      0.0000
     2         C          1.1566      0.0000      0.0000
     3         C          2.5730      0.0234      0.0000
     4         C          3.3293     -1.0911      0.0671
     5         C          2.7900     -2.4168      0.0858
     6         C          1.6718     -2.8706     -0.5636
     7         C          1.4509     -4.2632     -0.3383
     8         C          2.4089     -4.8124      0.4721
     9         S          3.5783     -3.6617      0.9582
    10         C          2.4817     -6.1671      0.9106
    11         S          1.0686     -7.0556      1.2921
    12         C          1.9847     -8.4632      1.6748
    13         C          3.3295     -8.2398      1.5356
    14         C          3.6162     -6.9076      1.0843
    15         C          4.4234     -9.1451      1.8377
    16         C          4.6497    -10.3287      1.1256
    17         O          3.7901    -10.5624      0.0955
    18         C          3.5944    -11.9122     -0.2573
    19         C          5.7245    -11.1694      1.4287
    20         C          6.5888    -10.8160      2.4525
    21         C          6.4115     -9.6410      3.1710
    22         C          5.3368     -8.8122      2.8523
    23         O          5.0910     -7.6170      3.4604
    24         C          5.7228     -7.3797      4.6939
    25         C          1.3183     -9.6450      2.1163
    26         S          1.9814    -10.5814      3.4061
    27         C          0.6901    -11.7048      3.3320
    28         C         -0.2240    -11.3739      2.3784
    29         C          0.1342    -10.1711      1.6756
    30         C         -0.7654     -9.6327      0.6705
    31         C         -2.0567     -9.2243      1.0461
    32         O         -2.3302     -9.3829      2.3716
    33         C         -3.4720     -8.7382      2.8788
    34         C         -2.9645     -8.7205      0.1154
    35         C         -2.5839     -8.6397     -1.2175
    36         C         -1.3281     -9.0528     -1.6329
    37         C         -0.4287     -9.5500     -0.6856
    38         O          0.8028    -10.0342     -1.0074
    39         C          1.3950     -9.5127     -2.1739
    40         C          0.6131    -12.8421      4.2180
    41         C          1.7637    -13.5928      4.5008
    42         C          1.7222    -14.6974      5.3363
    43         C          0.4912    -15.0391      5.8889
    44         C         -0.6767    -14.2772      5.6151
    45         C         -0.6188    -13.1803      4.7741
    46         C         -1.7577    -14.8811      6.3535
    47         C         -3.1017    -14.5700      6.4706
    48         C         -3.8912    -15.3606      7.2934
    49         C         -3.3486    -16.4458      7.9872
    50         C         -2.0071    -16.7821      7.8817
    51         C         -1.2151    -15.9923      7.0537
    52         N          0.1466    -16.1429      6.7020
    53         C          1.1137    -16.8942      7.4991
    54         C          1.5608    -16.1256      8.7408
    55         C          3.2264      1.3376     -0.0449
    56         O          4.4298      1.5547     -0.0136
    57         O          2.3684      2.3740     -0.1320
    58         H          4.4268     -1.0108      0.1182
    59         H          1.0262     -2.2764     -1.2078
    60         H          0.6142     -4.8048     -0.7733
    61         H          4.6320     -6.5596      0.9098
    62         H          3.4668    -12.5916      0.6014
    63         H          2.6568    -11.9039     -0.8350
    64         H          4.4047    -12.2927     -0.9008
    65         H          5.9086    -12.0904      0.8724
    66         H          7.4325    -11.4709      2.6950
    67         H          7.1238     -9.3946      3.9602
    68         H          5.5712     -8.1823      5.4341
    69         H          6.8024     -7.1824      4.5887
    70         H          5.2333     -6.4636      5.0596
    71         H         -1.1276    -11.9337      2.1488
    72         H         -4.4125     -9.1984      2.5336
    73         H         -3.3865     -8.8886      3.9664
    74         H         -3.4999     -7.6557      2.6721
    75         H         -3.9675     -8.3943      0.3954
    76         H         -3.2931     -8.2484     -1.9549
    77         H         -1.0743     -8.9932     -2.6928
    78         H          1.0003     -9.9874     -3.0873
    79         H          1.3137     -8.4178     -2.2727
    80         H          2.4599     -9.7739     -2.0700
    81         H          2.7178    -13.3046      4.0473
    82         H          2.6257    -15.2729      5.5449
    83         H         -1.5192    -12.5968      4.5645
    84         H         -3.5208    -13.7209      5.9253
    85         H         -4.9550    -15.1332      7.4034
    86         H         -4.0000    -17.0456      8.6308
    87         H         -1.5993    -17.6338      8.4284
    88         H          0.6631    -17.8746      7.7789
    89         H          1.9864    -17.1497      6.8542
    90         H          0.7206    -15.8908      9.4102
    91         H          2.2871    -16.7052      9.3282
    92         H          2.0419    -15.1697      8.4875
    93         H          2.8432      3.2174     -0.1566

           Empirical Formula: C46 H36 N2 O6 S3  =    93 atoms



      MOLECULAR POINT GROUP   :   C1  


      RHF CALCULATION, NO. OF DOUBLY OCCUPIED LEVELS = 142

 WARNING: INDO only performs single-point calculations

 Summary of symmetry occupancy in each shell:

 SHELL     
    1  142
    v  122
 TOTAL 264




    ROOT NO.    1           2           3           4           5           6

           -48.47005   -47.70306   -47.35580   -46.77853   -46.18921   -45.92410
  
  
  S  N   1   0.00001     0.00036     0.00030     0.04031     0.00003    -0.00013
 PX  N   1   0.00000     0.00021     0.00017     0.02483     0.00001    -0.00007
 PY  N   1  -0.00000    -0.00005    -0.00003     0.00390    -0.00002     0.00004
 PZ  N   1  -0.00000    -0.00001    -0.00001    -0.00036    -0.00000     0.00001
  
  S  C   2   0.00001     0.00083     0.00071     0.11456     0.00003    -0.00019
 PX  C   2   0.00000     0.00026     0.00024     0.04956    -0.00001    -0.00000
 PY  C   2  -0.00000    -0.00013    -0.00007     0.02224    -0.00007     0.00016
 PZ  C   2  -0.00000    -0.00002    -0.00001    -0.00129    -0.00000     0.00001
  
  S  C   3   0.00002     0.00129     0.00116     0.22917    -0.00003    -0.00011
 PX  C   3   0.00000     0.00005     0.00007     0.03153    -0.00004     0.00007
 PY  C   3  -0.00000    -0.00017    -0.00004     0.07750    -0.00016     0.00038
 PZ  C   3  -0.00000    -0.00001    -0.00001    -0.00256     0.00000    -0.00000
  
  S  C   4   0.00003     0.00167     0.00130     0.11646     0.00022    -0.00068
 PX  C   4  -0.00001    -0.00044    -0.00033    -0.01834    -0.00008     0.00022
 PY  C   4  -0.00001    -0.00040    -0.00022     0.04686    -0.00015     0.00036
 PZ  C   4  -0.00000    -0.00004    -0.00003    -0.00300    -0.00001     0.00002
  
  S  C   5   0.00009     0.00432     0.00304     0.05366     0.00087    -0.00221
 PX  C   5  -0.00002    -0.00078    -0.00052    -0.00355    -0.00015     0.00043
 PY  C   5  -0.00003    -0.00158    -0.00106     0.01499    -0.00035     0.00079
 PZ  C   5  -0.00000    -0.00012    -0.00007    -0.00326    -0.00001     0.00008
  
  S  C   6   0.00010     0.00476     0.00317     0.03577     0.00085    -0.00244
 PX  C   6   0.00002     0.00110     0.00081     0.00972     0.00026    -0.00057
 PY  C   6  -0.00003    -0.00147    -0.00089     0.00570    -0.00021     0.00070
 PZ  C   6   0.00002     0.00114     0.00080     0.00675     0.00024    -0.00058
  
  S  C   7   0.00019     0.00837     0.00505     0.01935     0.00097    -0.00361
 PX  C   7   0.00005     0.00241     0.00175     0.00606     0.00048    -0.00103
 PY  C   7  -0.00003    -0.00126    -0.00051     0.00629     0.00017     0.00023
 PZ  C   7   0.00004     0.00190     0.00135     0.00267     0.00031    -0.00070
  
  S  C   8   0.00040     0.01764     0.01172     0.01658     0.00277    -0.00623
 PX  C   8   0.00002     0.00080     0.00093    -0.00125     0.00068    -0.00025
 PY  C   8  -0.00016    -0.00631    -0.00401     0.00661    -0.00059     0.00141
 PZ  C   8   0.00004     0.00162     0.00142    -0.00260     0.00057    -0.00035
  
  S  S   9   0.00015     0.00690     0.00505     0.01904     0.00170    -0.00298
 PX  S   9  -0.00006    -0.00263    -0.00181    -0.00802    -0.00050     0.00118
 PY  S   9  -0.00006    -0.00284    -0.00220     0.00529    -0.00087     0.00106
 PZ  S   9  -0.00003    -0.00135    -0.00091    -0.00676    -0.00023     0.00065
  
  S  C  10   0.00131     0.05239     0.03349     0.00548     0.00636    -0.01313
 PX  C  10   0.00013     0.00767     0.00792    -0.00010     0.00367    -0.00237
 PY  C  10  -0.00058    -0.02209    -0.01312     0.00219    -0.00147     0.00411
 PZ  C  10   0.00016     0.00655     0.00525    -0.00081     0.00235    -0.00184
  
  S  S  11   0.00202     0.05522     0.00891     0.00188    -0.00158    -0.01139
 PX  S  11   0.00054     0.02289     0.01918     0.00096     0.00095    -0.00476
 PY  S  11  -0.00103    -0.02088     0.00750     0.00067     0.00386     0.00401
 PZ  S  11   0.00005    -0.00058     0.00180    -0.00033     0.00257     0.00247
  
  S  C  12   0.00467     0.11468     0.03394     0.00071    -0.01254    -0.00348
 PX  C  12  -0.00039     0.01877     0.04205     0.00007     0.00229     0.00722
 PY  C  12  -0.00115    -0.00895     0.01063     0.00051     0.01137    -0.00856
 PZ  C  12   0.00008    -0.00546     0.00091    -0.00015     0.00750     0.00207
  
  S  C  13   0.00364     0.15228     0.12115     0.00042     0.01108    -0.00310
 PX  C  13  -0.00021     0.01569     0.03379    -0.00058     0.01712    -0.00404
 PY  C  13  -0.00049    -0.01718    -0.01376     0.00074     0.02077    -0.02610
 PZ  C  13   0.00010     0.00668     0.01162    -0.00021     0.01924    -0.01476
  
  S  C  14   0.00190     0.08626     0.06945     0.00220     0.02113    -0.02083
 PX  C  14  -0.00042    -0.01180    -0.00158    -0.00093     0.00588    -0.00062
 PY  C  14  -0.00064    -0.03017    -0.02642     0.00083    -0.00536     0.00285
 PZ  C  14   0.00026     0.01388     0.01433    -0.00025     0.01002    -0.00783
  
  S  C  15   0.00399     0.20956     0.20526    -0.00146     0.01416     0.02596
 PX  C  15  -0.00014     0.01225     0.02507    -0.00035     0.02765    -0.01902
 PY  C  15  -0.00031    -0.01135    -0.00536     0.00040     0.05788    -0.06448
 PZ  C  15  -0.00018     0.00152     0.01361    -0.00003     0.06370    -0.06229
  
  S  C  16   0.00478     0.24121     0.21575    -0.00237    -0.16640     0.21848
 PX  C  16  -0.00098    -0.03668    -0.02169     0.00032     0.06396    -0.06634
 PY  C  16  -0.00010    -0.00344     0.00092     0.00020     0.04246    -0.04406
 PZ  C  16  -0.00070    -0.03156    -0.01759     0.00040     0.08470    -0.08821
  
  S  O  17   0.00627     0.30195     0.24096    -0.00317    -0.34293     0.39031
 PX  O  17   0.00068     0.03852     0.03664    -0.00044    -0.04040     0.05447
 PY  O  17  -0.00086    -0.04144    -0.03221     0.00052     0.06002    -0.06617
 PZ  O  17   0.00099     0.04698     0.04175    -0.00046    -0.04299     0.05727
  
  S  C  18   0.00322     0.14624     0.10953    -0.00156    -0.17569     0.18814
 PX  C  18   0.00027     0.01939     0.02165    -0.00025    -0.02186     0.03394
 PY  C  18   0.00157     0.07736     0.05981    -0.00083    -0.09290     0.10238
 PZ  C  18   0.00073     0.03184     0.02862    -0.00036    -0.03487     0.04601
  
  S  C  19   0.00245     0.13369     0.12936    -0.00142    -0.06428     0.09903
 PX  C  19  -0.00080    -0.03787    -0.03156     0.00040     0.04057    -0.04837
 PY  C  19   0.00068     0.03990     0.04085    -0.00039    -0.00480     0.01545
 PZ  C  19  -0.00008    -0.00097     0.00456     0.00003     0.02940    -0.02795
  
  S  C  20   0.00153     0.09310     0.09988    -0.00097     0.00665     0.01962
 PX  C  20  -0.00059    -0.03397    -0.03532     0.00035     0.00248    -0.01177
 PY  C  20   0.00039     0.02569     0.02896    -0.00025     0.01241    -0.00571
 PZ  C  20  -0.00020    -0.01019    -0.00903     0.00011     0.01124    -0.01434
  
  S  C  21   0.00190     0.12723     0.14597    -0.00124     0.08050    -0.04957
 PX  C  21  -0.00066    -0.04301    -0.04895     0.00039    -0.02850     0.01872
 PY  C  21   0.00020     0.01902     0.02585    -0.00014     0.04367    -0.04180
 PZ  C  21  -0.00040    -0.02242    -0.02237     0.00022     0.00886    -0.01585
  
  S  C  22   0.00339     0.22616     0.26115    -0.00191     0.19266    -0.14630
 PX  C  22  -0.00036    -0.01665    -0.01516     0.00001    -0.00613     0.00466
 PY  C  22   0.00033     0.03447     0.04869    -0.00020     0.09369    -0.09150
 PZ  C  22  -0.00004     0.01149     0.02303    -0.00017     0.06452    -0.06420
  
  S  O  23   0.00359     0.27018     0.33349    -0.00229     0.36526    -0.31784
 PX  O  23   0.00039     0.03334     0.04326    -0.00035     0.05237    -0.04620
 PY  O  23  -0.00078    -0.05601    -0.06764     0.00047    -0.06748     0.05715
 PZ  O  23   0.00005     0.00978     0.01568    -0.00019     0.02886    -0.02723
  
  S  C  24   0.00158     0.12405     0.15596    -0.00114     0.17931    -0.15744
 PX  C  24  -0.00034    -0.02672    -0.03351     0.00023    -0.03925     0.03475
 PY  C  24  -0.00034    -0.02612    -0.03233     0.00024    -0.03445     0.02958
 PZ  C  24  -0.00085    -0.06631    -0.08298     0.00059    -0.09435     0.08269
  
  S  C  25   0.01029     0.11344    -0.03485     0.00002    -0.01221     0.00582
 PX  C  25  -0.00254    -0.01190     0.03987    -0.00003    -0.00808     0.00532
 PY  C  25  -0.00280    -0.00243     0.01429     0.00011    -0.00132    -0.00519
 PZ  C  25   0.00026    -0.01741     0.00864    -0.00002     0.01136     0.00822
  
  S  S  26   0.01281     0.05423    -0.00946    -0.00009    -0.00161     0.01279
 PX  S  26  -0.00591    -0.01509     0.01919    -0.00004    -0.00302    -0.00278
 PY  S  26  -0.00456     0.00686     0.00690    -0.00001    -0.00060    -0.00064
 PZ  S  26  -0.00134    -0.02556     0.00136     0.00005     0.00392    -0.00679
  
  S  C  27   0.03663     0.05182    -0.03425    -0.00004     0.00707     0.01520
 PX  C  27  -0.00304    -0.00497     0.00671    -0.00001    -0.00416    -0.00218
 PY  C  27  -0.01092     0.01597    -0.00990    -0.00001     0.00179     0.00326
 PZ  C  27   0.00725    -0.01666     0.01070     0.00001    -0.00136    -0.00329
  
  S  C  28   0.02072     0.08437    -0.06949    -0.00003     0.02153     0.02208
 PX  C  28   0.00421     0.01119    -0.00144    -0.00002    -0.00798    -0.00240
 PY  C  28  -0.00137     0.03010    -0.02676    -0.00000     0.00972     0.00761
 PZ  C  28   0.00520    -0.01135     0.01263    -0.00000    -0.00154     0.00170
  
  S  C  29   0.01416     0.14985    -0.12200    -0.00001     0.01211     0.00493
 PX  C  29   0.00025    -0.01244     0.03170    -0.00001    -0.02778    -0.01451
 PY  C  29  -0.00164     0.01216    -0.01039     0.00003    -0.00042    -0.00449
 PZ  C  29   0.00202    -0.01669     0.01944     0.00000     0.01829     0.02576
  
  S  C  30   0.01093     0.20677    -0.20749    -0.00001     0.01627    -0.02471
 PX  C  30  -0.00011    -0.00856     0.02628    -0.00001    -0.06323    -0.05515
 PY  C  30  -0.00037     0.00503    -0.00842     0.00001     0.01062     0.00720
 PZ  C  30   0.00083    -0.01348     0.00883     0.00003     0.06468     0.07208
  
  S  C  31   0.01104     0.22189    -0.26204     0.00002     0.19641     0.14602
 PX  C  31   0.00056     0.00319     0.00566    -0.00000    -0.04054    -0.04052
 PY  C  31  -0.00073    -0.00737     0.00707     0.00000    -0.00267    -0.00195
 PZ  C  31   0.00241     0.03797    -0.05469     0.00002     0.10757     0.10335
  
  S  O  32   0.01348     0.26421    -0.33334     0.00004     0.37046     0.31609
 PX  O  32  -0.00073    -0.02269     0.03231    -0.00000    -0.04674    -0.04160
 PY  O  32   0.00122     0.03011    -0.03945     0.00001     0.04799     0.04150
 PZ  O  32  -0.00268    -0.05212     0.06373    -0.00001    -0.06200    -0.05092
  
  S  C  33   0.00587     0.12112    -0.15569     0.00002     0.18168     0.15639
 PX  C  33   0.00278     0.05613    -0.07182     0.00001     0.08349     0.07194
 PY  C  33  -0.00142    -0.02812     0.03614    -0.00000    -0.04275    -0.03701
 PZ  C  33  -0.00189    -0.03977     0.05058    -0.00001    -0.05607    -0.04754
  
  S  C  34   0.00550     0.12499    -0.14676     0.00000     0.08251     0.04959
 PX  C  34   0.00188     0.04250    -0.04735     0.00000     0.01300     0.00147
 PY  C  34  -0.00091    -0.01925     0.02240     0.00000    -0.01279    -0.00799
 PZ  C  34   0.00116     0.02091    -0.02906     0.00001     0.05034     0.04742
  
  S  C  35   0.00370     0.09183    -0.10100    -0.00001     0.00787    -0.01915
 PX  C  35   0.00112     0.02853    -0.02935    -0.00000    -0.00908    -0.01724
 PY  C  35  -0.00063    -0.01549     0.01660     0.00000     0.00088     0.00532
 PZ  C  35   0.00124     0.02847    -0.03282     0.00000     0.01451     0.00661
  
  S  C  36   0.00502     0.13236    -0.13171    -0.00005    -0.06322    -0.09800
 PX  C  36   0.00081     0.02557    -0.01835    -0.00003    -0.04702    -0.05063
 PY  C  36  -0.00058    -0.01585     0.01386     0.00002     0.01723     0.02048
 PZ  C  36   0.00188     0.04544    -0.04747    -0.00001    -0.00558    -0.01794
  
  S  C  37   0.00947     0.23929    -0.22047    -0.00012    -0.16517    -0.21632
 PX  C  37   0.00142     0.04623    -0.02782    -0.00007    -0.10051    -0.10327
 PY  C  37  -0.00062    -0.01500     0.01020     0.00003     0.02824     0.02920
 PZ  C  37   0.00066    -0.00305    -0.00060     0.00004     0.04791     0.04946
  
  S  O  38   0.01060     0.30090    -0.24862    -0.00029    -0.34321    -0.38779
 PX  O  38  -0.00177    -0.04470     0.04402     0.00001     0.04103     0.05777
 PY  O  38   0.00177     0.05093    -0.04378    -0.00003    -0.05811    -0.06933
 PZ  O  38  -0.00059    -0.02674     0.02198     0.00005     0.04440     0.04811
  
  S  C  39   0.00482     0.14545    -0.11342    -0.00017    -0.17569    -0.18710
 PX  C  39  -0.00161    -0.04579     0.04409     0.00002     0.05263     0.06918
 PY  C  39  -0.00073    -0.02262     0.01639     0.00006     0.02955     0.02850
 PZ  C  39   0.00233     0.06861    -0.05432    -0.00007    -0.08188    -0.08925
  
  S  C  40   0.10320     0.01652    -0.01234    -0.00002     0.00382     0.00834
 PX  C  40  -0.00665    -0.00084     0.00139    -0.00000    -0.00117    -0.00055
 PY  C  40  -0.03250     0.00578    -0.00375    -0.00000     0.00072     0.00118
 PZ  C  40   0.02556    -0.00509     0.00306     0.00000    -0.00042    -0.00110
  
  S  C  41   0.09970     0.00607    -0.00421    -0.00001     0.00112     0.00466
 PX  C  41  -0.04059    -0.00154     0.00176     0.00000    -0.00080    -0.00137
 PY  C  41  -0.01528     0.00274    -0.00152    -0.00000     0.00012     0.00078
 PZ  C  41   0.02139    -0.00184     0.00074     0.00000     0.00014    -0.00035
  
  S  C  42   0.15384    -0.00167     0.00003    -0.00000     0.00047     0.00197
 PX  C  42  -0.07093     0.00154    -0.00034    -0.00000    -0.00020    -0.00044
 PY  C  42  -0.00243     0.00203    -0.00130    -0.00000     0.00039     0.00113
 PZ  C  42   0.02012    -0.00198     0.00109     0.00000    -0.00024    -0.00077
  
  S  C  43   0.37215    -0.01256     0.00549     0.00000    -0.00051    -0.00042
 PX  C  43  -0.10037     0.00463    -0.00231    -0.00000     0.00041     0.00092
 PY  C  43  -0.05003     0.00433    -0.00266    -0.00000     0.00082     0.00170
 PZ  C  43   0.06251    -0.00443     0.00259     0.00000    -0.00072    -0.00152
  
  S  C  44   0.30586    -0.00802     0.00264     0.00000     0.00045     0.00092
 PX  C  44   0.03629     0.00016    -0.00043    -0.00000     0.00027     0.00082
 PY  C  44  -0.09222     0.00579    -0.00337    -0.00000     0.00095     0.00164
 PZ  C  44   0.06006    -0.00445     0.00270     0.00000    -0.00081    -0.00147
  
  S  C  45   0.13181     0.00662    -0.00660    -0.00001     0.00326     0.00529
 PX  C  45   0.02981     0.00233    -0.00185    -0.00000     0.00059     0.00157
 PY  C  45  -0.04654     0.00374    -0.00243    -0.00000     0.00077     0.00085
 PZ  C  45   0.02753    -0.00387     0.00269     0.00000    -0.00092    -0.00124
  
  S  C  46   0.30360    -0.01276     0.00619     0.00001    -0.00098    -0.00204
 PX  C  46   0.10094    -0.00390     0.00182     0.00000    -0.00025    -0.00037
 PY  C  46  -0.05635     0.00314    -0.00177    -0.00000     0.00048     0.00088
 PZ  C  46   0.01600    -0.00136     0.00086     0.00000    -0.00030    -0.00057
  
  S  C  47   0.12539    -0.00556     0.00275     0.00000    -0.00046    -0.00112
 PX  C  47   0.04940    -0.00204     0.00097     0.00000    -0.00014    -0.00031
 PY  C  47  -0.03562     0.00189    -0.00104    -0.00000     0.00026     0.00052
 PZ  C  47   0.01433    -0.00091     0.00054     0.00000    -0.00017    -0.00032
  
  S  C  48   0.09070    -0.00449     0.00236     0.00000    -0.00052    -0.00116
 PX  C  48   0.04522    -0.00221     0.00116     0.00000    -0.00025    -0.00054
 PY  C  48  -0.00721     0.00042    -0.00024    -0.00000     0.00007     0.00014
 PZ  C  48  -0.00662     0.00027    -0.00012    -0.00000     0.00001     0.00004
  
  S  C  49   0.09410    -0.00477     0.00255     0.00000    -0.00059    -0.00128
 PX  C  49   0.03266    -0.00163     0.00087     0.00000    -0.00020    -0.00041
 PY  C  49   0.02263    -0.00112     0.00059     0.00000    -0.00013    -0.00028
 PZ  C  49  -0.02627     0.00130    -0.00069    -0.00000     0.00015     0.00033
  
  S  C  50   0.15098    -0.00746     0.00395     0.00000    -0.00089    -0.00184
 PX  C  50   0.02646    -0.00119     0.00061     0.00000    -0.00012    -0.00020
 PY  C  50   0.05078    -0.00245     0.00128     0.00000    -0.00028    -0.00057
 PZ  C  50  -0.04545     0.00217    -0.00113    -0.00000     0.00024     0.00048
  
  S  C  51   0.36987    -0.01701     0.00872     0.00001    -0.00176    -0.00343
 PX  C  51   0.09287    -0.00404     0.00202     0.00000    -0.00038    -0.00062
 PY  C  51   0.05744    -0.00228     0.00107     0.00000    -0.00014    -0.00026
 PZ  C  51  -0.06918     0.00283    -0.00136    -0.00000     0.00021     0.00036
  
  S  N  52   0.47754    -0.02157     0.01100     0.00001    -0.00220    -0.00403
 PX  N  52  -0.05282     0.00242    -0.00123    -0.00000     0.00023     0.00048
 PY  N  52   0.09160    -0.00369     0.00177     0.00000    -0.00027    -0.00045
 PZ  N  52  -0.00339    -0.00027     0.00025     0.00000    -0.00013    -0.00028
  
  S  C  53   0.20628    -0.00972     0.00508     0.00001    -0.00111    -0.00204
 PX  C  53  -0.06435     0.00306    -0.00160    -0.00000     0.00034     0.00065
 PY  C  53   0.06827    -0.00312     0.00160     0.00000    -0.00033    -0.00060
 PZ  C  53  -0.03884     0.00171    -0.00086    -0.00000     0.00017     0.00029
  
  S  C  54   0.10339    -0.00494     0.00260     0.00000    -0.00058    -0.00108
 PX  C  54  -0.02834     0.00136    -0.00071    -0.00000     0.00016     0.00029
 PY  C  54  -0.00577     0.00032    -0.00018    -0.00000     0.00005     0.00010
 PZ  C  54  -0.04539     0.00211    -0.00110    -0.00000     0.00024     0.00043
  
  S  C  55   0.00001     0.00134     0.00149     0.51303    -0.00048     0.00086
 PX  C  55  -0.00000     0.00002     0.00003     0.01675    -0.00002     0.00005
 PY  C  55   0.00000     0.00017     0.00026     0.13786    -0.00018     0.00038
 PZ  C  55  -0.00000    -0.00001    -0.00001    -0.00685     0.00001    -0.00002
  
  S  O  56   0.00001     0.00100     0.00114     0.41095    -0.00040     0.00074
 PX  O  56  -0.00000    -0.00042    -0.00048    -0.17552     0.00017    -0.00032
 PY  O  56  -0.00000    -0.00005    -0.00004    -0.00622    -0.00000     0.00002
 PZ  O  56  -0.00000    -0.00001    -0.00002    -0.00595     0.00001    -0.00001
  
  S  O  57   0.00001     0.00128     0.00150     0.57226    -0.00060     0.00113
 PX  O  57   0.00000     0.00035     0.00041     0.15864    -0.00017     0.00032
 PY  O  57  -0.00000    -0.00017    -0.00019    -0.06345     0.00006    -0.00010
 PZ  O  57   0.00000     0.00002     0.00003     0.00954    -0.00001     0.00002
  
  S  H  58   0.00001     0.00056     0.00045     0.05134     0.00006    -0.00019
  
  S  H  59   0.00002     0.00123     0.00081     0.01605     0.00021    -0.00065
  
  S  H  60   0.00009     0.00351     0.00145     0.00496     0.00002    -0.00152
  
  S  H  61   0.00064     0.03277     0.03038     0.00082     0.01358    -0.01118
  
  S  H  62   0.00147     0.05557     0.04214    -0.00059    -0.06408     0.07058
  
  S  H  63   0.00135     0.05417     0.02837    -0.00050    -0.06607     0.05151
  
  S  H  64   0.00109     0.05122     0.03918    -0.00056    -0.06161     0.06670
  
  S  H  65   0.00091     0.04704     0.04313    -0.00052    -0.03607     0.04762
  
  S  H  66   0.00037     0.02281     0.02469    -0.00025     0.00168     0.00501
  
  S  H  67   0.00061     0.04348     0.05195    -0.00043     0.04090    -0.03111
  
  S  H  68   0.00060     0.04623     0.05795    -0.00043     0.06533    -0.05702
  
  S  H  69   0.00057     0.04442     0.05588    -0.00041     0.06369    -0.05573
  
  S  H  70   0.00050     0.03938     0.04971    -0.00036     0.05852    -0.05174
  
  S  H  71   0.00904     0.03212    -0.03040    -0.00001     0.01365     0.01140
  
  S  H  72   0.00210     0.04352    -0.05595     0.00001     0.06466     0.05544
  
  S  H  73   0.00194     0.03845    -0.04963     0.00001     0.05930     0.05141
  
  S  H  74   0.00214     0.04498    -0.05766     0.00001     0.06606     0.05653
  
  S  H  75   0.00190     0.04262    -0.05210     0.00000     0.04167     0.03099
  
  S  H  76   0.00088     0.02250    -0.02497    -0.00000     0.00199    -0.00489
  
  S  H  77   0.00167     0.04667    -0.04410    -0.00002    -0.03582    -0.04723
  
  S  H  78   0.00168     0.05101    -0.04060    -0.00006    -0.06163    -0.06639
  
  S  H  79   0.00184     0.05508    -0.04353    -0.00002    -0.06400    -0.07009
  
  S  H  80   0.00168     0.05369    -0.03005    -0.00012    -0.06584    -0.05144
  
  S  H  81   0.02404     0.00388    -0.00137    -0.00001    -0.00015     0.00234
  
  S  H  82   0.05001    -0.00101     0.00039    -0.00000    -0.00000     0.00037
  
  S  H  83   0.03713     0.00475    -0.00445    -0.00000     0.00234     0.00289
  
  S  H  84   0.03430    -0.00125     0.00052     0.00000     0.00000    -0.00014
  
  S  H  85   0.02072    -0.00103     0.00055     0.00000    -0.00012    -0.00028
  
  S  H  86   0.02173    -0.00113     0.00061     0.00000    -0.00015    -0.00032
  
  S  H  87   0.04919    -0.00245     0.00130     0.00000    -0.00030    -0.00061
  
  S  H  88   0.07337    -0.00353     0.00186     0.00000    -0.00042    -0.00079
  
  S  H  89   0.07339    -0.00338     0.00175     0.00000    -0.00038    -0.00067
  
  S  H  90   0.04777    -0.00229     0.00121     0.00000    -0.00027    -0.00051
  
  S  H  91   0.02870    -0.00139     0.00074     0.00000    -0.00017    -0.00032
  
  S  H  92   0.04803    -0.00221     0.00115     0.00000    -0.00025    -0.00044
  
  S  H  93   0.00000     0.00053     0.00063     0.24107    -0.00025     0.00049




    ROOT NO.    7           8           9          10          11          12

           -43.66202   -43.38674   -42.59127   -42.17097   -41.50141   -41.38527
  
  
  S  N   1   0.01800     0.04721    -0.04214    -0.03757     0.02822     0.00333
 PX  N   1   0.00950     0.02484    -0.02191    -0.01938     0.01434     0.00169
 PY  N   1  -0.00277    -0.00682     0.00503     0.00402    -0.00248    -0.00028
 PZ  N   1  -0.00040    -0.00096     0.00068     0.00052    -0.00029    -0.00003
  
  S  C   2   0.03159     0.08215    -0.07108    -0.06209     0.04488     0.00526
 PX  C   2   0.00523     0.01332    -0.01039    -0.00836     0.00502     0.00056
 PY  C   2  -0.00951    -0.02338     0.01721     0.01377    -0.00858    -0.00098
 PZ  C   2  -0.00057    -0.00138     0.00095     0.00071    -0.00038    -0.00004
  
  S  C   3   0.03712     0.09705    -0.08443    -0.07366     0.05298     0.00620
 PX  C   3  -0.00210    -0.00488     0.00295     0.00202    -0.00074    -0.00007
 PY  C   3  -0.02170    -0.05366     0.04044     0.03284    -0.02101    -0.00241
 PZ  C   3   0.00035     0.00090    -0.00081    -0.00074     0.00058     0.00007
  
  S  C   4   0.06346     0.15937    -0.12447    -0.10274     0.06752     0.00778
 PX  C   4  -0.01811    -0.04518     0.03459     0.02821    -0.01810    -0.00207
 PY  C   4  -0.01655    -0.03829     0.02219     0.01461    -0.00518    -0.00050
 PZ  C   4  -0.00132    -0.00331     0.00261     0.00217    -0.00144    -0.00017
  
  S  C   5   0.12729     0.30367    -0.20102    -0.14976     0.08067     0.00893
 PX  C   5  -0.02253    -0.05297     0.03301     0.02343    -0.01115    -0.00119
 PY  C   5  -0.02840    -0.06159     0.02649     0.01249     0.00168     0.00038
 PZ  C   5  -0.00654    -0.01630     0.01222     0.00972    -0.00584    -0.00066
  
  S  C   6   0.12863     0.30302    -0.19156    -0.13806     0.06891     0.00748
 PX  C   6   0.03208     0.07592    -0.04877    -0.03553     0.01815     0.00199
 PY  C   6  -0.02479    -0.05380     0.02356     0.01164     0.00034     0.00020
 PZ  C   6   0.02963     0.06908    -0.04204    -0.02949     0.01381     0.00148
  
  S  C   7   0.13339     0.29605    -0.15131    -0.09357     0.03165     0.00299
 PX  C   7   0.04203     0.09348    -0.04821    -0.03001     0.01022     0.00093
 PY  C   7   0.01803     0.05116    -0.04828    -0.04095     0.02554     0.00293
 PZ  C   7   0.02425     0.05100    -0.02050    -0.00987     0.00033    -0.00013
  
  S  C   8   0.15606     0.31497    -0.10293    -0.03639    -0.01515    -0.00272
 PX  C   8  -0.00802    -0.02102     0.01650     0.01280    -0.00682    -0.00059
 PY  C   8   0.01366     0.05838    -0.08104    -0.07373     0.04823     0.00576
 PZ  C   8  -0.01019    -0.03153     0.03214     0.02718    -0.01631    -0.00197
  
  S  S   9   0.09944     0.22042    -0.11309    -0.07071     0.02534     0.00257
 PX  S   9  -0.05046    -0.11364     0.06136     0.03958    -0.01509    -0.00150
 PY  S   9  -0.00503    -0.00053    -0.02113    -0.02404     0.02008     0.00234
 PZ  S   9  -0.03371    -0.07828     0.04692     0.03254    -0.01480    -0.00162
  
  S  C  10   0.16384     0.23205     0.10363     0.15878    -0.14146    -0.01857
 PX  C  10   0.01080     0.01200     0.01785     0.02275    -0.01952    -0.00061
 PY  C  10  -0.02232     0.00314    -0.08296    -0.08209     0.05304     0.00717
 PZ  C  10   0.00565    -0.00411     0.02715     0.02606    -0.01627    -0.00270
  
  S  S  11   0.11915     0.12326     0.12265     0.13354    -0.08141    -0.01965
 PX  S  11   0.06645     0.07688     0.07176     0.08869    -0.07152    -0.01262
 PY  S  11  -0.01804     0.00755    -0.04146    -0.02446    -0.00573     0.00634
 PZ  S  11   0.00068    -0.00880     0.00833     0.00214     0.00364    -0.00234
  
  S  C  12   0.17990     0.11530     0.22359     0.18781    -0.07224    -0.03691
 PX  C  12   0.01366     0.03881     0.02533     0.05449    -0.06439     0.00850
 PY  C  12   0.00720     0.04872     0.01187     0.05272    -0.07083     0.00630
 PZ  C  12  -0.00185    -0.01691    -0.00410    -0.01811     0.02394    -0.00025
  
  S  C  13   0.15140     0.14487     0.20376     0.22487    -0.15577     0.00976
 PX  C  13  -0.04550    -0.03483    -0.05142    -0.04586     0.02011     0.03111
 PY  C  13   0.02989     0.04501     0.03012     0.04817    -0.04716    -0.01781
 PZ  C  13  -0.00622    -0.01307    -0.00550    -0.01205     0.01343     0.00482
  
  S  C  14   0.14565     0.17804     0.15602     0.20137    -0.16445    -0.01006
 PX  C  14  -0.05537    -0.06540    -0.05732    -0.07139     0.05552     0.01064
 PY  C  14  -0.01309    -0.00166    -0.04131    -0.04086     0.02575    -0.00386
 PZ  C  14   0.00730     0.00392     0.01677     0.01733    -0.01136    -0.00173
  
  S  C  15   0.03008     0.03105     0.06887     0.08521    -0.07385     0.20206
 PX  C  15  -0.03361    -0.02535    -0.03870    -0.03266     0.00889     0.10160
 PY  C  15   0.02425     0.02190     0.02783     0.02896    -0.01772    -0.07457
 PZ  C  15  -0.00647    -0.00958    -0.00801    -0.00986     0.00452     0.02571
  
  S  C  16  -0.03557    -0.01485    -0.01825    -0.00279    -0.00930     0.14982
 PX  C  16  -0.00207    -0.00303    -0.00036     0.00501    -0.01761     0.14225
 PY  C  16   0.02225     0.01586     0.03329     0.03516    -0.02753     0.05710
 PZ  C  16   0.01809     0.00768     0.02742     0.02950    -0.03159     0.16218
  
  S  O  17  -0.07657    -0.03588    -0.08373    -0.07650     0.06558    -0.23663
 PX  O  17  -0.01120    -0.00451    -0.01070    -0.00781     0.00681    -0.00629
 PY  O  17   0.02314     0.01426     0.03085     0.03080    -0.02347     0.06359
 PZ  O  17  -0.00249    -0.00047     0.00123     0.00155     0.00351    -0.00337
  
  S  C  18  -0.04591    -0.02545    -0.05609    -0.05410     0.04012    -0.13851
 PX  C  18  -0.00793    -0.00338    -0.00833    -0.00669     0.00687    -0.00590
 PY  C  18  -0.02349    -0.01138    -0.02711    -0.02528     0.02045    -0.07530
 PZ  C  18  -0.00690    -0.00501    -0.00798    -0.00889     0.01041    -0.01767
  
  S  C  19  -0.03466    -0.02048    -0.02415    -0.00857    -0.01754     0.27099
 PX  C  19   0.00813     0.00393     0.00830     0.00766    -0.00778     0.02851
 PY  C  19  -0.00640    -0.00349    -0.00009     0.00546    -0.01258     0.10603
 PZ  C  19   0.00246     0.00010     0.00698     0.00984    -0.01495     0.10229
  
  S  C  20  -0.02473    -0.01730    -0.01244     0.00257    -0.03080     0.33876
 PX  C  20   0.00704     0.00457     0.00236    -0.00243     0.01000    -0.09817
 PY  C  20  -0.00546    -0.00423    -0.00183     0.00148    -0.00769     0.07709
 PZ  C  20   0.00215     0.00061     0.00062    -0.00133     0.00341    -0.02932
  
  S  C  21  -0.03357    -0.02764    -0.02445    -0.01369    -0.01474     0.26814
 PX  C  21   0.00780     0.00649     0.00420     0.00152     0.00424    -0.05587
 PY  C  21  -0.00557    -0.00628    -0.00941    -0.01341     0.01540    -0.08399
 PZ  C  21   0.00233     0.00031    -0.00382    -0.00954     0.01615    -0.11248
  
  S  C  22  -0.03240    -0.02751    -0.01813    -0.00937    -0.01065     0.14623
 PX  C  22  -0.01570    -0.01386    -0.02241    -0.02330     0.01357     0.03043
 PY  C  22  -0.00813    -0.00912    -0.01681    -0.02468     0.03008    -0.19111
 PZ  C  22  -0.02026    -0.02110    -0.03275    -0.04127     0.03784    -0.11747
  
  S  O  23  -0.06839    -0.06538    -0.08255    -0.09513     0.07837    -0.24780
 PX  O  23  -0.01767    -0.01719    -0.02339    -0.02711     0.02156    -0.03999
 PY  O  23   0.00949     0.00915     0.00826     0.00857    -0.00544     0.01479
 PZ  O  23  -0.01712    -0.01743    -0.02548    -0.03113     0.02689    -0.05255
  
  S  C  24  -0.04418    -0.04296    -0.05768    -0.06769     0.05627    -0.14261
 PX  C  24   0.00817     0.00801     0.01074     0.01292    -0.01144     0.03809
 PY  C  24   0.00789     0.00759     0.00915     0.01016    -0.00740     0.01223
 PZ  C  24   0.02110     0.02037     0.02677     0.03115    -0.02570     0.07098
  
  S  C  25   0.21774    -0.01955     0.21649     0.02866     0.15248    -0.08070
 PX  C  25  -0.03201     0.02785    -0.02040     0.03226    -0.06852     0.01953
 PY  C  25  -0.03452     0.04106    -0.01104     0.04833    -0.06985     0.02127
 PZ  C  25   0.00667    -0.01336    -0.00468    -0.01683     0.01105    -0.00187
  
  S  S  26   0.17060    -0.05602     0.11711    -0.02982     0.10704    -0.04933
 PX  S  26  -0.08481     0.03464    -0.05455     0.02738    -0.06812     0.03536
 PY  S  26  -0.01888     0.02412     0.01507     0.02730    -0.00303     0.00063
 PZ  S  26  -0.05136     0.00783    -0.05452    -0.00204    -0.04768     0.02253
  
  S  C  27   0.28179    -0.14116     0.09965    -0.11202     0.11523    -0.05553
 PX  C  27  -0.02003     0.01121    -0.00709     0.01159    -0.01016     0.00391
 PY  C  27   0.00501     0.01605     0.06055     0.01418     0.07631    -0.03240
 PZ  C  27  -0.01662    -0.00584    -0.05338    -0.00498    -0.06985     0.02887
  
  S  C  28   0.23261    -0.09898     0.14567    -0.07870     0.18835    -0.07580
 PX  C  28   0.07343    -0.02858     0.04954    -0.02076     0.05821    -0.02712
 PY  C  28   0.02662    -0.00121     0.04663     0.00255     0.06101    -0.02301
 PZ  C  28   0.03512    -0.02151    -0.00084    -0.01916    -0.00862    -0.00313
  
  S  C  29   0.20997    -0.05900     0.19391    -0.02999     0.23850    -0.07796
 PX  C  29   0.04621    -0.00704     0.03994     0.00238     0.01611    -0.02565
 PY  C  29  -0.02822     0.02172    -0.00868     0.02442    -0.02459     0.01514
 PZ  C  29   0.05801    -0.02190     0.03859    -0.01747     0.03438    -0.03147
  
  S  C  30   0.04109    -0.01055     0.06699    -0.00052     0.21555     0.08122
 PX  C  30   0.03613    -0.00698     0.03037    -0.00054    -0.02477    -0.05632
 PY  C  30  -0.01895     0.00811    -0.01317     0.00724     0.00579     0.03057
 PZ  C  30   0.03749    -0.00726     0.03165    -0.00396    -0.01824    -0.06296
  
  S  C  31  -0.04667     0.01251    -0.01676     0.00613     0.08589     0.08186
 PX  C  31   0.03331    -0.00888     0.03533    -0.00289     0.08142     0.01845
 PY  C  31  -0.01129     0.00380    -0.01046     0.00286    -0.00704     0.01240
 PZ  C  31  -0.01577     0.00544    -0.01964    -0.00059    -0.15764    -0.11376
  
  S  O  32  -0.09986     0.02842    -0.07976     0.00800    -0.23597    -0.11030
 PX  O  32   0.03026    -0.00888     0.02877    -0.00395     0.07021     0.01814
 PY  O  32  -0.02126     0.00665    -0.01802     0.00318    -0.04534    -0.01389
 PZ  O  32   0.00997    -0.00291     0.00376    -0.00079     0.00213     0.00239
  
  S  C  33  -0.06404     0.01851    -0.05561     0.00655    -0.15200    -0.05724
 PX  C  33  -0.02622     0.00759    -0.02222     0.00245    -0.06596    -0.02885
 PY  C  33   0.01358    -0.00383     0.01192    -0.00108     0.03657     0.01636
 PZ  C  33   0.01857    -0.00536     0.01475    -0.00200     0.03281     0.00989
  
  S  C  34  -0.04606     0.01135    -0.02245     0.00750     0.14786     0.15518
 PX  C  34  -0.00879     0.00185     0.00026     0.00195     0.07400     0.06134
 PY  C  34   0.00465    -0.00099     0.00146    -0.00053    -0.01709    -0.01525
 PZ  C  34  -0.01013     0.00354    -0.01067     0.00062    -0.07230    -0.04971
  
  S  C  35  -0.03182     0.00603    -0.01081     0.00541     0.20456     0.19071
 PX  C  35  -0.00720     0.00088    -0.00159     0.00091     0.05205     0.04630
 PY  C  35   0.00412    -0.00053     0.00085    -0.00055    -0.02954    -0.02603
 PZ  C  35  -0.00835     0.00215    -0.00167     0.00201     0.05349     0.04759
  
  S  C  36  -0.04165     0.00447    -0.02231     0.00219     0.15238     0.15915
 PX  C  36  -0.00709    -0.00072    -0.01005    -0.00235    -0.06551    -0.04424
 PY  C  36   0.00401     0.00050     0.00368     0.00104     0.01032     0.00536
 PZ  C  36  -0.00886     0.00148     0.00041     0.00201     0.07849     0.06597
  
  S  C  37  -0.03910     0.00006    -0.01676    -0.00083     0.08839     0.09110
 PX  C  37  -0.00999    -0.00156    -0.01768    -0.00400    -0.14698    -0.10353
 PY  C  37  -0.00022     0.00304     0.00244     0.00374     0.03895     0.03481
 PZ  C  37   0.03195    -0.00258     0.03814     0.00370     0.08124     0.01958
  
  S  O  38  -0.08434    -0.00109    -0.08140    -0.01307    -0.21838    -0.09869
 PX  O  38   0.00584     0.00108     0.00233     0.00074    -0.00243    -0.00754
 PY  O  38  -0.01470     0.00121    -0.01365    -0.00035    -0.03797    -0.01272
 PZ  O  38   0.02564    -0.00138     0.02883     0.00375     0.06062     0.01825
  
  S  C  39  -0.05306     0.00195    -0.05487    -0.00728    -0.13611    -0.05845
 PX  C  39   0.01638    -0.00023     0.01566     0.00171     0.03389     0.00588
 PY  C  39   0.00966     0.00124     0.01048     0.00312     0.02531     0.01463
 PZ  C  39  -0.02160     0.00064    -0.02166    -0.00260    -0.06141    -0.02838
  
  S  C  40   0.30275    -0.20400    -0.07921    -0.14575    -0.11263     0.03965
 PX  C  40  -0.00739     0.00442    -0.00240     0.00881     0.00301    -0.00098
 PY  C  40  -0.02105     0.02607     0.05448     0.00739     0.06652    -0.02796
 PZ  C  40   0.01363    -0.01861    -0.04194    -0.00583    -0.05285     0.02212
  
  S  C  41   0.22824    -0.16550    -0.11346    -0.09370    -0.13530     0.05199
 PX  C  41  -0.08184     0.05939     0.03973     0.03693     0.05104    -0.01944
 PY  C  41   0.00448     0.00178     0.02287    -0.01213     0.01876    -0.00844
 PZ  C  41   0.01617    -0.01557    -0.02693     0.00048    -0.02637     0.01107
  
  S  C  42   0.16192    -0.12643    -0.13832    -0.01190    -0.10751     0.04343
 PX  C  42  -0.05158     0.04080     0.04668     0.00263     0.03639    -0.01475
 PY  C  42   0.05656    -0.04086    -0.01944    -0.04565    -0.04920     0.01891
 PZ  C  42  -0.03034     0.02101     0.00274     0.03521     0.02918    -0.01102
  
  S  C  43   0.09450    -0.08235    -0.14792     0.08107    -0.04583     0.02072
 PX  C  43   0.02956    -0.02101    -0.01585    -0.00472    -0.00963     0.00356
 PY  C  43   0.08237    -0.05912    -0.01840    -0.09083    -0.08889     0.03418
 PZ  C  43  -0.06995     0.05013     0.01704     0.07250     0.07178    -0.02758
  
  S  C  44   0.11994    -0.09347    -0.07924    -0.06999    -0.12380     0.04918
 PX  C  44   0.06858    -0.05427    -0.07124     0.02136    -0.03034     0.01268
 PY  C  44   0.05573    -0.03838    -0.01149    -0.04458    -0.03730     0.01381
 PZ  C  44  -0.05968     0.04286     0.02665     0.02850     0.03596    -0.01369
  
  S  C  45   0.22304    -0.15804    -0.08237    -0.12737    -0.13748     0.05185
 PX  C  45   0.08578    -0.06190    -0.04343    -0.02934    -0.04427     0.01689
 PY  C  45  -0.01327     0.01496     0.02845     0.00703     0.03929    -0.01644
 PZ  C  45  -0.01309     0.00500    -0.01144     0.00280    -0.01974     0.00865
  
  S  C  46  -0.07773     0.06350     0.14719    -0.18013    -0.06492     0.02333
 PX  C  46   0.02531    -0.02618    -0.08812     0.10632     0.02438    -0.00752
 PY  C  46   0.04234    -0.03285    -0.04276     0.01568    -0.01513     0.00639
 PZ  C  46  -0.03892     0.03192     0.05572    -0.03970     0.00537    -0.00300
  
  S  C  47  -0.08334     0.07420     0.20563    -0.25446    -0.07896     0.02712
 PX  C  47  -0.01149     0.00941     0.02317    -0.03035    -0.01246     0.00457
 PY  C  47   0.03550    -0.03050    -0.07148     0.07684     0.01674    -0.00530
 PZ  C  47  -0.02430     0.02100     0.04896    -0.05121    -0.00960     0.00287
  
  S  C  48  -0.09552     0.08482     0.22450    -0.26314    -0.07004     0.02319
 PX  C  48  -0.04002     0.03491     0.08730    -0.09897    -0.02487     0.00815
 PY  C  48   0.01065    -0.00917    -0.02060     0.02029     0.00258    -0.00062
 PZ  C  48   0.00254    -0.00231    -0.00756     0.01094     0.00471    -0.00172
  
  S  C  49  -0.10168     0.08924     0.22351    -0.24924    -0.05724     0.01819
 PX  C  49  -0.02738     0.02317     0.04998    -0.04890    -0.00699     0.00185
 PY  C  49  -0.02197     0.01942     0.05128    -0.06066    -0.01690     0.00567
 PZ  C  49   0.02441    -0.02132    -0.05341     0.06056     0.01518    -0.00497
  
  S  C  50  -0.11407     0.09533     0.19392    -0.17772    -0.01632     0.00299
 PX  C  50   0.00627    -0.00872    -0.05162     0.08277     0.03488    -0.01250
 PY  C  50  -0.03480     0.02940     0.06540    -0.06816    -0.01403     0.00438
 PZ  C  50   0.02486    -0.02016    -0.03712     0.03193     0.00256    -0.00045
  
  S  C  51  -0.13499     0.10286     0.13314    -0.06028     0.03229    -0.01394
 PX  C  51   0.01453    -0.02059    -0.11852     0.18447     0.07332    -0.02598
 PY  C  51  -0.00004    -0.00038     0.00694    -0.02445    -0.02153     0.00852
 PZ  C  51  -0.00427     0.00605     0.02530    -0.02731    -0.00060    -0.00055
  
  S  N  52  -0.09493     0.05640    -0.08490     0.26793     0.16219    -0.06019
 PX  N  52   0.02006    -0.01614    -0.03370     0.03861     0.01386    -0.00508
 PY  N  52   0.00432    -0.00586    -0.01823     0.01036    -0.01057     0.00482
 PZ  N  52  -0.02205     0.01686     0.00910     0.02627     0.03334    -0.01324
  
  S  C  53  -0.05895     0.03608    -0.06094     0.20354     0.13787    -0.05229
 PX  C  53   0.02116    -0.01417     0.00455    -0.03825    -0.02919     0.01107
 PY  C  53  -0.01312     0.00709    -0.02130     0.05563     0.03256    -0.01212
 PZ  C  53   0.00331    -0.00089     0.01263    -0.02329    -0.00931     0.00322
  
  S  C  54  -0.03328     0.02054    -0.03669     0.12411     0.08699    -0.03321
 PX  C  54   0.00967    -0.00640     0.00388    -0.02174    -0.01633     0.00622
 PY  C  54   0.00446    -0.00309     0.00169    -0.01156    -0.00977     0.00379
 PZ  C  54   0.01101    -0.00634     0.01546    -0.04471    -0.02842     0.01071
  
  S  C  55  -0.01354    -0.02921     0.01396     0.00815    -0.00181    -0.00013
 PX  C  55  -0.00143    -0.00304     0.00071    -0.00054     0.00235     0.00033
 PY  C  55  -0.01947    -0.04922     0.04057     0.03508    -0.02545    -0.00299
 PZ  C  55   0.00090     0.00231    -0.00199    -0.00178     0.00138     0.00016
  
  S  O  56  -0.01514    -0.03397     0.01847     0.01167    -0.00303    -0.00023
 PX  O  56   0.00705     0.01610    -0.00956    -0.00667     0.00291     0.00030
 PY  O  56  -0.00307    -0.00822     0.00777     0.00716    -0.00575    -0.00069
 PZ  O  56   0.00040     0.00096    -0.00072    -0.00059     0.00040     0.00005
  
  S  O  57  -0.03486    -0.08483     0.06410     0.05370    -0.03800    -0.00447
 PX  O  57  -0.01016    -0.02474     0.01857     0.01541    -0.01058    -0.00123
 PY  O  57   0.00074     0.00108     0.00073     0.00126    -0.00152    -0.00019
 PZ  O  57  -0.00044    -0.00104     0.00069     0.00054    -0.00033    -0.00004
  
  S  H  58   0.01971     0.04980    -0.03959    -0.03302     0.02214     0.00256
  
  S  H  59   0.03782     0.09070    -0.06102    -0.04589     0.02514     0.00279
  
  S  H  60   0.03952     0.08504    -0.03809    -0.02093     0.00458     0.00044
  
  S  H  61   0.04171     0.05549     0.03965     0.05533    -0.04830    -0.00009
  
  S  H  62  -0.01457    -0.01069    -0.01924    -0.02033     0.01598    -0.04340
  
  S  H  63  -0.01617    -0.00878    -0.02040    -0.01930     0.00834    -0.05714
  
  S  H  64  -0.01770    -0.00950    -0.02153    -0.02011     0.01406    -0.04496
  
  S  H  65  -0.01479    -0.00863    -0.01382    -0.00945     0.00094     0.05913
  
  S  H  66  -0.00722    -0.00518    -0.00437    -0.00024    -0.00825     0.09810
  
  S  H  67  -0.01431    -0.01269    -0.01407    -0.01254     0.00313     0.05765
  
  S  H  68  -0.01661    -0.01618    -0.02140    -0.02492     0.02023    -0.04520
  
  S  H  69  -0.01652    -0.01599    -0.02152    -0.02504     0.02036    -0.04613
  
  S  H  70  -0.01454    -0.01417    -0.01966    -0.02340     0.02007    -0.05480
  
  S  H  71   0.07261    -0.03460     0.03708    -0.02936     0.05110    -0.01852
  
  S  H  72  -0.02383     0.00684    -0.02069     0.00250    -0.05235    -0.01732
  
  S  H  73  -0.02098     0.00601    -0.01899     0.00197    -0.05620    -0.02272
  
  S  H  74  -0.02411     0.00703    -0.02062     0.00269    -0.05177    -0.01696
  
  S  H  75  -0.02006     0.00532    -0.01326     0.00288     0.02200     0.03665
  
  S  H  76  -0.00932     0.00179    -0.00389     0.00153     0.05787     0.05562
  
  S  H  77  -0.01750     0.00145    -0.01313    -0.00029     0.02495     0.03839
  
  S  H  78  -0.02025     0.00050    -0.02101    -0.00310    -0.04675    -0.01790
  
  S  H  79  -0.01848     0.00259    -0.01886    -0.00085    -0.04653    -0.01659
  
  S  H  80  -0.01871     0.00037    -0.02012    -0.00384    -0.04909    -0.03108
  
  S  H  81   0.07283    -0.05086    -0.02743    -0.03116    -0.03330     0.01268
  
  S  H  82   0.03826    -0.03092    -0.04306     0.01393    -0.01883     0.00797
  
  S  H  83   0.07203    -0.04788    -0.01014    -0.05040    -0.03408     0.01191
  
  S  H  84  -0.01663     0.01583     0.05413    -0.07496    -0.02760     0.00972
  
  S  H  85  -0.02529     0.02277     0.06289    -0.07554    -0.02098     0.00700
  
  S  H  86  -0.02748     0.02435     0.06258    -0.07055    -0.01628     0.00516
  
  S  H  87  -0.03505     0.02849     0.04836    -0.03266     0.00698    -0.00357
  
  S  H  88  -0.02650     0.01737    -0.01525     0.07113     0.05340    -0.02044
  
  S  H  89  -0.01613     0.00881    -0.02914     0.07842     0.04917    -0.01854
  
  S  H  90  -0.01694     0.01099    -0.01186     0.05025     0.03743    -0.01435
  
  S  H  91  -0.01056     0.00658    -0.01211     0.04165     0.03001    -0.01151
  
  S  H  92  -0.01128     0.00634    -0.01926     0.05406     0.03520    -0.01335
  
  S  H  93  -0.01575    -0.03855     0.02952     0.02485    -0.01762    -0.00207




    ROOT NO.   13          14          15          16          17          18

           -41.20838   -39.67039   -39.14634   -37.83197   -36.37552   -35.69522
  
  
  S  N   1  -0.02648    -0.04535     0.39622     0.01878     0.52582    -0.03929
 PX  N   1  -0.01336    -0.02150     0.18623     0.00820     0.20327    -0.01403
 PY  N   1   0.00212     0.00912    -0.00171     0.00016     0.00506     0.00017
 PZ  N   1   0.00023    -0.00042    -0.00067     0.00004     0.00013     0.00013
  
  S  C   2  -0.04132    -0.08499     0.47527     0.01818     0.30012    -0.01324
 PX  C   2  -0.00414    -0.02215    -0.05359    -0.00592    -0.33497     0.03252
 PY  C   2   0.00738     0.03731    -0.00435     0.00041     0.01864    -0.00004
 PZ  C   2   0.00029    -0.00205    -0.00126     0.00008     0.00011     0.00026
  
  S  C   3  -0.04869    -0.23411     0.31406     0.00923    -0.18727     0.03445
 PX  C   3   0.00030    -0.09723    -0.10758    -0.00243    -0.07447     0.00637
 PY  C   3   0.01830     0.07190    -0.05215     0.00023     0.08230    -0.00606
 PZ  C   3  -0.00055    -0.00660     0.00083     0.00010    -0.00306     0.00057
  
  S  C   4  -0.05958    -0.25805     0.20805     0.00173    -0.30944     0.03280
 PX  C   4   0.01574     0.02870    -0.08952    -0.00101     0.05728    -0.00604
 PY  C   4   0.00260    -0.08842     0.02853     0.00455     0.00929     0.00928
 PZ  C   4   0.00128     0.00465    -0.00585    -0.00008     0.00351    -0.00026
  
  S  C   5  -0.06391    -0.02379     0.03897    -0.01024    -0.19738    -0.00182
 PX  C   5   0.00805    -0.02983     0.01093     0.00222    -0.02537     0.00818
 PY  C   5  -0.00533    -0.11565     0.13825     0.00542    -0.10375     0.01798
 PZ  C   5   0.00485     0.00258    -0.01040     0.00071     0.00950     0.00172
  
  S  C   6  -0.05181     0.07023    -0.04782    -0.01218    -0.04072    -0.02248
 PX  C   6  -0.01395     0.00692    -0.01092    -0.00322    -0.05000    -0.00047
 PY  C   6  -0.00339    -0.07477     0.11010     0.00392    -0.06268     0.01046
 PZ  C   6  -0.00998     0.02070    -0.02384    -0.00276    -0.01130    -0.00328
  
  S  C   7  -0.01703     0.14589    -0.17666    -0.00768     0.10665    -0.01899
 PX  C   7  -0.00581     0.04361    -0.05553    -0.00235     0.02061    -0.00322
 PY  C   7  -0.02111     0.01496    -0.00685    -0.00646    -0.03739    -0.01234
 PZ  C   7   0.00160     0.02554    -0.03466     0.00021     0.02580     0.00091
  
  S  C   8   0.02424     0.14409    -0.19113     0.00533     0.17102     0.01043
 PX  C   8   0.00490    -0.01719     0.02038     0.00220    -0.01633     0.00756
 PY  C   8  -0.03981     0.03875    -0.04070    -0.01256    -0.04237    -0.02239
 PZ  C   8   0.01299    -0.02222     0.02546     0.00446     0.00018     0.00943
  
  S  S   9  -0.01528     0.06976    -0.09517    -0.00411    -0.00109     0.00039
 PX  S   9   0.00935    -0.04965     0.06033     0.00330    -0.01758     0.00487
 PY  S   9  -0.01826    -0.02738     0.03395    -0.00447    -0.07843    -0.00611
 PZ  S   9   0.01052    -0.02704     0.03419     0.00329     0.00883     0.00426
  
  S  C  10   0.12735     0.02611    -0.05104     0.02983     0.15674     0.04441
 PX  C  10   0.01604    -0.00787     0.00873     0.00598    -0.00109     0.01989
 PY  C  10  -0.04309     0.05075    -0.06445    -0.00641     0.04649    -0.00179
 PZ  C  10   0.01344    -0.01793     0.02298     0.00194    -0.01811     0.00082
  
  S  S  11   0.08137    -0.01495     0.01102     0.00054     0.04557    -0.05290
 PX  S  11   0.05739    -0.01387     0.01216     0.01102     0.02623     0.01090
 PY  S  11   0.00030     0.01994    -0.02759     0.01402     0.04160     0.05612
 PZ  S  11  -0.00521    -0.00646     0.00934    -0.00372    -0.01652    -0.00950
  
  S  C  12   0.05754    -0.05467     0.06765    -0.02728    -0.07426    -0.10204
 PX  C  12   0.04731    -0.01836     0.02179     0.02078    -0.02585     0.06958
 PY  C  12   0.06480    -0.00970     0.00748     0.02447     0.03309     0.03651
 PZ  C  12  -0.02201     0.00337    -0.00266    -0.00625    -0.01056     0.00161
  
  S  C  13   0.10672    -0.06889     0.08433     0.01351    -0.10915     0.04357
 PX  C  13  -0.03056     0.00993    -0.01013     0.00520    -0.01942     0.04182
 PY  C  13   0.05180    -0.00619     0.00283     0.01507     0.04646     0.01915
 PZ  C  13  -0.01532     0.00065     0.00078    -0.00450    -0.01722    -0.00244
  
  S  C  14   0.13625    -0.03181     0.02852     0.03285     0.03569     0.07299
 PX  C  14  -0.05013     0.00853    -0.00562    -0.00881    -0.03508    -0.00152
 PY  C  14  -0.01526     0.02841    -0.03865    -0.00081     0.06458    -0.00665
 PZ  C  14   0.00948    -0.01013     0.01343     0.00102    -0.02046     0.00420
  
  S  C  15  -0.07683    -0.02576     0.03723     0.00338    -0.11510     0.05101
 PX  C  15  -0.07185     0.01793    -0.02229     0.00095     0.03578    -0.00382
 PY  C  15   0.05978    -0.01476     0.01786     0.00493    -0.02443     0.02017
 PZ  C  15  -0.02437     0.00463    -0.00551    -0.00098     0.00768    -0.00092
  
  S  C  16  -0.07287     0.00421    -0.00275    -0.00044    -0.02213     0.00509
 PX  C  16  -0.08607     0.01027    -0.01294     0.00079     0.03149    -0.00716
 PY  C  16  -0.02257    -0.01090     0.01548     0.00022    -0.04762     0.01841
 PZ  C  16  -0.09415     0.00090     0.00033    -0.00082    -0.00859     0.00437
  
  S  O  17   0.13867     0.00435    -0.00662     0.00070     0.01045    -0.00523
 PX  O  17   0.00945     0.00098    -0.00113     0.00046    -0.00204    -0.00054
 PY  O  17  -0.02977    -0.00724     0.01040    -0.00073    -0.03228     0.00798
 PZ  O  17   0.00837    -0.00299     0.00451    -0.00111    -0.01896     0.00076
  
  S  C  18   0.06812     0.00874    -0.01279     0.00163     0.04079    -0.00708
 PX  C  18   0.00818     0.00154    -0.00212     0.00016     0.00483    -0.00366
 PY  C  18   0.04133     0.00255    -0.00382     0.00012     0.00970    -0.00302
 PZ  C  18   0.01147     0.00123    -0.00162    -0.00030     0.00243    -0.00322
  
  S  C  19  -0.15806     0.02147    -0.02628    -0.00058     0.05685    -0.02284
 PX  C  19  -0.01837     0.00091    -0.00141    -0.00020     0.01060    -0.00447
 PY  C  19  -0.05981     0.00418    -0.00429    -0.00032     0.00000     0.00054
 PZ  C  19  -0.06061     0.00408    -0.00462    -0.00055     0.00963    -0.00415
  
  S  C  20  -0.20210     0.02401    -0.02950    -0.00162     0.07162    -0.03040
 PX  C  20   0.05686    -0.00531     0.00601     0.00019    -0.00744     0.00208
 PY  C  20  -0.04606     0.00426    -0.00479    -0.00049     0.00573    -0.00198
 PZ  C  20   0.01566    -0.00146     0.00168    -0.00022    -0.00233     0.00010
  
  S  C  21  -0.16880     0.02221    -0.02685    -0.00247     0.05586    -0.02447
 PX  C  21   0.03393    -0.00248     0.00225     0.00018     0.00520    -0.00373
 PY  C  21   0.04435    -0.00286     0.00362    -0.00013    -0.01299     0.00550
 PZ  C  21   0.06255    -0.00414     0.00448    -0.00023    -0.00493    -0.00031
  
  S  C  22  -0.09017     0.00445    -0.00265     0.00055    -0.02283     0.01737
 PX  C  22  -0.03040     0.01291    -0.01721    -0.00209     0.04596    -0.02320
 PY  C  22   0.10468    -0.00680     0.00778     0.00104    -0.01394     0.00807
 PZ  C  22   0.04913     0.00674    -0.00973    -0.00265     0.02971    -0.01920
  
  S  O  23   0.10589     0.00615    -0.00776    -0.00235     0.00754    -0.00597
 PX  O  23   0.01040     0.00594    -0.00779    -0.00193     0.01756    -0.01187
 PY  O  23  -0.00523     0.00117    -0.00219    -0.00030     0.01374    -0.00865
 PZ  O  23   0.01490     0.00795    -0.01083    -0.00330     0.03042    -0.02313
  
  S  C  24   0.05262     0.01104    -0.01493    -0.00422     0.04012    -0.02946
 PX  C  24  -0.01684    -0.00094     0.00130     0.00055    -0.00254     0.00250
 PY  C  24  -0.00237    -0.00175     0.00214     0.00050    -0.00306     0.00184
 PZ  C  24  -0.02792    -0.00381     0.00500     0.00136    -0.00976     0.00677
  
  S  C  25  -0.13998    -0.00668     0.01445    -0.07487    -0.04954    -0.10714
 PX  C  25   0.05365    -0.01382     0.01660     0.02130    -0.02636     0.04922
 PY  C  25   0.06741    -0.01732     0.02069     0.00111    -0.02570    -0.07431
 PZ  C  25  -0.01692     0.00536    -0.00670     0.01311     0.00933     0.08927
  
  S  S  26  -0.11595     0.00755    -0.00616     0.00983    -0.00742     0.13507
 PX  S  26   0.06577    -0.00917     0.01028    -0.00273    -0.01393    -0.07571
 PY  S  26   0.00443    -0.00684     0.00951    -0.03307    -0.02170    -0.06629
 PZ  S  26   0.04768    -0.00069    -0.00100     0.02173     0.01165    -0.00500
  
  S  C  27  -0.13213     0.02298    -0.02756     0.09883     0.04497     0.33109
 PX  C  27   0.01067    -0.00280     0.00358     0.00150    -0.00980    -0.03083
 PY  C  27  -0.06639     0.00504    -0.00422    -0.05780    -0.00073    -0.02447
 PZ  C  27   0.06084    -0.00595     0.00579     0.04328    -0.00473     0.00688
  
  S  C  28  -0.17512     0.02590    -0.02927    -0.00581     0.04262     0.12691
 PX  C  28  -0.05889     0.00710    -0.00765     0.00341     0.00792     0.08040
 PY  C  28  -0.04930     0.00424    -0.00362    -0.04258    -0.00217    -0.08945
 PZ  C  28  -0.00678     0.00208    -0.00306     0.03595     0.00883     0.13165
  
  S  C  29  -0.17443     0.01713    -0.01579    -0.09719     0.00391    -0.22825
 PX  C  29  -0.04034    -0.00121     0.00279    -0.00247    -0.01085     0.06790
 PY  C  29   0.03754    -0.00858     0.01073    -0.01264    -0.01905    -0.10948
 PZ  C  29  -0.06080     0.00634    -0.00704     0.00579     0.00944     0.12643
  
  S  C  30   0.09144     0.00429    -0.00378    -0.06262    -0.00295    -0.32895
 PX  C  30  -0.09057     0.00104     0.00006    -0.02280    -0.00512    -0.06622
 PY  C  30   0.05278    -0.00331     0.00353     0.01137    -0.00351     0.02737
 PZ  C  30  -0.09539     0.00325    -0.00288    -0.02455     0.00188    -0.06567
  
  S  C  31   0.12290    -0.00088     0.00033    -0.00511     0.00072    -0.08309
 PX  C  31   0.01469     0.00268    -0.00255    -0.02789     0.00054    -0.14266
 PY  C  31   0.02306    -0.00183     0.00190     0.01255    -0.00172     0.06100
 PZ  C  31  -0.16034     0.00076    -0.00038    -0.01030    -0.00035    -0.04049
  
  S  O  32  -0.13850    -0.00265     0.00271     0.00829    -0.00176     0.01260
 PX  O  32   0.01685     0.00254    -0.00266    -0.01806     0.00247    -0.08902
 PY  O  32  -0.01410    -0.00154     0.00167     0.00746    -0.00192     0.03193
 PZ  O  32   0.00276    -0.00047     0.00058     0.00798    -0.00086     0.05838
  
  S  C  33  -0.06621    -0.00350     0.00369     0.02279    -0.00342     0.11814
 PX  C  33  -0.03553    -0.00107     0.00114     0.00511    -0.00100     0.01864
 PY  C  33   0.02044     0.00054    -0.00056    -0.00313     0.00042    -0.01316
 PZ  C  33   0.00979     0.00084    -0.00083    -0.00443     0.00051    -0.01446
  
  S  C  34   0.23497    -0.00380     0.00292     0.03507     0.00087     0.15386
 PX  C  34   0.08882    -0.00062     0.00032     0.00329     0.00035    -0.00770
 PY  C  34  -0.02221     0.00011     0.00000    -0.00003    -0.00025     0.01110
 PZ  C  34  -0.06947     0.00004     0.00019    -0.00669    -0.00112    -0.04674
  
  S  C  35   0.28134    -0.00333     0.00222     0.04098     0.00256     0.20759
 PX  C  35   0.06586    -0.00047     0.00020     0.00546     0.00051     0.01354
 PY  C  35  -0.03742     0.00030    -0.00016    -0.00307    -0.00024    -0.00759
 PZ  C  35   0.07071    -0.00087     0.00066     0.00572    -0.00008     0.01319
  
  S  C  36   0.22608    -0.00232     0.00122     0.03508     0.00255     0.15734
 PX  C  36  -0.06990     0.00074    -0.00059    -0.00624    -0.00054    -0.04265
 PY  C  36   0.01060    -0.00028     0.00028     0.00191     0.00014     0.01839
 PZ  C  36   0.09404    -0.00077     0.00052     0.00369    -0.00036    -0.00748
  
  S  C  37   0.10888    -0.00015    -0.00007    -0.00451    -0.00288    -0.08082
 PX  C  37  -0.15859     0.00094    -0.00036    -0.00974    -0.00225    -0.03803
 PY  C  37   0.05618    -0.00134     0.00123     0.00840     0.00020     0.04046
 PZ  C  37   0.02649     0.00063    -0.00001    -0.02913    -0.00371    -0.15488
  
  S  O  38  -0.16539     0.00129    -0.00141     0.00876     0.00021     0.02067
 PX  O  38   0.00405    -0.00048     0.00035     0.00678     0.00238     0.05271
 PY  O  38  -0.02451    -0.00032     0.00038     0.00295    -0.00073     0.01029
 PZ  O  38   0.02454    -0.00004     0.00058    -0.01807    -0.00412    -0.09696
  
  S  C  39  -0.08050     0.00015    -0.00073     0.02155     0.00531     0.11988
 PX  C  39   0.02066    -0.00015     0.00023    -0.00481     0.00022    -0.01887
 PY  C  39   0.01928    -0.00035     0.00044    -0.00239    -0.00085    -0.01247
 PZ  C  39  -0.04282    -0.00003    -0.00001     0.00459     0.00034     0.01842
  
  S  C  40   0.06679     0.00268    -0.00648     0.18365     0.01502     0.16166
 PX  C  40  -0.00137    -0.00022     0.00023     0.03391    -0.00675    -0.03998
 PY  C  40  -0.05911     0.00728    -0.00836    -0.00014     0.01819     0.13286
 PZ  C  40   0.04692    -0.00589     0.00682    -0.00873    -0.01354    -0.09683
  
  S  C  41   0.09877    -0.00514     0.00349     0.18918    -0.01960    -0.10711
 PX  C  41  -0.03746     0.00207    -0.00164    -0.02981     0.00158    -0.00082
 PY  C  41  -0.01954     0.00343    -0.00428     0.00563     0.01326     0.11108
 PZ  C  41   0.02364    -0.00307     0.00360     0.00419    -0.01046    -0.08315
  
  S  C  42   0.08826    -0.00796     0.00796     0.14172    -0.03517    -0.25664
 PX  C  42  -0.03041     0.00311    -0.00352     0.01469     0.00573     0.04415
 PY  C  42   0.03617    -0.00244     0.00228     0.02453    -0.00482    -0.02613
 PZ  C  42  -0.02058     0.00118    -0.00101    -0.01616     0.00200     0.00805
  
  S  C  43   0.04774    -0.00732     0.00922    -0.10345    -0.01433    -0.12853
 PX  C  43   0.00610     0.00085    -0.00225     0.19258    -0.01584    -0.10319
 PY  C  43   0.06587    -0.00512     0.00539     0.00044    -0.00886    -0.06060
 PZ  C  43  -0.05305     0.00395    -0.00396    -0.02953     0.00987     0.06814
  
  S  C  44   0.09925    -0.01074     0.01346    -0.26403     0.00140    -0.01097
 PX  C  44   0.02673    -0.00248     0.00239     0.05019    -0.01027    -0.07151
 PY  C  44   0.02506    -0.00039    -0.00069     0.10664    -0.00466    -0.01728
 PZ  C  44  -0.02580     0.00095    -0.00015    -0.08798     0.00576     0.02953
  
  S  C  45   0.09723    -0.00465     0.00364     0.00523     0.00742     0.07234
 PX  C  45   0.03184    -0.00118     0.00037     0.06773    -0.00301    -0.00657
 PY  C  45  -0.03504     0.00489    -0.00613     0.06110     0.00902     0.07223
 PZ  C  45   0.01962    -0.00363     0.00482    -0.06249    -0.00681    -0.05617
  
  S  C  46   0.04181    -0.00424     0.00622    -0.23762     0.01101     0.05895
 PX  C  46  -0.00980    -0.00157     0.00298    -0.15033     0.00763     0.04181
 PY  C  46   0.01372    -0.00150     0.00173    -0.01423    -0.00159    -0.01356
 PZ  C  46  -0.00811     0.00162    -0.00221     0.05583    -0.00109    -0.00225
  
  S  C  47   0.04479    -0.00162     0.00146     0.00746    -0.00305    -0.02452
 PX  C  47   0.00845    -0.00102     0.00157    -0.06871     0.00411     0.02556
 PY  C  47  -0.00745    -0.00033     0.00069    -0.03723     0.00234     0.01416
 PZ  C  47   0.00349     0.00053    -0.00097     0.04796    -0.00296    -0.01804
  
  S  C  48   0.03569     0.00035    -0.00168     0.14793    -0.01140    -0.07501
 PX  C  48   0.01235     0.00009    -0.00043     0.03129    -0.00179    -0.00971
 PY  C  48  -0.00023    -0.00046     0.00078    -0.03620     0.00195     0.01052
 PZ  C  48  -0.00315     0.00033    -0.00049     0.01993    -0.00105    -0.00565
  
  S  C  49   0.02574     0.00164    -0.00350     0.20427    -0.01246    -0.07302
 PX  C  49   0.00151     0.00068    -0.00107     0.03467    -0.00040     0.00341
 PY  C  49   0.00899    -0.00012    -0.00004     0.01744    -0.00180    -0.01312
 PZ  C  49  -0.00751    -0.00007     0.00029    -0.02191     0.00146     0.00900
  
  S  C  50  -0.00235     0.00362    -0.00559     0.19295    -0.00536    -0.01355
 PX  C  50  -0.02194     0.00104    -0.00086    -0.03033     0.00521     0.03839
 PY  C  50   0.00606     0.00021    -0.00039     0.01253    -0.00019     0.00037
 PZ  C  50   0.00040    -0.00034     0.00038     0.00416    -0.00149    -0.01182
  
  S  C  51  -0.03031     0.00282    -0.00269    -0.05699     0.01170     0.08698
 PX  C  51  -0.04476     0.00166    -0.00109    -0.06538     0.00743     0.04746
 PY  C  51   0.01731    -0.00265     0.00394    -0.13719     0.00420     0.01449
 PZ  C  51  -0.00324     0.00188    -0.00318     0.14134    -0.00609    -0.02846
  
  S  N  52  -0.11081     0.00720    -0.00751     0.02698     0.00907     0.06493
 PX  N  52  -0.00947     0.00161    -0.00281     0.15902    -0.01102    -0.07110
 PY  N  52   0.01147    -0.00271     0.00420    -0.14977     0.00372     0.00761
 PZ  N  52  -0.02682     0.00349    -0.00480     0.12734    -0.00072     0.01246
  
  S  C  53  -0.09975     0.00997    -0.01329     0.37191    -0.00930    -0.03160
 PX  C  53   0.02102    -0.00165     0.00180    -0.00393    -0.00357    -0.02856
 PY  C  53  -0.02246     0.00177    -0.00216     0.04801    -0.00116    -0.00587
 PZ  C  53   0.00529     0.00015    -0.00051     0.03791    -0.00146    -0.00408
  
  S  C  54  -0.06403     0.00716    -0.01001     0.32662    -0.01082    -0.04604
 PX  C  54   0.01193    -0.00112     0.00141    -0.02797    -0.00033    -0.00599
 PY  C  54   0.00748    -0.00092     0.00129    -0.03968     0.00090     0.00187
 PZ  C  54   0.02024    -0.00191     0.00251    -0.06920     0.00195     0.00831
  
  S  C  55   0.00008    -0.13318    -0.05758     0.00154     0.00715     0.00384
 PX  C  55  -0.00336    -0.32712    -0.26101    -0.00057     0.14507    -0.01746
 PY  C  55   0.02372     0.20857    -0.07710    -0.00474     0.05285    -0.01409
 PZ  C  55  -0.00133    -0.02262    -0.00479     0.00027     0.00312     0.00012
  
  S  O  56   0.00018    -0.46804    -0.37840    -0.00006     0.21770    -0.02367
 PX  O  56  -0.00182     0.12365     0.11249     0.00027    -0.05402     0.00588
 PY  O  56   0.00562     0.09033     0.01286    -0.00112     0.00295    -0.00260
 PZ  O  56  -0.00035    -0.00033     0.00340     0.00008    -0.00191     0.00034
  
  S  O  57   0.03547     0.51548     0.10569    -0.00570    -0.10318     0.00328
 PX  O  57   0.00967     0.08163    -0.02646    -0.00188    -0.00051    -0.00274
 PY  O  57   0.00161    -0.00544    -0.04572    -0.00151     0.00908    -0.00427
 PZ  O  57   0.00029     0.00364     0.00185     0.00002    -0.00030     0.00013
  
  S  H  58  -0.01976    -0.11723     0.04613     0.00045    -0.11213     0.01232
  
  S  H  59  -0.02001     0.00191     0.03118    -0.00244    -0.00770    -0.00743
  
  S  H  60  -0.00042     0.04481    -0.05514    -0.00110     0.04865    -0.00493
  
  S  H  61   0.03891    -0.00547     0.00316     0.01156     0.01274     0.03369
  
  S  H  62   0.01948     0.00390    -0.00554     0.00103     0.01704    -0.00278
  
  S  H  63   0.02009     0.00300    -0.00448     0.00096     0.01596     0.00132
  
  S  H  64   0.02208     0.00395    -0.00573     0.00086     0.01889    -0.00339
  
  S  H  65  -0.03548     0.00782    -0.01011     0.00005     0.02706    -0.01082
  
  S  H  66  -0.05934     0.00798    -0.01014    -0.00057     0.02941    -0.01316
  
  S  H  67  -0.04148     0.00835    -0.01055    -0.00135     0.02661    -0.01348
  
  S  H  68   0.01477     0.00467    -0.00627    -0.00173     0.01704    -0.01243
  
  S  H  69   0.01535     0.00481    -0.00650    -0.00170     0.01817    -0.01282
  
  S  H  70   0.02149     0.00378    -0.00527    -0.00156     0.01599    -0.01202
  
  S  H  71  -0.04574     0.00827    -0.00976     0.00308     0.01725     0.03695
  
  S  H  72  -0.01869    -0.00141     0.00146     0.01001    -0.00128     0.05375
  
  S  H  73  -0.02729    -0.00121     0.00130     0.00852    -0.00130     0.04873
  
  S  H  74  -0.01811    -0.00144     0.00150     0.00962    -0.00140     0.05086
  
  S  H  75   0.05867    -0.00162     0.00138     0.01515    -0.00003     0.07726
  
  S  H  76   0.08283    -0.00109     0.00075     0.01530     0.00105     0.08926
  
  S  H  77   0.05360    -0.00065     0.00025     0.01501     0.00152     0.07890
  
  S  H  78  -0.02481     0.00014    -0.00043     0.00972     0.00249     0.05588
  
  S  H  79  -0.02259    -0.00010    -0.00020     0.00909     0.00246     0.05052
  
  S  H  80  -0.02712     0.00003    -0.00032     0.00793     0.00330     0.04773
  
  S  H  81   0.02194    -0.00025    -0.00061     0.07774    -0.00436    -0.01618
  
  S  H  82   0.01685    -0.00162     0.00143     0.07352    -0.01329    -0.09845
  
  S  H  83   0.02040     0.00026    -0.00093    -0.00333     0.00879     0.06629
  
  S  H  84   0.01676    -0.00087     0.00093    -0.01022    -0.00045    -0.00549
  
  S  H  85   0.01091     0.00009    -0.00054     0.05279    -0.00444    -0.03046
  
  S  H  86   0.00723     0.00059    -0.00125     0.07600    -0.00492    -0.02981
  
  S  H  87  -0.00914     0.00195    -0.00285     0.09055    -0.00205    -0.00268
  
  S  H  88  -0.03950     0.00422    -0.00568     0.15867    -0.00324    -0.00601
  
  S  H  89  -0.03515     0.00355    -0.00485     0.15496    -0.00585    -0.02973
  
  S  H  90  -0.02782     0.00314    -0.00437     0.13800    -0.00408    -0.01502
  
  S  H  91  -0.02237     0.00269    -0.00385     0.13470    -0.00489    -0.02188
  
  S  H  92  -0.02554     0.00281    -0.00396     0.13657    -0.00535    -0.02632
  
  S  H  93   0.01640     0.19949     0.00443    -0.00322    -0.02761    -0.00209




    ROOT NO.   19          20          21          22          23          24

           -35.43661   -34.09484   -33.73903   -32.97817   -31.94465   -31.46753
  
  
  S  N   1   0.16954    -0.00193     0.01502     0.04272    -0.06813     0.02776
 PX  N   1   0.05855    -0.00049     0.00375     0.00914    -0.01257     0.00512
 PY  N   1  -0.00202     0.00026    -0.00196    -0.00796     0.01495    -0.00521
 PZ  N   1  -0.00084     0.00006    -0.00039    -0.00131     0.00155    -0.00024
  
  S  C   2   0.04166     0.00092    -0.00731    -0.03086     0.05730    -0.02130
[...]
    82       H          2.62569580  * -15.27289132  *   5.54493006  *
    83       H         -1.51921902  * -12.59681550  *   4.56446953  *
    84       H         -3.52078039  * -13.72085590  *   5.92528265  *
    85       H         -4.95502786  * -15.13324724  *   7.40335449  *
    86       H         -3.99998778  * -17.04561427  *   8.63078528  *
    87       H         -1.59925795  * -17.63383897  *   8.42839459  *
    88       H          0.66309924  * -17.87462559  *   7.77890030  *
    89       H          1.98638548  * -17.14970077  *   6.85420460  *
    90       H          0.72058419  * -15.89079795  *   9.41020008  *
    91       H          2.28714938  * -16.70522806  *   9.32818319  *
    92       H          2.04188056  * -15.16969393  *   8.48748765  *
    93       H          2.84324170  *   3.21736216  *  -0.15656828  *

                             CARTESIAN COORDINATES

   1    N        0.000000000     0.000000000     0.000000000
   2    C        1.156615381     0.000000000     0.000000000
   3    C        2.572973385     0.023410872     0.000000000
   4    C        3.329271305    -1.091132245     0.067142067
   5    C        2.790049055    -2.416825899     0.085823331
   6    C        1.671761812    -2.870595889    -0.563561986
   7    C        1.450900503    -4.263160424    -0.338294856
   8    C        2.408894264    -4.812380457     0.472128154
   9    S        3.578267358    -3.661712376     0.958174422
  10    C        2.481666811    -6.167114538     0.910629217
  11    S        1.068579041    -7.055602009     1.292066025
  12    C        1.984705656    -8.463154014     1.674811146
  13    C        3.329464199    -8.239793504     1.535635914
  14    C        3.616200881    -6.907554560     1.084317658
  15    C        4.423411952    -9.145148244     1.837700024
  16    C        4.649665481   -10.328683530     1.125552579
  17    O        3.790114271   -10.562448870     0.095450024
  18    C        3.594440431   -11.912243430    -0.257264104
  19    C        5.724505920   -11.169360180     1.428702473
  20    C        6.588792421   -10.816000070     2.452462538
  21    C        6.411485921    -9.641021612     3.171016768
  22    C        5.336806552    -8.812171740     2.852255998
  23    O        5.091004103    -7.616975354     3.460426002
  24    C        5.722771255    -7.379666831     4.693914519
  25    C        1.318279020    -9.644987977     2.116286725
  26    S        1.981387558   -10.581430960     3.406080920
  27    C        0.690082711   -11.704800280     3.332032521
  28    C       -0.223975688   -11.373921330     2.378404024
  29    C        0.134183867   -10.171065210     1.675616638
  30    C       -0.765358197    -9.632740861     0.670464102
  31    C       -2.056653817    -9.224306570     1.046069531
  32    O       -2.330187291    -9.382897133     2.371637497
  33    C       -3.471994719    -8.738210667     2.878801015
  34    C       -2.964467143    -8.720484410     0.115430020
  35    C       -2.583939701    -8.639729005    -1.217491644
  36    C       -1.328132554    -9.052835091    -1.632906459
  37    C       -0.428737374    -9.549963915    -0.685638784
  38    O        0.802779666   -10.034172930    -1.007449282
  39    C        1.394963705    -9.512677309    -2.173907446
  40    C        0.613059411   -12.842119020     4.218042560
  41    C        1.763713312   -13.592779290     4.500820534
  42    C        1.722162007   -14.697434290     5.336317066
  43    C        0.491214677   -15.039129730     5.888869841
  44    C       -0.676691016   -14.277156850     5.615064523
  45    C       -0.618792311   -13.180331390     4.774055391
  46    C       -1.757662725   -14.881116380     6.353502389
  47    C       -3.101657259   -14.570040690     6.470576900
  48    C       -3.891208894   -15.360628660     7.293448410
  49    C       -3.348632323   -16.445798140     7.987226539
  50    C       -2.007091701   -16.782141870     7.881689429
  51    C       -1.215106947   -15.992326240     7.053723164
  52    N        0.146613606   -16.142861590     6.702016342
  53    C        1.113660147   -16.894226690     7.499092417
  54    C        1.560821843   -16.125598840     8.740802698
  55    C        3.226417254     1.337553737    -0.044937542
  56    O        4.429797751     1.554725725    -0.013614391
  57    O        2.368360739     2.374014249    -0.132034384
  58    H        4.426831027    -1.010787443     0.118224875
  59    H        1.026200332    -2.276383634    -1.207803246
  60    H        0.614234295    -4.804839424    -0.773288008
  61    H        4.632044089    -6.559595077     0.909838054
  62    H        3.466766401   -12.591612640     0.601403560
  63    H        2.656797496   -11.903852110    -0.834997481
  64    H        4.404715199   -12.292700640    -0.900758835
  65    H        5.908623113   -12.090364460     0.872431422
  66    H        7.432488892   -11.470922860     2.694971675
  67    H        7.123751863    -9.394552524     3.960151916
  68    H        5.571152938    -8.182349860     5.434073000
  69    H        6.802373675    -7.182433229     4.588747404
  70    H        5.233265683    -6.463555261     5.059645378
  71    H       -1.127625455   -11.933673110     2.148812885
  72    H       -4.412483863    -9.198416485     2.533571106
  73    H       -3.386510293    -8.888565510     3.966353207
  74    H       -3.499914112    -7.655749397     2.672066055
  75    H       -3.967469123    -8.394275450     0.395410258
  76    H       -3.293067325    -8.248444934    -1.954891734
  77    H       -1.074263588    -8.993166989    -2.692809040
  78    H        1.000340759    -9.987371391    -3.087318677
  79    H        1.313740202    -8.417790925    -2.272707868
  80    H        2.459938327    -9.773898097    -2.070003181
  81    H        2.717788458   -13.304550300     4.047341653
  82    H        2.625695802   -15.272891320     5.544930058
  83    H       -1.519219018   -12.596815500     4.564469529
  84    H       -3.520780386   -13.720855900     5.925282649
  85    H       -4.955027861   -15.133247240     7.403354490
  86    H       -3.999987775   -17.045614270     8.630785282
  87    H       -1.599257955   -17.633838970     8.428394590
  88    H        0.663099243   -17.874625590     7.778900297
  89    H        1.986385481   -17.149700770     6.854204605
  90    H        0.720584190   -15.890797950     9.410200077
  91    H        2.287149377   -16.705228060     9.328183191
  92    H        2.041880558   -15.169693930     8.487487649
  93    H        2.843241695     3.217362164    -0.156568277


           Empirical Formula: C46 H36 N2 O6 S3  =    93 atoms



      MOLECULAR POINT GROUP   :   C1  


                  EIGENVALUES  
 -48.47005 -47.70306 -47.35580 -46.77853 -46.18921 -45.92410 -43.66202 -43.38674
 -42.59127 -42.17097 -41.50141 -41.38527 -41.20838 -39.67039 -39.14634 -37.83197
 -36.37552 -35.69522 -35.43661 -34.09484 -33.73903 -32.97817 -31.94465 -31.46753
 -31.01041 -30.93889 -30.68476 -30.17699 -30.05842 -29.76591 -29.16642 -28.75851
 -28.26234 -28.02581 -27.83965 -27.62955 -27.10371 -26.14352 -26.09250 -25.20322
 -24.63941 -24.32867 -24.03394 -23.77181 -23.56395 -23.46120 -23.36234 -23.09841
 -22.64388 -22.46361 -22.41237 -20.94469 -20.64066 -20.54069 -20.43530 -20.07076
 -19.85780 -19.55722 -19.39345 -19.10356 -18.43353 -18.41681 -18.24166 -18.14533
 -17.96142 -17.88820 -17.80604 -17.69169 -17.65886 -17.60641 -17.56906 -17.38258
 -16.95950 -16.86653 -16.66955 -16.45825 -16.39227 -16.05352 -15.97587 -15.87236
 -15.75824 -15.49628 -15.22119 -15.10519 -15.03056 -14.95022 -14.75499 -14.60130
 -14.52106 -14.38083 -14.35133 -14.26392 -14.22187 -14.19141 -13.97280 -13.84198
 -13.70871 -13.59704 -13.55280 -13.35805 -13.29905 -13.21675 -13.13444 -13.06329
 -13.00850 -12.99332 -12.91699 -12.83180 -12.77591 -12.72945 -12.59371 -12.55245
 -12.49003 -12.39486 -12.26837 -12.11511 -11.93113 -11.89217 -11.85662 -11.80969
 -11.73835 -11.68233 -11.55077 -11.21172 -11.18847 -10.96872 -10.80630 -10.32361
 -10.02502  -9.99494  -9.78377  -9.51068  -9.16567  -8.80639  -8.43670  -8.36607
  -8.35584  -8.16155  -7.95035  -7.75377  -7.50426  -6.64348  -1.18649  -0.25834
   0.19643   0.35186   0.64268   0.81886   0.83246   0.86314   0.87101   0.94566
   1.18813   1.38955   1.58971   1.66391   2.00393   2.05824   2.21821   2.29776
   2.42227   2.58939   2.64931   2.67443   2.81983   2.83815   2.92345   2.93739
   3.09370   3.13562   3.14682   3.24323   3.49022   3.58231   3.65498   3.78270
   3.85060   3.88173   3.88926   3.90198   3.93609   3.96204   4.08181   4.09173
   4.14542   4.23087   4.26656   4.29089   4.47561   4.55697   4.81231   4.82211
   4.91220   5.07477   5.46815   5.49672   5.52679   5.54612   5.67764   5.73425
   5.87013   5.91141   6.24749   6.27297   6.36573   6.42657   6.60993   6.67236
   6.77918   6.79493   6.82786   6.87906   6.89071   6.89243   6.90851   6.93600
   6.98310   6.98348   7.01213   7.62369   7.67879   7.70437   8.25464   8.32967
   8.50500   8.55917   8.68323   8.69657   8.70762   8.78010   9.00835   9.06952
   9.17091   9.30645   9.48499   9.52828   9.84558  10.06930  10.23443  10.49295
  10.63562  10.65580  10.86181  10.89953  11.08732  11.55961  11.68305  12.00483
  12.14267  12.54226  12.55746  12.64012  12.72290  12.87222  13.01980  13.04537
  13.54249  13.88040  13.92641  14.08144  14.10377  14.12416  14.22927  15.11627


              NET ATOMIC CHARGES AND DIPOLE CONTRIBUTIONS

  ATOM NO.   TYPE          CHARGE      No. of ELECS.   s-Pop       p-Pop       
    1          N          -0.397700        5.3977     1.75358     3.64412
    2          C           0.218492        3.7815     1.14833     2.63318
    3          C           0.014857        3.9851     1.00034     2.98480
    4          C           0.131826        3.8682     1.09411     2.77407
    5          C           0.010690        3.9893     1.06272     2.92659
    6          C           0.017418        3.9826     1.09551     2.88708
    7          C          -0.050429        4.0504     1.08264     2.96779
    8          C           0.075084        3.9249     1.07656     2.84835
    9          S          -0.038843        6.0388     1.77219     4.26665
   10          C           0.027425        3.9726     1.07006     2.90251
   11          S          -0.062694        6.0627     1.77504     4.28765
   12          C           0.031152        3.9688     1.07079     2.89806
   13          C           0.022487        3.9775     1.04553     2.93198
   14          C          -0.026633        4.0266     1.09085     2.93579
   15          C           0.013079        3.9869     1.04243     2.94449
   16          C           0.150036        3.8500     1.04361     2.80635
   17          O          -0.316795        6.3168     1.69164     4.62516
   18          C           0.110001        3.8900     1.05732     2.83267
   19          C          -0.047886        4.0479     1.07591     2.97198
   20          C          -0.022462        4.0225     1.08035     2.94211
   21          C          -0.048014        4.0480     1.07548     2.97253
   22          C           0.144888        3.8551     1.04421     2.81090
   23          O          -0.320173        6.3202     1.69024     4.62994
   24          C           0.108605        3.8914     1.05725     2.83414
   25          C           0.013618        3.9864     1.06688     2.91950
   26          S          -0.070871        6.0709     1.77592     4.29496
   27          C           0.037669        3.9623     1.08549     2.87684
   28          C          -0.055871        4.0559     1.08613     2.96974
   29          C           0.031641        3.9684     1.04854     2.91982
   30          C           0.012816        3.9872     1.04332     2.94386
   31          C           0.144269        3.8557     1.04426     2.81147
   32          O          -0.318589        6.3186     1.68982     4.62877
   33          C           0.108104        3.8919     1.05736     2.83453
   34          C          -0.048044        4.0480     1.07574     2.97231
   35          C          -0.022494        4.0225     1.08047     2.94203
   36          C          -0.048371        4.0484     1.07598     2.97239
   37          C           0.147367        3.8526     1.04359     2.80904
   38          O          -0.317472        6.3175     1.69128     4.62619
   39          C           0.109752        3.8902     1.05727     2.83297
   40          C           0.010878        3.9891     1.03916     2.94996
   41          C          -0.028939        4.0289     1.08185     2.94709
   42          C          -0.039388        4.0394     1.07806     2.96133
   43          C           0.073403        3.9266     1.05121     2.87539
   44          C          -0.014723        4.0147     1.05075     2.96397
   45          C          -0.029128        4.0291     1.08135     2.94778
   46          C          -0.016020        4.0160     1.04781     2.96821
   47          C          -0.020930        4.0209     1.07918     2.94175
   48          C          -0.044117        4.0441     1.07753     2.96659
   49          C          -0.024218        4.0242     1.08047     2.94374
   50          C          -0.042893        4.0429     1.07565     2.96724
   51          C           0.077890        3.9221     1.05242     2.86969
   52          N          -0.158693        5.1587     1.27219     3.88650
   53          C           0.079770        3.9202     1.04009     2.88014
   54          C          -0.019636        4.0196     1.05379     2.96584
   55          C           0.500530        3.4995     1.04495     2.45452
   56          O          -0.610130        6.6101     1.81681     4.79332
   57          O          -0.310254        6.3103     1.68710     4.62316
   58          H           0.064333        0.9357     0.93567
   59          H           0.047139        0.9529     0.95286
   60          H           0.036023        0.9640     0.96398
   61          H           0.037780        0.9622     0.96222
   62          H           0.028511        0.9715     0.97149
   63          H           0.017187        0.9828     0.98281
   64          H           0.025811        0.9742     0.97419
   65          H           0.029065        0.9709     0.97093
   66          H           0.023440        0.9766     0.97656
   67          H           0.029590        0.9704     0.97041
   68          H           0.030487        0.9695     0.96951
   69          H           0.029125        0.9709     0.97087
   70          H           0.012836        0.9872     0.98716
   71          H           0.028949        0.9711     0.97105
   72          H           0.029843        0.9702     0.97016
   73          H           0.012972        0.9870     0.98703
   74          H           0.030025        0.9700     0.96998
   75          H           0.030509        0.9695     0.96949
   76          H           0.023850        0.9762     0.97615
   77          H           0.029383        0.9706     0.97062
   78          H           0.025919        0.9741     0.97408
   79          H           0.027782        0.9722     0.97222
   80          H           0.018033        0.9820     0.98197
   81          H           0.022914        0.9771     0.97709
   82          H           0.027412        0.9726     0.97259
   83          H           0.026647        0.9734     0.97335
   84          H           0.024079        0.9759     0.97592
   85          H           0.016727        0.9833     0.98327
   86          H           0.018712        0.9813     0.98129
   87          H           0.026303        0.9737     0.97370
   88          H           0.018457        0.9815     0.98154
   89          H           0.019569        0.9804     0.98043
   90          H           0.012537        0.9875     0.98746
   91          H           0.006278        0.9937     0.99372
   92          H           0.013146        0.9869     0.98685
   93          H           0.247289        0.7527     0.75271
 DIPOLE           X         Y         Z       TOTAL
 POINT-CHG.     1.548    -7.268     0.528     7.450
 HYBRID         0.515     0.286    -1.716     1.814
 SUM            2.063    -6.982    -1.188     7.376


          ATOMIC ORBITAL ELECTRON POPULATIONS

     Atom    s        px        py        pz   
    1  N   1.75358   1.23103   1.23057   1.18253
    2  C   1.14833   0.95053   0.80627   0.87638
    3  C   1.00034   0.90560   0.92207   1.15713
    4  C   1.09411   0.98609   0.99518   0.79280
    5  C   1.06272   0.99276   0.91014   1.02368
    6  C   1.09551   0.94565   0.98968   0.95174
    7  C   1.08264   0.96574   0.97356   1.02849
    8  C   1.07656   0.95560   0.92523   0.96752
    9  S   1.77219   1.43109   1.16832   1.66724
   10  C   1.07006   0.93994   0.93702   1.02555
   11  S   1.77504   1.24173   1.21513   1.83079
   12  C   1.07079   0.94828   0.90550   1.04429
   13  C   1.04553   0.95731   0.97857   0.99610
   14  C   1.09085   0.93771   0.98639   1.01169
   15  C   1.04243   0.98628   0.96998   0.98824
   16  C   1.04361   0.93380   0.97769   0.89487
   17  O   1.69164   1.69776   1.35140   1.57599
   18  C   1.05732   0.99859   0.84499   0.98909
   19  C   1.07591   0.99083   0.97177   1.00937
   20  C   1.08035   0.96592   0.98020   0.99599
   21  C   1.07548   0.97778   0.99584   0.99891
   22  C   1.04421   0.98574   0.86470   0.96047
   23  O   1.69024   1.76790   1.46095   1.40110
   24  C   1.05725   0.97318   0.99346   0.86749
   25  C   1.06688   0.98580   0.96521   0.96849
   26  S   1.77592   1.40935   1.37164   1.51397
   27  C   1.08549   0.94502   0.93933   0.99249
   28  C   1.08613   0.95497   0.99211   1.02265
   29  C   1.04854   0.95519   0.99032   0.97430
   30  C   1.04332   0.96945   1.01332   0.96109
   31  C   1.04426   0.97567   0.99768   0.83812
   32  O   1.68982   1.52317   1.76845   1.33714
   33  C   1.05736   0.89220   0.97039   0.97195
   34  C   1.07574   0.95267   1.04610   0.97353
   35  C   1.08047   0.97825   0.98540   0.97838
   36  C   1.07598   0.98067   1.05058   0.94114
   37  C   1.04359   0.86136   0.97062   0.97706
   38  O   1.69128   1.39381   1.72420   1.50818
   39  C   1.05727   0.96695   0.98123   0.88480
   40  C   1.03916   0.98747   0.97492   0.98757
   41  C   1.08185   0.95196   1.00036   0.99477
   42  C   1.07806   0.95018   0.99978   1.01136
   43  C   1.05121   0.98745   0.92063   0.96730
   44  C   1.05075   0.98318   0.98413   0.99666
   45  C   1.08135   0.95308   0.98486   1.00984
   46  C   1.04781   0.95581   1.00171   1.01069
   47  C   1.07918   0.98656   0.96784   0.98735
   48  C   1.07753   0.94549   1.00399   1.01711
   49  C   1.08047   0.97928   0.98295   0.98151
   50  C   1.07565   0.97966   0.97530   1.01229
   51  C   1.05242   0.89540   0.99026   0.98404
   52  N   1.27219   1.09537   1.37188   1.41925
   53  C   1.04009   0.94920   0.95530   0.97565
   54  C   1.05379   0.99291   0.99364   0.97929
   55  C   1.04495   0.87854   0.90688   0.66910
   56  O   1.81681   1.28120   1.95353   1.55859
   57  O   1.68710   1.52754   1.20971   1.88591
   58  H   0.93567
   59  H   0.95286
   60  H   0.96398
   61  H   0.96222
   62  H   0.97149
   63  H   0.98281
   64  H   0.97419
   65  H   0.97093
   66  H   0.97656
   67  H   0.97041
   68  H   0.96951
   69  H   0.97087
   70  H   0.98716
   71  H   0.97105
   72  H   0.97016
   73  H   0.98703
   74  H   0.96998
   75  H   0.96949
   76  H   0.97615
   77  H   0.97062
   78  H   0.97408
   79  H   0.97222
   80  H   0.98197
   81  H   0.97709
   82  H   0.97259
   83  H   0.97335
   84  H   0.97592
   85  H   0.98327
   86  H   0.98129
   87  H   0.97370
   88  H   0.98154
   89  H   0.98043
   90  H   0.98746
   91  H   0.99372
   92  H   0.98685
   93  H   0.75271

 **********************
 *                    *
 * JOB ENDED NORMALLY *
 *                    *
 **********************



 TOTAL JOB TIME:           577.63 SECONDS

 == MOPAC DONE ==
