 *******************************************************************************
 ** Site#: 4824         For non-commercial use only    Version 21.013L 64BITS **
 *******************************************************************************
 ** Cite this program as: MOPAC2016, Version: 21.013L, James J. P. Stewart,   **
 ** Stewart Computational Chemistry, web: HTTP://OpenMOPAC.net. Days left:  84**
 *******************************************************************************
 **                                                                           **
 **                                MOPAC2016                                  **
 **                                                                           **
 *******************************************************************************

                              INDO CALCULATION RESULTS

 *******************************************************************************
 *  CALCULATION DONE:                                Thu Oct 21 13:41:58 2021  *
 *  INDO       - The INDO Hamiltonian to be used
 *  CIS        - C.I. USES 1 ELECTRON EXCITATIONS ONLY
 *  EPS=  8.93 - USE ANDREAS KLAMT'S COSMO IMPLICIT SOLVATION MODEL
 *  n**2 =  1.420 for COSMO-CI
 *  T=         - A TIME OF 172800.0 SECONDS REQUESTED
 *  DUMP=N     - RESTART FILE WRITTEN EVERY 7200.0 SECONDS REQUESTED
 *******************************************************************************
INDO CIS EPS=8.93 N**2=1.42
 Dye77
 Calculo de Estados Excitados
   ATOM   CHEMICAL          X               Y               Z
  NUMBER   SYMBOL      (ANGSTROMS)     (ANGSTROMS)     (ANGSTROMS)
 
     1       C          0.00000000  *   0.00000000  *   0.00000000  *
     2       C          1.51917609  *   0.00000000  *   0.00000000  *
     3       C          2.09380989  *   1.41333111  *   0.00000000  *
     4       C          2.01442055  *   2.07664497  *  -1.37515575  *
     5       O          2.71765337  *   1.35293470  *  -2.35768953  *
     6       C          4.06117151  *   1.20982892  *  -2.18276377  *
     7       C          4.85714597  *   2.14451934  *  -1.51459015  *
     8       C          6.21887105  *   1.91331601  *  -1.40634879  *
     9       C          6.80294377  *   0.76954726  *  -1.93644100  *
    10       C          5.99770821  *  -0.14553874  *  -2.61427959  *
    11       C          4.61970483  *   0.07377040  *  -2.77922492  *
    12       C          3.80063362  *  -0.89702126  *  -3.48493606  *
    13       C          3.37041510  *  -2.09052238  *  -2.81194598  *
    14       C          2.62871882  *  -2.89609661  *  -3.62216410  *
    15       S          2.44379118  *  -2.23840682  *  -5.19049711  *
    16       C          3.37320555  *  -0.84238310  *  -4.78540006  *
    17       C          3.63960541  *   0.15991346  *  -5.76573602  *
    18       S          5.03827400  *   1.15404689  *  -5.63097060  *
    19       C          4.68057675  *   1.97008834  *  -7.09131200  *
    20       C          3.53289556  *   1.50522708  *  -7.66953068  *
    21       C          2.92855372  *   0.45766791  *  -6.90023612  *
    22       C          1.70308180  *  -0.16211722  *  -7.37359076  *
    23       C          1.73713562  *  -1.09833019  *  -8.41753429  *
    24       O          2.97730231  *  -1.31353991  *  -8.93664393  *
    25       C          3.17031838  *  -2.44922939  *  -9.74737439  *
    26       C          3.11735184  *  -3.73060881  *  -8.91571834  *
    27       C          3.18848375  *  -4.96528120  *  -9.80751906  *
    28       C          4.48586313  *  -5.02658714  * -10.59547007  *
    29       C          0.56931709  *  -1.69180356  *  -8.89962016  *
    30       C         -0.64827284  *  -1.32472495  *  -8.34506593  *
    31       C         -0.72701817  *  -0.36797931  *  -7.34403201  *
    32       C          0.44944139  *   0.22102245  *  -6.87498113  *
    33       O          0.49405612  *   1.23534298  *  -5.97084123  *
    34       C         -0.67024270  *   1.51887551  *  -5.23103858  *
    35       C         -0.92405983  *   0.43649443  *  -4.18218106  *
    36       C         -2.28048462  *   0.62970823  *  -3.51329448  *
    37       C         -2.41561290  *   2.00248435  *  -2.87632451  *
    38       C          5.52233144  *   3.00830602  *  -7.58650135  *
    39       C          6.23867128  *   3.90832730  *  -6.84235337  *
    40       C          6.97199395  *   4.81971033  *  -7.66062672  *
    41       C          6.78338494  *   4.57739794  *  -8.99642301  *
    42       S          5.74259652  *   3.24377207  *  -9.26734671  *
    43       C          7.36783761  *   5.27351267  * -10.10121262  *
    44       C          7.66098392  *   6.59009284  * -10.09060119  *
    45       C          8.29090787  *   7.19797165  * -11.26917621  *
    46       O          8.59135349  *   6.63024157  * -12.31030259  *
    47       O          8.54517405  *   8.51572656  * -11.13720682  *
    48       C          7.36415227  *   7.44341264  *  -8.99980098  *
    49       N          7.12617533  *   8.15829099  *  -8.12220213  *
    50       C          2.06411091  *  -4.17304955  *  -3.25418495  *
    51       C          2.86017383  *  -5.07468313  *  -2.53133870  *
    52       C          2.37615659  *  -6.31051293  *  -2.13318166  *
    53       C          1.06521307  *  -6.62742823  *  -2.47748994  *
    54       C          0.25804118  *  -5.72441995  *  -3.22057169  *
    55       C          0.75474465  *  -4.49160965  *  -3.60448081  *
    56       C         -1.01673663  *  -6.36644946  *  -3.42276766  *
    57       C         -2.17428701  *  -5.96809510  *  -4.06954928  *
    58       C         -3.24818830  *  -6.84620567  *  -4.09830819  *
    59       C         -3.16908054  *  -8.10173474  *  -3.48924872  *
    60       C         -2.02364309  *  -8.52189879  *  -2.82964310  *
    61       C         -0.94667367  *  -7.64087393  *  -2.79724400  *
    62       N          0.30070037  *  -7.76829781  *  -2.14400763  *
    63       C          0.89118553  *  -9.04147914  *  -1.73793538  *
    64       C          1.57346860  *  -9.75863894  *  -2.90108364  *
    65       O          6.43204736  *  -1.32320814  *  -3.13831093  *
    66       C          7.82765947  *  -1.54049607  *  -3.20052157  *
    67       C          7.98349952  *  -2.85641283  *  -3.97162079  *
    68       C          7.45754961  *  -4.04106192  *  -3.16751637  *
    69       C          7.67175165  *  -5.33894084  *  -3.92947493  *
    70       H          7.57263679  *   4.67181270  * -11.00123381  *
    71       H         -0.42047380  *   0.55170011  *   0.85325173  *
    72       H         -0.42643223  *   0.44697362  *  -0.90947700  *
    73       H         -0.40388572  *  -1.02179372  *   0.05809029  *
    74       H          1.88993865  *  -0.55108950  *   0.89150524  *
    75       H          1.90706825  *  -0.58119520  *  -0.86443369  *
    76       H          1.56722783  *   2.05087568  *   0.74140534  *
    77       H          3.14613539  *   1.39190985  *   0.35561414  *
    78       H          0.98369846  *   2.07765694  *  -1.79095948  *
    79       H          2.33000715  *   3.14394351  *  -1.33279515  *
    80       H          4.43170261  *   3.05500535  *  -1.08734338  *
    81       H          6.84814778  *   2.64375913  *  -0.88647939  *
    82       H          7.87539842  *   0.62134038  *  -1.80236819  *
    83       H          3.62113275  *  -2.29946917  *  -1.77479964  *
    84       H          3.09837796  *   1.87110099  *  -8.59708505  *
    85       H          2.47984383  *  -2.47840756  * -10.61970500  *
    86       H          4.18573371  *  -2.25436969  * -10.15614572  *
    87       H          3.94107223  *  -3.73483471  *  -8.17059429  *
    88       H          2.19397564  *  -3.76307581  *  -8.29863186  *
    89       H          3.08215442  *  -5.87785410  *  -9.18188276  *
    90       H          2.31706131  *  -5.00080463  * -10.49571173  *
    91       H          4.53786594  *  -4.26654849  * -11.38802245  *
    92       H          5.36992652  *  -4.88466758  *  -9.95740292  *
    93       H          4.61203698  *  -5.99837660  * -11.09564671  *
    94       H          0.58695144  *  -2.42839748  *  -9.70536191  *
    95       H         -1.56782501  *  -1.79109785  *  -8.71466450  *
    96       H         -1.70717403  *  -0.08883935  *  -6.95201389  *
    97       H         -0.40333723  *   2.49504068  *  -4.77006816  *
    98       H         -1.55826670  *   1.70697526  *  -5.87514257  *
    99       H         -0.86601060  *  -0.57664985  *  -4.63450504  *
   100       H         -0.10603134  *   0.44095074  *  -3.42978175  *
   101       H         -3.10150050  *   0.46359491  *  -4.24318314  *
   102       H         -2.42818580  *  -0.16112382  *  -2.74617632  *
   103       H         -3.30038945  *   2.06376780  *  -2.22535043  *
   104       H         -1.54779610  *   2.26301960  *  -2.25313546  *
   105       H         -2.52702842  *   2.80560849  *  -3.61898821  *
   106       H          6.25131473  *   3.95108161  *  -5.75566166  *
   107       H          7.61760441  *   5.58787350  *  -7.23883433  *
   108       H          8.95674466  *   8.87211289  * -11.93772232  *
   109       H          3.89082108  *  -4.79841096  *  -2.28327084  *
   110       H          3.00572922  *  -7.00291533  *  -1.57158876  *
   111       H          0.12553976  *  -3.79297487  *  -4.16198221  *
   112       H         -2.23079366  *  -4.98492480  *  -4.54314634  *
   113       H         -4.17222534  *  -6.55457549  *  -4.60480215  *
   114       H         -4.03439139  *  -8.77063878  *  -3.53440637  *
   115       H         -1.97973859  *  -9.50455037  *  -2.35734780  *
   116       H          1.61495657  *  -8.84841792  *  -0.91183181  *
   117       H          0.09840430  *  -9.68091330  *  -1.28580754  *
   118       H          2.38297056  *  -9.15839089  *  -3.34163856  *
   119       H          2.01877688  * -10.70984542  *  -2.57630598  *
   120       H          0.87284304  *  -9.99362636  *  -3.71522001  *
   121       H          8.35005382  *  -0.70923316  *  -3.72674643  *
   122       H          8.27234529  *  -1.61145587  *  -2.18223548  *
   123       H          7.46811120  *  -2.79273461  *  -4.95345462  *
   124       H          9.05700559  *  -2.99684251  *  -4.21968991  *
   125       H          7.95567800  *  -4.09214956  *  -2.17612572  *
   126       H          6.37959250  *  -3.90615755  *  -2.93539136  *
   127       H          7.15273321  *  -5.34295377  *  -4.89887492  *
   128       H          8.73411731  *  -5.53240234  *  -4.13698151  *
   129       H          7.29729980  *  -6.20769241  *  -3.36888291  *
 


          CARTESIAN COORDINATES 

    NO.       ATOM           X           Y           Z

     1         C          0.0000      0.0000      0.0000
     2         C          1.5192      0.0000      0.0000
     3         C          2.0938      1.4133      0.0000
     4         C          2.0144      2.0766     -1.3752
     5         O          2.7177      1.3529     -2.3577
     6         C          4.0612      1.2098     -2.1828
     7         C          4.8571      2.1445     -1.5146
     8         C          6.2189      1.9133     -1.4063
     9         C          6.8029      0.7695     -1.9364
    10         C          5.9977     -0.1455     -2.6143
    11         C          4.6197      0.0738     -2.7792
    12         C          3.8006     -0.8970     -3.4849
    13         C          3.3704     -2.0905     -2.8119
    14         C          2.6287     -2.8961     -3.6222
    15         S          2.4438     -2.2384     -5.1905
    16         C          3.3732     -0.8424     -4.7854
    17         C          3.6396      0.1599     -5.7657
    18         S          5.0383      1.1540     -5.6310
    19         C          4.6806      1.9701     -7.0913
    20         C          3.5329      1.5052     -7.6695
    21         C          2.9286      0.4577     -6.9002
    22         C          1.7031     -0.1621     -7.3736
    23         C          1.7371     -1.0983     -8.4175
    24         O          2.9773     -1.3135     -8.9366
    25         C          3.1703     -2.4492     -9.7474
    26         C          3.1174     -3.7306     -8.9157
    27         C          3.1885     -4.9653     -9.8075
    28         C          4.4859     -5.0266    -10.5955
    29         C          0.5693     -1.6918     -8.8996
    30         C         -0.6483     -1.3247     -8.3451
    31         C         -0.7270     -0.3680     -7.3440
    32         C          0.4494      0.2210     -6.8750
    33         O          0.4941      1.2353     -5.9708
    34         C         -0.6702      1.5189     -5.2310
    35         C         -0.9241      0.4365     -4.1822
    36         C         -2.2805      0.6297     -3.5133
    37         C         -2.4156      2.0025     -2.8763
    38         C          5.5223      3.0083     -7.5865
    39         C          6.2387      3.9083     -6.8424
    40         C          6.9720      4.8197     -7.6606
    41         C          6.7834      4.5774     -8.9964
    42         S          5.7426      3.2438     -9.2673
    43         C          7.3678      5.2735    -10.1012
    44         C          7.6610      6.5901    -10.0906
    45         C          8.2909      7.1980    -11.2692
    46         O          8.5914      6.6302    -12.3103
    47         O          8.5452      8.5157    -11.1372
    48         C          7.3642      7.4434     -8.9998
    49         N          7.1262      8.1583     -8.1222
    50         C          2.0641     -4.1730     -3.2542
    51         C          2.8602     -5.0747     -2.5313
    52         C          2.3762     -6.3105     -2.1332
    53         C          1.0652     -6.6274     -2.4775
    54         C          0.2580     -5.7244     -3.2206
    55         C          0.7547     -4.4916     -3.6045
    56         C         -1.0167     -6.3664     -3.4228
    57         C         -2.1743     -5.9681     -4.0695
    58         C         -3.2482     -6.8462     -4.0983
    59         C         -3.1691     -8.1017     -3.4892
    60         C         -2.0236     -8.5219     -2.8296
    61         C         -0.9467     -7.6409     -2.7972
    62         N          0.3007     -7.7683     -2.1440
    63         C          0.8912     -9.0415     -1.7379
    64         C          1.5735     -9.7586     -2.9011
    65         O          6.4320     -1.3232     -3.1383
    66         C          7.8277     -1.5405     -3.2005
    67         C          7.9835     -2.8564     -3.9716
    68         C          7.4575     -4.0411     -3.1675
    69         C          7.6718     -5.3389     -3.9295
    70         H          7.5726      4.6718    -11.0012
    71         H         -0.4205      0.5517      0.8533
    72         H         -0.4264      0.4470     -0.9095
    73         H         -0.4039     -1.0218      0.0581
    74         H          1.8899     -0.5511      0.8915
    75         H          1.9071     -0.5812     -0.8644
    76         H          1.5672      2.0509      0.7414
    77         H          3.1461      1.3919      0.3556
    78         H          0.9837      2.0777     -1.7910
    79         H          2.3300      3.1439     -1.3328
    80         H          4.4317      3.0550     -1.0873
    81         H          6.8481      2.6438     -0.8865
    82         H          7.8754      0.6213     -1.8024
    83         H          3.6211     -2.2995     -1.7748
    84         H          3.0984      1.8711     -8.5971
    85         H          2.4798     -2.4784    -10.6197
    86         H          4.1857     -2.2544    -10.1561
    87         H          3.9411     -3.7348     -8.1706
    88         H          2.1940     -3.7631     -8.2986
    89         H          3.0822     -5.8779     -9.1819
    90         H          2.3171     -5.0008    -10.4957
    91         H          4.5379     -4.2665    -11.3880
    92         H          5.3699     -4.8847     -9.9574
    93         H          4.6120     -5.9984    -11.0956
    94         H          0.5870     -2.4284     -9.7054
    95         H         -1.5678     -1.7911     -8.7147
    96         H         -1.7072     -0.0888     -6.9520
    97         H         -0.4033      2.4950     -4.7701
    98         H         -1.5583      1.7070     -5.8751
    99         H         -0.8660     -0.5766     -4.6345
   100         H         -0.1060      0.4410     -3.4298
   101         H         -3.1015      0.4636     -4.2432
   102         H         -2.4282     -0.1611     -2.7462
   103         H         -3.3004      2.0638     -2.2254
   104         H         -1.5478      2.2630     -2.2531
   105         H         -2.5270      2.8056     -3.6190
   106         H          6.2513      3.9511     -5.7557
   107         H          7.6176      5.5879     -7.2388
   108         H          8.9567      8.8721    -11.9377
   109         H          3.8908     -4.7984     -2.2833
   110         H          3.0057     -7.0029     -1.5716
   111         H          0.1255     -3.7930     -4.1620
   112         H         -2.2308     -4.9849     -4.5431
   113         H         -4.1722     -6.5546     -4.6048
   114         H         -4.0344     -8.7706     -3.5344
   115         H         -1.9797     -9.5046     -2.3573
   116         H          1.6150     -8.8484     -0.9118
   117         H          0.0984     -9.6809     -1.2858
   118         H          2.3830     -9.1584     -3.3416
   119         H          2.0188    -10.7098     -2.5763
   120         H          0.8728     -9.9936     -3.7152
   121         H          8.3501     -0.7092     -3.7267
   122         H          8.2723     -1.6115     -2.1822
   123         H          7.4681     -2.7927     -4.9535
   124         H          9.0570     -2.9968     -4.2197
   125         H          7.9557     -4.0921     -2.1761
   126         H          6.3796     -3.9062     -2.9354
   127         H          7.1527     -5.3430     -4.8989
   128         H          8.7341     -5.5324     -4.1370
   129         H          7.2973     -6.2077     -3.3689

           Empirical Formula: C58 H60 N2 O6 S3  =   129 atoms



      MOLECULAR POINT GROUP   :   C1  


      RHF CALCULATION, NO. OF DOUBLY OCCUPIED LEVELS = 178

 WARNING: INDO only performs single-point calculations

 Summary of symmetry occupancy in each shell:

 SHELL     
    1  178
    v  158
 TOTAL 336




    ROOT NO.    1           2           3           4           5           6

           -48.47735   -48.09864   -47.91869   -46.88546   -46.78021   -46.77486
  
  
  S  C   1   0.00277     0.03718     0.03515     0.01959    -0.00098    -0.04650
 PX  C   1   0.00115     0.01497     0.01592     0.00620    -0.00042    -0.01982
 PY  C   1   0.00038     0.00609     0.00584     0.00314    -0.00016    -0.00772
 PZ  C   1  -0.00034    -0.00458    -0.00322    -0.00293     0.00008     0.00400
  
  S  C   2   0.00542     0.07093     0.07231     0.03089    -0.00187    -0.08854
 PX  C   2   0.00064     0.00779     0.00910     0.00135    -0.00017    -0.00821
 PY  C   2   0.00147     0.02259     0.02357     0.00983    -0.00062    -0.02967
 PZ  C   2  -0.00120    -0.01478    -0.01482    -0.00564     0.00034     0.01617
  
  S  C   3   0.00783     0.10867     0.11333     0.04432    -0.00286    -0.13556
 PX  C   3   0.00060     0.00810     0.00943     0.00089    -0.00015    -0.00698
 PY  C   3  -0.00035    -0.00345    -0.00326    -0.00170     0.00009     0.00411
 PZ  C   3  -0.00317    -0.04416    -0.04607    -0.01710     0.00112     0.05337
  
  S  C   4   0.01299     0.18233     0.18960     0.07222    -0.00468    -0.22244
 PX  C   4   0.00426     0.05875     0.06392     0.01905    -0.00146    -0.06932
 PY  C   4  -0.00403    -0.05543    -0.05780    -0.02147     0.00141     0.06725
 PZ  C   4  -0.00281    -0.03950    -0.04068    -0.01492     0.00097     0.04621
  
  S  O   5   0.02372     0.32498     0.34023     0.11480    -0.00784    -0.37302
 PX  O   5   0.00363     0.04659     0.04984     0.01025    -0.00088    -0.04194
 PY  O   5   0.00130     0.02188     0.02384     0.01122    -0.00073    -0.03476
 PZ  O   5   0.00451     0.06414     0.06843     0.02542    -0.00173    -0.08199
  
  S  C   6   0.01841     0.23917     0.25217     0.04302    -0.00360    -0.16885
 PX  C   6  -0.00428    -0.06215    -0.06389    -0.04303     0.00263     0.12716
 PY  C   6  -0.00053     0.00165     0.00332     0.01255    -0.00073    -0.03521
 PZ  C   6  -0.00037    -0.00092     0.00099     0.00381    -0.00025    -0.01116
  
  S  C   7   0.00971     0.12930     0.13930     0.01188    -0.00140    -0.06340
 PX  C   7  -0.00188    -0.02730    -0.02819    -0.01895     0.00117     0.05636
 PY  C   7  -0.00317    -0.04054    -0.04361     0.00048     0.00021     0.00854
 PZ  C   7  -0.00178    -0.02309    -0.02459    -0.00114     0.00019     0.00858
  
  S  C   8   0.00626     0.08056     0.08845    -0.01454     0.00030     0.01859
 PX  C   8  -0.00185    -0.02438    -0.02627    -0.00195     0.00025     0.01149
 PY  C   8  -0.00192    -0.02375    -0.02617     0.00843    -0.00031    -0.01688
 PZ  C   8  -0.00135    -0.01689    -0.01851     0.00472    -0.00016    -0.00850
  
  S  C   9   0.00847     0.10355     0.11525    -0.05083     0.00215     0.11271
 PX  C   9  -0.00282    -0.03491    -0.03794     0.00726    -0.00019    -0.01086
 PY  C   9  -0.00160    -0.01716    -0.01978     0.02245    -0.00113    -0.05776
 PZ  C   9  -0.00144    -0.01639    -0.01842     0.01429    -0.00069    -0.03532
  
  S  C  10   0.01588     0.18133     0.19995    -0.11176     0.00508     0.26280
 PX  C  10  -0.00039    -0.00109     0.00276    -0.02559     0.00136     0.06967
 PY  C  10  -0.00269    -0.02542    -0.02970     0.04460    -0.00230    -0.11715
 PZ  C  10  -0.00139    -0.01303    -0.01417     0.01931    -0.00100    -0.05061
  
  S  C  11   0.01651     0.18181     0.18814    -0.03090     0.00083     0.04629
 PX  C  11  -0.00046    -0.00235     0.00255    -0.03269     0.00171     0.08659
 PY  C  11   0.00004     0.01618     0.01863     0.01946    -0.00120    -0.05833
 PZ  C  11   0.00050     0.01296     0.01758     0.00509    -0.00043    -0.01908
  
  S  C  12   0.01742     0.12533     0.10962    -0.01902     0.00081     0.03738
 PX  C  12  -0.00070     0.01079     0.01736    -0.01336     0.00056     0.02931
 PY  C  12  -0.00147     0.01938     0.02122     0.00386    -0.00031    -0.01533
 PZ  C  12   0.00046     0.01106     0.02170    -0.00153    -0.00013    -0.00253
  
  S  C  13   0.02172     0.06789     0.05845    -0.01152     0.00054     0.02591
 PX  C  13  -0.00313     0.00643     0.00852    -0.00502     0.00020     0.01044
 PY  C  13  -0.00341     0.02275     0.02184    -0.00263     0.00007     0.00373
 PZ  C  13  -0.00458    -0.01550    -0.00997     0.00278    -0.00019    -0.00835
  
  S  C  14   0.03722     0.03939     0.02860    -0.00543     0.00036     0.01589
 PX  C  14  -0.00405     0.00934     0.00769    -0.00249     0.00011     0.00502
 PY  C  14  -0.01116     0.01679     0.01148    -0.00141     0.00011     0.00451
 PZ  C  14   0.00534     0.00081     0.00241    -0.00041    -0.00000     0.00020
  
  S  S  15   0.01388     0.04588     0.00494    -0.00482     0.00026     0.01077
 PX  S  15   0.00124     0.00980     0.00716    -0.00330     0.00011     0.00363
 PY  S  15  -0.00166     0.01838    -0.00427     0.00133     0.00010     0.00297
 PZ  S  15   0.00748     0.00846     0.01881     0.00147     0.00018     0.00681
  
  S  C  16   0.01213     0.09032     0.03182    -0.00607     0.00070     0.02057
 PX  C  16   0.00023     0.00493     0.01380    -0.00615     0.00017     0.00664
 PY  C  16  -0.00172     0.00828    -0.00256     0.00349     0.00003    -0.00433
 PZ  C  16   0.00379     0.01269     0.03640    -0.00323    -0.00001     0.00482
  
  S  C  17   0.00613     0.09202    -0.02847    -0.00225     0.00138     0.01114
 PX  C  17  -0.00055    -0.01495     0.01799    -0.00729     0.00011    -0.00077
 PY  C  17  -0.00079    -0.00060    -0.00678     0.00371     0.00039    -0.00127
 PZ  C  17   0.00089    -0.00930     0.03345     0.00278    -0.00032     0.00281
  
  S  S  18   0.00298     0.04561    -0.00398    -0.00542     0.00221     0.00815
 PX  S  18  -0.00126    -0.02072     0.00621     0.00037    -0.00033    -0.00021
 PY  S  18  -0.00087    -0.00947    -0.00483     0.00234     0.00054    -0.00431
 PZ  S  18   0.00029    -0.00363     0.01847    -0.00039    -0.00100     0.00341
  
  S  C  19   0.00182     0.04029    -0.02667    -0.00454     0.00571     0.00152
 PX  C  19  -0.00063    -0.01444     0.01010     0.00105     0.00118    -0.00069
 PY  C  19  -0.00059    -0.01290     0.00849     0.00219     0.00169    -0.00031
 PZ  C  19   0.00017     0.00228     0.00009     0.00111    -0.00075     0.00054
  
  S  C  20   0.00284     0.07028    -0.05550    -0.00995     0.00262     0.00082
 PX  C  20  -0.00027    -0.01012     0.01151    -0.00138     0.00099    -0.00060
 PY  C  20  -0.00086    -0.02276     0.01985     0.00770     0.00051     0.00166
 PZ  C  20   0.00083     0.01772    -0.01116     0.00336     0.00056     0.00265
  
  S  C  21   0.00545     0.13158    -0.10523    -0.00522     0.00127     0.00583
 PX  C  21  -0.00053    -0.02278     0.02718    -0.01794     0.00049    -0.00639
 PY  C  21  -0.00050    -0.01255     0.01265     0.01573     0.00062     0.00535
 PZ  C  21   0.00025    -0.00731     0.01683     0.02214     0.00037     0.00891
  
  S  C  22   0.00675     0.19447    -0.18257    -0.00049    -0.00023     0.00725
 PX  C  22  -0.00041    -0.01597     0.01633    -0.05857    -0.00031    -0.02212
 PY  C  22  -0.00001    -0.00475     0.00917     0.05779     0.00082     0.02186
 PZ  C  22   0.00008    -0.00724     0.01405     0.06819     0.00088     0.02581
  
  S  C  23   0.00689     0.22370    -0.23046    -0.21808    -0.00328    -0.07592
 PX  C  23   0.00120     0.04334    -0.04798    -0.11285    -0.00142    -0.04198
 PY  C  23  -0.00002    -0.00570     0.00966     0.04805     0.00071     0.01865
 PZ  C  23  -0.00017    -0.01258     0.01779     0.06655     0.00094     0.02558
  
  S  O  24   0.00822     0.28254    -0.30201    -0.43278    -0.00616    -0.15736
 PX  O  24  -0.00176    -0.05946     0.06293     0.08272     0.00118     0.02979
 PY  O  24  -0.00100    -0.03675     0.04099     0.07088     0.00107     0.02636
 PZ  O  24   0.00003    -0.00153     0.00329     0.01535     0.00027     0.00614
  
  S  C  25   0.00438     0.15271    -0.16541    -0.25341    -0.00369    -0.09294
 PX  C  25  -0.00074    -0.02564     0.02746     0.03763     0.00055     0.01366
 PY  C  25   0.00132     0.04653    -0.04990    -0.07206    -0.00102    -0.02623
 PZ  C  25   0.00154     0.05308    -0.05716    -0.08539    -0.00123    -0.03119
  
  S  C  26   0.00250     0.08476    -0.09219    -0.14603    -0.00214    -0.05372
 PX  C  26  -0.00018    -0.00584     0.00617     0.00686     0.00010     0.00245
 PY  C  26   0.00094     0.03308    -0.03561    -0.05239    -0.00076    -0.01912
 PZ  C  26  -0.00025    -0.01032     0.01151     0.02021     0.00030     0.00755
  
  S  C  27   0.00111     0.03806    -0.04195    -0.07186    -0.00107    -0.02667
 PX  C  27   0.00002     0.00093    -0.00111    -0.00302    -0.00004    -0.00116
 PY  C  27   0.00042     0.01439    -0.01574    -0.02555    -0.00038    -0.00943
 PZ  C  27   0.00012     0.00360    -0.00388    -0.00595    -0.00009    -0.00217
  
  S  C  28   0.00063     0.02204    -0.02443    -0.04349    -0.00065    -0.01620
 PX  C  28  -0.00019    -0.00655     0.00725     0.01265     0.00019     0.00471
 PY  C  28   0.00014     0.00504    -0.00554    -0.00929    -0.00014    -0.00344
 PZ  C  28   0.00015     0.00516    -0.00570    -0.00995    -0.00015    -0.00369
  
  S  C  29   0.00388     0.12606    -0.12986    -0.09143    -0.00160    -0.03082
 PX  C  29   0.00103     0.03586    -0.03879    -0.06428    -0.00089    -0.02358
 PY  C  29   0.00083     0.02585    -0.02543    -0.00038    -0.00009     0.00084
 PZ  C  29   0.00083     0.02468    -0.02396     0.00475    -0.00003     0.00277
  
  S  C  30   0.00284     0.08800    -0.08727     0.00102    -0.00038     0.00335
 PX  C  30   0.00108     0.03427    -0.03450    -0.01148    -0.00027    -0.00314
 PY  C  30   0.00058     0.01759    -0.01668     0.01229     0.00007     0.00525
 PZ  C  30   0.00050     0.01420    -0.01316     0.01416     0.00010     0.00580
  
  S  C  31   0.00434     0.12941    -0.12213     0.09507     0.00047     0.03948
 PX  C  31   0.00160     0.04796    -0.04564     0.02481     0.00009     0.01102
 PY  C  31   0.00055     0.01597    -0.01312     0.04282     0.00040     0.01627
 PZ  C  31   0.00049     0.01207    -0.00892     0.04343     0.00041     0.01618
  
  S  C  32   0.00796     0.23097    -0.21134     0.22318     0.00163     0.09072
 PX  C  32   0.00027     0.00495    -0.00391    -0.02838    -0.00015    -0.00969
 PY  C  32   0.00124     0.03594    -0.02973     0.09730     0.00091     0.03708
 PZ  C  32   0.00130     0.03451    -0.02722     0.10027     0.00091     0.03778
  
  S  O  33   0.01028     0.29785    -0.26451     0.44288     0.00356     0.17240
 PX  O  33  -0.00177    -0.05273     0.04711    -0.09231    -0.00068    -0.03500
 PY  O  33  -0.00173    -0.04890     0.04362    -0.06400    -0.00053    -0.02554
 PZ  O  33  -0.00054    -0.01642     0.01609    -0.01216    -0.00014    -0.00626
  
  S  C  34   0.00582     0.16474    -0.14146     0.26173     0.00196     0.09682
 PX  C  34   0.00192     0.05637    -0.05014     0.08762     0.00071     0.03427
 PY  C  34  -0.00140    -0.03869     0.03365    -0.05881    -0.00044    -0.02217
 PZ  C  34  -0.00121    -0.03851     0.03769    -0.05750    -0.00051    -0.02501
  
  S  C  35   0.00380     0.09568    -0.07390     0.15269     0.00099     0.04994
 PX  C  35   0.00048     0.01196    -0.00915     0.01574     0.00012     0.00556
 PY  C  35   0.00052     0.01759    -0.01404     0.03023     0.00021     0.01016
 PZ  C  35  -0.00094    -0.02937     0.02956    -0.04650    -0.00042    -0.02060
  
  S  C  36   0.00188     0.04561    -0.03196     0.07708     0.00043     0.02207
 PX  C  36   0.00059     0.01401    -0.00955     0.02235     0.00012     0.00628
 PY  C  36   0.00014     0.00457    -0.00290     0.00830     0.00004     0.00210
 PZ  C  36  -0.00030    -0.00878     0.00856    -0.01472    -0.00012    -0.00624
  
  S  C  37   0.00117     0.02841    -0.01740     0.04814     0.00023     0.01161
 PX  C  37   0.00028     0.00625    -0.00295     0.00943     0.00003     0.00155
 PY  C  37  -0.00031    -0.00736     0.00496    -0.01272    -0.00007    -0.00347
 PZ  C  37  -0.00024    -0.00681     0.00612    -0.01237    -0.00009    -0.00470
  
  S  C  38   0.00055     0.01278    -0.00866    -0.00183     0.01651     0.00019
 PX  C  38  -0.00015    -0.00334     0.00233     0.00032     0.00430    -0.00019
 PY  C  38  -0.00015    -0.00342     0.00251     0.00048     0.00545    -0.00015
 PZ  C  38   0.00007     0.00149    -0.00089     0.00009    -0.00153     0.00013
  
  S  C  39   0.00025     0.00580    -0.00357    -0.00084     0.01923    -0.00004
 PX  C  39  -0.00005    -0.00124     0.00083     0.00009     0.00106    -0.00007
 PY  C  39  -0.00006    -0.00148     0.00100     0.00013     0.00152    -0.00010
 PZ  C  39  -0.00005    -0.00129     0.00101     0.00028    -0.00887     0.00012
  
  S  C  40   0.00013     0.00319    -0.00205    -0.00066     0.03555    -0.00054
 PX  C  40  -0.00004    -0.00091     0.00058     0.00015    -0.00201    -0.00002
 PY  C  40  -0.00005    -0.00111     0.00071     0.00019    -0.00057    -0.00006
 PZ  C  40  -0.00001    -0.00031     0.00027     0.00011    -0.01286     0.00026
  
  S  C  41   0.00012     0.00288    -0.00193    -0.00068     0.05337    -0.00095
 PX  C  41  -0.00002    -0.00046     0.00031     0.00006     0.00731    -0.00018
 PY  C  41  -0.00002    -0.00052     0.00035     0.00006     0.01327    -0.00031
 PZ  C  41   0.00004     0.00100    -0.00065    -0.00017    -0.00406     0.00015
  
  S  S  42   0.00020     0.00491    -0.00349    -0.00100     0.01893    -0.00024
 PX  S  42  -0.00003    -0.00064     0.00054     0.00015     0.00607    -0.00009
 PY  S  42  -0.00002    -0.00039     0.00035     0.00012     0.00808    -0.00012
 PZ  S  42   0.00012     0.00284    -0.00199    -0.00055     0.00579    -0.00002
  
  S  C  43   0.00004     0.00103    -0.00071    -0.00051     0.11627    -0.00240
 PX  C  43  -0.00001    -0.00014     0.00009    -0.00002     0.01522    -0.00034
 PY  C  43  -0.00000    -0.00006     0.00003    -0.00012     0.04695    -0.00100
 PZ  C  43   0.00002     0.00038    -0.00025    -0.00005    -0.00986     0.00024
  
  S  C  44   0.00003     0.00072    -0.00051    -0.00076     0.22902    -0.00483
 PX  C  44  -0.00000    -0.00005     0.00003    -0.00008     0.03552    -0.00076
 PY  C  44  -0.00001    -0.00013     0.00008    -0.00008     0.04032    -0.00087
 PZ  C  44   0.00000     0.00007    -0.00003     0.00016    -0.06427     0.00138
  
  S  C  45   0.00002     0.00062    -0.00048    -0.00149     0.51284    -0.01089
 PX  C  45   0.00000     0.00002    -0.00002    -0.00015     0.05712    -0.00122
 PY  C  45   0.00000     0.00004    -0.00003    -0.00026     0.09548    -0.00203
 PZ  C  45  -0.00000    -0.00003     0.00003     0.00023    -0.08367     0.00178
  
  S  O  46   0.00001     0.00045    -0.00035    -0.00118     0.41087    -0.00873
 PX  O  46  -0.00000    -0.00004     0.00003     0.00010    -0.03382     0.00072
 PY  O  46   0.00000     0.00009    -0.00007    -0.00029     0.10231    -0.00217
 PZ  O  46   0.00000     0.00016    -0.00013    -0.00040     0.13878    -0.00295
  
  S  O  47   0.00002     0.00056    -0.00044    -0.00163     0.57217    -0.01216
 PX  O  47  -0.00000    -0.00000     0.00000    -0.00001     0.00292    -0.00006
 PY  O  47  -0.00000    -0.00015     0.00012     0.00042    -0.14530     0.00309
 PZ  O  47  -0.00000    -0.00007     0.00006     0.00025    -0.09011     0.00192
  
  S  C  48   0.00002     0.00048    -0.00034    -0.00041     0.11473    -0.00241
 PX  C  48   0.00000     0.00001    -0.00001    -0.00005     0.01892    -0.00040
 PY  C  48  -0.00001    -0.00017     0.00011     0.00007    -0.01327     0.00027
 PZ  C  48  -0.00000    -0.00005     0.00004     0.00014    -0.04916     0.00104
  
  S  N  49   0.00001     0.00021    -0.00015    -0.00015     0.04052    -0.00085
 PX  N  49   0.00000     0.00002    -0.00001    -0.00002     0.00680    -0.00014
 PY  N  49  -0.00000    -0.00010     0.00007     0.00005    -0.01239     0.00026
 PZ  N  49  -0.00000    -0.00007     0.00005     0.00007    -0.02093     0.00044
  
  S  C  50   0.10336     0.00935     0.00855    -0.00224     0.00015     0.00698
 PX  C  50  -0.01816     0.00364     0.00278    -0.00081     0.00003     0.00159
 PY  C  50  -0.03612     0.00639     0.00399    -0.00035     0.00003     0.00137
 PZ  C  50   0.01041    -0.00079    -0.00019    -0.00008    -0.00000    -0.00001
  
  S  C  51   0.10073     0.00298     0.00443    -0.00191     0.00011     0.00512
 PX  C  51  -0.04473     0.00156     0.00050    -0.00007    -0.00000    -0.00003
 PY  C  51  -0.01466     0.00387     0.00276    -0.00059     0.00003     0.00156
 PZ  C  51  -0.00999    -0.00087    -0.00080     0.00025    -0.00002    -0.00071
  
  S  C  52   0.15464    -0.00592    -0.00144    -0.00060     0.00003     0.00153
 PX  C  52  -0.06874     0.00411     0.00184    -0.00015     0.00001     0.00045
 PY  C  52  -0.00016     0.00196     0.00149    -0.00043     0.00003     0.00126
 PZ  C  52  -0.02703     0.00076     0.00007     0.00015    -0.00001    -0.00042
  
  S  C  53   0.37262    -0.02149    -0.00910     0.00033    -0.00003    -0.00137
 PX  C  53  -0.11532     0.00840     0.00413    -0.00050     0.00003     0.00161
 PY  C  53  -0.05192     0.00514     0.00280    -0.00045     0.00003     0.00155
 PZ  C  53  -0.02014     0.00085     0.00029     0.00002    -0.00000    -0.00011
  
  S  C  54   0.30549    -0.01625    -0.00676     0.00024    -0.00001    -0.00049
 PX  C  54  -0.00239     0.00187     0.00134    -0.00037     0.00002     0.00109
 PY  C  54  -0.10515     0.00807     0.00386    -0.00035     0.00003     0.00153
 PZ  C  54   0.04885    -0.00306    -0.00128     0.00004    -0.00001    -0.00029
  
  S  C  55   0.13086    -0.00068     0.00097    -0.00042     0.00006     0.00276
 PX  C  55   0.00955     0.00225     0.00197    -0.00056     0.00003     0.00138
 PY  C  55  -0.05417     0.00437     0.00194     0.00010     0.00001     0.00049
 PZ  C  55   0.02900    -0.00107    -0.00006    -0.00016     0.00001     0.00029
  
  S  C  56   0.30298    -0.01944    -0.00901     0.00083    -0.00005    -0.00253
 PX  C  56   0.07371    -0.00427    -0.00183     0.00007    -0.00001    -0.00027
 PY  C  56  -0.06672     0.00484     0.00228    -0.00021     0.00002     0.00088
 PZ  C  56   0.06088    -0.00398    -0.00180     0.00013    -0.00001    -0.00052
  
  S  C  57   0.12500    -0.00823    -0.00397     0.00048    -0.00003    -0.00126
 PX  C  57   0.03270    -0.00198    -0.00092     0.00008    -0.00000    -0.00020
 PY  C  57  -0.04202     0.00300     0.00141    -0.00013     0.00001     0.00055
 PZ  C  57   0.03248    -0.00218    -0.00102     0.00010    -0.00001    -0.00033
  
  S  C  58   0.09032    -0.00625    -0.00303     0.00037    -0.00002    -0.00111
 PX  C  58   0.04011    -0.00274    -0.00132     0.00015    -0.00001    -0.00046
 PY  C  58  -0.00949     0.00071     0.00033    -0.00003     0.00000     0.00015
 PZ  C  58   0.02058    -0.00143    -0.00069     0.00008    -0.00001    -0.00025
  
  S  C  59   0.09360    -0.00655    -0.00317     0.00037    -0.00003    -0.00119
 PX  C  59   0.04010    -0.00278    -0.00133     0.00015    -0.00001    -0.00049
 PY  C  59   0.02477    -0.00171    -0.00083     0.00010    -0.00001    -0.00030
 PZ  C  59   0.00479    -0.00034    -0.00016     0.00002    -0.00000    -0.00006
  
  S  C  60   0.14988    -0.01035    -0.00493     0.00052    -0.00004    -0.00176
 PX  C  60   0.04529    -0.00303    -0.00141     0.00012    -0.00001    -0.00044
 PY  C  60   0.05626    -0.00385    -0.00183     0.00019    -0.00001    -0.00063
 PZ  C  60  -0.00830     0.00059     0.00030    -0.00004     0.00000     0.00012
  
  S  C  61   0.36852    -0.02459    -0.01147     0.00105    -0.00008    -0.00362
 PX  C  61   0.11176    -0.00719    -0.00325     0.00022    -0.00002    -0.00086
 PY  C  61   0.06319    -0.00394    -0.00179     0.00014    -0.00001    -0.00043
 PZ  C  61   0.01621    -0.00110    -0.00049     0.00003    -0.00000    -0.00015
  
  S  N  62   0.47726    -0.03152    -0.01453     0.00121    -0.00009    -0.00437
 PX  N  62  -0.01657     0.00126     0.00064    -0.00009     0.00001     0.00029
 PY  N  62   0.06293    -0.00377    -0.00165     0.00009    -0.00001    -0.00031
 PZ  N  62  -0.08268     0.00540     0.00248    -0.00020     0.00002     0.00072
  
  S  C  63   0.20584    -0.01385    -0.00643     0.00055    -0.00004    -0.00205
 PX  C  63  -0.03257     0.00225     0.00107    -0.00011     0.00001     0.00037
 PY  C  63   0.08262    -0.00547    -0.00252     0.00021    -0.00002    -0.00076
 PZ  C  63  -0.04872     0.00328     0.00152    -0.00013     0.00001     0.00049
  
  S  C  64   0.10300    -0.00696    -0.00324     0.00028    -0.00002    -0.00105
 PX  C  64  -0.02684     0.00184     0.00086    -0.00008     0.00001     0.00029
 PY  C  64   0.04085    -0.00271    -0.00125     0.00010    -0.00001    -0.00038
 PZ  C  64   0.02196    -0.00149    -0.00069     0.00006    -0.00000    -0.00023
  
  S  O  65   0.01919     0.21561     0.24434    -0.20045     0.00970     0.49860
 PX  O  65   0.00161     0.02198     0.02695    -0.02964     0.00147     0.07571
 PY  O  65   0.00352     0.04009     0.04468    -0.03237     0.00154     0.07920
 PZ  O  65   0.00162     0.01840     0.02084    -0.01557     0.00074     0.03824
  
  S  C  66   0.00965     0.11057     0.12708    -0.11166     0.00544     0.27977
 PX  C  66  -0.00489    -0.05571    -0.06363     0.05429    -0.00264    -0.13557
 PY  C  66   0.00088     0.01113     0.01240    -0.00781     0.00036     0.01863
 PZ  C  66   0.00035     0.00418     0.00471    -0.00283     0.00013     0.00669
  
  S  C  67   0.00485     0.05312     0.06161    -0.05877     0.00289     0.14862
 PX  C  67  -0.00117    -0.01237    -0.01418     0.01280    -0.00063    -0.03218
 PY  C  67   0.00114     0.01425     0.01635    -0.01405     0.00068     0.03509
 PZ  C  67   0.00117     0.01289     0.01496    -0.01386     0.00068     0.03498
  
  S  C  68   0.00349     0.03310     0.03851    -0.03798     0.00187     0.09644
 PX  C  68  -0.00017     0.00080     0.00106    -0.00149     0.00008     0.00389
 PY  C  68   0.00109     0.01294     0.01494    -0.01373     0.00067     0.03459
 PZ  C  68  -0.00031    -0.00364    -0.00427     0.00450    -0.00022    -0.01148
  
  S  C  69   0.00151     0.01296     0.01519    -0.01597     0.00079     0.04078
 PX  C  69  -0.00016    -0.00050    -0.00056     0.00049    -0.00002    -0.00123
 PY  C  69   0.00061     0.00593     0.00692    -0.00704     0.00035     0.01792
 PZ  C  69   0.00022     0.00158     0.00186    -0.00189     0.00009     0.00485
  
  S  H  70   0.00001     0.00034    -0.00023    -0.00020     0.05142    -0.00107
  
  S  H  71   0.00105     0.01439     0.01374     0.00767    -0.00039    -0.01849
  
  S  H  72   0.00153     0.02148     0.01707     0.01345    -0.00049    -0.02315
  
  S  H  73   0.00095     0.01175     0.01071     0.00653    -0.00030    -0.01435
  
  S  H  74   0.00180     0.02281     0.02340     0.00985    -0.00060    -0.02859
  
  S  H  75   0.00371     0.04202     0.04249     0.01591    -0.00098    -0.04636
  
  S  H  76   0.00236     0.03305     0.03427     0.01428    -0.00089    -0.04247
  
  S  H  77   0.00377     0.05191     0.05475     0.01893    -0.00128    -0.06062
  
  S  H  78   0.00445     0.06351     0.06170     0.02910    -0.00159    -0.07542
  
  S  H  79   0.00460     0.06499     0.06790     0.02513    -0.00165    -0.07841
  
  S  H  80   0.00362     0.04969     0.05328     0.01082    -0.00087    -0.04076
  
  S  H  81   0.00152     0.01978     0.02183    -0.00360     0.00007     0.00455
  
  S  H  82   0.00288     0.03481     0.03931    -0.02354     0.00107     0.05567
  
  S  H  83   0.00906     0.02601     0.02461    -0.00488     0.00020     0.00996
  
  S  H  84   0.00098     0.02626    -0.02274    -0.00548     0.00097    -0.00063
  
  S  H  85   0.00164     0.05733    -0.06211    -0.09381    -0.00137    -0.03439
  
  S  H  86   0.00144     0.05064    -0.05501    -0.08644    -0.00125    -0.03178
  
  S  H  87   0.00106     0.03384    -0.03658    -0.05830    -0.00085    -0.02135
  
  S  H  88   0.00137     0.04308    -0.04640    -0.06874    -0.00101    -0.02512
  
  S  H  89   0.00038     0.01254    -0.01384    -0.02401    -0.00036    -0.00892
  
  S  H  90   0.00049     0.01679    -0.01848    -0.03114    -0.00046    -0.01155
  
  S  H  91   0.00032     0.01146    -0.01267    -0.02214    -0.00033    -0.00824
  
  S  H  92   0.00029     0.01006    -0.01113    -0.01971    -0.00029    -0.00733
  
  S  H  93   0.00018     0.00648    -0.00721    -0.01314    -0.00020    -0.00491
  
  S  H  94   0.00139     0.04670    -0.04928    -0.05228    -0.00083    -0.01858
  
  S  H  95   0.00071     0.02176    -0.02168     0.00030    -0.00010     0.00083
  
  S  H  96   0.00168     0.04897    -0.04498     0.05445     0.00036     0.02143
  
  S  H  97   0.00200     0.05577    -0.04582     0.08975     0.00064     0.03163
  
  S  H  98   0.00217     0.06192    -0.05377     0.09734     0.00072     0.03626
  
  S  H  99   0.00212     0.04755    -0.03843     0.07164     0.00049     0.02484
  
  S  H 100   0.00197     0.04261    -0.02393     0.06215     0.00028     0.01406
  
  S  H 101   0.00078     0.01941    -0.01468     0.03295     0.00020     0.01028
  
  S  H 102   0.00071     0.01565    -0.00980     0.02602     0.00013     0.00646
  
  S  H 103   0.00036     0.00852    -0.00495     0.01461     0.00006     0.00327
  
  S  H 104   0.00070     0.01531    -0.00598     0.02320     0.00005     0.00269
  
  S  H 105   0.00056     0.01415    -0.00958     0.02416     0.00013     0.00661
  
  S  H 106   0.00012     0.00246    -0.00106    -0.00029     0.00494     0.00008
  
  S  H 107   0.00003     0.00082    -0.00051    -0.00019     0.01600    -0.00028
  
  S  H 108   0.00001     0.00023    -0.00018    -0.00069     0.24116    -0.00513
  
  S  H 109   0.02481     0.00366     0.00369    -0.00153     0.00008     0.00388
  
  S  H 110   0.05057    -0.00227    -0.00069    -0.00016     0.00001     0.00035
  
  S  H 111   0.03644     0.00139     0.00028     0.00042     0.00003     0.00121
  
  S  H 112   0.03420    -0.00204    -0.00107     0.00019    -0.00001    -0.00025
  
  S  H 113   0.02063    -0.00143    -0.00070     0.00009    -0.00001    -0.00026
  
  S  H 114   0.02160    -0.00153    -0.00074     0.00009    -0.00001    -0.00029
  
  S  H 115   0.04862    -0.00337    -0.00160     0.00017    -0.00001    -0.00057
  
  S  H 116   0.07330    -0.00487    -0.00224     0.00018    -0.00001    -0.00068
  
  S  H 117   0.07328    -0.00499    -0.00233     0.00021    -0.00002    -0.00077
  
  S  H 118   0.04854    -0.00321    -0.00147     0.00011    -0.00001    -0.00044
  
  S  H 119   0.02861    -0.00195    -0.00091     0.00008    -0.00001    -0.00030
  
  S  H 120   0.04690    -0.00318    -0.00148     0.00013    -0.00001    -0.00049
  
  S  H 121   0.00352     0.04081     0.04682    -0.04030     0.00196     0.10071
  
  S  H 122   0.00358     0.04105     0.04722    -0.04105     0.00200     0.10270
  
  S  H 123   0.00211     0.02281     0.02627    -0.02492     0.00122     0.06288
  
  S  H 124   0.00148     0.01625     0.01893    -0.01855     0.00091     0.04703
  
  S  H 125   0.00146     0.01405     0.01636    -0.01606     0.00079     0.04075
  
  S  H 126   0.00248     0.01803     0.02068    -0.01936     0.00095     0.04893
  
  S  H 127   0.00070     0.00572     0.00665    -0.00700     0.00035     0.01779
  
  S  H 128   0.00057     0.00524     0.00616    -0.00654     0.00032     0.01670
  
  S  H 129   0.00062     0.00418     0.00490    -0.00521     0.00026     0.01332




    ROOT NO.    7           8           9          10          11          12

           -43.77232   -43.41096   -42.76717   -42.30988   -42.08247   -41.72623
  
  
  S  C   1  -0.02150    -0.00043     0.03599    -0.01584    -0.07637    -0.03773
 PX  C   1  -0.00692     0.00052     0.01093    -0.00751    -0.02658    -0.00950
 PY  C   1  -0.00384     0.00059     0.00464    -0.00258    -0.00860    -0.00364
 PZ  C   1   0.00160     0.00050    -0.00255    -0.00060     0.00280     0.00328
  
  S  C   2  -0.03127     0.00107     0.04896    -0.02794    -0.10994    -0.04455
 PX  C   2   0.00054     0.00045    -0.00257    -0.00027     0.00503     0.00516
 PY  C   2  -0.01265     0.00281     0.01401    -0.01050    -0.02787    -0.00826
 PZ  C   2   0.00244     0.00037    -0.00381     0.00182     0.00873     0.00354
  
  S  C   3  -0.04809     0.00768     0.05860    -0.04047    -0.12023    -0.03725
 PX  C   3   0.00080     0.00098    -0.00538     0.00187     0.01545     0.00976
 PY  C   3   0.00083     0.00107    -0.00449     0.00156     0.01324     0.00740
 PZ  C   3   0.01514    -0.00327    -0.01508     0.01210     0.02952     0.00676
  
  S  C   4  -0.06852     0.01456     0.07104    -0.05524    -0.13930    -0.03505
 PX  C   4  -0.01491     0.00519     0.00934    -0.01232    -0.01597     0.00421
 PY  C   4   0.01769    -0.00343    -0.01945     0.01560     0.04316     0.01270
 PZ  C   4   0.00917    -0.00305    -0.00577     0.00728     0.01168     0.00085
  
  S  O   5  -0.07506     0.02014     0.06451    -0.06367    -0.14244    -0.03062
 PX  O   5   0.00593     0.00059    -0.01354     0.00607     0.02600     0.01074
 PY  O   5  -0.02050     0.00542     0.01894    -0.01546    -0.02842    -0.00142
 PZ  O   5  -0.02788     0.00617     0.02702    -0.02176    -0.04909    -0.00792
  
  S  C   6  -0.00296     0.00708    -0.04413     0.03294     0.16200     0.08172
 PX  C   6   0.02852    -0.00484    -0.05003     0.04870     0.16469     0.06667
 PY  C   6  -0.03015     0.00830     0.02838    -0.02278    -0.03673     0.00283
 PZ  C   6  -0.01921     0.00337     0.01578    -0.00805    -0.00556     0.01141
  
  S  C   7  -0.01130     0.00897    -0.04247     0.04147     0.21842     0.12119
 PX  C   7   0.01289    -0.00219    -0.02374     0.02352     0.08144     0.03427
 PY  C   7  -0.00257    -0.00132     0.02079    -0.01908    -0.08193    -0.03973
 PZ  C   7  -0.00175    -0.00103     0.01046    -0.00842    -0.03732    -0.01747
  
  S  C   8   0.00029     0.00600    -0.05724     0.05758     0.26553     0.13794
 PX  C   8  -0.00127    -0.00113     0.01411    -0.01320    -0.05926    -0.03001
 PY  C   8  -0.00106    -0.00128     0.01662    -0.01639    -0.07113    -0.03491
 PZ  C   8  -0.00134    -0.00099     0.01234    -0.01182    -0.05127    -0.02498
  
  S  C   9  -0.01405     0.00912    -0.04281     0.04611     0.22798     0.12079
 PX  C   9  -0.00665    -0.00058     0.02889    -0.02735    -0.10991    -0.05123
 PY  C   9   0.01211    -0.00225    -0.01552     0.01321     0.04606     0.02067
 PZ  C   9   0.00546    -0.00161    -0.00296     0.00229     0.00455     0.00186
  
  S  C  10  -0.01142     0.00636    -0.04202     0.04391     0.18025     0.08027
 PX  C  10  -0.04516     0.01147     0.04637    -0.03678    -0.08076    -0.01513
 PY  C  10   0.02173    -0.00192    -0.03811     0.03215     0.12737     0.05974
 PZ  C  10   0.00246     0.00008    -0.01090     0.01189     0.05554     0.03168
  
  S  C  11   0.08328    -0.01844    -0.11398     0.09136     0.23190     0.05619
 PX  C  11  -0.02673     0.00911     0.00493     0.00201     0.05638     0.04158
 PY  C  11  -0.02784     0.01380     0.00392    -0.00566     0.05606     0.04673
 PZ  C  11  -0.02509     0.00490     0.00877     0.00188     0.04350     0.04002
  
  S  C  12   0.23055    -0.08142    -0.15780     0.13090     0.07859    -0.08610
 PX  C  12  -0.03869     0.01952     0.01179    -0.01585     0.02301     0.02254
 PY  C  12  -0.04650     0.03381     0.00766    -0.03049     0.02524     0.02217
 PZ  C  12  -0.03757     0.00268     0.02398    -0.00149     0.01637     0.02963
  
  S  C  13   0.23145    -0.12616    -0.09117     0.13718     0.00912    -0.06462
 PX  C  13  -0.02528     0.01955    -0.00382    -0.01071     0.01592     0.00258
 PY  C  13   0.00221     0.01433    -0.03335     0.00824     0.02955    -0.01659
 PZ  C  13  -0.07989     0.03703     0.04064    -0.04547    -0.00247     0.03178
  
  S  C  14   0.26383    -0.17354    -0.03620     0.13658    -0.04728    -0.03515
 PX  C  14   0.02005    -0.00054    -0.02965     0.01649     0.01330    -0.02232
 PY  C  14   0.02222     0.01418    -0.06257     0.02473     0.02977    -0.04512
 PZ  C  14   0.01428    -0.01789     0.01304     0.00599    -0.00884     0.00894
  
  S  S  15   0.17149    -0.07068    -0.08004     0.06882    -0.01392    -0.05201
 PX  S  15   0.04440    -0.01238    -0.03007     0.02028     0.00427    -0.02695
 PY  S  15   0.02873     0.01041    -0.03998    -0.00316     0.00586    -0.02194
 PZ  S  15   0.08484    -0.05156    -0.02601     0.05577    -0.00332    -0.02881
  
  S  C  16   0.23816    -0.03525    -0.17112     0.06133     0.02019    -0.11843
 PX  C  16   0.00322     0.00533    -0.00767     0.00080     0.01117    -0.00611
 PY  C  16  -0.01879     0.03872    -0.00593    -0.04061     0.00248    -0.00305
 PZ  C  16   0.03647    -0.04578    -0.01172     0.06172     0.02298    -0.00657
  
  S  C  17   0.22085     0.11384    -0.19150    -0.10494    -0.02942    -0.16083
 PX  C  17  -0.00660     0.00204     0.01108     0.00811     0.00747    -0.00529
 PY  C  17   0.01120     0.04207    -0.00839    -0.03917    -0.01290    -0.02448
 PZ  C  17  -0.02268    -0.05435     0.02262     0.06326     0.03016     0.02856
  
  S  S  18   0.14635     0.11927    -0.09690    -0.07515    -0.01392    -0.11475
 PX  S  18  -0.06532    -0.04381     0.05853     0.04206     0.01216     0.05909
 PY  S  18  -0.00970     0.01330     0.02642     0.00176    -0.00424     0.01057
 PZ  S  18  -0.05191    -0.06147     0.02356     0.04474     0.02721     0.05035
  
  S  C  19   0.19516     0.22226    -0.05774    -0.10259    -0.04097    -0.13707
 PX  C  19  -0.02936    -0.01099     0.05832     0.04594     0.01592     0.04284
 PY  C  19  -0.02317     0.00081     0.06312     0.04437     0.01485     0.04316
 PZ  C  19   0.00278    -0.00818    -0.02049    -0.00986    -0.00216    -0.01205
  
  S  C  20   0.18510     0.18077    -0.12778    -0.14916    -0.05816    -0.14095
 PX  C  20   0.02816     0.03508     0.00127    -0.00541    -0.00178    -0.03117
 PY  C  20  -0.02297    -0.01103     0.03887     0.03246     0.01219     0.01836
 PZ  C  20   0.06043     0.05172    -0.05064    -0.04888    -0.01757    -0.05590
  
  S  C  21   0.20332     0.15715    -0.19222    -0.18150    -0.07031    -0.12157
 PX  C  21   0.04950     0.04273    -0.02827    -0.02067    -0.00528    -0.07840
 PY  C  21   0.02020     0.02957    -0.00816    -0.01736    -0.00512    -0.03632
 PZ  C  21   0.02380     0.00486    -0.01797     0.00311     0.00418    -0.03142
  
  S  C  22   0.07874     0.06153    -0.12640    -0.16245    -0.07539     0.16764
 PX  C  22   0.03407     0.02271    -0.01474     0.00785     0.00716    -0.12475
 PY  C  22   0.01572     0.01382    -0.00747     0.00052     0.00443    -0.05658
 PZ  C  22   0.01558     0.00617    -0.00735     0.00877     0.00756    -0.05274
  
  S  C  23  -0.00400     0.00418    -0.03993    -0.08074    -0.04403     0.17473
 PX  C  23  -0.01290    -0.00948     0.03391     0.06050     0.03190    -0.15468
 PY  C  23   0.02830     0.02169    -0.03708    -0.04577    -0.02103     0.03715
 PZ  C  23   0.03121     0.02201    -0.04258    -0.05234    -0.02456     0.05695
  
  S  O  24  -0.07341    -0.04718     0.07685     0.08927     0.04084    -0.11638
 PX  O  24   0.00808     0.00408    -0.00256     0.00141     0.00169    -0.00621
 PY  O  24   0.02864     0.02145    -0.03512    -0.04326    -0.02020     0.03659
 PZ  O  24   0.01748     0.01318    -0.02258    -0.02720    -0.01274     0.01855
  
  S  C  25  -0.06954    -0.05038     0.08695     0.11034     0.05257    -0.11735
 PX  C  25   0.00684     0.00424    -0.00464    -0.00270    -0.00059    -0.00493
 PY  C  25  -0.01007    -0.00516     0.00645     0.00341     0.00064    -0.00443
 PZ  C  25  -0.01862    -0.01294     0.02123     0.02574     0.01190    -0.02897
  
  S  C  26  -0.05063    -0.03993     0.07212     0.09882     0.04837    -0.10702
 PX  C  26   0.00017    -0.00026     0.00211     0.00472     0.00271    -0.01024
 PY  C  26  -0.01022    -0.00651     0.00920     0.00880     0.00351    -0.00666
 PZ  C  26   0.00978     0.00746    -0.01481    -0.02081    -0.01056     0.02392
  
  S  C  27  -0.03477    -0.02880     0.05644     0.08246     0.04174    -0.09601
 PX  C  27  -0.00276    -0.00244     0.00552     0.00882     0.00465    -0.01223
 PY  C  27  -0.00984    -0.00779     0.01422     0.01954     0.00960    -0.02078
 PZ  C  27  -0.00175    -0.00147     0.00228     0.00291     0.00130    -0.00237
  
  S  C  28  -0.02341    -0.01960     0.03974     0.05935     0.03041    -0.07218
 PX  C  28   0.00647     0.00537    -0.01063    -0.01561    -0.00793     0.01831
 PY  C  28  -0.00384    -0.00306     0.00577     0.00808     0.00401    -0.00912
 PZ  C  28  -0.00493    -0.00413     0.00814     0.01198     0.00607    -0.01420
  
  S  C  29  -0.01131    -0.00295    -0.03506    -0.08659    -0.04931     0.25853
 PX  C  29  -0.01096    -0.00765     0.01541     0.02242     0.01119    -0.04333
 PY  C  29   0.00549     0.00571    -0.02109    -0.03804    -0.02007     0.08330
 PZ  C  29   0.00613     0.00585    -0.02277    -0.04076    -0.02159     0.09185
  
  S  C  30   0.00115     0.00600    -0.05256    -0.11177    -0.06156     0.30559
 PX  C  30   0.00208     0.00320    -0.01997    -0.03945    -0.02133     0.09896
 PY  C  30   0.00124     0.00203    -0.01057    -0.02071    -0.01086     0.05119
 PZ  C  30   0.00084     0.00130    -0.00786    -0.01539    -0.00815     0.03891
  
  S  C  31  -0.01056    -0.00123    -0.03638    -0.08712    -0.04658     0.25963
 PX  C  31   0.00318     0.00438    -0.02221    -0.04073    -0.02038     0.09471
 PY  C  31  -0.00861    -0.00569     0.01624     0.02660     0.01537    -0.05592
 PZ  C  31  -0.00973    -0.00741     0.02071     0.03465     0.01896    -0.07203
  
  S  C  32  -0.00225     0.00634    -0.04378    -0.07956    -0.03407     0.18008
 PX  C  32   0.03269     0.02198    -0.03665    -0.03536    -0.01510    -0.00409
 PY  C  32  -0.01898    -0.01160     0.03445     0.05505     0.03269    -0.11359
 PZ  C  32  -0.02146    -0.01615     0.03931     0.06373     0.03567    -0.11985
  
  S  O  33  -0.07093    -0.04051     0.06982     0.08780     0.05715    -0.10578
 PX  O  33   0.03207     0.02067    -0.03659    -0.04177    -0.02127     0.03182
 PY  O  33   0.00164     0.00020     0.00336     0.00393    -0.00056    -0.00525
 PZ  O  33  -0.01028    -0.00845     0.01831     0.02358     0.00893    -0.02786
  
  S  C  34  -0.06919    -0.04444     0.08668     0.10457     0.04821    -0.12003
 PX  C  34  -0.01487    -0.00859     0.01380     0.01807     0.01377    -0.02011
 PY  C  34   0.01315     0.00876    -0.01517    -0.01784    -0.00813     0.01662
 PZ  C  34   0.00649     0.00276    -0.00003     0.00045    -0.00639    -0.01196
  
  S  C  35  -0.05142    -0.03612     0.07675     0.09164     0.02914    -0.11880
 PX  C  35   0.00133     0.00087    -0.00510    -0.00596    -0.00016     0.01062
 PY  C  35  -0.01128    -0.00652     0.01575     0.01874     0.00756    -0.02654
 PZ  C  35   0.00852     0.00542    -0.00662    -0.00896    -0.00869     0.00137
  
  S  C  36  -0.03728    -0.02613     0.06320     0.07515     0.01861    -0.10980
 PX  C  36  -0.00871    -0.00608     0.01361     0.01571     0.00400    -0.02140
 PY  C  36  -0.00497    -0.00312     0.00853     0.01009     0.00260    -0.01617
 PZ  C  36   0.00425     0.00316    -0.00531    -0.00712    -0.00403     0.00583
  
  S  C  37  -0.02647    -0.01782     0.04626     0.05383     0.01124    -0.08399
 PX  C  37  -0.00432    -0.00263     0.00685     0.00707     0.00082    -0.01105
 PY  C  37   0.00675     0.00478    -0.01184    -0.01412    -0.00327     0.02122
 PZ  C  37   0.00544     0.00401    -0.00887    -0.01152    -0.00434     0.01527
  
  S  C  38   0.16781     0.28421     0.15884     0.04065     0.00637    -0.00328
 PX  C  38   0.00748     0.03525     0.06135     0.03745     0.01224     0.03317
 PY  C  38   0.01175     0.04635     0.07469     0.04457     0.01451     0.03933
 PZ  C  38   0.00446    -0.00156    -0.01763    -0.01309    -0.00442    -0.01442
  
  S  C  39   0.13838     0.26349     0.20176     0.08059     0.02141     0.04191
 PX  C  39  -0.00813    -0.00814     0.00666     0.00787     0.00303     0.01018
 PY  C  39  -0.01019    -0.01044     0.00790     0.00962     0.00371     0.01262
 PZ  C  39  -0.05142    -0.10366    -0.08937    -0.03950    -0.01084    -0.02522
  
  S  C  40   0.13011     0.26738     0.24089     0.11153     0.03219     0.07729
 PX  C  40  -0.02925    -0.05744    -0.04658    -0.01939    -0.00522    -0.01084
 PY  C  40  -0.03563    -0.06964    -0.05569    -0.02277    -0.00605    -0.01209
 PZ  C  40  -0.02223    -0.04844    -0.04894    -0.02483    -0.00745    -0.02001
  
  S  C  41   0.12790     0.26713     0.24930     0.11917     0.03496     0.08763
 PX  C  41  -0.00940    -0.01624    -0.00858    -0.00137     0.00007     0.00217
 PY  C  41  -0.00989    -0.01602    -0.00584     0.00106     0.00099     0.00538
 PZ  C  41   0.03540     0.06991     0.05708     0.02374     0.00636     0.01299
  
  S  S  42   0.10325     0.19615     0.14997     0.05982     0.01552     0.03297
 PX  S  42   0.01566     0.03795     0.04355     0.02339     0.00729     0.01874
 PY  S  42   0.02250     0.05214     0.05652     0.02944     0.00904     0.02324
 PZ  S  42   0.05624     0.10372     0.07316     0.02640     0.00629     0.01101
  
  S  C  43   0.06239     0.13926     0.14806     0.07872     0.02450     0.06795
 PX  C  43  -0.00831    -0.01716    -0.01551    -0.00713    -0.00203    -0.00479
 PY  C  43  -0.00233    -0.00255     0.00252     0.00349     0.00145     0.00565
 PZ  C  43   0.02294     0.04896     0.04768     0.02356     0.00704     0.01812
  
  S  C  44   0.03580     0.08433     0.09792     0.05531     0.01775     0.05161
 PX  C  44  -0.00815    -0.01779    -0.01832    -0.00956    -0.00295    -0.00805
 PY  C  44  -0.01522    -0.03348    -0.03495    -0.01841    -0.00571    -0.01577
 PZ  C  44   0.01284     0.02776     0.02807     0.01441     0.00441     0.01181
  
  S  C  45  -0.01411    -0.02580    -0.01868    -0.00707    -0.00177    -0.00304
 PX  C  45  -0.00769    -0.01717    -0.01871    -0.01027    -0.00326    -0.00935
 PY  C  45  -0.01375    -0.03127    -0.03554    -0.02029    -0.00659    -0.01981
 PZ  C  45   0.01098     0.02419     0.02550     0.01353     0.00420     0.01153
  
  S  O  46  -0.01555    -0.02995    -0.02404    -0.00990    -0.00261    -0.00488
 PX  O  46   0.00014    -0.00024    -0.00127    -0.00109    -0.00041    -0.00148
 PY  O  46  -0.00665    -0.01413    -0.01418    -0.00737    -0.00228    -0.00626
 PZ  O  46  -0.00405    -0.00728    -0.00482    -0.00148    -0.00029     0.00006
  
  S  O  47  -0.03477    -0.07420    -0.07617    -0.04078    -0.01286    -0.03695
 PX  O  47  -0.00143    -0.00339    -0.00405    -0.00237    -0.00078    -0.00234
 PY  O  47   0.00683     0.01395     0.01311     0.00654     0.00199     0.00536
 PZ  O  47   0.00740     0.01624     0.01737     0.00951     0.00302     0.00874
  
  S  C  48   0.03053     0.07137     0.08242     0.04659     0.01498     0.04364
 PX  C  48  -0.00173    -0.00367    -0.00364    -0.00189    -0.00058    -0.00162
 PY  C  48  -0.01045    -0.02300    -0.02367    -0.01221    -0.00373    -0.01000
 PZ  C  48   0.00133     0.00247     0.00198     0.00094     0.00029     0.00082
  
  S  N  49   0.01736     0.04101     0.04853     0.02802     0.00912     0.02710
 PX  N  49   0.00128     0.00312     0.00384     0.00226     0.00074     0.00224
 PY  N  49  -0.00783    -0.01804    -0.02040    -0.01140    -0.00365    -0.01055
 PZ  N  49  -0.00535    -0.01288    -0.01566    -0.00919    -0.00301    -0.00903
  
  S  C  50   0.25854    -0.24208     0.12387     0.07951    -0.12257     0.07775
 PX  C  50   0.00025     0.00907    -0.02176     0.00759     0.01146    -0.01788
 PY  C  50  -0.01384     0.03272    -0.05525     0.02128     0.02261    -0.03641
 PZ  C  50   0.01032    -0.01434     0.01694    -0.00498    -0.00682     0.00968
  
  S  C  51   0.19924    -0.20129     0.13453     0.03096    -0.09708     0.07779
 PX  C  51  -0.06127     0.06652    -0.05307    -0.00298     0.03256    -0.03238
 PY  C  51   0.01509    -0.00523    -0.01724     0.02452    -0.00638    -0.00720
 PZ  C  51  -0.02835     0.02631    -0.01234    -0.01130     0.01498    -0.00895
  
  S  C  52   0.13394    -0.15001     0.13753    -0.04133    -0.03869     0.05539
 PX  C  52  -0.02003     0.02567    -0.03213     0.02502    -0.00513    -0.00637
 PY  C  52   0.05665    -0.05767     0.03466     0.02861    -0.04694     0.03438
 PZ  C  52  -0.03356     0.03631    -0.02864    -0.00249     0.01884    -0.01783
  
  S  C  53   0.07402    -0.09618     0.12530    -0.10973     0.03195     0.01596
 PX  C  53   0.05201    -0.05235     0.03217     0.02009    -0.03638     0.02686
 PY  C  53   0.07573    -0.07701     0.04071     0.06337    -0.08651     0.06098
 PZ  C  53  -0.01513     0.01566    -0.00706    -0.01979     0.02445    -0.01692
  
  S  C  54   0.09384    -0.10702     0.09011     0.01571    -0.07228     0.06930
 PX  C  54   0.07192    -0.07906     0.07193    -0.02755    -0.01259     0.02333
 PY  C  54   0.04920    -0.04752     0.02313     0.03089    -0.04093     0.02680
 PZ  C  54   0.00503    -0.00859     0.01719    -0.02505     0.01408    -0.00333
  
  S  C  55   0.17707    -0.17983     0.11546     0.05389    -0.11186     0.08688
 PX  C  55   0.06350    -0.06194     0.03841     0.00765    -0.02373     0.01777
 PY  C  55  -0.01648     0.02470    -0.03119     0.00638     0.01705    -0.02245
 PZ  C  55   0.03225    -0.03537     0.02922     0.00006    -0.01710     0.01718
  
  S  C  56  -0.06529     0.07673    -0.11153     0.17210    -0.11289     0.04549
 PX  C  56   0.03173    -0.04469     0.07654    -0.10955     0.06331    -0.01715
 PY  C  56   0.03805    -0.04242     0.04249    -0.02613     0.00197     0.00880
 PZ  C  56  -0.00517     0.00204     0.01061    -0.03128     0.02412    -0.01081
  
  S  C  57  -0.06739     0.08860    -0.15144     0.24406    -0.15813     0.05910
 PX  C  57   0.00206    -0.00355     0.00579    -0.00432     0.00004     0.00237
 PY  C  57   0.03260    -0.04138     0.06318    -0.08915     0.05287    -0.01635
 PZ  C  57  -0.01422     0.01766    -0.02679     0.03932    -0.02433     0.00847
  
  S  C  58  -0.07621     0.10048    -0.16761     0.25740    -0.16078     0.05527
 PX  C  58  -0.02725     0.03517    -0.05653     0.08487    -0.05255     0.01793
 PY  C  58   0.01055    -0.01350     0.02032    -0.02709     0.01513    -0.00383
 PZ  C  58  -0.01586     0.02042    -0.03218     0.04673    -0.02818     0.00900
  
  S  C  59  -0.08100     0.10541    -0.16925     0.24818    -0.15004     0.04783
 PX  C  59  -0.02809     0.03542    -0.05305     0.07271    -0.04209     0.01221
 PY  C  59  -0.01945     0.02555    -0.04267     0.06627    -0.04185     0.01481
 PZ  C  59  -0.00244     0.00262    -0.00195    -0.00079     0.00200    -0.00177
  
  S  C  60  -0.09159     0.11224    -0.15496     0.19029    -0.10044     0.02174
 PX  C  60  -0.00703     0.00398     0.01164    -0.04225     0.03523    -0.01789
 PY  C  60  -0.03197     0.03986    -0.05916     0.08216    -0.04846     0.01499
 PZ  C  60   0.01209    -0.01692     0.03180    -0.05397     0.03567    -0.01361
  
  S  C  61  -0.11141     0.12158    -0.12189     0.08870    -0.02182    -0.01321
 PX  C  61   0.00925    -0.02347     0.07330    -0.15139     0.10718    -0.04427
 PY  C  61  -0.00115     0.00085    -0.00638     0.02749    -0.02620     0.01655
 PZ  C  61   0.00440    -0.00992     0.03194    -0.07148     0.05326    -0.02427
  
  S  N  62  -0.08144     0.06593     0.02556    -0.21088     0.19230    -0.10511
 PX  N  62   0.01771    -0.02183     0.03080    -0.04021     0.02282    -0.00668
 PY  N  62   0.01124    -0.01412     0.01141     0.01326    -0.02285     0.01947
 PZ  N  62   0.01184    -0.01035     0.00295     0.00873    -0.00890     0.00448
  
  S  C  63  -0.04885     0.04076     0.01959    -0.15823     0.14846    -0.08583
 PX  C  63   0.01219    -0.01241     0.00737     0.00722    -0.01138     0.00845
 PY  C  63  -0.01274     0.00915     0.00975    -0.04659     0.04020    -0.02095
 PZ  C  63   0.01144    -0.00978    -0.00282     0.03145    -0.02995     0.01738
  
  S  C  64  -0.02646     0.02196     0.01331    -0.09702     0.09112    -0.05327
 PX  C  64   0.00843    -0.00783     0.00067     0.01722    -0.01782     0.01104
 PY  C  64  -0.00723     0.00537     0.00564    -0.02883     0.02557    -0.01396
 PZ  C  64  -0.00572     0.00468     0.00324    -0.02178     0.02026    -0.01172
  
  S  O  65  -0.09940     0.02364     0.07858    -0.05851    -0.14000    -0.04046
 PX  O  65  -0.04095     0.01127     0.03985    -0.03331    -0.07018    -0.01282
 PY  O  65  -0.00499     0.00173    -0.00549     0.00651     0.02400     0.00793
 PZ  O  65  -0.00553     0.00128     0.00088     0.00093     0.00696     0.00411
  
  S  C  66  -0.08303     0.02068     0.08003    -0.06535    -0.15587    -0.03965
 PX  C  66   0.03222    -0.00795    -0.02646     0.02011     0.04567     0.01163
 PY  C  66   0.00155     0.00032    -0.00999     0.01003     0.03559     0.01355
 PZ  C  66   0.00044    -0.00000    -0.00365     0.00397     0.01426     0.00594
  
  S  C  67  -0.05648     0.01267     0.07093    -0.06165    -0.16868    -0.05064
 PX  C  67   0.00898    -0.00183    -0.01026     0.00832     0.02291     0.00695
 PY  C  67  -0.00886     0.00278     0.00462    -0.00319    -0.00238     0.00081
 PZ  C  67  -0.01218     0.00272     0.01404    -0.01177    -0.03106    -0.00878
  
  S  C  68  -0.03905     0.00683     0.05864    -0.05089    -0.14934    -0.04646
 PX  C  68  -0.00441     0.00178     0.00435    -0.00477    -0.01115    -0.00346
 PY  C  68  -0.01133     0.00288     0.01144    -0.00957    -0.02377    -0.00665
 PZ  C  68   0.00582    -0.00131    -0.00855     0.00787     0.02274     0.00734
  
  S  C  69  -0.01977     0.00302     0.03400    -0.03027    -0.09195    -0.02946
 PX  C  69  -0.00015     0.00037    -0.00066     0.00026     0.00164     0.00047
 PY  C  69  -0.00797     0.00144     0.01229    -0.01086    -0.03210    -0.01014
 PZ  C  69  -0.00207     0.00020     0.00380    -0.00326    -0.01007    -0.00314
  
  S  H  70   0.01935     0.04357     0.04700     0.02526     0.00791     0.02217
  
  S  H  71  -0.00916     0.00006     0.01503    -0.00694    -0.03193    -0.01552
  
  S  H  72  -0.01224    -0.00115     0.01987    -0.00439    -0.03501    -0.02242
  
  S  H  73  -0.00676    -0.00070     0.01256    -0.00465    -0.02658    -0.01411
  
  S  H  74  -0.01017    -0.00003     0.01714    -0.00954    -0.03936    -0.01616
  
  S  H  75  -0.00746    -0.00309     0.01832    -0.00797    -0.04628    -0.02054
  
  S  H  76  -0.01725     0.00251     0.02228    -0.01471    -0.04606    -0.01547
  
  S  H  77  -0.01985     0.00373     0.02102    -0.01481    -0.03769    -0.00812
  
  S  H  78  -0.02668     0.00386     0.03088    -0.01860    -0.05826    -0.02168
  
  S  H  79  -0.02487     0.00578     0.02391    -0.01885    -0.04233    -0.00781
  
  S  H  80  -0.01091     0.00437    -0.00347     0.00445     0.04459     0.03092
  
  S  H  81  -0.00084     0.00189    -0.01495     0.01555     0.07430     0.03984
  
  S  H  82  -0.01212     0.00459    -0.00402     0.00674     0.05001     0.03100
  
  S  H  83   0.07201    -0.04413    -0.02082     0.04315     0.00167    -0.01343
  
  S  H  84   0.05461     0.05748    -0.03347    -0.04514    -0.01850    -0.03346
  
  S  H  85  -0.02687    -0.01948     0.03284     0.04076     0.01927    -0.03786
  
  S  H  86  -0.02558    -0.01884     0.03403     0.04476     0.02169    -0.05136
  
  S  H  87  -0.01942    -0.01609     0.02883     0.04057     0.01976    -0.04591
  
  S  H  88  -0.02070    -0.01657     0.02740     0.03593     0.01697    -0.03252
  
  S  H  89  -0.01227    -0.01034     0.02046     0.03027     0.01538    -0.03564
  
  S  H  90  -0.01464    -0.01202     0.02332     0.03375     0.01704    -0.03844
  
  S  H  91  -0.01115    -0.00920     0.01846     0.02725     0.01390    -0.03285
  
  S  H  92  -0.01032    -0.00864     0.01747     0.02605     0.01332    -0.03179
  
  S  H  93  -0.00769    -0.00651     0.01346     0.02040     0.01052    -0.02524
  
  S  H  94  -0.01166    -0.00710     0.00146    -0.01005    -0.00718     0.05838
  
  S  H  95  -0.00069     0.00089    -0.01325    -0.02996    -0.01685     0.08725
  
  S  H  96  -0.01144    -0.00606     0.00115    -0.01048    -0.00647     0.05818
  
  S  H  97  -0.02602    -0.01665     0.03473     0.04199     0.01792    -0.05325
  
  S  H  98  -0.02695    -0.01724     0.03306     0.03858     0.01720    -0.03937
  
  S  H  99  -0.01977    -0.01552     0.02855     0.03416     0.01069    -0.03720
  
  S  H 100  -0.02038    -0.01473     0.03231     0.03661     0.00699    -0.05277
  
  S  H 101  -0.01536    -0.01083     0.02555     0.03073     0.00837    -0.04330
  
  S  H 102  -0.01342    -0.00945     0.02355     0.02740     0.00535    -0.04160
  
  S  H 103  -0.00878    -0.00591     0.01582     0.01838     0.00348    -0.02952
  
  S  H 104  -0.01290    -0.00785     0.02202     0.02310     0.00206    -0.03860
  
  S  H 105  -0.01233    -0.00834     0.02101     0.02483     0.00607    -0.03759
  
  S  H 106   0.04168     0.07609     0.05270     0.01918     0.00526     0.00759
  
  S  H 107   0.03801     0.07991     0.07555     0.03652     0.01083     0.02719
  
  S  H 108  -0.01569    -0.03373    -0.03502    -0.01886    -0.00596    -0.01716
  
  S  H 109   0.06824    -0.06470     0.03536     0.01677    -0.03161     0.01886
  
  S  H 110   0.03167    -0.03688     0.03918    -0.02506     0.00199     0.00797
  
  S  H 111   0.05448    -0.05217     0.02568     0.02826    -0.03841     0.02516
  
  S  H 112  -0.01368     0.01919    -0.03813     0.06941    -0.04784     0.01980
  
  S  H 113  -0.02010     0.02697    -0.04653     0.07335    -0.04645     0.01634
  
  S  H 114  -0.02180     0.02873    -0.04714     0.07004    -0.04256     0.01362
  
  S  H 115  -0.02811     0.03333    -0.04087     0.04006    -0.01602    -0.00089
  
  S  H 116  -0.01367     0.00999     0.01285    -0.06294     0.05612    -0.03118
  
  S  H 117  -0.02194     0.01999     0.00081    -0.05263     0.05307    -0.03253
  
  S  H 118  -0.00867     0.00618     0.00934    -0.04387     0.03908    -0.02185
  
  S  H 119  -0.00835     0.00702     0.00437    -0.03238     0.03069    -0.01822
  
  S  H 120  -0.01321     0.01165     0.00285    -0.03844     0.03755    -0.02261
  
  S  H 121  -0.02956     0.00775     0.02673    -0.02168    -0.04781    -0.01043
  
  S  H 122  -0.03131     0.00785     0.02967    -0.02406    -0.05521    -0.01257
  
  S  H 123  -0.02276     0.00508     0.02899    -0.02527    -0.06997    -0.02150
  
  S  H 124  -0.01986     0.00449     0.02607    -0.02306    -0.06362    -0.01923
  
  S  H 125  -0.01656     0.00300     0.02434    -0.02113    -0.06138    -0.01891
  
  S  H 126  -0.01405     0.00046     0.02556    -0.02021    -0.06464    -0.01999
  
  S  H 127  -0.00836     0.00118     0.01461    -0.01290    -0.03944    -0.01267
  
  S  H 128  -0.00855     0.00148     0.01430    -0.01291    -0.03881    -0.01247
  
  S  H 129  -0.00636     0.00066     0.01209    -0.01059    -0.03289    -0.01050




    ROOT NO.   13          14          15          16          17          18

           -41.27853   -40.20511   -39.93348   -39.65172   -39.63200   -39.21484
  
  
  S  C   1   0.02333     0.10133     0.08993    -0.09727    -0.13300     0.32745
 PX  C   1   0.00802     0.01986     0.02072    -0.02912    -0.04359     0.09680
 PY  C   1   0.00117     0.00763     0.00647    -0.00670    -0.00893     0.01872
 PZ  C   1  -0.00102    -0.00727    -0.00409     0.00005    -0.00197     0.00340
  
  S  C   2   0.03259     0.10240     0.09746    -0.11997    -0.17275     0.39754
 PX  C   2  -0.00208    -0.01906    -0.01581     0.01452     0.01808    -0.05147
 PY  C   2   0.00267     0.01412     0.01450    -0.02035    -0.02990     0.05827
 PZ  C   2  -0.00412    -0.00004     0.00041    -0.00054     0.00009     0.00875
  
  S  C   3   0.01934     0.07028     0.07109    -0.09669    -0.14250     0.29881
 PX  C   3  -0.00803    -0.02192    -0.01951     0.02190     0.03072    -0.06952
 PY  C   3  -0.00774    -0.01914    -0.01796     0.02141     0.03078    -0.07534
 PZ  C   3  -0.00337     0.00462     0.00288     0.00092     0.00407     0.01924
  
  S  C   4   0.01488     0.00748     0.01345    -0.03451    -0.05922     0.02981
 PX  C   4  -0.00403    -0.03022    -0.02358     0.01923     0.02299    -0.07930
 PY  C   4  -0.01055    -0.00054    -0.00296     0.01032     0.01921    -0.00603
 PZ  C   4  -0.00167     0.03249     0.02953    -0.03108    -0.04069     0.13709
  
  S  O   5   0.03092    -0.08711    -0.06823     0.04860     0.04806    -0.29620
 PX  O   5  -0.00201    -0.02561    -0.02231     0.02662     0.03817    -0.06926
 PY  O   5  -0.00897    -0.00666    -0.00441     0.00041    -0.00097    -0.02437
 PZ  O   5   0.00100    -0.00763    -0.00370    -0.00440    -0.01126    -0.01810
  
  S  C   6  -0.08329    -0.03533    -0.03561     0.06192     0.10591    -0.06306
 PX  C   6  -0.07956     0.04089     0.02820    -0.00328     0.01910     0.16091
 PY  C   6  -0.02354    -0.00697    -0.00439     0.00269     0.00647    -0.00949
 PZ  C   6  -0.02406     0.00642     0.00563    -0.00482    -0.00387     0.03778
  
  S  C   7  -0.15563     0.00463    -0.00444     0.04549     0.10282     0.10498
 PX  C   7  -0.04189     0.01857     0.01210     0.00202     0.01597     0.07650
 PY  C   7   0.04613    -0.00285     0.00064    -0.01319    -0.02946    -0.02851
 PZ  C   7   0.01965     0.00302     0.00400    -0.00982    -0.01837     0.00462
  
  S  C   8  -0.17743     0.02684     0.01228     0.03441     0.09344     0.17308
 PX  C   8   0.03648    -0.00224     0.00048    -0.01170    -0.02649    -0.02975
 PY  C   8   0.04298    -0.00836    -0.00467    -0.00406    -0.01428    -0.03660
 PZ  C   8   0.03064    -0.00476    -0.00222    -0.00489    -0.01352    -0.02398
  
  S  C   9  -0.15808     0.03299     0.02142    -0.00033     0.02396     0.12230
 PX  C   9   0.05954    -0.01077    -0.00525    -0.00931    -0.02615    -0.05275
 PY  C   9  -0.02434    -0.00033    -0.00370     0.02372     0.05001     0.04826
 PZ  C   9  -0.00197    -0.00216    -0.00307     0.01157     0.02299     0.01783
  
  S  C  10  -0.08605     0.03721     0.03112    -0.05456    -0.09433     0.00778
 PX  C  10  -0.00840     0.00087     0.00525    -0.02449    -0.04461    -0.02862
 PY  C  10  -0.07433     0.00210    -0.00576     0.04832     0.10508     0.10374
 PZ  C  10  -0.04219     0.00193    -0.00202     0.02183     0.04781     0.05356
  
  S  C  11  -0.00266     0.00677    -0.00148     0.01662     0.02439    -0.00057
 PX  C  11  -0.06964     0.02213     0.01877    -0.02322    -0.03014     0.04807
 PY  C  11  -0.08378    -0.00653    -0.00735     0.02470     0.05693     0.02200
 PZ  C  11  -0.05654     0.00197    -0.00093     0.01040     0.02224     0.02749
  
  S  C  12   0.26935    -0.00156    -0.01095     0.02160     0.00116    -0.00989
 PX  C  12  -0.05605     0.00369     0.00617    -0.01393    -0.01745    -0.01733
 PY  C  12  -0.07874    -0.00521     0.00053    -0.00553     0.00788    -0.03318
 PZ  C  12  -0.03491     0.00072    -0.00085     0.00039    -0.00785    -0.01097
  
  S  C  13   0.25302     0.00366    -0.01076     0.02878    -0.00130     0.04054
 PX  C  13  -0.01246    -0.00012     0.00124    -0.00490    -0.00548    -0.01368
 PY  C  13   0.04271    -0.00005    -0.00083    -0.00041    -0.00445    -0.01219
 PZ  C  13  -0.10129     0.00085     0.00553    -0.01232    -0.00514    -0.01015
  
  S  C  14   0.18220     0.00190    -0.01023     0.02996     0.00798     0.05099
 PX  C  14   0.06245    -0.00005    -0.00278     0.00589     0.00111     0.00690
 PY  C  14   0.11675     0.00080    -0.00384     0.00873     0.00178     0.00957
 PZ  C  14  -0.01083     0.00091    -0.00005     0.00060    -0.00172     0.00400
  
  S  S  15   0.16170    -0.00055    -0.00465     0.01424     0.01252     0.03186
 PX  S  15   0.05515    -0.00091    -0.00354     0.00395     0.00307     0.00813
 PY  S  15   0.03929    -0.00020    -0.00221    -0.00192     0.00451     0.00359
 PZ  S  15   0.09407     0.00072    -0.00616     0.01389     0.00280     0.01696
  
  S  C  16   0.20353    -0.00434    -0.00434     0.00366     0.02234     0.01380
 PX  C  16  -0.00462     0.00117     0.00361    -0.00310    -0.00210    -0.00971
 PY  C  16  -0.07313    -0.00297     0.00552    -0.01383     0.00497    -0.01706
 PZ  C  16   0.10168     0.00011    -0.00647     0.01899    -0.00399    -0.00366
  
  S  C  17  -0.07725    -0.00221     0.02881    -0.04906     0.03726     0.00247
 PX  C  17  -0.00912     0.00597     0.01216     0.00381     0.00087    -0.00800
 PY  C  17  -0.07533     0.00006     0.01627    -0.01115     0.00456    -0.00430
 PZ  C  17   0.09051    -0.00416    -0.00912     0.01999    -0.00510    -0.00633
  
  S  S  18  -0.10816     0.00471     0.04743    -0.01771     0.01976    -0.01073
 PX  S  18   0.04885    -0.00055    -0.01625     0.01903    -0.01489     0.00270
 PY  S  18  -0.01073     0.00047     0.00469     0.01273    -0.00594    -0.00088
[...]
  90    H        2.317061305    -5.000804627   -10.495711730
  91    H        4.537865938    -4.266548493   -11.388022450
  92    H        5.369926523    -4.884667582    -9.957402923
  93    H        4.612036981    -5.998376597   -11.095646710
  94    H        0.586951443    -2.428397476    -9.705361909
  95    H       -1.567825008    -1.791097853    -8.714664498
  96    H       -1.707174029    -0.088839349    -6.952013893
  97    H       -0.403337232     2.495040678    -4.770068163
  98    H       -1.558266703     1.706975257    -5.875142573
  99    H       -0.866010602    -0.576649854    -4.634505038
 100    H       -0.106031343     0.440950739    -3.429781754
 101    H       -3.101500500     0.463594913    -4.243183143
 102    H       -2.428185797    -0.161123819    -2.746176324
 103    H       -3.300389454     2.063767800    -2.225350428
 104    H       -1.547796104     2.263019599    -2.253135459
 105    H       -2.527028420     2.805608494    -3.618988212
 106    H        6.251314727     3.951081611    -5.755661661
 107    H        7.617604410     5.587873497    -7.238834333
 108    H        8.956744657     8.872112892   -11.937722320
 109    H        3.890821085    -4.798410963    -2.283270835
 110    H        3.005729215    -7.002915325    -1.571588757
 111    H        0.125539758    -3.792974872    -4.161982213
 112    H       -2.230793660    -4.984924797    -4.543146340
 113    H       -4.172225340    -6.554575489    -4.604802147
 114    H       -4.034391394    -8.770638780    -3.534406372
 115    H       -1.979738586    -9.504550373    -2.357347798
 116    H        1.614956568    -8.848417919    -0.911831805
 117    H        0.098404302    -9.680913299    -1.285807535
 118    H        2.382970557    -9.158390892    -3.341638558
 119    H        2.018776876   -10.709845420    -2.576305978
 120    H        0.872843043    -9.993626364    -3.715220013
 121    H        8.350053825    -0.709233159    -3.726746431
 122    H        8.272345291    -1.611455868    -2.182235481
 123    H        7.468111197    -2.792734605    -4.953454620
 124    H        9.057005594    -2.996842505    -4.219689913
 125    H        7.955677995    -4.092149563    -2.176125724
 126    H        6.379592498    -3.906157552    -2.935391359
 127    H        7.152733211    -5.342953768    -4.898874920
 128    H        8.734117314    -5.532402344    -4.136981511
 129    H        7.297299797    -6.207692411    -3.368882906


           Empirical Formula: C58 H60 N2 O6 S3  =   129 atoms



      MOLECULAR POINT GROUP   :   C1  


                  EIGENVALUES  
 -48.47735 -48.09864 -47.91869 -46.88546 -46.78021 -46.77486 -43.77232 -43.41096
 -42.76717 -42.30988 -42.08247 -41.72623 -41.27853 -40.20511 -39.93348 -39.65172
 -39.63200 -39.21484 -39.13581 -37.84264 -36.37230 -35.65144 -35.42701 -34.01480
 -33.82628 -33.05012 -32.84841 -32.10289 -32.01076 -31.51660 -31.08486 -30.92908
 -30.76123 -30.65714 -30.32339 -29.97296 -29.11044 -28.71014 -28.61000 -28.38276
 -28.08749 -27.44011 -27.18563 -27.15867 -26.49554 -26.25763 -25.99006 -25.39040
 -25.17885 -24.73965 -24.68164 -24.59895 -24.33679 -24.20824 -24.01646 -23.91090
 -23.51264 -23.28019 -23.17781 -23.04526 -22.63171 -22.32274 -21.72620 -21.14885
 -20.86497 -20.81889 -20.56266 -20.45606 -20.27952 -20.12845 -19.81891 -19.70028
 -19.42046 -19.25615 -19.24472 -19.17207 -18.97636 -18.55751 -18.51029 -18.40693
 -18.24632 -18.21186 -17.99792 -17.87951 -17.84943 -17.69584 -17.60836 -17.36697
 -17.05038 -17.01751 -16.95531 -16.91826 -16.80606 -16.65279 -16.42081 -16.28668
 -16.13141 -16.10251 -15.97284 -15.89047 -15.75752 -15.59815 -15.58264 -15.44665
 -15.37316 -15.17040 -15.13512 -15.09074 -15.05951 -14.96326 -14.70192 -14.67094
 -14.60385 -14.46887 -14.42717 -14.36307 -14.30253 -14.18091 -14.12221 -14.04005
 -13.95348 -13.73772 -13.62420 -13.59033 -13.58676 -13.47475 -13.43859 -13.29177
 -13.27178 -13.21928 -13.15924 -13.08543 -13.07425 -12.99555 -12.96321 -12.94995
 -12.90124 -12.82756 -12.80711 -12.72849 -12.65688 -12.63080 -12.53802 -12.48268
 -12.41026 -12.37171 -12.30723 -12.24900 -12.22686 -12.12957 -12.11371 -12.05729
 -11.88538 -11.81093 -11.79228 -11.72409 -11.66496 -11.48762 -11.33547 -11.18930
 -11.09814 -10.98958 -10.80240 -10.40425 -10.04456  -9.97810  -9.65269  -9.47587
  -9.24041  -8.81904  -8.27884  -8.27228  -8.21465  -8.14895  -8.00110  -7.75847
  -7.52283  -6.54947  -1.21895  -0.27472   0.19889   0.38521   0.71622   0.83164
   0.86720   0.87874   0.89220   0.93214   1.13547   1.43102   1.59698   1.64846
   2.00058   2.06048   2.24595   2.34644   2.42603   2.63049   2.66793   2.75679
   2.81529   2.83686   2.90505   2.94410   3.09698   3.12846   3.14462   3.23545
   3.37074   3.40194   3.44872   3.47131   3.49550   3.57188   3.67544   3.80036
   3.83872   3.86109   3.88291   3.90591   3.92953   3.93531   3.94977   4.02323
   4.09060   4.22939   4.26605   4.29381   4.44143   4.53257   4.56936   4.70540
   4.76687   4.79303   4.81342   4.86866   4.96910   5.03583   5.05469   5.10134
   5.16469   5.21971   5.48936   5.49165   5.56530   5.57297   5.67002   5.74484
   5.89956   5.90482   6.23567   6.26859   6.36444   6.41718   6.50353   6.52487
   6.58471   6.60237   6.69245   6.71739   6.73551   6.76693   6.77119   6.81291
   6.82956   6.85132   6.87388   6.92999   6.96059   6.98499   7.01309   7.04108
   7.05736   7.06592   7.11776   7.12558   7.14531   7.16353   7.19008   7.49981
   7.58667   7.69213   8.04504   8.10468   8.25972   8.28093   8.31294   8.34055
   8.42868   8.56819   8.58909   8.69944   8.70420   8.78872   8.82570   9.00501
   9.04369   9.08063   9.17816   9.22474   9.37024   9.41012   9.59339   9.61843
   9.80758   9.99843  10.23345  10.30792  10.44334  10.46018  10.51474  10.59388
  10.72536  10.74226  10.86228  10.96752  11.16163  11.58591  11.71316  12.01613
  12.16564  12.56334  12.58649  12.69660  12.78189  12.91055  13.04329  13.12436
  13.55014  14.01575  14.02694  14.08152  14.11558  14.14400  14.23598  15.14164


              NET ATOMIC CHARGES AND DIPOLE CONTRIBUTIONS

  ATOM NO.   TYPE          CHARGE      No. of ELECS.   s-Pop       p-Pop       
    1          C          -0.025722        4.0257     1.05403     2.97170
    2          C          -0.002160        4.0022     1.04201     2.96015
    3          C           0.003179        3.9968     1.04755     2.94927
    4          C           0.129151        3.8708     1.05352     2.81733
    5          O          -0.326096        6.3261     1.69096     4.63514
    6          C           0.146371        3.8536     1.04262     2.81101
    7          C          -0.047704        4.0477     1.07681     2.97089
    8          C          -0.026669        4.0267     1.07992     2.94675
    9          C          -0.050800        4.0508     1.07576     2.97504
   10          C           0.143932        3.8561     1.04407     2.81199
   11          C           0.018143        3.9819     1.04411     2.93775
   12          C           0.043639        3.9564     1.05014     2.90622
   13          C          -0.055461        4.0555     1.08404     2.97143
   14          C           0.042002        3.9580     1.08647     2.87153
   15          S          -0.067390        6.0674     1.77588     4.29151
   16          C           0.004787        3.9952     1.06483     2.93038
   17          C           0.026045        3.9740     1.06978     2.90417
   18          S          -0.060904        6.0609     1.77536     4.28554
   19          C           0.027324        3.9727     1.07159     2.90109
   20          C          -0.032102        4.0321     1.08923     2.94287
   21          C           0.024136        3.9759     1.04653     2.92933
   22          C           0.016173        3.9838     1.04378     2.94004
   23          C           0.146431        3.8536     1.04280     2.81077
   24          O          -0.330543        6.3305     1.69036     4.64018
   25          C           0.124939        3.8751     1.05671     2.81835
   26          C           0.002003        3.9980     1.04769     2.95031
   27          C          -0.005133        4.0051     1.04174     2.96339
   28          C          -0.024914        4.0249     1.05332     2.97160
   29          C          -0.049142        4.0491     1.07665     2.97249
   30          C          -0.025494        4.0255     1.07996     2.94554
   31          C          -0.049040        4.0490     1.07689     2.97215
   32          C           0.147661        3.8523     1.04241     2.80993
   33          O          -0.328217        6.3282     1.68957     4.63865
   34          C           0.125530        3.8745     1.05683     2.81764
   35          C           0.001256        3.9987     1.04783     2.95092
   36          C          -0.005471        4.0055     1.04195     2.96352
   37          C          -0.025281        4.0253     1.05379     2.97149
   38          C           0.075359        3.9246     1.07691     2.84773
   39          C          -0.049854        4.0499     1.08303     2.96682
   40          C           0.019020        3.9810     1.09569     2.88529
   41          C           0.009481        3.9905     1.06282     2.92770
   42          S          -0.038245        6.0382     1.77242     4.26582
   43          C           0.130961        3.8690     1.09408     2.77496
   44          C           0.014408        3.9856     1.00037     2.98522
   45          C           0.499439        3.5006     1.04496     2.45560
   46          O          -0.609541        6.6095     1.81686     4.79268
   47          O          -0.310134        6.3101     1.68749     4.62264
   48          C           0.217347        3.7827     1.14859     2.63406
   49          N          -0.397112        5.3971     1.75353     3.64358
   50          C           0.013900        3.9861     1.03927     2.94683
   51          C          -0.029912        4.0299     1.08294     2.94698
   52          C          -0.040487        4.0405     1.07839     2.96210
   53          C           0.072018        3.9280     1.05100     2.87699
   54          C          -0.014218        4.0142     1.05061     2.96360
   55          C          -0.028304        4.0283     1.07975     2.94856
   56          C          -0.016339        4.0163     1.04786     2.96848
   57          C          -0.021207        4.0212     1.07915     2.94206
   58          C          -0.044624        4.0446     1.07751     2.96711
   59          C          -0.024012        4.0240     1.08051     2.94351
   60          C          -0.042798        4.0428     1.07570     2.96710
   61          C           0.077981        3.9220     1.05236     2.86966
   62          N          -0.159959        5.1600     1.27012     3.88984
   63          C           0.079558        3.9204     1.04015     2.88029
   64          C          -0.019547        4.0195     1.05377     2.96578
   65          O          -0.315610        6.3156     1.69292     4.62269
   66          C           0.123977        3.8760     1.05888     2.81714
   67          C          -0.000815        4.0008     1.04884     2.95197
   68          C          -0.001600        4.0016     1.04231     2.95929
   69          C          -0.027281        4.0273     1.05480     2.97248
   70          H           0.063526        0.9365     0.93647
   71          H           0.007905        0.9921     0.99209
   72          H           0.011320        0.9887     0.98868
   73          H           0.000049        1.0000     0.99995
   74          H          -0.001031        1.0010     1.00103
   75          H           0.013750        0.9863     0.98625
   76          H           0.004602        0.9954     0.99540
   77          H           0.008768        0.9912     0.99123
   78          H           0.015274        0.9847     0.98473
   79          H           0.021977        0.9780     0.97802
   80          H           0.028875        0.9711     0.97112
   81          H           0.022137        0.9779     0.97786
   82          H           0.029065        0.9709     0.97093
   83          H           0.029188        0.9708     0.97081
   84          H           0.034296        0.9657     0.96570
   85          H           0.031339        0.9687     0.96866
   86          H           0.013385        0.9866     0.98662
   87          H           0.011138        0.9889     0.98886
   88          H           0.010276        0.9897     0.98972
   89          H           0.001793        0.9982     0.99821
   90          H           0.008185        0.9918     0.99181
   91          H           0.010408        0.9896     0.98959
   92          H           0.009147        0.9909     0.99085
   93          H           0.001482        0.9985     0.99852
   94          H           0.029294        0.9707     0.97071
   95          H           0.022784        0.9772     0.97722
   96          H           0.029788        0.9702     0.97021
   97          H           0.012870        0.9871     0.98713
   98          H           0.030867        0.9691     0.96913
   99          H           0.009248        0.9908     0.99075
  100          H           0.014982        0.9850     0.98502
  101          H           0.007809        0.9922     0.99219
  102          H           0.001407        0.9986     0.99859
  103          H           0.001301        0.9987     0.99870
  104          H           0.010316        0.9897     0.98968
  105          H           0.010020        0.9900     0.98998
  106          H           0.036911        0.9631     0.96309
  107          H           0.047343        0.9527     0.95266
  108          H           0.247113        0.7529     0.75289
  109          H           0.023102        0.9769     0.97690
  110          H           0.026645        0.9734     0.97336
  111          H           0.025719        0.9743     0.97428
  112          H           0.023659        0.9763     0.97634
  113          H           0.016446        0.9836     0.98355
  114          H           0.019007        0.9810     0.98099
  115          H           0.026780        0.9732     0.97322
  116          H           0.018034        0.9820     0.98197
  117          H           0.019368        0.9806     0.98063
  118          H           0.013332        0.9867     0.98667
  119          H           0.006778        0.9932     0.99322
  120          H           0.012587        0.9874     0.98741
  121          H           0.020928        0.9791     0.97907
  122          H           0.026351        0.9736     0.97365
  123          H           0.010971        0.9890     0.98903
  124          H           0.002953        0.9970     0.99705
  125          H           0.005823        0.9942     0.99418
  126          H           0.011347        0.9887     0.98865
  127          H           0.007559        0.9924     0.99244
  128          H           0.007501        0.9925     0.99250
  129          H          -0.000108        1.0001     1.00011
 DIPOLE           X         Y         Z       TOTAL
 POINT-CHG.    -2.139    -6.859     4.642     8.554
 HYBRID         0.551     0.673     0.382     0.950
 SUM           -1.588    -6.186     5.024     8.126


          ATOMIC ORBITAL ELECTRON POPULATIONS

     Atom    s        px        py        pz   
    1  C   1.05403   0.98707   0.98999   0.99463
    2  C   1.04201   0.99470   0.97866   0.98680
    3  C   1.04755   0.98526   0.99675   0.96726
    4  C   1.05352   0.94244   0.94167   0.93322
    5  O   1.69096   1.27513   1.78463   1.57538
    6  C   1.04262   0.83289   0.98823   0.98990
    7  C   1.07681   0.97345   0.96329   1.03416
    8  C   1.07992   0.98314   0.97772   0.98589
    9  C   1.07576   0.94433   0.99675   1.03395
   10  C   1.04407   0.96579   0.87320   0.97301
   11  C   1.04411   0.96036   0.97837   0.99902
   12  C   1.05014   0.95239   0.97089   0.98294
   13  C   1.08404   1.03076   0.99905   0.94161
   14  C   1.08647   0.98259   0.96325   0.92569
   15  S   1.77588   1.69586   1.32426   1.27139
   16  C   1.06483   1.03764   0.92817   0.96458
   17  C   1.06978   0.93870   0.97589   0.98958
   18  S   1.77536   1.42241   1.49424   1.36889
   19  C   1.07159   0.99282   0.97054   0.93773
   20  C   1.08923   0.99467   0.99429   0.95391
   21  C   1.04653   0.96525   0.98754   0.97654
   22  C   1.04378   0.96238   0.98908   0.98859
   23  C   1.04280   0.86190   0.98954   0.95933
   24  O   1.69036   1.42377   1.52586   1.69055
   25  C   1.05671   0.98777   0.89974   0.93084
   26  C   1.04769   0.99095   0.98708   0.97228
   27  C   1.04174   0.98647   0.98238   0.99454
   28  C   1.05332   0.98971   0.99197   0.98992
   29  C   1.07665   0.96849   1.00790   0.99610
   30  C   1.07996   0.96363   0.98865   0.99325
   31  C   1.07689   0.93882   1.02290   1.01042
   32  C   1.04241   0.98896   0.90164   0.91934
   33  O   1.68957   1.48261   1.58934   1.56670
   34  C   1.05683   0.88411   0.98244   0.95109
   35  C   1.04783   0.98896   0.97512   0.98683
   36  C   1.04195   0.98708   0.98689   0.98956
   37  C   1.05379   0.99043   0.98936   0.99170
   38  C   1.07691   0.96814   0.97053   0.90907
   39  C   1.08303   1.01901   1.01882   0.92899
   40  C   1.09569   0.94713   0.94782   0.99034
   41  C   1.06282   1.00037   0.96013   0.96720
   42  S   1.77242   1.62117   1.44125   1.20341
   43  C   1.09408   0.82555   0.97959   0.96982
   44  C   1.00037   1.10648   0.94919   0.92954
   45  C   1.04496   0.71866   0.83672   0.90023
   46  O   1.81686   1.59098   1.79646   1.40524
   47  O   1.68749   1.78319   1.29563   1.54381
   48  C   1.14859   0.87606   0.86049   0.89751
   49  N   1.75353   1.18050   1.22950   1.23357
   50  C   1.03927   0.98280   0.96365   1.00038
   51  C   1.08294   0.95596   0.98987   1.00114
   52  C   1.07839   0.96901   0.98034   1.01275
   53  C   1.05100   0.95548   0.93423   0.98728
   54  C   1.05061   0.97913   0.97018   1.01429
   55  C   1.07975   0.97593   0.97065   1.00197
   56  C   1.04786   0.96200   0.99059   1.01589
   57  C   1.07915   0.99575   0.95554   0.99077
   58  C   1.07751   0.96074   0.99388   1.01248
   59  C   1.08051   0.96544   0.97758   1.00049
   60  C   1.07570   0.98362   0.95754   1.02594
   61  C   1.05236   0.90775   1.00103   0.96088
   62  N   1.27012   1.15024   1.13043   1.60918
   63  C   1.04015   0.98226   0.91683   0.98120
   64  C   1.05377   0.99187   0.98743   0.98648
   65  O   1.69292   1.31249   1.46656   1.84363
   66  C   1.05888   0.82981   0.99005   0.99728
   67  C   1.04884   0.98246   0.99298   0.97654
   68  C   1.04231   0.98713   0.99791   0.97424
   69  C   1.05480   0.99212   0.98779   0.99257
   70  H   0.93647
   71  H   0.99209
   72  H   0.98868
   73  H   0.99995
   74  H   1.00103
   75  H   0.98625
   76  H   0.99540
   77  H   0.99123
   78  H   0.98473
   79  H   0.97802
   80  H   0.97112
   81  H   0.97786
   82  H   0.97093
   83  H   0.97081
   84  H   0.96570
   85  H   0.96866
   86  H   0.98662
   87  H   0.98886
   88  H   0.98972
   89  H   0.99821
   90  H   0.99181
   91  H   0.98959
   92  H   0.99085
   93  H   0.99852
   94  H   0.97071
   95  H   0.97722
   96  H   0.97021
   97  H   0.98713
   98  H   0.96913
   99  H   0.99075
  100  H   0.98502
  101  H   0.99219
  102  H   0.99859
  103  H   0.99870
  104  H   0.98968
  105  H   0.98998
  106  H   0.96309
  107  H   0.95266
  108  H   0.75289
  109  H   0.97690
  110  H   0.97336
  111  H   0.97428
  112  H   0.97634
  113  H   0.98355
  114  H   0.98099
  115  H   0.97322
  116  H   0.98197
  117  H   0.98063
  118  H   0.98667
  119  H   0.99322
  120  H   0.98741
  121  H   0.97907
  122  H   0.97365
  123  H   0.98903
  124  H   0.99705
  125  H   0.99418
  126  H   0.98865
  127  H   0.99244
  128  H   0.99250
  129  H   1.00011

 **********************
 *                    *
 * JOB ENDED NORMALLY *
 *                    *
 **********************



 TOTAL JOB TIME:           994.51 SECONDS

 == MOPAC DONE ==
