 *******************************************************************************
 ** Site#: 4824         For non-commercial use only    Version 21.013L 64BITS **
 *******************************************************************************
 ** Cite this program as: MOPAC2016, Version: 21.013L, James J. P. Stewart,   **
 ** Stewart Computational Chemistry, web: HTTP://OpenMOPAC.net. Days left:  84**
 *******************************************************************************
 **                                                                           **
 **                                MOPAC2016                                  **
 **                                                                           **
 *******************************************************************************

                              INDO CALCULATION RESULTS

 *******************************************************************************
 *  CALCULATION DONE:                                Thu Oct 21 13:42:13 2021  *
 *  INDO       - The INDO Hamiltonian to be used
 *  CIS        - C.I. USES 1 ELECTRON EXCITATIONS ONLY
 *  EPS=  8.93 - USE ANDREAS KLAMT'S COSMO IMPLICIT SOLVATION MODEL
 *  n**2 =  1.420 for COSMO-CI
 *  T=         - A TIME OF 172800.0 SECONDS REQUESTED
 *  DUMP=N     - RESTART FILE WRITTEN EVERY 7200.0 SECONDS REQUESTED
 *******************************************************************************
INDO CIS EPS=8.93 N**2=1.42
 Dye78
 Calculo de Estados Excitados
   ATOM   CHEMICAL          X               Y               Z
  NUMBER   SYMBOL      (ANGSTROMS)     (ANGSTROMS)     (ANGSTROMS)
 
     1       C          0.00000000  *   0.00000000  *   0.00000000  *
     2       C          1.51998948  *   0.00000000  *   0.00000000  *
     3       C          2.06106748  *   1.42756188  *   0.00000000  *
     4       C          3.58791374  *   1.42855934  *   0.00185932  *
     5       C          4.12609905  *   2.85737354  *  -0.00189086  *
     6       C          5.65521924  *   2.85511077  *   0.00528082  *
     7       C          6.16585815  *   4.24601516  *  -0.00161324  *
     8       C          5.97526427  *   5.13422263  *   1.11193513  *
     9       C          6.52283642  *   6.36187247  *   0.88889079  *
    10       S          7.26956126  *   6.47067074  *  -0.65257961  *
    11       C          6.85323945  *   4.84140668  *  -1.01811150  *
    12       C          7.22939900  *   4.25748305  *  -2.26734749  *
    13       S          6.27472405  *   4.50840044  *  -3.67065077  *
    14       C          7.34438556  *   3.56543135  *  -4.62052439  *
    15       C          8.38997774  *   3.07378877  *  -3.89165835  *
    16       C          8.32147340  *   3.47568501  *  -2.51616397  *
    17       C          9.35001096  *   3.07999423  *  -1.52548797  *
    18       C          9.34794074  *   1.56318865  *  -1.33268149  *
    19       C         10.39789647  *   1.15291342  *  -0.30269121  *
    20       C         10.40320370  *  -0.36194810  *  -0.11174749  *
    21       C         11.44940484  *  -0.77431516  *   0.92078662  *
    22       C         11.45488817  *  -2.28253592  *   1.10948219  *
    23       C          7.10990177  *   3.35968677  *  -6.01392176  *
    24       C          6.74577919  *   4.30719512  *  -6.93109571  *
    25       C          6.57865435  *   3.75163254  *  -8.23810927  *
    26       C          6.82314332  *   2.40470276  *  -8.25635010  *
    27       S          7.26059558  *   1.80522766  *  -6.71391765  *
    28       C          6.77538384  *   1.52990568  *  -9.39250535  *
    29       C          5.86250661  *   1.65075568  * -10.37485794  *
    30       C          5.82306703  *   0.78058060  * -11.55890968  *
    31       O          5.03218779  *   0.82989129  * -12.48621062  *
    32       O          6.79398621  *  -0.16173595  * -11.57640753  *
    33       C          4.82931263  *   2.62361963  * -10.33995990  *
    34       N          3.98154296  *   3.40977104  * -10.32437440  *
    35       C          6.48891482  *   7.48029011  *   1.80150765  *
    36       C          7.63298590  *   8.27012287  *   1.98908164  *
    37       C          7.63799249  *   9.34161929  *   2.86679513  *
    38       C          6.46081500  *   9.61063383  *   3.56061037  *
    39       C          5.29495062  *   8.81923335  *   3.36830665  *
    40       C          5.30976341  *   7.74859031  *   2.49261947  *
    41       C          4.26469564  *   9.37188493  *   4.21123950  *
    42       C          2.94251002  *   9.02278552  *   4.43040302  *
    43       C          2.19800757  *   9.78797928  *   5.31622112  *
    44       C          2.76302936  *  10.88451760  *   5.97445638  *
    45       C          4.08552864  *  11.25162547  *   5.77669883  *
    46       C          4.83451630  *  10.48106328  *   4.89199067  *
    47       N          6.20317280  *  10.57961411  *   4.55344390  *
    48       C          7.00611539  *  11.78048160  *   4.77076338  *
    49       C          6.63217446  *  12.90478074  *   3.80702720  *
    50       H          7.53578030  *   0.73537307  *  -9.41708596  *
    51       H         -0.40930386  *  -1.02063221  *   0.00018971  *
    52       H         -0.41715978  *   0.50664937  *   0.88223238  *
    53       H         -0.41696281  *   0.50613771  *  -0.88264311  *
    54       H          1.90229700  *  -0.56143695  *   0.87869944  *
    55       H          1.90215704  *  -0.56119169  *  -0.87891614  *
    56       H          1.67471068  *   1.98444898  *  -0.87976028  *
    57       H          1.67233573  *   1.98534383  *   0.87812255  *
    58       H          3.97335520  *   0.87313967  *   0.88297484  *
    59       H          3.97482068  *   0.86790165  *  -0.87528160  *
    60       H          3.75032441  *   3.41291432  *  -0.88678830  *
    61       H          3.73525939  *   3.42125650  *   0.87112572  *
    62       H          6.05055501  *   2.28284698  *  -0.86124794  *
    63       H          6.04685303  *   2.32116559  *   0.89830024  *
    64       H          5.46508833  *   4.83237728  *   2.02351387  *
    65       H          9.19936497  *   2.46500797  *  -4.28780434  *
    66       H         10.34691024  *   3.43421815  *  -1.86728252  *
    67       H          9.18363556  *   3.59631157  *  -0.55576134  *
    68       H          8.33955826  *   1.22077926  *  -1.01767731  *
    69       H          9.53137158  *   1.04673046  *  -2.29813068  *
    70       H         11.40343350  *   1.50630059  *  -0.61484750  *
    71       H         10.20893411  *   1.66289975  *   0.66564964  *
    72       H          9.39746154  *  -0.71650989  *   0.19825724  *
    73       H         10.59563376  *  -0.87376759  *  -1.07836160  *
    74       H         12.45782448  *  -0.42359284  *   0.61489704  *
    75       H         11.25938942  *  -0.26839015  *   1.89106232  *
    76       H         12.20308261  *  -2.59946012  *   1.85043612  *
    77       H         10.48440799  *  -2.66257102  *   1.45991446  *
    78       H         11.68760721  *  -2.81871324  *   0.17813631  *
    79       H          6.59916568  *   5.36356167  *  -6.71694903  *
    80       H          6.31649711  *   4.36170454  *  -9.10091471  *
    81       H          6.73028651  *  -0.71060226  * -12.37101670  *
    82       H          8.54709030  *   8.03214574  *   1.43506092  *
    83       H          8.53752416  *   9.94442310  *   3.00343160  *
    84       H          4.41206201  *   7.14167433  *   2.34850598  *
    85       H          2.50516444  *   8.16533793  *   3.91307054  *
    86       H          1.15148726  *   9.53280816  *   5.50422544  *
    87       H          2.14423599  *  11.46835200  *   6.66331485  *
    88       H          4.51400241  *  12.10993529  *   6.29685482  *
    89       H          6.87634679  *  12.10613641  *   5.82948007  *
    90       H          8.08524818  *  11.51847886  *   4.67777729  *
    91       H          7.23804137  *  13.80368031  *   3.99024284  *
    92       H          6.78650227  *  12.62257407  *   2.75562272  *
    93       H          5.57780013  *  13.20226683  *   3.90473249  *
 


          CARTESIAN COORDINATES 

    NO.       ATOM           X           Y           Z

     1         C          0.0000      0.0000      0.0000
     2         C          1.5200      0.0000      0.0000
     3         C          2.0611      1.4276      0.0000
     4         C          3.5879      1.4286      0.0019
     5         C          4.1261      2.8574     -0.0019
     6         C          5.6552      2.8551      0.0053
     7         C          6.1659      4.2460     -0.0016
     8         C          5.9753      5.1342      1.1119
     9         C          6.5228      6.3619      0.8889
    10         S          7.2696      6.4707     -0.6526
    11         C          6.8532      4.8414     -1.0181
    12         C          7.2294      4.2575     -2.2673
    13         S          6.2747      4.5084     -3.6707
    14         C          7.3444      3.5654     -4.6205
    15         C          8.3900      3.0738     -3.8917
    16         C          8.3215      3.4757     -2.5162
    17         C          9.3500      3.0800     -1.5255
    18         C          9.3479      1.5632     -1.3327
    19         C         10.3979      1.1529     -0.3027
    20         C         10.4032     -0.3619     -0.1117
    21         C         11.4494     -0.7743      0.9208
    22         C         11.4549     -2.2825      1.1095
    23         C          7.1099      3.3597     -6.0139
    24         C          6.7458      4.3072     -6.9311
    25         C          6.5787      3.7516     -8.2381
    26         C          6.8231      2.4047     -8.2564
    27         S          7.2606      1.8052     -6.7139
    28         C          6.7754      1.5299     -9.3925
    29         C          5.8625      1.6508    -10.3749
    30         C          5.8231      0.7806    -11.5589
    31         O          5.0322      0.8299    -12.4862
    32         O          6.7940     -0.1617    -11.5764
    33         C          4.8293      2.6236    -10.3400
    34         N          3.9815      3.4098    -10.3244
    35         C          6.4889      7.4803      1.8015
    36         C          7.6330      8.2701      1.9891
    37         C          7.6380      9.3416      2.8668
    38         C          6.4608      9.6106      3.5606
    39         C          5.2950      8.8192      3.3683
    40         C          5.3098      7.7486      2.4926
    41         C          4.2647      9.3719      4.2112
    42         C          2.9425      9.0228      4.4304
    43         C          2.1980      9.7880      5.3162
    44         C          2.7630     10.8845      5.9745
    45         C          4.0855     11.2516      5.7767
    46         C          4.8345     10.4811      4.8920
    47         N          6.2032     10.5796      4.5534
    48         C          7.0061     11.7805      4.7708
    49         C          6.6322     12.9048      3.8070
    50         H          7.5358      0.7354     -9.4171
    51         H         -0.4093     -1.0206      0.0002
    52         H         -0.4172      0.5066      0.8822
    53         H         -0.4170      0.5061     -0.8826
    54         H          1.9023     -0.5614      0.8787
    55         H          1.9022     -0.5612     -0.8789
    56         H          1.6747      1.9844     -0.8798
    57         H          1.6723      1.9853      0.8781
    58         H          3.9734      0.8731      0.8830
    59         H          3.9748      0.8679     -0.8753
    60         H          3.7503      3.4129     -0.8868
    61         H          3.7353      3.4213      0.8711
    62         H          6.0506      2.2828     -0.8612
    63         H          6.0469      2.3212      0.8983
    64         H          5.4651      4.8324      2.0235
    65         H          9.1994      2.4650     -4.2878
    66         H         10.3469      3.4342     -1.8673
    67         H          9.1836      3.5963     -0.5558
    68         H          8.3396      1.2208     -1.0177
    69         H          9.5314      1.0467     -2.2981
    70         H         11.4034      1.5063     -0.6148
    71         H         10.2089      1.6629      0.6656
    72         H          9.3975     -0.7165      0.1983
    73         H         10.5956     -0.8738     -1.0784
    74         H         12.4578     -0.4236      0.6149
    75         H         11.2594     -0.2684      1.8911
    76         H         12.2031     -2.5995      1.8504
    77         H         10.4844     -2.6626      1.4599
    78         H         11.6876     -2.8187      0.1781
    79         H          6.5992      5.3636     -6.7169
    80         H          6.3165      4.3617     -9.1009
    81         H          6.7303     -0.7106    -12.3710
    82         H          8.5471      8.0321      1.4351
    83         H          8.5375      9.9444      3.0034
    84         H          4.4121      7.1417      2.3485
    85         H          2.5052      8.1653      3.9131
    86         H          1.1515      9.5328      5.5042
    87         H          2.1442     11.4684      6.6633
    88         H          4.5140     12.1099      6.2969
    89         H          6.8763     12.1061      5.8295
    90         H          8.0852     11.5185      4.6778
    91         H          7.2380     13.8037      3.9902
    92         H          6.7865     12.6226      2.7556
    93         H          5.5778     13.2023      3.9047

           Empirical Formula: C42 H44 N2 O2 S3  =    93 atoms



      MOLECULAR POINT GROUP   :   C1  


      RHF CALCULATION, NO. OF DOUBLY OCCUPIED LEVELS = 126

 WARNING: INDO only performs single-point calculations

 Summary of symmetry occupancy in each shell:

 SHELL     
    1  126
    v  114
 TOTAL 240




    ROOT NO.    1           2           3           4           5           6

           -48.48775   -46.78674   -44.86457   -43.66997   -43.12416   -42.85147
  
  
  S  C   1   0.00013     0.00003     0.02408     0.02891    -0.02812     0.09235
 PX  C   1   0.00006     0.00001     0.00959     0.01099    -0.01045     0.03387
 PY  C   1   0.00002     0.00000     0.00295     0.00320    -0.00292     0.00934
 PZ  C   1   0.00000    -0.00000    -0.00000     0.00001     0.00000     0.00000
  
  S  C   2   0.00031     0.00006     0.04639     0.05151    -0.04833     0.15546
 PX  C   2   0.00006     0.00001     0.00577     0.00448    -0.00337     0.00920
 PY  C   2   0.00010     0.00002     0.01312     0.01354    -0.01214     0.03822
 PZ  C   2   0.00000    -0.00000    -0.00001     0.00004     0.00001     0.00002
  
  S  C   3   0.00066     0.00010     0.07548     0.07481    -0.06570     0.20497
 PX  C   3   0.00023     0.00003     0.01918     0.01521    -0.01160     0.03295
 PY  C   3   0.00005     0.00000    -0.00106    -0.00376     0.00498    -0.01754
 PZ  C   3   0.00001    -0.00000    -0.00004     0.00018     0.00004     0.00012
  
  S  C   4   0.00128     0.00019     0.11253     0.09441    -0.07704     0.22688
 PX  C   4   0.00019     0.00003     0.00624    -0.00207     0.00383    -0.01825
 PY  C   4   0.00042     0.00005     0.02625     0.01828    -0.01228     0.03321
 PZ  C   4   0.00002    -0.00000    -0.00041     0.00060     0.00028     0.00023
  
  S  C   5   0.00275     0.00033     0.16447     0.11724    -0.08049     0.22466
 PX  C   5   0.00084     0.00010     0.03737     0.01705    -0.00809     0.01372
 PY  C   5   0.00032     0.00000    -0.00394    -0.00654     0.01142    -0.03269
 PZ  C   5   0.00014    -0.00001    -0.00043     0.00307     0.00073     0.00189
  
  S  C   6   0.00424     0.00055     0.21803     0.11884    -0.07865     0.18505
 PX  C   6   0.00008     0.00004    -0.00328    -0.01831     0.00939    -0.04231
 PY  C   6   0.00152     0.00013     0.05010     0.02808    -0.00718     0.01979
 PZ  C   6   0.00012    -0.00007    -0.01009     0.00776     0.00412     0.00432
  
  S  C   7   0.01015     0.00078     0.30960     0.17990    -0.05640     0.15770
 PX  C   7   0.00063     0.00009     0.01684    -0.00416     0.00268    -0.02059
 PY  C   7   0.00336     0.00004     0.03190     0.03988     0.01760    -0.00780
 PZ  C   7   0.00095    -0.00014    -0.01812     0.02068     0.01094     0.00829
  
  S  C   8   0.01855     0.00045     0.23166     0.20195     0.01081     0.09042
 PX  C   8   0.00226     0.00007     0.03400     0.02731     0.00405     0.00449
 PY  C   8   0.00695    -0.00002     0.00288     0.02592     0.03175    -0.03215
 PZ  C   8  -0.00056    -0.00017    -0.07668    -0.04748     0.01566    -0.04284
  
  S  C   9   0.03552     0.00036     0.20430     0.22587     0.07812     0.00665
 PX  C   9  -0.00175    -0.00001    -0.01051    -0.01300    -0.00264    -0.00472
 PY  C   9   0.00940    -0.00013    -0.05371    -0.01667     0.03613    -0.05611
 PZ  C   9   0.01008    -0.00007    -0.02165     0.01016     0.03262    -0.03617
  
  S  S  10   0.01177     0.00040     0.15751     0.10992     0.00975     0.02879
 PX  S  10  -0.00310    -0.00008    -0.04395    -0.03884    -0.00335    -0.01510
 PY  S  10  -0.00105    -0.00023    -0.07875    -0.03366     0.01440    -0.02612
 PZ  S  10   0.00656     0.00003     0.03983     0.05671     0.01845     0.00656
  
  S  C  11   0.00810     0.00106     0.29160     0.09031    -0.04984     0.06750
 PX  C  11  -0.00111     0.00007    -0.01628    -0.03923    -0.00049    -0.03310
 PY  C  11   0.00078    -0.00022    -0.03347     0.02170     0.01999    -0.00263
 PZ  C  11   0.00315    -0.00015     0.03617     0.08010     0.00479     0.04602
  
  S  C  12   0.00293     0.00225     0.29070    -0.12061    -0.06123    -0.05257
 PX  C  12  -0.00015     0.00037     0.03435    -0.04759    -0.01178    -0.03726
 PY  C  12   0.00013    -0.00043    -0.03759     0.04323     0.01107     0.02499
 PZ  C  12   0.00105    -0.00057     0.00389     0.06623    -0.01217     0.03554
  
  S  S  13   0.00096     0.00267     0.15467    -0.11643     0.00415    -0.03098
 PX  S  13   0.00037     0.00118     0.07972    -0.06702    -0.00251    -0.02577
 PY  S  13  -0.00017    -0.00087    -0.04571     0.04300    -0.00267     0.01345
 PZ  S  13   0.00045    -0.00062     0.03284     0.00619    -0.02651    -0.00697
  
  S  C  14   0.00068     0.00672     0.18919    -0.21030     0.07423    -0.02966
 PX  C  14   0.00008    -0.00015     0.02422    -0.01994    -0.01155    -0.01754
 PY  C  14   0.00002    -0.00030    -0.00056     0.00480    -0.00487    -0.00048
 PZ  C  14   0.00030    -0.00212     0.05928    -0.02376    -0.06216    -0.05175
  
  S  C  15   0.00088     0.00371     0.22405    -0.20739    -0.01095    -0.09408
 PX  C  15  -0.00020    -0.00108    -0.04954     0.04718    -0.00982     0.00839
 PY  C  15   0.00018     0.00059     0.04301    -0.03685    -0.00139    -0.01379
 PZ  C  15   0.00029    -0.00044     0.05427    -0.02960    -0.03893    -0.04022
  
  S  C  16   0.00181     0.00268     0.30700    -0.21266    -0.08221    -0.13810
 PX  C  16  -0.00036    -0.00046    -0.03826     0.01465    -0.00475    -0.01089
 PY  C  16   0.00022     0.00011     0.01079     0.00431     0.00546     0.01342
 PZ  C  16   0.00029    -0.00059    -0.00827     0.03698    -0.01772     0.00642
  
  S  C  17   0.00127     0.00130     0.21696    -0.15116    -0.10362    -0.15357
 PX  C  17  -0.00040    -0.00031    -0.04518     0.01935     0.01067     0.00807
 PY  C  17   0.00010    -0.00003    -0.01128     0.02048     0.01759     0.03247
 PZ  C  17  -0.00004    -0.00028    -0.02537     0.02394     0.00320     0.01098
  
  S  C  18   0.00075     0.00089     0.17036    -0.14163    -0.11281    -0.17928
 PX  C  18  -0.00007    -0.00003     0.00062    -0.00943    -0.01000    -0.02195
 PY  C  18   0.00024     0.00024     0.03716    -0.02189    -0.01156    -0.01399
 PZ  C  18  -0.00000    -0.00008    -0.00049    -0.00124    -0.00946    -0.01404
  
  S  C  19   0.00039     0.00048     0.11662    -0.11544    -0.10726    -0.18143
 PX  C  19  -0.00010    -0.00010    -0.02063     0.01565     0.01285     0.01876
 PY  C  19   0.00006     0.00004     0.00347     0.00392     0.00740     0.01644
 PZ  C  19  -0.00007    -0.00010    -0.01860     0.01513     0.01065     0.01649
  
  S  C  20   0.00019     0.00027     0.07889    -0.09094    -0.09219    -0.16356
 PX  C  20  -0.00001    -0.00001     0.00051    -0.00357    -0.00492    -0.01046
 PY  C  20   0.00007     0.00008     0.01993    -0.01875    -0.01668    -0.02726
 PZ  C  20  -0.00001    -0.00002    -0.00166    -0.00077    -0.00272    -0.00617
  
  S  C  21   0.00009     0.00014     0.04845    -0.06282    -0.06780    -0.12432
 PX  C  21  -0.00002    -0.00003    -0.01008     0.01203     0.01249     0.02231
 PY  C  21   0.00002     0.00002     0.00475    -0.00400    -0.00315    -0.00462
 PZ  C  21  -0.00002    -0.00003    -0.00998     0.01185     0.01208     0.02158
  
  S  C  22   0.00004     0.00007     0.02519    -0.03525    -0.03951    -0.07389
 PX  C  22  -0.00000    -0.00001    -0.00230     0.00288     0.00306     0.00554
 PY  C  22   0.00002     0.00003     0.00968    -0.01296    -0.01420    -0.02622
 PZ  C  22  -0.00001    -0.00001    -0.00333     0.00430     0.00460     0.00841
  
  S  C  23   0.00021     0.01804     0.10046    -0.21084     0.26464     0.10557
 PX  C  23   0.00002    -0.00154     0.00343     0.00524    -0.02174    -0.01392
 PY  C  23   0.00001    -0.00010     0.00543    -0.00850     0.00727     0.00184
 PZ  C  23   0.00008    -0.00742     0.01354     0.02656    -0.09839    -0.06097
  
  S  C  24   0.00009     0.02064     0.06537    -0.18218     0.28336     0.13161
 PX  C  24   0.00001     0.00065     0.00578    -0.01224     0.01508     0.00585
 PY  C  24  -0.00003    -0.00886    -0.02303     0.07015    -0.11467    -0.05478
 PZ  C  24   0.00003    -0.00393     0.00695     0.00323    -0.02762    -0.01925
  
  S  C  25   0.00005     0.03768     0.05130    -0.17741     0.31248     0.15593
 PX  C  25   0.00001     0.00098     0.00555    -0.01742     0.02872     0.01375
 PY  C  25  -0.00001    -0.01399    -0.01141     0.04285    -0.07881    -0.04028
 PZ  C  25   0.00002    -0.00085     0.01745    -0.05146     0.08128     0.03783
  
  S  C  26   0.00004     0.05768     0.04875    -0.17606     0.31814     0.16114
 PX  C  26   0.00000    -0.00584    -0.00041     0.00396    -0.00964    -0.00561
 PY  C  26   0.00001    -0.00212     0.01311    -0.04242     0.07125     0.03447
 PZ  C  26   0.00001    -0.01579     0.01101    -0.02787     0.03810     0.01574
  
  S  S  27   0.00007     0.02074     0.04961    -0.13623     0.21065     0.09753
 PX  S  27  -0.00000    -0.00357    -0.00459     0.01853    -0.03461    -0.01777
 PY  S  27   0.00004     0.00819     0.02899    -0.07895     0.12053     0.05524
 PZ  S  27   0.00002    -0.00908     0.00063     0.02094    -0.05554    -0.03246
  
  S  C  28   0.00001     0.12816     0.01929    -0.08610     0.17235     0.09223
 PX  C  28  -0.00000    -0.02863    -0.00167     0.00974    -0.02156    -0.01212
 PY  C  28   0.00000    -0.00734     0.00719    -0.02817     0.05343     0.02781
 PZ  C  28   0.00000    -0.04654     0.00596    -0.01943     0.03305     0.01610
  
  S  C  29   0.00001     0.22850     0.00903    -0.05139     0.11145     0.06197
 PX  C  29   0.00000     0.01075     0.00135    -0.00581     0.01117     0.00580
 PY  C  29   0.00000    -0.05637     0.00401    -0.01546     0.03003     0.01592
 PZ  C  29   0.00000    -0.05970     0.00642    -0.02550     0.04957     0.02619
  
  S  C  30   0.00001     0.51177    -0.00938     0.02202    -0.03434    -0.01621
 PX  C  30   0.00000     0.03458    -0.00051     0.00117    -0.00218    -0.00122
 PY  C  30  -0.00000    -0.10253     0.00433    -0.01690     0.03407     0.01850
 PZ  C  30   0.00000    -0.09108     0.00498    -0.02044     0.04145     0.02248
  
  S  O  31   0.00000     0.41277    -0.01038     0.03156    -0.05682    -0.02907
 PX  O  31   0.00000     0.12558    -0.00326     0.01019    -0.01867    -0.00965
 PY  O  31  -0.00000    -0.02790     0.00107    -0.00414     0.00838     0.00457
 PZ  O  31   0.00000     0.12099    -0.00271     0.00741    -0.01253    -0.00618
  
  S  O  32   0.00001     0.57097    -0.01374     0.04164    -0.07607    -0.03948
 PX  O  32  -0.00000    -0.13565     0.00331    -0.00999     0.01809     0.00933
 PY  O  32   0.00000     0.07694    -0.00123     0.00230    -0.00289    -0.00116
 PZ  O  32  -0.00000    -0.06877     0.00252    -0.00943     0.01874     0.01010
  
  S  C  33   0.00001     0.10159     0.00902    -0.04726     0.10181     0.05663
 PX  C  33   0.00000     0.02880     0.00237    -0.01067     0.02103     0.01111
 PY  C  33  -0.00000    -0.03617     0.00040    -0.00030    -0.00006    -0.00015
 PZ  C  33   0.00000    -0.01356     0.00263    -0.01032     0.01971     0.01030
  
  S  N  34   0.00000     0.03450     0.00510    -0.02716     0.05963     0.03356
 PX  N  34   0.00000     0.01479     0.00243    -0.01228     0.02630     0.01461
 PY  N  34  -0.00000    -0.01502    -0.00141     0.00801    -0.01793    -0.01018
 PZ  N  34   0.00000    -0.00238     0.00069    -0.00272     0.00517     0.00269
  
  S  C  35   0.10267     0.00014     0.12489     0.25132     0.20380    -0.14989
 PX  C  35  -0.00499    -0.00000    -0.00338    -0.00457    -0.00102    -0.00189
 PY  C  35   0.03094    -0.00004    -0.01339     0.01493     0.04050    -0.04909
 PZ  C  35   0.02780    -0.00002    -0.00619     0.01792     0.03459    -0.03870
  
  S  C  36   0.09914     0.00007     0.07575     0.19032     0.18233    -0.15464
 PX  C  36  -0.03854    -0.00002    -0.02609    -0.06618    -0.06294     0.05265
 PY  C  36   0.01273    -0.00002    -0.01025    -0.00676     0.00531    -0.01201
 PZ  C  36   0.02588    -0.00001     0.00243     0.02140     0.02976    -0.03096
  
  S  C  37   0.15247     0.00002     0.04160     0.13612     0.15278    -0.14648
 PX  C  37  -0.06852    -0.00000    -0.01257    -0.04381    -0.05008     0.04838
 PY  C  37  -0.00079    -0.00002    -0.01861    -0.04857    -0.04585     0.03681
 PZ  C  37   0.02606    -0.00001    -0.00998    -0.02181    -0.01724     0.01071
  
  S  C  38   0.37117    -0.00003     0.01276     0.08038     0.11260    -0.12492
 PX  C  38  -0.09631     0.00002     0.01004     0.02118     0.01942    -0.01657
 PY  C  38   0.04354    -0.00002    -0.02581    -0.06667    -0.06077     0.04534
 PZ  C  38   0.07430    -0.00003    -0.02484    -0.06215    -0.05672     0.04327
  
  S  C  39   0.30600    -0.00000     0.02806     0.10176     0.11169    -0.10104
 PX  C  39   0.03855     0.00001     0.01623     0.05410     0.06360    -0.06442
 PY  C  39   0.09169    -0.00003    -0.02052    -0.04320    -0.03508     0.02418
 PZ  C  39   0.05989    -0.00002    -0.02282    -0.05595    -0.05320     0.04476
  
  S  C  40   0.13153     0.00007     0.07928     0.18714     0.16785    -0.13229
 PX  C  40   0.03054     0.00002     0.02834     0.07029     0.06688    -0.05672
 PY  C  40   0.04685    -0.00002    -0.00431     0.01311     0.02616    -0.03005
 PZ  C  40   0.02614    -0.00002    -0.01319    -0.01549    -0.00488    -0.00146
  
  S  C  41   0.30442    -0.00004    -0.02453    -0.06365    -0.08358     0.10047
 PX  C  41   0.10070    -0.00001    -0.00017     0.01967     0.03985    -0.05464
 PY  C  41   0.05900    -0.00001    -0.01246    -0.03419    -0.03780     0.03722
 PZ  C  41   0.00949    -0.00001    -0.00995    -0.03495    -0.04549     0.05065
  
  S  C  42   0.12580    -0.00002    -0.01818    -0.06900    -0.10664     0.13632
 PX  C  42   0.04950    -0.00001    -0.00388    -0.01012    -0.01359     0.01665
 PY  C  42   0.03708    -0.00001    -0.00834    -0.02963    -0.04212     0.05080
 PZ  C  42   0.01089    -0.00000    -0.00518    -0.01980    -0.02843     0.03419
  
  S  C  43   0.09116    -0.00002    -0.02007    -0.07946    -0.12120     0.15241
 PX  C  43   0.04464    -0.00001    -0.00885    -0.03279    -0.04822     0.05945
 PY  C  43   0.00845    -0.00000    -0.00260    -0.00976    -0.01389     0.01657
 PZ  C  43  -0.00995     0.00000     0.00124     0.00449     0.00698    -0.00905
  
  S  C  44   0.09472    -0.00002    -0.02199    -0.08476    -0.12583     0.15522
 PX  C  44   0.03144    -0.00001    -0.00633    -0.02178    -0.02982     0.03489
 PY  C  44  -0.02168     0.00000     0.00452     0.01756     0.02675    -0.03372
 PZ  C  44  -0.02898     0.00001     0.00595     0.02203     0.03226    -0.03962
  
  S  C  45   0.15241    -0.00003    -0.02877    -0.09550    -0.12741     0.14643
 PX  C  45   0.02430    -0.00000    -0.00109     0.00591     0.01796    -0.02897
 PY  C  45  -0.04906     0.00001     0.00846     0.02860     0.03988    -0.04771
 PZ  C  45  -0.04912     0.00001     0.00730     0.02088     0.02518    -0.02706
  
  S  C  46   0.37184    -0.00007    -0.04470    -0.11241    -0.12246     0.12166
 PX  C  46   0.08907    -0.00001    -0.00402     0.01186     0.03959    -0.06417
 PY  C  46  -0.05381     0.00001     0.00125    -0.00072    -0.00005    -0.00277
 PZ  C  46  -0.07674     0.00001     0.00272    -0.00442    -0.01447     0.02180
  
  S  N  47   0.47848    -0.00008    -0.04618    -0.07914    -0.04026    -0.00343
 PX  N  47  -0.07402     0.00001     0.00831     0.01998     0.02189    -0.02250
 PY  N  47  -0.04539     0.00000    -0.00277    -0.01400    -0.01579     0.01307
 PZ  N  47  -0.05827     0.00001     0.00045    -0.00789    -0.01506     0.01935
  
  S  C  48   0.20517    -0.00004    -0.02575    -0.05045    -0.02842    -0.00045
 PX  C  48  -0.06493     0.00001     0.00867     0.01861     0.01396    -0.00705
 PY  C  48  -0.07093     0.00001     0.00660     0.00994     0.00282     0.00458
 PZ  C  48  -0.03090     0.00001     0.00260     0.00297    -0.00138     0.00583
  
  S  C  49   0.10214    -0.00002    -0.01434    -0.02996    -0.01823     0.00161
 PX  C  49  -0.00531     0.00000     0.00084     0.00231     0.00272    -0.00289
 PY  C  49  -0.04864     0.00001     0.00577     0.01082     0.00559     0.00095
 PZ  C  49   0.02065    -0.00000    -0.00330    -0.00746    -0.00550     0.00233
  
  S  H  50   0.00000     0.05965     0.00559    -0.02581     0.05212     0.02799
  
  S  H  51   0.00004     0.00001     0.00800     0.00987    -0.00973     0.03217
  
  S  H  52   0.00006     0.00001     0.01039     0.01243    -0.01206     0.03958
  
  S  H  53   0.00006     0.00001     0.01039     0.01242    -0.01206     0.03957
  
  S  H  54   0.00013     0.00002     0.01970     0.02166    -0.02024     0.06494
  
  S  H  55   0.00013     0.00002     0.01972     0.02161    -0.02026     0.06491
  
  S  H  56   0.00029     0.00005     0.03231     0.03165    -0.02766     0.08613
  
  S  H  57   0.00030     0.00004     0.03225     0.03187    -0.02759     0.08623
  
  S  H  58   0.00055     0.00008     0.04761     0.03979    -0.03238     0.09511
  
  S  H  59   0.00053     0.00009     0.04825     0.03894    -0.03272     0.09466
  
  S  H  60   0.00122     0.00015     0.07149     0.04935    -0.03390     0.09402
  
  S  H  61   0.00153     0.00014     0.07154     0.05402    -0.03271     0.09634
  
  S  H  62   0.00159     0.00033     0.10186     0.03574    -0.03833     0.06806
  
  S  H  63   0.00171     0.00020     0.08495     0.04844    -0.03177     0.07553
  
  S  H  64   0.00810     0.00013     0.07406     0.07067     0.00683     0.03069
  
  S  H  65   0.00025     0.00138     0.07013    -0.06938    -0.00179    -0.03282
  
  S  H  66   0.00043     0.00051     0.08237    -0.06232    -0.04104    -0.06475
  
  S  H  67   0.00087     0.00052     0.09844    -0.05320    -0.04528    -0.05770
  
  S  H  68   0.00041     0.00040     0.07810    -0.05784    -0.04916    -0.07146
  
  S  H  69   0.00029     0.00043     0.07351    -0.06397    -0.04682    -0.07768
  
  S  H  70   0.00016     0.00020     0.04892    -0.04887    -0.04488    -0.07648
  
  S  H  71   0.00019     0.00020     0.05003    -0.04796    -0.04528    -0.07560
  
  S  H  72   0.00009     0.00012     0.03399    -0.03835    -0.03892    -0.06849
  
  S  H  73   0.00008     0.00012     0.03366    -0.03867    -0.03876    -0.06884
  
  S  H  74   0.00004     0.00006     0.02054    -0.02644    -0.02838    -0.05197
  
  S  H  75   0.00004     0.00006     0.02060    -0.02638    -0.02840    -0.05190
  
  S  H  76   0.00001     0.00002     0.00837    -0.01204    -0.01368    -0.02575
  
  S  H  77   0.00002     0.00003     0.01088    -0.01514    -0.01695    -0.03165
  
  S  H  78   0.00002     0.00003     0.01086    -0.01515    -0.01694    -0.03167
  
  S  H  79   0.00004     0.00528     0.02134    -0.05349     0.07772     0.03461
  
  S  H  80   0.00001     0.01638     0.01414    -0.05220     0.09546     0.04868
  
  S  H  81   0.00000     0.24075    -0.00628     0.02006    -0.03753    -0.01970
  
  S  H  82   0.02387     0.00003     0.02756     0.06036     0.05329    -0.04275
  
  S  H  83   0.04923     0.00000     0.00883     0.03227     0.03905    -0.04002
  
  S  H  84   0.03702     0.00003     0.03122     0.06079     0.04594    -0.02989
  
  S  H  85   0.03435    -0.00000    -0.00293    -0.01367    -0.02435     0.03352
  
  S  H  86   0.02082    -0.00000    -0.00503    -0.02104    -0.03300     0.04212
  
  S  H  87   0.02188    -0.00001    -0.00570    -0.02293    -0.03467     0.04314
  
  S  H  88   0.05004    -0.00001    -0.00944    -0.02960    -0.03687     0.03991
  
  S  H  89   0.07317    -0.00001    -0.01035    -0.02236    -0.01557     0.00544
  
  S  H  90   0.07321    -0.00001    -0.00795    -0.01358    -0.00443    -0.00647
  
  S  H  91   0.02841    -0.00001    -0.00438    -0.00952    -0.00591     0.00053
  
  S  H  92   0.04635    -0.00001    -0.00563    -0.01076    -0.00522    -0.00197
  
  S  H  93   0.04811    -0.00001    -0.00701    -0.01554    -0.01119     0.00436




    ROOT NO.    7           8           9          10          11          12

           -42.19281   -41.89074   -41.39363   -39.69899   -39.17218   -38.54729
  
  
  S  C   1  -0.10598     0.08904     0.16097    -0.00513    -0.00075     0.28905
 PX  C   1  -0.03761     0.03109     0.05462    -0.00155    -0.00022     0.07836
 PY  C   1  -0.00989     0.00799     0.01345    -0.00031    -0.00003     0.01283
 PZ  C   1   0.00000     0.00000    -0.00001     0.00000     0.00000    -0.00001
  
  S  C   2  -0.16974     0.13918     0.24140    -0.00657    -0.00096     0.32314
 PX  C   2  -0.00577     0.00297    -0.00012     0.00058     0.00008    -0.05574
 PY  C   2  -0.03919     0.03112     0.05083    -0.00102    -0.00011     0.03507
 PZ  C   2   0.00001     0.00002    -0.00003     0.00001     0.00002    -0.00000
  
  S  C   3  -0.20508     0.16107     0.25824    -0.00485    -0.00048     0.16231
 PX  C   3  -0.02435     0.01552     0.01408     0.00084     0.00016    -0.08594
 PY  C   3   0.02425    -0.02164    -0.04280     0.00168     0.00037    -0.09249
 PZ  C   3   0.00000     0.00011    -0.00011     0.00005     0.00007     0.00001
  
  S  C   4  -0.19727     0.14263     0.19509    -0.00086    -0.00032    -0.11634
 PX  C   4   0.02961    -0.02799    -0.05651     0.00176    -0.00015    -0.09864
 PY  C   4  -0.01868     0.00922    -0.00064     0.00138     0.00042    -0.09103
 PZ  C   4   0.00021     0.00031    -0.00062     0.00021     0.00029     0.00015
  
  S  C   5  -0.14733     0.08854     0.06647     0.00487     0.00216    -0.31141
 PX  C   5   0.01153    -0.01813    -0.04955     0.00192     0.00016    -0.07590
 PY  C   5   0.03972    -0.03122    -0.05325     0.00149     0.00158     0.01953
 PZ  C   5   0.00029     0.00162    -0.00229     0.00082     0.00107    -0.00020
  
  S  C   6  -0.07561     0.01765    -0.06153     0.00462    -0.00218    -0.31581
 PX  C   6   0.03609    -0.02867    -0.03359    -0.00248    -0.00366     0.07179
 PY  C   6   0.01604    -0.02158    -0.05668     0.00304     0.00318    -0.00414
 PZ  C   6   0.00030     0.00685    -0.00439     0.00294     0.00406     0.00113
  
  S  C   7   0.03549    -0.06411    -0.24286     0.01511     0.01418    -0.05049
 PX  C   7   0.02319    -0.02070    -0.02435    -0.00245    -0.00347     0.07160
 PY  C   7   0.05019    -0.02498    -0.07695     0.00838     0.01369     0.15302
 PZ  C   7   0.00288     0.01790    -0.01024     0.00728     0.00999     0.00697
  
  S  C   8   0.08686    -0.03390    -0.21785     0.02501     0.03306     0.12201
 PX  C   8   0.02178    -0.01221    -0.04247     0.00350     0.00483     0.05395
 PY  C   8   0.03717     0.00191    -0.00282     0.00284     0.00632     0.09984
 PZ  C   8  -0.01619     0.02426     0.08767    -0.00651    -0.00751    -0.02600
  
  S  C   9   0.13432    -0.01175    -0.15228     0.02242     0.03347     0.23647
 PX  C   9  -0.00619    -0.00110     0.00870    -0.00191    -0.00273    -0.00324
 PY  C   9  -0.00242     0.03196     0.10039    -0.00732    -0.00850    -0.02775
 PZ  C   9   0.00856     0.02584     0.06003    -0.00241    -0.00213    -0.01221
  
  S  S  10   0.07164    -0.04677    -0.13752     0.00994     0.01470     0.15471
 PX  S  10  -0.02154     0.01143     0.04924    -0.00539    -0.00782    -0.04584
 PY  S  10  -0.02234     0.03370     0.07584    -0.00246    -0.00285    -0.05066
 PZ  S  10   0.03097     0.00182    -0.04575     0.00773     0.01070     0.06273
  
  S  C  11   0.05891    -0.11486    -0.17961    -0.00334    -0.00511     0.07910
 PX  C  11  -0.00329    -0.00350     0.04129    -0.00871    -0.01221     0.01043
 PY  C  11   0.01604     0.01184    -0.02135     0.00881     0.01368     0.06776
 PZ  C  11   0.02262     0.01265    -0.10103     0.01460     0.01550     0.03651
  
  S  C  12   0.02017    -0.19068     0.07635    -0.03242    -0.02372     0.02615
 PX  C  12   0.00009    -0.02173     0.04168    -0.01356    -0.01946     0.00847
 PY  C  12   0.00519     0.02298    -0.04477     0.00886     0.00975     0.01431
 PZ  C  12   0.00512     0.03719    -0.09037    -0.00268    -0.02033    -0.01349
  
  S  S  13   0.00840    -0.13390     0.10204     0.01028     0.04519     0.02664
 PX  S  13   0.00425    -0.07389     0.06430     0.00044     0.01734     0.01704
 PY  S  13  -0.00092     0.04139    -0.04158    -0.00391    -0.01585    -0.00570
 PZ  S  13   0.00295    -0.02380    -0.00253    -0.01821    -0.02474     0.00086
  
  S  C  14   0.00623    -0.15514     0.16224     0.05992     0.12519     0.03375
 PX  C  14   0.00076    -0.02269     0.02531    -0.00766    -0.00637     0.00580
 PY  C  14   0.00057    -0.00355    -0.00093    -0.00318    -0.00344     0.00111
 PZ  C  14   0.00319    -0.06959     0.05907    -0.04149    -0.04437     0.01532
  
  S  C  15   0.00524    -0.16374     0.18012    -0.00419     0.02468     0.03131
 PX  C  15  -0.00289     0.05797    -0.04997    -0.00997    -0.03075    -0.01301
 PY  C  15   0.00261    -0.04662     0.03998    -0.00056     0.01007     0.01079
 PZ  C  15   0.00024    -0.02345     0.02604    -0.03111    -0.04781    -0.00109
  
  S  C  16   0.00700    -0.16195     0.15448    -0.05819    -0.07498     0.01319
 PX  C  16  -0.00492     0.06381    -0.02887    -0.00655    -0.02789    -0.01078
 PY  C  16   0.00524    -0.03569     0.00539     0.00384     0.01513     0.01223
 PZ  C  16  -0.00152     0.05322    -0.06186    -0.01178    -0.03798    -0.02078
  
  S  C  17  -0.00802     0.03922     0.03198    -0.06546    -0.13449    -0.02855
 PX  C  17  -0.00296     0.03695    -0.01766     0.00998     0.01274     0.00018
 PY  C  17   0.00718    -0.05547     0.01123     0.00481     0.01846     0.01283
 PZ  C  17  -0.00175     0.03595    -0.03176     0.00769     0.00734    -0.00466
  
  S  C  18  -0.02324     0.18843    -0.03166    -0.04053    -0.10435    -0.03967
 PX  C  18  -0.00405     0.05027    -0.01872     0.00394     0.00213     0.00163
 PY  C  18   0.00221    -0.03276     0.02272    -0.01938    -0.03664    -0.00697
 PZ  C  18  -0.00447     0.05092    -0.02563     0.00610     0.00617    -0.00274
  
  S  C  19  -0.03121     0.30668    -0.10021     0.00573    -0.01584    -0.01422
 PX  C  19   0.00221    -0.01410     0.00009     0.00935     0.02293     0.00959
 PY  C  19   0.00532    -0.06153     0.02838    -0.01885    -0.03761    -0.01092
 PZ  C  19   0.00133    -0.00564    -0.00471     0.01104     0.02591     0.00904
  
  S  C  20  -0.03298     0.34684    -0.13254     0.04869     0.08276     0.02121
 PX  C  20  -0.00276     0.03418    -0.01604     0.01170     0.02521     0.00950
 PY  C  20  -0.00418     0.03699    -0.00903    -0.00710    -0.02180    -0.01023
 PZ  C  20  -0.00214     0.02758    -0.01429     0.01184     0.02627     0.00967
  
  S  C  21  -0.02728     0.30029    -0.12425     0.06511     0.12970     0.04295
 PX  C  21   0.00462    -0.04906     0.01913    -0.00743    -0.01282    -0.00327
 PY  C  21  -0.00034     0.00039     0.00236    -0.00684    -0.01787    -0.00771
 PZ  C  21   0.00437    -0.04611     0.01759    -0.00615    -0.00987    -0.00225
  
  S  C  22  -0.01706     0.19227    -0.08290     0.05111     0.10787     0.03837
 PX  C  22   0.00119    -0.01284     0.00516    -0.00233    -0.00433    -0.00124
 PY  C  22  -0.00586     0.06506    -0.02729     0.01500     0.03029     0.01017
 PZ  C  22   0.00183    -0.01997     0.00815    -0.00402    -0.00775    -0.00244
  
  S  C  23  -0.00134     0.00444     0.02352     0.14755     0.20096    -0.00910
 PX  C  23   0.00062    -0.01331     0.01218    -0.00790    -0.00676     0.00428
 PY  C  23   0.00024    -0.00475     0.00528     0.01020     0.01823     0.00030
 PZ  C  23   0.00296    -0.06217     0.05483    -0.03146    -0.01949     0.01904
  
  S  C  24  -0.00345     0.05565    -0.02931     0.13121     0.16373    -0.02263
 PX  C  24  -0.00005    -0.00032     0.00214     0.01214     0.01561    -0.00075
 PY  C  24   0.00162    -0.02744     0.01705    -0.04686    -0.05290     0.00951
 PZ  C  24   0.00116    -0.02508     0.02429     0.01069     0.02354     0.00557
  
  S  C  25  -0.00523     0.09645    -0.07266     0.04109     0.02767    -0.01845
 PX  C  25  -0.00040     0.00676    -0.00391     0.02298     0.02107    -0.00403
 PY  C  25   0.00147    -0.02802     0.02297     0.01133     0.03192     0.00088
 PZ  C  25  -0.00098     0.01511    -0.00620     0.07632     0.09293    -0.01337
  
  S  C  26  -0.00569     0.10761    -0.08612    -0.01337    -0.08812    -0.00734
 PX  C  26   0.00027    -0.00586     0.00604     0.02459     0.02694    -0.00286
 PY  C  26  -0.00104     0.01779    -0.01096     0.03678     0.06363    -0.01015
 PZ  C  26  -0.00020    -0.00016     0.00662     0.08509     0.12536    -0.01490
  
  S  S  27  -0.00277     0.04408    -0.02468     0.07597     0.07257    -0.01216
 PX  S  27   0.00059    -0.01131     0.00879    -0.00816    -0.00573     0.00271
 PY  S  27  -0.00147     0.02251    -0.01074     0.05677     0.06979    -0.00926
 PZ  S  27   0.00140    -0.03004     0.02755     0.00456     0.02918     0.00452
  
  S  C  28  -0.00377     0.07707    -0.07145    -0.12439    -0.30836     0.02376
 PX  C  28   0.00056    -0.01206     0.01235     0.05574     0.06403    -0.00744
 PY  C  28  -0.00106     0.02090    -0.01820    -0.04374    -0.02209     0.00065
 PZ  C  28  -0.00049     0.00847    -0.00513     0.01631     0.05606    -0.00841
  
  S  C  29  -0.00278     0.05934    -0.05950    -0.26288    -0.26763     0.03078
 PX  C  29  -0.00021     0.00399    -0.00292     0.08336    -0.07004     0.00177
 PY  C  29  -0.00064     0.01319    -0.01245    -0.07464    -0.01255     0.00314
 PZ  C  29  -0.00104     0.02095    -0.01889     0.00459    -0.10350     0.00668
  
  S  C  30   0.00048    -0.00812     0.00502    -0.10945     0.08588    -0.00317
 PX  C  30   0.00007    -0.00178     0.00275     0.25740    -0.23667     0.01332
 PY  C  30  -0.00081     0.01721    -0.01759    -0.19975     0.03942     0.00260
 PZ  C  30  -0.00096     0.02015    -0.01947     0.06050    -0.24495     0.02017
  
  S  O  31   0.00107    -0.02089     0.01727    -0.36971     0.49399    -0.03254
 PX  O  31   0.00037    -0.00741     0.00660    -0.04105     0.09028    -0.00665
 PY  O  31  -0.00020     0.00430    -0.00442    -0.04404     0.00061     0.00142
 PZ  O  31   0.00020    -0.00368     0.00251    -0.10941     0.11401    -0.00646
  
  S  O  32   0.00156    -0.03209     0.03123     0.46256    -0.23922     0.00852
 PX  O  32  -0.00036     0.00728    -0.00680    -0.05749     0.01113     0.00049
 PY  O  32   0.00001     0.00002    -0.00043     0.01438    -0.03217     0.00259
 PZ  O  32  -0.00043     0.00910    -0.00904    -0.05290    -0.02836     0.00402
  
  S  C  33  -0.00256     0.05536    -0.05688    -0.38683    -0.21359     0.03636
 PX  C  33  -0.00043     0.00849    -0.00719     0.01821    -0.01110    -0.00343
 PY  C  33   0.00001    -0.00024     0.00010    -0.00634    -0.02255     0.00469
 PZ  C  33  -0.00039     0.00780    -0.00674     0.01552    -0.04141     0.00219
  
  S  N  34  -0.00157     0.03451    -0.03667    -0.29824    -0.16558     0.03208
 PX  N  34  -0.00066     0.01431    -0.01478    -0.10496    -0.06086     0.01085
 PY  N  34   0.00048    -0.01074     0.01153     0.09932     0.04768    -0.00972
 PZ  N  34  -0.00010     0.00199    -0.00167     0.00549    -0.00932     0.00029
  
  S  C  35   0.14419     0.07808     0.10466     0.00280     0.00825     0.10364
 PX  C  35  -0.00758    -0.00253    -0.00055    -0.00040    -0.00045     0.00733
 PY  C  35  -0.00175     0.02433     0.07601    -0.00733    -0.01042    -0.06307
 PZ  C  35   0.00372     0.02093     0.05947    -0.00531    -0.00759    -0.05147
  
  S  C  36   0.08581     0.07239     0.13870    -0.00494    -0.00391     0.02569
 PX  C  36  -0.03338    -0.02654    -0.04964     0.00173     0.00153    -0.00054
 PY  C  36  -0.01715     0.00217     0.02003    -0.00313    -0.00491    -0.03550
 PZ  C  36  -0.00032     0.01255     0.03639    -0.00325    -0.00464    -0.02933
  
  S  C  37  -0.00164     0.04430     0.11743    -0.00775    -0.00946    -0.02892
 PX  C  37   0.00115    -0.01494    -0.04030     0.00297     0.00411     0.02632
 PY  C  37  -0.04474    -0.02835    -0.05205     0.00249     0.00291     0.01052
 PZ  C  37  -0.03574    -0.01663    -0.02548     0.00076     0.00057    -0.00387
  
  S  C  38  -0.10044     0.00161     0.05700    -0.00723    -0.01132    -0.08985
 PX  C  38   0.00215     0.00395     0.00658     0.00092     0.00283     0.05035
 PY  C  38  -0.09157    -0.05120    -0.09140     0.00507     0.00678     0.04231
 PZ  C  38  -0.07301    -0.04204    -0.07468     0.00348     0.00386     0.00795
  
  S  C  39   0.06192     0.06016     0.13339    -0.01045    -0.01632    -0.14575
 PX  C  39  -0.03069     0.00678     0.03154    -0.00231    -0.00277    -0.00784
 PY  C  39  -0.04572    -0.02317    -0.03456     0.00018    -0.00108    -0.02661
 PZ  C  39  -0.02501    -0.02138    -0.04030     0.00103     0.00013    -0.02013
  
  S  C  40   0.12212     0.08083     0.13899    -0.00431    -0.00410    -0.01706
 PX  C  40   0.02561     0.02366     0.04468    -0.00114    -0.00042     0.01385
 PY  C  40   0.00414     0.01576     0.04701    -0.00493    -0.00755    -0.05517
 PZ  C  40  -0.00601     0.00340     0.01904    -0.00331    -0.00562    -0.04920
  
  S  C  41   0.20157     0.05757     0.06482    -0.00424    -0.00778    -0.09064
 PX  C  41  -0.11696    -0.02950    -0.02036    -0.00150    -0.00362    -0.05038
 PY  C  41   0.01642    -0.00416    -0.01778     0.00142     0.00201     0.01487
 PZ  C  41   0.05776     0.00796    -0.00630     0.00165     0.00287     0.02934
  
  S  C  42   0.28670     0.07827     0.07481    -0.00162    -0.00182    -0.00854
 PX  C  42   0.03577     0.01066     0.01283    -0.00098    -0.00188    -0.02334
 PY  C  42   0.08817     0.02111     0.01498     0.00028     0.00079     0.01194
 PZ  C  42   0.05672     0.01279     0.00711     0.00059     0.00131     0.01798
  
  S  C  43   0.29828     0.07686     0.06396     0.00032     0.00206     0.04098
 PX  C  43   0.11044     0.02772     0.02203     0.00009     0.00054     0.00986
 PY  C  43   0.02623     0.00559     0.00225     0.00045     0.00098     0.01309
 PZ  C  43  -0.02041    -0.00590    -0.00642     0.00032     0.00057     0.00658
  
  S  C  44   0.28334     0.06926     0.04995     0.00161     0.00436     0.06597
 PX  C  44   0.05265     0.01103     0.00443     0.00066     0.00130     0.01482
 PY  C  44  -0.06744    -0.01776    -0.01577     0.00017     0.00004    -0.00283
 PZ  C  44  -0.07256    -0.01801    -0.01389    -0.00013    -0.00049    -0.00818
  
  S  C  45   0.20433     0.03931     0.00757     0.00363     0.00703     0.08092
 PX  C  45  -0.09235    -0.02918    -0.03388     0.00099     0.00099    -0.00001
 PY  C  45  -0.08169    -0.01961    -0.01433    -0.00005    -0.00023    -0.00336
 PZ  C  45  -0.02850    -0.00385     0.00264    -0.00053    -0.00077    -0.00514
  
  S  C  46   0.07480    -0.00280    -0.03763     0.00273     0.00320     0.00945
 PX  C  46  -0.20012    -0.06205    -0.06920     0.00156     0.00120    -0.00685
 PY  C  46  -0.03523    -0.01580    -0.02854     0.00298     0.00550     0.06190
 PZ  C  46   0.05034     0.01222     0.00598     0.00150     0.00337     0.04518
  
  S  N  47  -0.28860    -0.11443    -0.16315     0.00694     0.00893     0.05397
 PX  N  47  -0.02411    -0.00463    -0.00343     0.00101     0.00255     0.04035
 PY  N  47  -0.03119    -0.01950    -0.04116     0.00443     0.00799     0.08664
 PZ  N  47   0.02912     0.00466    -0.00339     0.00143     0.00268     0.02841
  
  S  C  48  -0.21640    -0.09093    -0.14304     0.00989     0.01645     0.16524
 PX  C  48   0.04648     0.02137     0.03498    -0.00213    -0.00319    -0.02586
 PY  C  48   0.04982     0.01837     0.02411    -0.00066    -0.00052     0.00226
 PZ  C  48   0.03405     0.01227     0.01668    -0.00095    -0.00159    -0.01695
  
  S  C  49  -0.13001    -0.05620    -0.09184     0.00724     0.01264     0.13515
 PX  C  49  -0.00324    -0.00057    -0.00021     0.00008     0.00023     0.00411
 PY  C  49   0.04817     0.01979     0.03033    -0.00193    -0.00312    -0.03007
 PZ  C  49  -0.02392    -0.01096    -0.01852     0.00142     0.00239     0.02410
  
  S  H  50  -0.00115     0.02359    -0.02188    -0.01535    -0.11813     0.00850
  
  S  H  51  -0.03755     0.03180     0.05827    -0.00195    -0.00030     0.11407
  
  S  H  52  -0.04533     0.03807     0.06873    -0.00218    -0.00031     0.12331
  
  S  H  53  -0.04533     0.03806     0.06874    -0.00219    -0.00032     0.12331
  
  S  H  54  -0.07052     0.05768     0.09959    -0.00267    -0.00039     0.12979
  
  S  H  55  -0.07053     0.05765     0.09963    -0.00269    -0.00042     0.12980
  
  S  H  56  -0.08567     0.06707     0.10721    -0.00199    -0.00017     0.06649
  
  S  H  57  -0.08561     0.06718     0.10701    -0.00192    -0.00008     0.06659
  
  S  H  58  -0.08247     0.05974     0.08109    -0.00035    -0.00018    -0.04802
  
  S  H  59  -0.08262     0.05925     0.08179    -0.00063    -0.00057    -0.04800
  
  S  H  60  -0.06075     0.03527     0.02683     0.00194     0.00101    -0.12409
  
  S  H  61  -0.05988     0.03748     0.02345     0.00303     0.00239    -0.12328
  
  S  H  62  -0.03395     0.00376    -0.01412    -0.00220    -0.00708    -0.13399
  
  S  H  63  -0.03319     0.01270    -0.02172     0.00213    -0.00095    -0.13204
  
  S  H  64   0.02466    -0.00200    -0.05689     0.00822     0.01085     0.01735
  
  S  H  65   0.00039    -0.03813     0.05237    -0.00000     0.00546     0.00677
  
  S  H  66  -0.00382     0.02196     0.01335    -0.02594    -0.05430    -0.01026
  
  S  H  67  -0.00122     0.01739    -0.00178    -0.02656    -0.05601    -0.01108
  
  S  H  68  -0.01094     0.07700    -0.01416    -0.01659    -0.04239    -0.02274
  
  S  H  69  -0.00980     0.07667    -0.00841    -0.01639    -0.04151    -0.01477
  
  S  H  70  -0.01293     0.12804    -0.04147     0.00233    -0.00658    -0.00505
  
  S  H  71  -0.01296     0.12796    -0.04270     0.00233    -0.00666    -0.00606
  
  S  H  72  -0.01387     0.14452    -0.05508     0.01999     0.03390     0.00821
  
  S  H  73  -0.01378     0.14448    -0.05475     0.02001     0.03397     0.00878
  
  S  H  74  -0.01132     0.12443    -0.05125     0.02645     0.05243     0.01734
  
  S  H  75  -0.01133     0.12442    -0.05132     0.02645     0.05241     0.01724
  
  S  H  76  -0.00605     0.06870    -0.03003     0.01945     0.04173     0.01516
  
  S  H  77  -0.00730     0.08218    -0.03540     0.02179     0.04599     0.01634
  
  S  H  78  -0.00730     0.08218    -0.03539     0.02179     0.04599     0.01637
  
  S  H  79  -0.00073     0.01053    -0.00310     0.04073     0.05480    -0.00550
  
  S  H  80  -0.00174     0.03328    -0.02715    -0.01978    -0.02399    -0.00176
  
  S  H  81   0.00080    -0.01653     0.01618     0.18423    -0.05745    -0.00001
  
  S  H  82   0.03004     0.01983     0.03268    -0.00030     0.00073     0.02567
  
  S  H  83  -0.01818     0.00497     0.02186    -0.00161    -0.00174     0.00252
  
  S  H  84   0.05046     0.02486     0.03215     0.00034     0.00116     0.00621
  
  S  H  85   0.08372     0.02477     0.02674    -0.00086    -0.00114    -0.00863
  
  S  H  86   0.08556     0.02246     0.01931     0.00009     0.00066     0.01393
  
  S  H  87   0.08016     0.01969     0.01413     0.00059     0.00157     0.02396
  
  S  H  88   0.03812     0.00310    -0.01050     0.00199     0.00363     0.03984
  
  S  H  89  -0.07560    -0.03382    -0.05597     0.00417     0.00702     0.07092
  
  S  H  90  -0.08407    -0.03338    -0.05041     0.00349     0.00596     0.06308
  
  S  H  91  -0.04364    -0.01910    -0.03186     0.00271     0.00486     0.05364
  
  S  H  92  -0.05647    -0.02346    -0.03717     0.00287     0.00503     0.05464
  
  S  H  93  -0.05191    -0.02364    -0.03996     0.00321     0.00558     0.05901




    ROOT NO.   13          14          15          16          17          18

           -38.37520   -37.74608   -36.44370   -35.32531   -34.33534   -33.99008
  
  
  S  C   1   0.04315    -0.13652    -0.01170    -0.16295    -0.15972     0.13818
 PX  C   1   0.01149    -0.03380    -0.00240    -0.02632    -0.01881     0.01401
 PY  C   1   0.00179    -0.00436    -0.00011     0.00166     0.00451    -0.00485
 PZ  C   1   0.00000     0.00001     0.00001     0.00007    -0.00001     0.00000
  
  S  C   2   0.04728    -0.13736    -0.00965    -0.10737    -0.08120     0.06313
 PX  C   2  -0.00876     0.03328     0.00373     0.06220     0.06899    -0.06175
 PY  C   2   0.00471    -0.00911     0.00026     0.01528     0.02452    -0.02406
 PZ  C   2   0.00001     0.00002     0.00004     0.00024    -0.00005     0.00002
  
  S  C   3   0.02170    -0.04231     0.00074     0.05275     0.08197    -0.07929
 PX  C   3  -0.01353     0.05014     0.00515     0.07574     0.07268    -0.06137
 PY  C   3  -0.01395     0.04298     0.00349     0.04067     0.03055    -0.02379
 PZ  C   3   0.00004     0.00005     0.00016     0.00083    -0.00019     0.00010
  
  S  C   4  -0.01963     0.09023     0.01031     0.15777     0.15102    -0.12542
 PX  C   4  -0.01370     0.03710     0.00101    -0.00854    -0.02870     0.03226
 PY  C   4  -0.01408     0.04396     0.00335     0.03093     0.01216    -0.00535
 PZ  C   4   0.00013     0.00010     0.00053     0.00258    -0.00087     0.00045
  
  S  C   5  -0.04896     0.14887     0.01119     0.09294     0.02827    -0.01040
 PX  C   5  -0.01035     0.01669    -0.00191    -0.05557    -0.07161     0.06531
 PY  C   5   0.00233    -0.02362    -0.00223    -0.05068    -0.05842     0.04645
 PZ  C   5   0.00056     0.00072     0.00204     0.00975    -0.00277     0.00162
  
  S  C   6  -0.04178     0.10183    -0.00268    -0.09671    -0.12277     0.11905
 PX  C   6   0.01580    -0.04622    -0.00719    -0.06547    -0.02217     0.01613
 PY  C   6  -0.00366    -0.02054    -0.00276    -0.05621    -0.05451     0.03534
 PZ  C   6   0.00103     0.00260     0.00661     0.03126    -0.00893     0.00154
  
  S  C   7  -0.00936    -0.05867    -0.00232    -0.14489    -0.14811     0.07219
 PX  C   7   0.01482    -0.04022    -0.00674    -0.03565     0.02652    -0.02953
 PY  C   7   0.01770    -0.07225     0.00989     0.05965     0.02693    -0.06508
 PZ  C   7   0.00569     0.00960     0.01928     0.10061    -0.01558     0.00341
  
  S  C   8   0.01725    -0.05817     0.03362     0.15687    -0.02467     0.00851
 PX  C   8   0.00893    -0.02472     0.00332     0.01351     0.00551    -0.02844
 PY  C   8   0.01368    -0.00617     0.00919     0.10957     0.08216    -0.03910
 PZ  C   8  -0.00292     0.04292    -0.00167     0.04032     0.04834     0.01360
  
  S  C   9   0.03410    -0.01166     0.03613     0.27333     0.11034    -0.08523
 PX  C   9   0.00015     0.00504    -0.00495    -0.03693    -0.01215    -0.03609
 PY  C   9  -0.00319     0.07347    -0.00593     0.01994     0.05211    -0.00555
 PZ  C   9  -0.00024     0.05422     0.00351     0.06858     0.04783     0.02813
  
  S  S  10   0.01452    -0.06696     0.00218     0.01701     0.03467    -0.09504
 PX  S  10  -0.00333     0.02273    -0.00509    -0.02365     0.00063     0.01808
 PY  S  10  -0.00344     0.05506     0.00595     0.05387     0.00608     0.01617
 PZ  S  10   0.01380    -0.00267     0.01435     0.08374     0.01353    -0.04011
  
  S  C  11  -0.01265    -0.11088    -0.03998    -0.24591    -0.00910    -0.01593
 PX  C  11   0.00979     0.00436    -0.00853    -0.01110     0.05724    -0.01692
 PY  C  11   0.00775    -0.01818     0.01601     0.08879     0.00728    -0.04435
 PZ  C  11   0.02900    -0.02986     0.02474     0.05687    -0.05321    -0.00876
  
  S  C  12  -0.12119    -0.03052    -0.07687    -0.20633     0.07121     0.00336
 PX  C  12   0.01669     0.00534    -0.00884     0.00591     0.07643    -0.01499
 PY  C  12   0.00850    -0.01692     0.00517    -0.01953    -0.02406    -0.00553
 PZ  C  12   0.08104    -0.02922    -0.00540    -0.12745     0.03836     0.00098
  
  S  S  13  -0.16176     0.00515    -0.00734     0.02944    -0.10209     0.01432
 PX  S  13  -0.08592     0.00581    -0.00795     0.02900    -0.03596     0.00355
 PY  S  13   0.05198    -0.00791    -0.00247    -0.03631     0.03726    -0.00531
 PZ  S  13  -0.01530    -0.00949    -0.03522    -0.07875     0.04577    -0.00030
  
  S  C  14  -0.19276     0.02824     0.06910     0.21635    -0.23302     0.01880
 PX  C  14  -0.01973     0.00503    -0.00686     0.02865     0.00446    -0.00316
 PY  C  14  -0.00723    -0.00205    -0.00632    -0.01986     0.00749     0.00066
 PZ  C  14  -0.07600     0.00644    -0.05476    -0.00460     0.04345    -0.00381
  
  S  C  15  -0.12765     0.02952     0.00603     0.15884    -0.04105    -0.00587
 PX  C  15   0.09041    -0.00740    -0.00260    -0.04717     0.07157    -0.00897
 PY  C  15  -0.05787     0.00410    -0.00776     0.01619    -0.01500     0.00149
 PZ  C  15   0.02892     0.00004    -0.03394    -0.05446     0.11580    -0.01232
  
  S  C  16   0.00786     0.00557    -0.05531    -0.07583     0.21033    -0.02556
 PX  C  16   0.11891     0.00143     0.01968     0.02004     0.06205    -0.01522
 PY  C  16  -0.06572    -0.00818    -0.01650    -0.04099    -0.01203     0.00343
 PZ  C  16   0.11911    -0.01705    -0.00413    -0.11420     0.08498    -0.00473
  
  S  C  17   0.30658    -0.00137     0.00134    -0.06881     0.22645    -0.03339
 PX  C  17   0.00578     0.00330     0.01747     0.05004    -0.06209     0.00417
 PY  C  17  -0.08026    -0.00658    -0.02224    -0.04982     0.04584    -0.00426
 PZ  C  17   0.01478    -0.00357     0.01177     0.00514    -0.06074     0.00907
  
  S  C  18   0.32633     0.00854     0.05070     0.07095    -0.05163     0.00189
 PX  C  18   0.02077    -0.00007     0.01332     0.03473    -0.06503     0.00517
 PY  C  18   0.07168    -0.00059    -0.00649    -0.03740     0.11300    -0.01544
 PZ  C  18   0.00967    -0.00086     0.01106     0.02007    -0.07699     0.01063
  
  S  C  19   0.14011     0.00389     0.05248     0.11622    -0.24856     0.02793
 PX  C  19  -0.07012    -0.00172    -0.01129    -0.01445     0.01563    -0.00151
 PY  C  19   0.08887     0.00093     0.00504    -0.00886     0.05199    -0.00804
 PZ  C  19  -0.07659    -0.00198    -0.01175    -0.01711     0.00765     0.00066
  
  S  C  20  -0.15002    -0.00203     0.00335     0.03923    -0.13781     0.01842
 PX  C  20  -0.07011    -0.00183    -0.01212    -0.02139     0.03829    -0.00439
 PY  C  20   0.08498     0.00236     0.02377     0.05264    -0.11531     0.01342
 PZ  C  20  -0.07621    -0.00202    -0.01444    -0.02794     0.04978    -0.00536
  
  S  C  21  -0.32632    -0.00731    -0.04713    -0.07892     0.13505    -0.01449
 PX  C  21   0.02355     0.00032    -0.00095    -0.00827     0.03055    -0.00419
 PY  C  21   0.06349     0.00172     0.01828     0.04450    -0.11025     0.01352
 PZ  C  21   0.01438     0.00008    -0.00316    -0.01359     0.04205    -0.00546
  
  S  C  22  -0.29871    -0.00718    -0.05754    -0.12005     0.26583    -0.03165
 PX  C  22   0.00937     0.00016     0.00047    -0.00080     0.00551    -0.00084
 PY  C  22  -0.07772    -0.00175    -0.01159    -0.01930     0.03163    -0.00327
 PZ  C  22   0.01825     0.00036     0.00183     0.00148     0.00131    -0.00036
  
  S  C  23   0.01856     0.00482     0.13596     0.08493    -0.14007     0.01239
 PX  C  23  -0.01964     0.00292    -0.00417     0.02523    -0.02097     0.00107
 PY  C  23  -0.00461     0.00061     0.02215     0.00613    -0.01933     0.00227
 PZ  C  23  -0.09606     0.01242    -0.00093     0.10618    -0.11613     0.00926
  
  S  C  24   0.09326    -0.00744     0.11449    -0.04534     0.01345     0.00027
 PX  C  24   0.00199     0.00033     0.00805     0.00857    -0.01325     0.00109
 PY  C  24  -0.04148     0.00376    -0.02311     0.02233    -0.01781     0.00129
 PZ  C  24  -0.03224     0.00522     0.02368     0.06052    -0.08417     0.00733
  
  S  C  25   0.08994    -0.01138    -0.00283    -0.10218     0.12285    -0.01006
 PX  C  25   0.01800    -0.00182    -0.00614    -0.00833     0.00902    -0.00073
 PY  C  25  -0.00824     0.00208     0.05773     0.00779    -0.02075     0.00207
 PZ  C  25   0.05651    -0.00475     0.05221    -0.03146     0.01945    -0.00108
  
  S  C  26   0.04711    -0.00908    -0.16774    -0.04885     0.08833    -0.00806
 PX  C  26   0.01137    -0.00071     0.00984    -0.00302     0.00132    -0.00010
 PY  C  26   0.04417    -0.00405     0.06576    -0.04767     0.04625    -0.00355
 PZ  C  26   0.06097    -0.00430     0.10073    -0.04073     0.02767    -0.00187
  
  S  S  27   0.05256    -0.00391     0.00290    -0.00407     0.00166    -0.00048
 PX  S  27  -0.01259     0.00169     0.00410     0.01200    -0.01248     0.00087
 PY  S  27   0.03821    -0.00250     0.03926    -0.00837    -0.00117     0.00022
 PZ  S  27  -0.02659     0.00509     0.05469     0.04233    -0.05902     0.00492
  
  S  C  28  -0.08651     0.00280    -0.32693     0.08147    -0.05016     0.00329
 PX  C  28   0.03035    -0.00224     0.04327    -0.02543     0.02662    -0.00223
 PY  C  28   0.00010    -0.00099    -0.03345    -0.00923     0.02036    -0.00193
 PZ  C  28   0.03722    -0.00380     0.01418    -0.03945     0.05258    -0.00466
  
  S  C  29  -0.12420     0.00861    -0.22360     0.11232    -0.11281     0.00928
 PX  C  29  -0.00344    -0.00097    -0.09248     0.01647    -0.00785     0.00044
 PY  C  29  -0.01335     0.00124     0.03728    -0.01142     0.01397    -0.00125
 PZ  C  29  -0.02368     0.00069    -0.06360     0.00831     0.00406    -0.00068
  
  S  C  30   0.01068    -0.00067    -0.06865     0.02854    -0.03320     0.00290
 PX  C  30  -0.05120     0.00397     0.05471     0.00124    -0.00665     0.00065
 PY  C  30  -0.01223     0.00083    -0.08804     0.03615    -0.03724     0.00312
 PZ  C  30  -0.08053     0.00611    -0.04604     0.04931    -0.05783     0.00496
  
  S  O  31   0.12726    -0.00990    -0.08391    -0.01991     0.03160    -0.00282
 PX  O  31   0.02620    -0.00198    -0.00236    -0.00847     0.01022    -0.00087
 PY  O  31  -0.00628     0.00052    -0.01778     0.01015    -0.01159     0.00100
 PZ  O  31   0.02453    -0.00179    -0.02606     0.00278    -0.00255     0.00023
  
  S  O  32  -0.03160     0.00309     0.17330    -0.03973     0.03149    -0.00245
 PX  O  32  -0.00220     0.00009    -0.01646     0.00442    -0.00294     0.00020
 PY  O  32  -0.01032     0.00072    -0.02695     0.01525    -0.01792     0.00156
 PZ  O  32  -0.01635     0.00106    -0.05567     0.02555    -0.02725     0.00230
  
  S  C  33  -0.15862     0.01643     0.32188    -0.01188    -0.01311     0.00143
 PX  C  33   0.01993    -0.00425    -0.27152     0.05611    -0.04119     0.00316
 PY  C  33  -0.02313     0.00385     0.24044    -0.05580     0.04680    -0.00376
 PZ  C  33  -0.00742     0.00016    -0.00943    -0.00295     0.00756    -0.00074
  
  S  N  34  -0.14487     0.01736     0.56667    -0.08039     0.04657    -0.00337
 PX  N  34  -0.04823     0.00546     0.15919    -0.02077     0.01151    -0.00083
 PY  N  34   0.04383    -0.00515    -0.15056     0.01726    -0.00693     0.00042
 PZ  N  34  -0.00066    -0.00012    -0.00661    -0.00072     0.00246    -0.00024
  
  S  C  35   0.01803     0.14968     0.01119     0.17160     0.12379    -0.01749
 PX  C  35   0.00179     0.03311    -0.00540    -0.05555    -0.04979    -0.11187
 PY  C  35  -0.00856     0.03579    -0.01557    -0.12653    -0.06062     0.00288
 PZ  C  35  -0.00716     0.01537    -0.00918    -0.07096    -0.02719     0.05053
  
  S  C  36   0.00746     0.19880    -0.01624    -0.10838    -0.07483    -0.17552
 PX  C  36  -0.00073    -0.03265     0.00095    -0.01329    -0.02169    -0.01894
 PY  C  36  -0.00515     0.01286    -0.01019    -0.10690    -0.07430    -0.01841
 PZ  C  36  -0.00398     0.02285    -0.00859    -0.08146    -0.05244    -0.00752
  
  S  C  37  -0.00133     0.17286    -0.02816    -0.25885    -0.18972    -0.17138
 PX  C  37   0.00376    -0.00087     0.00458     0.04054     0.02255    -0.00164
 PY  C  37   0.00093    -0.02806     0.00397     0.02380     0.00936     0.02323
 PZ  C  37  -0.00109    -0.02719     0.00158     0.00344    -0.00260     0.01444
  
  S  C  38  -0.01416    -0.07267    -0.01104    -0.13939    -0.11569    -0.10124
 PX  C  38   0.01002     0.17537    -0.01203    -0.09246    -0.06611    -0.05728
 PY  C  38   0.00603     0.00320     0.00578     0.04248     0.00958    -0.04572
 PZ  C  38  -0.00027    -0.08321     0.01004     0.07199     0.03032    -0.03184
  
  S  C  39  -0.02438    -0.22045     0.00169     0.00174     0.04130     0.22340
 PX  C  39  -0.00027     0.05260    -0.00782    -0.06889    -0.05661    -0.10555
 PY  C  39  -0.00547    -0.09714     0.00329    -0.00556    -0.03068    -0.09387
 PZ  C  39  -0.00464    -0.10431     0.00603     0.02362    -0.00363    -0.04030
  
  S  C  40  -0.00188     0.01488     0.00565     0.11020     0.12948     0.25404
 PX  C  40   0.00317     0.06364    -0.00262    -0.00370    -0.00193    -0.05130
 PY  C  40  -0.00848    -0.03336    -0.00752    -0.07140    -0.02974     0.04604
 PZ  C  40  -0.00797    -0.05325    -0.00442    -0.05204    -0.02275     0.05726
  
  S  C  41  -0.01655    -0.22236     0.00940     0.05637     0.05756     0.19398
 PX  C  41  -0.00949    -0.13886     0.00624     0.03139     0.00492    -0.07696
 PY  C  41   0.00225     0.00749     0.00115     0.00552    -0.01598    -0.12314
 PZ  C  41   0.00509     0.05371    -0.00121    -0.00654    -0.01541    -0.07554
  
  S  C  42  -0.00104     0.00878    -0.00214    -0.01451     0.02354     0.26149
 PX  C  42  -0.00433    -0.06215     0.00328     0.02477     0.02354     0.04534
 PY  C  42   0.00225     0.03279    -0.00182    -0.01399    -0.01278    -0.02503
 PZ  C  42   0.00337     0.04856    -0.00264    -0.02027    -0.01922    -0.03850
  
  S  C  43   0.00816     0.14022    -0.00911    -0.06828    -0.03942     0.05673
 PX  C  43   0.00191     0.02920    -0.00145    -0.00805    -0.00308     0.00415
 PY  C  43   0.00244     0.03495    -0.00170    -0.01157    -0.01638    -0.08056
 PZ  C  43   0.00120     0.01646    -0.00079    -0.00610    -0.01194    -0.06624
  
  S  C  44   0.01261     0.19286    -0.01028    -0.06830    -0.05890    -0.15659
 PX  C  44   0.00264     0.03025    -0.00041     0.00449    -0.00007    -0.06191
 PY  C  44  -0.00064    -0.01443     0.00133     0.01211     0.00541    -0.03606
 PZ  C  44  -0.00157    -0.02374     0.00124     0.00802     0.00405    -0.00729
  
  S  C  45   0.01455     0.17878    -0.00495    -0.01011    -0.02171    -0.22897
 PX  C  45  -0.00053    -0.03235     0.00404     0.03652     0.02651     0.01369
 PY  C  45  -0.00059    -0.00570     0.00008     0.00078     0.00404     0.02369
 PZ  C  45  -0.00072     0.00156    -0.00123    -0.01249    -0.00783     0.00644
  
  S  C  46   0.00032    -0.06548     0.00911     0.07430     0.02556    -0.16358
 PX  C  46  -0.00214    -0.06763     0.00588     0.03933     0.01402    -0.03278
 PY  C  46   0.01116     0.14130    -0.00424    -0.01001    -0.00431    -0.05473
 PZ  C  46   0.00846     0.12074    -0.00489    -0.02035    -0.01109    -0.05035
  
  S  N  47   0.00764     0.00484     0.00687     0.04859    -0.00211    -0.14392
 PX  N  47   0.00792     0.13491    -0.00855    -0.06001    -0.02834     0.06445
 PY  N  47   0.01546     0.18770    -0.00434     0.00575     0.02907     0.07811
 PZ  N  47   0.00497     0.05232     0.00049     0.02427     0.02506     0.00374
  
  S  C  48   0.02900     0.33755    -0.00823    -0.00499     0.04236     0.20129
 PX  C  48  -0.00418    -0.02991    -0.00150    -0.02194    -0.01373     0.02071
 PY  C  48   0.00078     0.02637    -0.00165     0.00011     0.02567     0.12023
 PZ  C  48  -0.00306    -0.04111     0.00195     0.01185     0.00037    -0.04945
  
  S  C  49   0.02416     0.30235    -0.00893    -0.00849     0.06484     0.33432
 PX  C  49   0.00083     0.01528    -0.00106    -0.00711    -0.00066     0.02562
 PY  C  49  -0.00521    -0.05775     0.00124     0.00101    -0.00309    -0.01517
 PZ  C  49   0.00422     0.04813    -0.00087     0.00383     0.01018     0.02866
  
  S  H  50  -0.03077     0.00098    -0.12374     0.03288    -0.02232     0.00154
  
  S  H  51   0.01713    -0.05538    -0.00499    -0.07252    -0.07408     0.06508
  
  S  H  52   0.01841    -0.05832    -0.00501    -0.07032    -0.06961     0.06043
  
  S  H  53   0.01841    -0.05833    -0.00503    -0.07040    -0.06959     0.06042
  
  S  H  54   0.01899    -0.05471    -0.00378    -0.04146    -0.03070     0.02365
  
  S  H  55   0.01898    -0.05474    -0.00384    -0.04176    -0.03063     0.02362
  
  S  H  56   0.00878    -0.01745     0.00023     0.02038     0.03191    -0.03096
  
  S  H  57   0.00885    -0.01744     0.00043     0.02136     0.03158    -0.03073
  
  S  H  58  -0.00773     0.03699     0.00431     0.06365     0.05984    -0.04940
  
  S  H  59  -0.00782     0.03675     0.00363     0.06031     0.06084    -0.04983
  
  S  H  60  -0.02086     0.05842     0.00373     0.03382     0.01167    -0.00539
  
  S  H  61  -0.01967     0.05912     0.00653     0.04776     0.00905    -0.00308
  
  S  H  62  -0.01364     0.04323    -0.00636    -0.06121    -0.03781     0.04750
  
  S  H  63  -0.01409     0.04558     0.00143    -0.02660    -0.05034     0.04946
  
  S  H  64   0.00263    -0.00117     0.01389     0.07806    -0.00254     0.02692
  
  S  H  65  -0.01200     0.01053     0.01144     0.06590    -0.00961    -0.00461
  
  S  H  66   0.12959     0.00063     0.00387    -0.01502     0.09141    -0.01573
  
  S  H  67   0.13020    -0.00708    -0.00171    -0.05407     0.09176    -0.01249
  
  S  H  68   0.12890     0.00516     0.01908     0.02156    -0.02484     0.00477
  
  S  H  69   0.12931     0.00506     0.02148     0.03970    -0.02280     0.00001
  
  S  H  70   0.05781     0.00141     0.02136     0.04757    -0.09783     0.01035
  
  S  H  71   0.05758     0.00111     0.02080     0.04331    -0.09827     0.01128
  
  S  H  72  -0.06153    -0.00068     0.00112     0.01487    -0.05406     0.00752
  
  S  H  73  -0.06157    -0.00071     0.00127     0.01620    -0.05373     0.00710
  
  S  H  74  -0.13084    -0.00294    -0.01849    -0.03041     0.05118    -0.00552
  
  S  H  75  -0.13084    -0.00295    -0.01853    -0.03078     0.05113    -0.00542
  
  S  H  76  -0.11863    -0.00292    -0.02450    -0.05346     0.12342    -0.01493
  
  S  H  77  -0.12746    -0.00306    -0.02470    -0.05189     0.11581    -0.01381
  
  S  H  78  -0.12746    -0.00306    -0.02469    -0.05179     0.11582    -0.01385
  
  S  H  79   0.02050    -0.00117     0.04618    -0.00481    -0.01090     0.00153
  
  S  H  80   0.01164    -0.00229     0.00551    -0.03417     0.04454    -0.00374
  
  S  H  81   0.00106     0.00025     0.09314    -0.03047     0.02938    -0.00243
  
  S  H  82   0.00521     0.07347    -0.00380    -0.02300    -0.02254    -0.09090
  
  S  H  83   0.00161     0.07957    -0.01063    -0.10143    -0.07914    -0.07143
  
  S  H  84   0.00086    -0.00730     0.00691     0.08289     0.07469     0.13263
  
  S  H  85  -0.00136    -0.00817    -0.00022     0.00006     0.01827     0.14132
  
  S  H  86   0.00281     0.05045    -0.00354    -0.02813    -0.01666     0.02917
  
  S  H  87   0.00461     0.07223    -0.00406    -0.02831    -0.02561    -0.06974
  
  S  H  88   0.00710     0.08500    -0.00201     0.00005    -0.00387    -0.09144
  
  S  H  89   0.01245     0.14379    -0.00303     0.00551     0.02497     0.08187
  
  S  H  90   0.01127     0.14226    -0.00503    -0.02003     0.00464     0.08804
  
  S  H  91   0.00968     0.12531    -0.00403    -0.00528     0.02992     0.16121
  
  S  H  92   0.00982     0.12599    -0.00419    -0.00907     0.02340     0.14431
  
  S  H  93   0.01051     0.12894    -0.00343     0.00117     0.03125     0.13825




    ROOT NO.   19          20          21          22          23          24

           -33.33097   -32.85928   -31.90814   -31.20422   -30.72808   -29.98975
  
  
  S  C   1   0.27436     0.03487    -0.09652     0.07687     0.02546    -0.00921
 PX  C   1   0.01857     0.00150     0.00160    -0.00482    -0.00252     0.00166
 PY  C   1  -0.01318    -0.00213     0.00730    -0.00734    -0.00261     0.00048
 PZ  C   1   0.00007    -0.00009    -0.00008    -0.00017    -0.00003    -0.00023
  
  S  C   2   0.09754     0.01027    -0.01241     0.00247    -0.00137     0.00318
 PX  C   2  -0.13012    -0.01687     0.05044    -0.04056    -0.01374     0.00591
 PY  C   2  -0.05786    -0.00844     0.02693    -0.02440    -0.00837     0.00214
 PZ  C   2   0.00026    -0.00031    -0.00026    -0.00053    -0.00007    -0.00068
  
  S  C   3  -0.18447    -0.02650     0.07885    -0.06909    -0.02287     0.00486
 PX  C   3  -0.11359    -0.01324     0.02964    -0.01730    -0.00436     0.00148
 PY  C   3  -0.03502    -0.00427     0.00103     0.00083     0.00175    -0.00443
 PZ  C   3   0.00091    -0.00100    -0.00084    -0.00160    -0.00023    -0.00197
  
  S  C   4  -0.22516    -0.02342     0.05324    -0.02257    -0.00501     0.00608
 PX  C   4   0.08815     0.01553    -0.04525     0.04626     0.01516    -0.00009
 PY  C   4   0.01156     0.00214    -0.02148     0.01903     0.00807    -0.00738
 PZ  C   4   0.00308    -0.00309    -0.00255    -0.00458    -0.00053    -0.00538
  
  S  C   5   0.04379     0.00441    -0.05868     0.04396     0.02010    -0.01892
 PX  C   5   0.13741     0.01915    -0.04191     0.03286     0.00954     0.00406
 PY  C   5   0.08381     0.00204    -0.01951    -0.00826    -0.00161    -0.01201
 PZ  C   5   0.01068    -0.01037    -0.00838    -0.01454    -0.00203    -0.01618
  
  S  C   6   0.25468     0.04661    -0.06879     0.07992     0.02086     0.02650
 PX  C   6  -0.00493     0.00842     0.03538    -0.00784    -0.00894     0.02452
 PY  C   6   0.04493    -0.00619     0.00791    -0.03330    -0.00572    -0.00842
 PZ  C   6   0.02588    -0.03042    -0.02227    -0.03780    -0.00058    -0.03921
  
  S  C   7   0.07487    -0.04535     0.04293    -0.09876     0.00361    -0.00684
 PX  C   7  -0.09257     0.00415     0.05783     0.00737     0.00316     0.03920
 PY  C   7  -0.13786    -0.07530     0.03714    -0.10322     0.00018    -0.04238
 PZ  C   7   0.07947    -0.08178    -0.07255    -0.09704    -0.00668    -0.11000
  
  S  C   8   0.08283    -0.12215    -0.08553    -0.17238    -0.06228    -0.15963
 PX  C   8  -0.04056    -0.02582     0.00832    -0.01146     0.01965    -0.00099
 PY  C   8  -0.04090     0.01847    -0.02590     0.05141    -0.02295     0.01144
 PZ  C   8   0.04532     0.05693    -0.03715     0.07126    -0.03374     0.00974
  
  S  C   9   0.01920    -0.02499    -0.12629     0.08503     0.01647    -0.03167
 PX  C   9  -0.03323    -0.00756     0.00401     0.04533     0.07717     0.02462
 PY  C   9   0.04870     0.10100    -0.03322     0.17856     0.03316     0.08684
 PZ  C   9   0.09564     0.06769    -0.05519     0.07699    -0.05233     0.00812
  
  S  S  10  -0.16857    -0.02189     0.03959     0.05013     0.08344     0.05500
 PX  S  10   0.03197     0.02105    -0.00330     0.01957    -0.00796     0.00492
 PY  S  10   0.10102     0.01133    -0.07020     0.04091     0.00822    -0.02192
 PZ  S  10   0.01242    -0.04774    -0.05013     0.00852     0.04884    -0.02703
  
  S  C  11  -0.22692     0.10503     0.17594     0.07277    -0.00458     0.15055
 PX  C  11  -0.02803     0.02501     0.00791     0.04695    -0.00730     0.01199
 PY  C  11  -0.05472    -0.06432    -0.00937    -0.05814     0.02404    -0.03422
 PZ  C  11   0.03713    -0.13492    -0.00144    -0.13012     0.03245    -0.05427
  
  S  C  12  -0.17581     0.26689     0.01378     0.15962    -0.05495     0.03920
 PX  C  12   0.03313    -0.03432    -0.03321    -0.02183    -0.00226    -0.06569
 PY  C  12  -0.05936     0.01744     0.05470     0.02695    -0.00031     0.06249
 PZ  C  12  -0.03265     0.00384     0.12056     0.07627    -0.00525     0.11853
  
  S  S  13  -0.09280     0.12761    -0.00312     0.07139    -0.02697     0.01512
 PX  S  13  -0.02977     0.04974    -0.03587    -0.00094    -0.00633    -0.02818
 PY  S  13  -0.00185    -0.00637     0.01740     0.00973    -0.00146     0.00784
 PZ  S  13  -0.05680     0.10797    -0.04141     0.02400    -0.01330    -0.00925
  
  S  C  14   0.03016    -0.11875     0.08266    -0.03391     0.03091     0.13128
 PX  C  14   0.02523    -0.02876    -0.05009    -0.07543     0.02207    -0.02054
 PY  C  14  -0.02520     0.04476    -0.00140     0.04353    -0.02098    -0.05045
 PZ  C  14  -0.02425     0.10323    -0.17041    -0.07857     0.00012    -0.14803
  
  S  C  15   0.09230    -0.12465    -0.10741    -0.18694     0.05308    -0.07044
 PX  C  15   0.02381    -0.03437     0.01842     0.00440    -0.00106    -0.01529
 PY  C  15  -0.01702     0.03485    -0.03225    -0.00240    -0.00584    -0.03520
 PZ  C  15   0.01086     0.03803    -0.07928    -0.00875    -0.01656    -0.13283
  
  S  C  16   0.05074    -0.00502    -0.08084    -0.01893    -0.01493    -0.13493
 PX  C  16   0.08164    -0.14099     0.03809    -0.04053     0.01732     0.00198
 PY  C  16  -0.07050     0.09749     0.00125     0.05387    -0.01961     0.00989
 PZ  C  16  -0.00814    -0.00098     0.11099     0.11163    -0.02341     0.09224
  
  S  C  17   0.12420    -0.18115     0.08968     0.02630    -0.00347     0.02997
 PX  C  17  -0.00703    -0.00976    -0.00022    -0.02003     0.00831     0.01554
 PY  C  17  -0.01830     0.03366    -0.00385     0.02275    -0.01137    -0.02406
 PZ  C  17  -0.03474     0.03210     0.03241     0.03328    -0.00376     0.05967
  
  S  C  18   0.02852    -0.06649     0.03978    -0.00762     0.01182     0.06499
 PX  C  18  -0.03593     0.03234    -0.00776    -0.00452     0.00018     0.00426
 PY  C  18   0.06785    -0.09410     0.04084     0.00632     0.00091     0.01601
 PZ  C  18  -0.04908     0.06084    -0.00177     0.01937    -0.00520     0.01931
  
  S  C  19  -0.13005     0.15010    -0.04076     0.00279    -0.00432     0.00057
 PX  C  19  -0.00493     0.01298    -0.01329    -0.00247    -0.00281    -0.02628
 PY  C  19   0.04621    -0.07381     0.04246     0.00545     0.00487     0.04988
 PZ  C  19  -0.01230     0.02665    -0.01436     0.00457    -0.00486    -0.02486
  
  S  C  20  -0.10354     0.14821    -0.07053    -0.00409    -0.00985    -0.07718
[...]
    73       H         10.59563376  *  -0.87376759  *  -1.07836160  *
    74       H         12.45782448  *  -0.42359284  *   0.61489704  *
    75       H         11.25938942  *  -0.26839015  *   1.89106232  *
    76       H         12.20308261  *  -2.59946012  *   1.85043612  *
    77       H         10.48440799  *  -2.66257102  *   1.45991446  *
    78       H         11.68760721  *  -2.81871324  *   0.17813631  *
    79       H          6.59916568  *   5.36356167  *  -6.71694903  *
    80       H          6.31649711  *   4.36170454  *  -9.10091471  *
    81       H          6.73028651  *  -0.71060226  * -12.37101670  *
    82       H          8.54709030  *   8.03214574  *   1.43506092  *
    83       H          8.53752416  *   9.94442310  *   3.00343160  *
    84       H          4.41206201  *   7.14167433  *   2.34850598  *
    85       H          2.50516444  *   8.16533793  *   3.91307054  *
    86       H          1.15148726  *   9.53280816  *   5.50422544  *
    87       H          2.14423599  *  11.46835200  *   6.66331485  *
    88       H          4.51400241  *  12.10993529  *   6.29685482  *
    89       H          6.87634679  *  12.10613641  *   5.82948007  *
    90       H          8.08524818  *  11.51847886  *   4.67777729  *
    91       H          7.23804137  *  13.80368031  *   3.99024284  *
    92       H          6.78650227  *  12.62257407  *   2.75562272  *
    93       H          5.57780013  *  13.20226683  *   3.90473249  *

                             CARTESIAN COORDINATES

   1    C        0.000000000     0.000000000     0.000000000
   2    C        1.519989480     0.000000000     0.000000000
   3    C        2.061067477     1.427561879     0.000000000
   4    C        3.587913745     1.428559337     0.001859321
   5    C        4.126099052     2.857373542    -0.001890862
   6    C        5.655219242     2.855110769     0.005280823
   7    C        6.165858153     4.246015158    -0.001613236
   8    C        5.975264271     5.134222634     1.111935128
   9    C        6.522836420     6.361872473     0.888890794
  10    S        7.269561256     6.470670744    -0.652579608
  11    C        6.853239448     4.841406676    -1.018111502
  12    C        7.229399000     4.257483049    -2.267347493
  13    S        6.274724054     4.508400443    -3.670650773
  14    C        7.344385559     3.565431351    -4.620524389
  15    C        8.389977735     3.073788765    -3.891658353
  16    C        8.321473399     3.475685013    -2.516163974
  17    C        9.350010957     3.079994232    -1.525487966
  18    C        9.347940741     1.563188651    -1.332681487
  19    C       10.397896470     1.152913416    -0.302691208
  20    C       10.403203700    -0.361948095    -0.111747495
  21    C       11.449404840    -0.774315160     0.920786619
  22    C       11.454888170    -2.282535923     1.109482185
  23    C        7.109901771     3.359686773    -6.013921758
  24    C        6.745779190     4.307195121    -6.931095706
  25    C        6.578654351     3.751632537    -8.238109274
  26    C        6.823143316     2.404702764    -8.256350096
  27    S        7.260595581     1.805227657    -6.713917647
  28    C        6.775383840     1.529905677    -9.392505349
  29    C        5.862506605     1.650755675   -10.374857940
  30    C        5.823067034     0.780580597   -11.558909680
  31    O        5.032187787     0.829891290   -12.486210620
  32    O        6.793986212    -0.161735949   -11.576407530
  33    C        4.829312630     2.623619630   -10.339959900
  34    N        3.981542959     3.409771042   -10.324374400
  35    C        6.488914824     7.480290110     1.801507649
  36    C        7.632985899     8.270122869     1.989081639
  37    C        7.637992495     9.341619294     2.866795127
  38    C        6.460815003     9.610633830     3.560610373
  39    C        5.294950617     8.819233355     3.368306652
  40    C        5.309763408     7.748590310     2.492619466
  41    C        4.264695638     9.371884930     4.211239502
  42    C        2.942510021     9.022785523     4.430403022
  43    C        2.198007570     9.787979276     5.316221120
  44    C        2.763029361    10.884517600     5.974456378
  45    C        4.085528637    11.251625470     5.776698826
  46    C        4.834516304    10.481063280     4.891990670
  47    N        6.203172803    10.579614110     4.553443899
  48    C        7.006115387    11.780481600     4.770763383
  49    C        6.632174458    12.904780740     3.807027198
  50    H        7.535780304     0.735373066    -9.417085956
  51    H       -0.409303859    -1.020632213     0.000189708
  52    H       -0.417159777     0.506649365     0.882232378
  53    H       -0.416962810     0.506137707    -0.882643113
  54    H        1.902296996    -0.561436947     0.878699442
  55    H        1.902157035    -0.561191688    -0.878916143
  56    H        1.674710679     1.984448982    -0.879760281
  57    H        1.672335728     1.985343833     0.878122550
  58    H        3.973355204     0.873139668     0.882974839
  59    H        3.974820676     0.867901653    -0.875281601
  60    H        3.750324405     3.412914319    -0.886788299
  61    H        3.735259390     3.421256497     0.871125722
  62    H        6.050555012     2.282846978    -0.861247940
  63    H        6.046853029     2.321165592     0.898300236
  64    H        5.465088330     4.832377282     2.023513871
  65    H        9.199364974     2.465007974    -4.287804345
  66    H       10.346910240     3.434218155    -1.867282523
  67    H        9.183635560     3.596311571    -0.555761341
  68    H        8.339558255     1.220779260    -1.017677307
  69    H        9.531371584     1.046730455    -2.298130682
  70    H       11.403433500     1.506300589    -0.614847496
  71    H       10.208934110     1.662899746     0.665649636
  72    H        9.397461537    -0.716509890     0.198257237
  73    H       10.595633760    -0.873767589    -1.078361602
  74    H       12.457824480    -0.423592844     0.614897038
  75    H       11.259389420    -0.268390147     1.891062322
  76    H       12.203082610    -2.599460124     1.850436124
  77    H       10.484407990    -2.662571022     1.459914457
  78    H       11.687607210    -2.818713244     0.178136312
  79    H        6.599165679     5.363561675    -6.716949034
  80    H        6.316497107     4.361704537    -9.100914709
  81    H        6.730286513    -0.710602257   -12.371016700
  82    H        8.547090299     8.032145743     1.435060923
  83    H        8.537524158     9.944423096     3.003431598
  84    H        4.412062007     7.141674326     2.348505982
  85    H        2.505164435     8.165337933     3.913070537
  86    H        1.151487257     9.532808160     5.504225435
  87    H        2.144235990    11.468352000     6.663314851
  88    H        4.514002411    12.109935290     6.296854818
  89    H        6.876346787    12.106136410     5.829480074
  90    H        8.085248182    11.518478860     4.677777293
  91    H        7.238041371    13.803680310     3.990242842
  92    H        6.786502269    12.622574070     2.755622724
  93    H        5.577800133    13.202266830     3.904732493


           Empirical Formula: C42 H44 N2 O2 S3  =    93 atoms



      MOLECULAR POINT GROUP   :   C1  


                  EIGENVALUES  
 -48.48775 -46.78674 -44.86457 -43.66997 -43.12416 -42.85147 -42.19281 -41.89074
 -41.39363 -39.69899 -39.17218 -38.54729 -38.37520 -37.74608 -36.44370 -35.32531
 -34.33534 -33.99008 -33.33097 -32.85928 -31.90814 -31.20422 -30.72808 -29.98975
 -29.17192 -28.86990 -28.53146 -27.80293 -27.47557 -26.50929 -26.20645 -25.92404
 -25.59873 -25.42178 -24.89808 -24.53867 -24.47597 -24.23184 -23.99210 -23.53969
 -23.19996 -22.46074 -22.23628 -21.48879 -21.14016 -21.05781 -20.72153 -20.58489
 -20.34540 -20.19221 -20.07397 -19.88919 -18.80205 -18.70780 -18.60736 -18.46950
 -18.24544 -18.07472 -17.91596 -17.49640 -17.41397 -17.32521 -17.12322 -16.92015
 -16.78226 -16.71605 -16.37149 -15.98880 -15.91635 -15.82745 -15.77418 -15.65687
 -15.54106 -15.36117 -15.15490 -15.04384 -14.88579 -14.86769 -14.76613 -14.56423
 -14.50645 -14.33071 -14.30271 -14.15041 -14.01245 -13.87594 -13.74105 -13.61073
 -13.54594 -13.49189 -13.39518 -13.33192 -13.26981 -13.16308 -13.11271 -12.89576
 -12.84465 -12.82483 -12.77441 -12.64572 -12.58827 -12.48416 -12.47008 -12.45157
 -12.43930 -12.26924 -12.10159 -12.06344 -11.78845 -11.75841 -11.71262 -11.63287
 -11.52909 -11.00484 -10.93123 -10.33701 -10.02410 -10.01347  -9.61996  -9.54076
  -9.05167  -8.42774  -8.07179  -7.76851  -7.32609  -7.14266  -1.17566   0.04676
   0.15320   0.24132   0.75404   0.89337   1.05680   1.26676   1.52910   1.63532
   1.92558   2.01806   2.15722   2.25220   2.33822   2.38936   2.58937   2.60685
   2.79360   2.89940   3.06695   3.09940   3.25292   3.32832   3.46810   3.54364
   3.57220   3.70082   3.75028   3.81110   3.90696   3.96706   4.11598   4.20922
   4.22429   4.25600   4.27912   4.40343   4.50654   4.61281   4.73984   4.78513
   4.80874   4.98632   5.05350   5.10058   5.29962   5.31233   5.47812   5.48351
   5.65633   5.88365   6.18454   6.21742   6.31293   6.36106   6.59047   6.64739
   6.69725   6.73073   6.75287   6.76559   6.77099   6.78340   6.83304   6.85919
   6.86959   6.96222   6.97339   6.98185   7.00055   7.00695   7.01991   7.08025
   7.09069   7.73920   8.23131   8.29586   8.50030   8.51713   8.60662   8.61928
   8.63778   8.64723   8.68936   8.71065   8.96491   9.03994   9.11582   9.16231
   9.18954   9.28109   9.71970   9.76854  10.03918  10.59976  10.66656  10.76201
  10.80420  10.92283  11.11128  11.49171  11.56845  11.77886  11.96955  12.61106
  12.99615  13.00917  13.16664  13.39700  13.76399  13.96261  14.07232  15.09419


              NET ATOMIC CHARGES AND DIPOLE CONTRIBUTIONS

  ATOM NO.   TYPE          CHARGE      No. of ELECS.   s-Pop       p-Pop       
    1          C          -0.027957        4.0280     1.05492     2.97303
    2          C          -0.006905        4.0069     1.04474     2.96216
    3          C          -0.008609        4.0086     1.05050     2.95811
    4          C          -0.011224        4.0112     1.05248     2.95875
    5          C          -0.004262        4.0043     1.05051     2.95375
    6          C           0.003075        3.9969     1.04351     2.95341
    7          C          -0.006594        4.0066     1.05733     2.94927
    8          C          -0.060230        4.0602     1.08682     2.97340
    9          C           0.031966        3.9680     1.08451     2.88352
   10          S          -0.071390        6.0714     1.77513     4.29626
   11          C           0.006175        3.9938     1.06864     2.92519
   12          C           0.022594        3.9774     1.07110     2.90631
   13          S          -0.058417        6.0584     1.77348     4.28493
   14          C           0.032075        3.9679     1.06949     2.89843
   15          C          -0.036435        4.0364     1.08903     2.94740
   16          C          -0.009870        4.0099     1.05573     2.95414
   17          C           0.003933        3.9961     1.04301     2.95306
   18          C          -0.004821        4.0048     1.05073     2.95409
   19          C          -0.011214        4.0112     1.05247     2.95875
   20          C          -0.008298        4.0083     1.05043     2.95787
   21          C          -0.006837        4.0068     1.04474     2.96210
   22          C          -0.027766        4.0278     1.05489     2.97287
   23          C           0.072841        3.9272     1.07645     2.85071
   24          C          -0.049354        4.0494     1.08287     2.96649
   25          C           0.015654        3.9843     1.09528     2.88906
   26          C           0.010840        3.9892     1.06370     2.92546
   27          S          -0.036690        6.0367     1.77240     4.26429
   28          C           0.134079        3.8659     1.09411     2.77181
   29          C           0.016952        3.9830     1.00227     2.98078
   30          C           0.501707        3.4983     1.04508     2.45321
   31          O          -0.604534        6.6045     1.81534     4.78920
   32          O          -0.310267        6.3103     1.68861     4.62165
   33          C           0.215053        3.7849     1.15256     2.63238
   34          N          -0.401294        5.4013     1.75349     3.64780
   35          C           0.010732        3.9893     1.03897     2.95030
   36          C          -0.029912        4.0299     1.08139     2.94852
   37          C          -0.039561        4.0396     1.07792     2.96164
   38          C           0.074725        3.9253     1.05061     2.87466
   39          C          -0.014649        4.0146     1.05077     2.96388
   40          C          -0.029172        4.0292     1.08107     2.94811
   41          C          -0.016510        4.0165     1.04758     2.96893
   42          C          -0.020925        4.0209     1.07917     2.94175
   43          C          -0.044478        4.0445     1.07753     2.96695
   44          C          -0.024033        4.0240     1.08053     2.94350
   45          C          -0.042990        4.0430     1.07573     2.96726
   46          C           0.077627        3.9224     1.05208     2.87030
   47          N          -0.156419        5.1564     1.26461     3.89181
   48          C           0.080039        3.9200     1.04003     2.87993
   49          C          -0.019872        4.0199     1.05384     2.96604
   50          H           0.068491        0.9315     0.93151
   51          H           0.000414        0.9996     0.99959
   52          H           0.007847        0.9922     0.99215
   53          H           0.007914        0.9921     0.99209
   54          H           0.006342        0.9937     0.99366
   55          H           0.006319        0.9937     0.99368
   56          H           0.007130        0.9929     0.99287
   57          H           0.007194        0.9928     0.99281
   58          H           0.007557        0.9924     0.99244
   59          H           0.007289        0.9927     0.99271
   60          H           0.008182        0.9918     0.99182
   61          H           0.010238        0.9898     0.98976
   62          H           0.006947        0.9931     0.99305
   63          H           0.012976        0.9870     0.98702
   64          H           0.030138        0.9699     0.96986
   65          H           0.034425        0.9656     0.96557
   66          H           0.013288        0.9867     0.98671
   67          H           0.006712        0.9933     0.99329
   68          H           0.009407        0.9906     0.99059
   69          H           0.010542        0.9895     0.98946
   70          H           0.007216        0.9928     0.99278
   71          H           0.007219        0.9928     0.99278
   72          H           0.007325        0.9927     0.99267
   73          H           0.007137        0.9929     0.99286
   74          H           0.006143        0.9939     0.99386
   75          H           0.006255        0.9937     0.99375
   76          H           0.000248        0.9998     0.99975
   77          H           0.007892        0.9921     0.99211
   78          H           0.007786        0.9922     0.99221
   79          H           0.038219        0.9618     0.96178
   80          H           0.047709        0.9523     0.95229
   81          H           0.247185        0.7528     0.75281
   82          H           0.021211        0.9788     0.97879
   83          H           0.027188        0.9728     0.97281
   84          H           0.026307        0.9737     0.97369
   85          H           0.023913        0.9761     0.97609
   86          H           0.016696        0.9833     0.98330
   87          H           0.018896        0.9811     0.98110
   88          H           0.026483        0.9735     0.97352
   89          H           0.018332        0.9817     0.98167
   90          H           0.020202        0.9798     0.97980
   91          H           0.006751        0.9932     0.99325
   92          H           0.012560        0.9874     0.98744
   93          H           0.013196        0.9868     0.98680
 DIPOLE           X         Y         Z       TOTAL
 POINT-CHG.     7.393    -0.194     7.378    10.446
 HYBRID         0.989    -1.282    -0.359     1.658
 SUM            8.383    -1.476     7.019    11.032


          ATOMIC ORBITAL ELECTRON POPULATIONS

     Atom    s        px        py        pz   
    1  C   1.05492   0.99078   0.98895   0.99330
    2  C   1.04474   0.99090   0.98534   0.98593
    3  C   1.05050   0.99049   0.98035   0.98727
    4  C   1.05248   0.99054   0.98093   0.98727
    5  C   1.05051   0.98049   0.98457   0.98868
    6  C   1.04351   0.99221   0.97639   0.98481
    7  C   1.05733   0.98767   0.96940   0.99220
    8  C   1.08682   1.02341   0.99244   0.95755
    9  C   1.08451   0.98183   0.99181   0.90989
   10  S   1.77513   1.73629   1.27304   1.28693
   11  C   1.06864   1.04596   0.90435   0.97488
   12  C   1.07110   0.98136   1.01945   0.90550
   13  S   1.77348   1.43203   1.67379   1.17911
   14  C   1.06949   0.97475   0.99447   0.92921
   15  C   1.08903   0.97455   0.99305   0.97980
   16  C   1.05573   0.98092   0.99483   0.97839
   17  C   1.04301   0.98111   0.99158   0.98037
   18  C   1.05073   0.98673   0.97840   0.98895
   19  C   1.05247   0.98376   0.98885   0.98613
   20  C   1.05043   0.98362   0.98861   0.98564
   21  C   1.04474   0.98565   0.98831   0.98814
   22  C   1.05489   0.99090   0.99137   0.99060
   23  C   1.07645   0.97005   0.92438   0.95628
   24  C   1.08287   1.04247   0.93526   0.98876
   25  C   1.09528   0.93873   0.97977   0.97056
   26  C   1.06370   1.06095   0.97178   0.89273
   27  S   1.77240   1.84025   1.24383   1.18021
   28  C   1.09411   0.90803   0.91905   0.94473
   29  C   1.00227   1.01172   1.00022   0.96884
   30  C   1.04508   0.77931   0.79648   0.87742
   31  O   1.81534   1.51562   1.80224   1.47133
   32  O   1.68861   1.59192   1.47111   1.55862
   33  C   1.15256   0.90490   0.89716   0.83033
   34  N   1.75349   1.22443   1.21959   1.20379
   35  C   1.03897   0.98582   0.97603   0.98845
   36  C   1.08139   0.95953   0.99042   0.99857
   37  C   1.07792   0.95047   0.99214   1.01903
   38  C   1.05061   0.98903   0.95516   0.93047
   39  C   1.05077   0.98609   0.98372   0.99407
   40  C   1.08107   0.96231   0.98568   1.00011
   41  C   1.04758   0.96007   1.00056   1.00830
   42  C   1.07917   0.98561   0.96669   0.98946
   43  C   1.07753   0.94886   1.00343   1.01466
   44  C   1.08053   0.98186   0.98306   0.97858
   45  C   1.07573   0.98521   0.97966   1.00239
   46  C   1.05208   0.88599   0.99958   0.98472
   47  N   1.26461   1.17029   1.24584   1.47568
   48  C   1.04003   0.95526   0.93312   0.99156
   49  C   1.05384   0.99673   0.97976   0.98955
   50  H   0.93151
   51  H   0.99959
   52  H   0.99215
   53  H   0.99209
   54  H   0.99366
   55  H   0.99368
   56  H   0.99287
   57  H   0.99281
   58  H   0.99244
   59  H   0.99271
   60  H   0.99182
   61  H   0.98976
   62  H   0.99305
   63  H   0.98702
   64  H   0.96986
   65  H   0.96557
   66  H   0.98671
   67  H   0.99329
   68  H   0.99059
   69  H   0.98946
   70  H   0.99278
   71  H   0.99278
   72  H   0.99267
   73  H   0.99286
   74  H   0.99386
   75  H   0.99375
   76  H   0.99975
   77  H   0.99211
   78  H   0.99221
   79  H   0.96178
   80  H   0.95229
   81  H   0.75281
   82  H   0.97879
   83  H   0.97281
   84  H   0.97369
   85  H   0.97609
   86  H   0.98330
   87  H   0.98110
   88  H   0.97352
   89  H   0.98167
   90  H   0.97980
   91  H   0.99325
   92  H   0.98744
   93  H   0.98680

 **********************
 *                    *
 * JOB ENDED NORMALLY *
 *                    *
 **********************



 TOTAL JOB TIME:           523.64 SECONDS

 == MOPAC DONE ==
