 *******************************************************************************
 ** Site#: 4824         For non-commercial use only    Version 21.013L 64BITS **
 *******************************************************************************
 ** Cite this program as: MOPAC2016, Version: 21.013L, James J. P. Stewart,   **
 ** Stewart Computational Chemistry, web: HTTP://OpenMOPAC.net. Days left:  84**
 *******************************************************************************
 **                                                                           **
 **                                MOPAC2016                                  **
 **                                                                           **
 *******************************************************************************

                              INDO CALCULATION RESULTS

 *******************************************************************************
 *  CALCULATION DONE:                                Thu Oct 21 22:40:28 2021  *
 *  INDO       - The INDO Hamiltonian to be used
 *  CIS        - C.I. USES 1 ELECTRON EXCITATIONS ONLY
 *  EPS=  7.58 - USE ANDREAS KLAMT'S COSMO IMPLICIT SOLVATION MODEL
 *  n**2 =  1.400 for COSMO-CI
 *  T=         - A TIME OF 172800.0 SECONDS REQUESTED
 *  DUMP=N     - RESTART FILE WRITTEN EVERY 7200.0 SECONDS REQUESTED
 *******************************************************************************
INDO CIS EPS=7.58 N**2=1.40
 Dye92
 Calculo de Estados Excitados
   ATOM   CHEMICAL          X               Y               Z
  NUMBER   SYMBOL      (ANGSTROMS)     (ANGSTROMS)     (ANGSTROMS)
 
     1       C          0.00000000  *   0.00000000  *   0.00000000  *
     2       C          1.52064362  *   0.00000000  *   0.00000000  *
     3       C          2.05763013  *   1.42833643  *   0.00000000  *
     4       C          3.58438691  *   1.47123304  *  -0.03407017  *
     5       C          4.20056681  *   1.15417957  *   1.33244689  *
     6       C          5.73384793  *   1.08714400  *   1.21753678  *
     7       N          6.15789801  *  -0.11756412  *   0.44776371  *
     8       N          5.92736437  *  -1.37306383  *   0.91639255  *
     9       C          6.44954795  *  -2.17594523  *  -0.06449369  *
    10       C          6.98583377  *  -1.32964006  *  -1.11133174  *
    11       N          6.78173927  *  -0.02108090  *  -0.75750535  *
    12       C          7.59351257  *  -1.91772452  *  -2.24684950  *
    13       C          8.17601491  *  -1.26268905  *  -3.37698243  *
    14       C          8.66608227  *  -2.16837891  *  -4.27366787  *
    15       S          8.43188366  *  -3.80358414  *  -3.77207603  *
    16       C          7.66393589  *  -3.30353940  *  -2.33059049  *
    17       C          7.14195261  *  -4.12732849  *  -1.31190072  *
    18       C          6.53584656  *  -3.58403715  *  -0.18529415  *
    19       C          6.06725110  *  -4.58216925  *   0.72698796  *
    20       C          6.33420487  *  -5.83715258  *   0.26641832  *
    21       S          7.14486686  *  -5.83539959  *  -1.25434206  *
    22       C          6.00920783  *  -7.07114300  *   0.94588169  *
    23       C          5.54658519  *  -8.17326391  *   0.20908617  *
    24       C          5.22846860  *  -9.36607516  *   0.83735860  *
    25       C          5.36658918  *  -9.44881051  *   2.21379605  *
    26       C          5.82164597  *  -8.32358734  *   2.95414834  *
    27       C          6.15950459  *  -7.12689799  *   2.32715238  *
    28       N          5.88396944  *  -8.66443657  *   4.31740643  *
    29       C          6.23187252  *  -7.73395703  *   5.38643003  *
    30       C          5.22972477  *  -6.56066853  *   5.52189822  *
    31       C          6.01027650  *  -5.27610250  *   5.84061332  *
    32       C          5.09812803  *  -4.05158634  *   5.80643410  *
    33       C          5.86501392  *  -2.79215735  *   6.20052714  *
    34       C          4.95698908  *  -1.57398626  *   6.15503640  *
    35       C          4.20868006  *  -6.82234283  *   6.63429033  *
    36       C          3.19151114  *  -7.87948986  *   6.24551479  *
    37       C          5.46846403  * -10.00291695  *   4.44702892  *
    38       C          5.14619107  * -10.51186090  *   3.15795487  *
    39       C          4.72354901  * -11.82353840  *   3.00920997  *
    40       C          4.62935471  * -12.61828471  *   4.14036161  *
    41       C          4.95667564  * -12.11464415  *   5.40414037  *
    42       C          5.38105027  * -10.80812445  *   5.58213142  *
    43       C          9.31393859  *  -1.87699855  *  -5.51110228  *
    44       C         10.36854787  *  -2.57100645  *  -6.05584247  *
    45       C         10.76961582  *  -2.01879116  *  -7.30111828  *
    46       C         10.00797790  *  -0.92304164  *  -7.65561440  *
    47       S          8.81874690  *  -0.58219836  *  -6.49028717  *
    48       C         10.22788696  *  -0.20022932  *  -8.87005301  *
    49       C          9.60011273  *   0.93539042  *  -9.24346357  *
    50       C          9.94268460  *   1.55347617  * -10.53040736  *
    51       O         10.76318613  *   1.14577003  * -11.34101570  *
    52       O          9.25398282  *   2.68189837  * -10.79630773  *
    53       C          8.61697158  *   1.58631774  *  -8.46018835  *
    54       N          7.81112259  *   2.13947751  *  -7.84121989  *
    55       C          3.83752697  *   2.25319418  *   2.33854978  *
    56       C          4.16545510  *   1.85439812  *   3.76730943  *
    57       H         10.98810066  *  -0.63463772  *  -9.54179354  *
    58       H         -0.40844119  *  -1.02101021  *   0.00378106  *
    59       H         -0.41766450  *   0.50920745  *   0.88050014  *
    60       H         -0.41796336  *   0.50200958  *  -0.88453411  *
    61       H          1.89843608  *  -0.56745377  *   0.87592984  *
    62       H          1.90161984  *  -0.55993108  *  -0.88039594  *
    63       H          1.65200662  *   1.98061035  *  -0.87492143  *
    64       H          1.67515775  *   1.98856714  *   0.88336608  *
    65       H          3.96460830  *   0.77586014  *  -0.81126460  *
    66       H          3.92290834  *   2.47339464  *  -0.37673671  *
    67       H          3.80917926  *   0.17261047  *   1.70369828  *
    68       H          6.15053834  *   1.99635341  *   0.72357985  *
    69       H          6.21828118  *   1.02886931  *   2.22061341  *
    70       H          8.21327687  *  -0.17905660  *  -3.47206355  *
    71       H          5.55523929  *  -4.33634025  *   1.65479576  *
    72       H          5.42797336  *  -8.08806393  *  -0.87481709  *
    73       H          4.87423410  * -10.22909478  *   0.26774617  *
    74       H          6.54075012  *  -6.27489471  *   2.89422028  *
    75       H          6.33158527  *  -8.29100134  *   6.34509975  *
    76       H          7.26295454  *  -7.35905071  *   5.17390694  *
    77       H          4.67912570  *  -6.41162722  *   4.55723977  *
    78       H          6.50818817  *  -5.36656058  *   6.82900685  *
    79       H          6.84240814  *  -5.13219385  *   5.11818416  *
    80       H          4.65231256  *  -3.92987489  *   4.79642392  *
    81       H          4.22545669  *  -4.20189813  *   6.48187194  *
    82       H          6.30369410  *  -2.90382564  *   7.21475091  *
    83       H          6.73870046  *  -2.64262007  *   5.53131137  *
    84       H          4.09944885  *  -1.66713662  *   6.83694028  *
    85       H          5.49006714  *  -0.65620256  *   6.44291772  *
    86       H          4.54602508  *  -1.39663764  *   5.15027216  *
    87       H          4.71634782  *  -7.10019032  *   7.58238404  *
    88       H          3.67679419  *  -5.87405544  *   6.88318592  *
    89       H          2.64591361  *  -7.61948683  *   5.32677763  *
    90       H          3.64736290  *  -8.86453114  *   6.07481625  *
    91       H          2.43301071  *  -8.01965681  *   7.03010333  *
    92       H          4.47478894  * -12.21174855  *   2.01839337  *
    93       H          4.29719137  * -13.65585521  *   4.04830432  *
    94       H          4.87561885  * -12.77282632  *   6.27518992  *
    95       H          5.63653790  * -10.43681552  *   6.57612579  *
    96       H         10.85396871  *  -3.43088869  *  -5.60050684  *
    97       H         11.58965558  *  -2.42457478  *  -7.89121055  *
    98       H          9.51226740  *   3.05307136  * -11.65242650  *
    99       H          4.33899139  *   3.20913087  *   2.07730003  *
   100       H          2.74936462  *   2.48140698  *   2.25585446  *
   101       H          5.24367666  *   1.72458480  *   3.94013037  *
   102       H          3.82835646  *   2.61587369  *   4.48634424  *
   103       H          3.68318819  *   0.91063239  *   4.06210905  *
 


          CARTESIAN COORDINATES 

    NO.       ATOM           X           Y           Z

     1         C          0.0000      0.0000      0.0000
     2         C          1.5206      0.0000      0.0000
     3         C          2.0576      1.4283      0.0000
     4         C          3.5844      1.4712     -0.0341
     5         C          4.2006      1.1542      1.3324
     6         C          5.7338      1.0871      1.2175
     7         N          6.1579     -0.1176      0.4478
     8         N          5.9274     -1.3731      0.9164
     9         C          6.4495     -2.1759     -0.0645
    10         C          6.9858     -1.3296     -1.1113
    11         N          6.7817     -0.0211     -0.7575
    12         C          7.5935     -1.9177     -2.2468
    13         C          8.1760     -1.2627     -3.3770
    14         C          8.6661     -2.1684     -4.2737
    15         S          8.4319     -3.8036     -3.7721
    16         C          7.6639     -3.3035     -2.3306
    17         C          7.1420     -4.1273     -1.3119
    18         C          6.5358     -3.5840     -0.1853
    19         C          6.0673     -4.5822      0.7270
    20         C          6.3342     -5.8372      0.2664
    21         S          7.1449     -5.8354     -1.2543
    22         C          6.0092     -7.0711      0.9459
    23         C          5.5466     -8.1733      0.2091
    24         C          5.2285     -9.3661      0.8374
    25         C          5.3666     -9.4488      2.2138
    26         C          5.8216     -8.3236      2.9541
    27         C          6.1595     -7.1269      2.3272
    28         N          5.8840     -8.6644      4.3174
    29         C          6.2319     -7.7340      5.3864
    30         C          5.2297     -6.5607      5.5219
    31         C          6.0103     -5.2761      5.8406
    32         C          5.0981     -4.0516      5.8064
    33         C          5.8650     -2.7922      6.2005
    34         C          4.9570     -1.5740      6.1550
    35         C          4.2087     -6.8223      6.6343
    36         C          3.1915     -7.8795      6.2455
    37         C          5.4685    -10.0029      4.4470
    38         C          5.1462    -10.5119      3.1580
    39         C          4.7235    -11.8235      3.0092
    40         C          4.6294    -12.6183      4.1404
    41         C          4.9567    -12.1146      5.4041
    42         C          5.3811    -10.8081      5.5821
    43         C          9.3139     -1.8770     -5.5111
    44         C         10.3685     -2.5710     -6.0558
    45         C         10.7696     -2.0188     -7.3011
    46         C         10.0080     -0.9230     -7.6556
    47         S          8.8187     -0.5822     -6.4903
    48         C         10.2279     -0.2002     -8.8701
    49         C          9.6001      0.9354     -9.2435
    50         C          9.9427      1.5535    -10.5304
    51         O         10.7632      1.1458    -11.3410
    52         O          9.2540      2.6819    -10.7963
    53         C          8.6170      1.5863     -8.4602
    54         N          7.8111      2.1395     -7.8412
    55         C          3.8375      2.2532      2.3385
    56         C          4.1655      1.8544      3.7673
    57         H         10.9881     -0.6346     -9.5418
    58         H         -0.4084     -1.0210      0.0038
    59         H         -0.4177      0.5092      0.8805
    60         H         -0.4180      0.5020     -0.8845
    61         H          1.8984     -0.5675      0.8759
    62         H          1.9016     -0.5599     -0.8804
    63         H          1.6520      1.9806     -0.8749
    64         H          1.6752      1.9886      0.8834
    65         H          3.9646      0.7759     -0.8113
    66         H          3.9229      2.4734     -0.3767
    67         H          3.8092      0.1726      1.7037
    68         H          6.1505      1.9964      0.7236
    69         H          6.2183      1.0289      2.2206
    70         H          8.2133     -0.1791     -3.4721
    71         H          5.5552     -4.3363      1.6548
    72         H          5.4280     -8.0881     -0.8748
    73         H          4.8742    -10.2291      0.2677
    74         H          6.5408     -6.2749      2.8942
    75         H          6.3316     -8.2910      6.3451
    76         H          7.2630     -7.3591      5.1739
    77         H          4.6791     -6.4116      4.5572
    78         H          6.5082     -5.3666      6.8290
    79         H          6.8424     -5.1322      5.1182
    80         H          4.6523     -3.9299      4.7964
    81         H          4.2255     -4.2019      6.4819
    82         H          6.3037     -2.9038      7.2148
    83         H          6.7387     -2.6426      5.5313
    84         H          4.0994     -1.6671      6.8369
    85         H          5.4901     -0.6562      6.4429
    86         H          4.5460     -1.3966      5.1503
    87         H          4.7163     -7.1002      7.5824
    88         H          3.6768     -5.8741      6.8832
    89         H          2.6459     -7.6195      5.3268
    90         H          3.6474     -8.8645      6.0748
    91         H          2.4330     -8.0197      7.0301
    92         H          4.4748    -12.2117      2.0184
    93         H          4.2972    -13.6559      4.0483
    94         H          4.8756    -12.7728      6.2752
    95         H          5.6365    -10.4368      6.5761
    96         H         10.8540     -3.4309     -5.6005
    97         H         11.5897     -2.4246     -7.8912
    98         H          9.5123      3.0531    -11.6524
    99         H          4.3390      3.2091      2.0773
   100         H          2.7494      2.4814      2.2559
   101         H          5.2437      1.7246      3.9401
   102         H          3.8284      2.6159      4.4863
   103         H          3.6832      0.9106      4.0621

           Empirical Formula: C46 H47 N5 O2 S3  =   103 atoms



      MOLECULAR POINT GROUP   :   C1  


      RHF CALCULATION, NO. OF DOUBLY OCCUPIED LEVELS = 143

 WARNING: INDO only performs single-point calculations

 Summary of symmetry occupancy in each shell:

 SHELL     
    1  143
    v  128
 TOTAL 271




    ROOT NO.    1           2           3           4           5           6

           -50.82911   -48.70515   -46.74025   -44.91476   -44.14357   -44.08760
  
  
  S  C   1   0.00578    -0.00010    -0.00004    -0.05024     0.08220     0.07152
 PX  C   1   0.00285    -0.00004    -0.00002    -0.02040     0.03227     0.02800
 PY  C   1   0.00073    -0.00001    -0.00001    -0.00579     0.00907     0.00787
 PZ  C   1   0.00021    -0.00000    -0.00000    -0.00097     0.00132     0.00114
  
  S  C   2   0.01655    -0.00025    -0.00010    -0.09907     0.15298     0.13251
 PX  C   2   0.00536    -0.00007    -0.00002    -0.01412     0.01724     0.01461
 PY  C   2   0.00435    -0.00007    -0.00003    -0.02614     0.03937     0.03403
 PZ  C   2   0.00121    -0.00002    -0.00001    -0.00470     0.00625     0.00537
  
  S  C   3   0.02637    -0.00039    -0.00014    -0.13915     0.20643     0.17825
 PX  C   3   0.00994    -0.00013    -0.00004    -0.03076     0.03936     0.03353
 PY  C   3  -0.00334     0.00004     0.00002     0.01512    -0.02337    -0.02023
 PZ  C   3   0.00297    -0.00004    -0.00002    -0.01392     0.01907     0.01642
  
  S  C   4   0.05984    -0.00078    -0.00023    -0.17988     0.23773     0.20301
 PX  C   4   0.01624    -0.00017    -0.00003     0.00058    -0.01637    -0.01536
 PY  C   4  -0.01051     0.00011     0.00002     0.01010    -0.00938    -0.00763
 PZ  C   4   0.01405    -0.00019    -0.00006    -0.04538     0.05785     0.04934
  
  S  C   5   0.09457    -0.00115    -0.00033    -0.22384     0.27147     0.23040
 PX  C   5   0.02770    -0.00029    -0.00005    -0.00457    -0.01706    -0.01670
 PY  C   5  -0.01119     0.00008    -0.00000    -0.01985     0.03719     0.03287
 PZ  C   5  -0.01450     0.00018     0.00003     0.01235    -0.01020    -0.00760
  
  S  C   6   0.16835    -0.00183    -0.00039    -0.17339     0.14360     0.11521
 PX  C   6   0.00958    -0.00005     0.00003     0.04176    -0.06654    -0.05801
 PY  C   6  -0.07184     0.00070     0.00011     0.01672     0.01767     0.01880
 PZ  C   6  -0.04651     0.00048     0.00007     0.01246     0.00874     0.01003
  
  S  N   7   0.51132    -0.00470    -0.00071    -0.13246    -0.03822    -0.05145
 PX  N   7   0.03927    -0.00030    -0.00000     0.02287    -0.03856    -0.03334
 PY  N   7  -0.13133     0.00093     0.00009    -0.02818     0.06561     0.05845
 PZ  N   7  -0.08274     0.00069     0.00004    -0.01941     0.04392     0.03854
  
  S  N   8   0.38656    -0.00247    -0.00041    -0.02256    -0.06280    -0.06315
 PX  N   8   0.08099    -0.00053    -0.00006     0.00837    -0.02523    -0.02289
 PY  N   8   0.10460    -0.00155    -0.00022    -0.05669    -0.00651    -0.01212
 PZ  N   8  -0.16035     0.00110     0.00013    -0.00709     0.03925     0.03641
  
  S  C   9   0.30166     0.00115     0.00030     0.17098    -0.02123    -0.00322
 PX  C   9  -0.01016     0.00039     0.00016     0.03594     0.01053     0.01486
 PY  C   9   0.16463    -0.00330    -0.00036    -0.07538    -0.06628    -0.06735
 PZ  C   9   0.01514    -0.00060    -0.00030    -0.06407    -0.02069    -0.02845
  
  S  C  10   0.30138    -0.00064     0.00060     0.17128    -0.03010    -0.00261
 PX  C  10  -0.07049     0.00067     0.00023     0.02378     0.02283     0.02585
 PY  C  10   0.06906    -0.00181    -0.00043    -0.09193    -0.04554    -0.05380
 PZ  C  10   0.13269    -0.00122    -0.00043    -0.04046    -0.04450    -0.04958
  
  S  N  11   0.38388    -0.00327    -0.00026    -0.01471    -0.07647    -0.07119
 PX  N  11  -0.07066     0.00070     0.00014     0.02422     0.00778     0.01054
 PY  N  11  -0.13794     0.00099     0.00002    -0.02550     0.04114     0.03444
 PZ  N  11   0.13758    -0.00135    -0.00026    -0.03969    -0.02364    -0.02758
  
  S  C  12   0.08552     0.00168     0.00213     0.29438     0.07000     0.11689
 PX  C  12  -0.01893    -0.00009     0.00028    -0.00047     0.00698     0.00923
 PY  C  12   0.00605    -0.00085    -0.00037    -0.06644    -0.02662    -0.03438
 PZ  C  12   0.03594     0.00020    -0.00050     0.00363    -0.01266    -0.01655
  
  S  C  13   0.02806     0.00066     0.00296     0.18765     0.05657     0.09393
 PX  C  13  -0.00559    -0.00006     0.00034    -0.01101    -0.00057    -0.00162
 PY  C  13  -0.00546    -0.00035    -0.00090    -0.07539    -0.02512    -0.03933
 PZ  C  13   0.01088     0.00013    -0.00057     0.02383     0.00194     0.00451
  
  S  C  14   0.01319     0.00057     0.00552     0.16722     0.05984     0.09698
 PX  C  14  -0.00295    -0.00012     0.00089    -0.02575    -0.00676    -0.01047
 PY  C  14   0.00050    -0.00003     0.00045     0.00138     0.00063     0.00172
 PZ  C  14   0.00560     0.00024    -0.00145     0.04991     0.01339     0.02081
  
  S  S  15   0.01210     0.00075     0.00219     0.13590     0.04648     0.07165
 PX  S  15  -0.00266    -0.00019     0.00011    -0.02363    -0.00729    -0.01048
 PY  S  15   0.00569     0.00027     0.00129     0.07228     0.02446     0.03924
 PZ  S  15   0.00487     0.00035    -0.00016     0.04298     0.01331     0.01910
  
  S  C  16   0.05063     0.00293     0.00190     0.29502     0.08855     0.12822
 PX  C  16  -0.00906    -0.00061     0.00011    -0.02252    -0.00520    -0.00478
 PY  C  16   0.01467    -0.00013     0.00059     0.06311     0.01347     0.02698
 PZ  C  16   0.01669     0.00115    -0.00022     0.04041     0.00923     0.00800
  
  S  C  17   0.05051     0.00818     0.00099     0.29851     0.10714     0.12020
 PX  C  17  -0.00397    -0.00157     0.00001    -0.02349    -0.01135    -0.00818
 PY  C  17   0.02265    -0.00099     0.00033     0.06232     0.00701     0.02068
 PZ  C  17   0.00674     0.00302    -0.00004     0.04206     0.02092     0.01463
  
  S  C  18   0.08550     0.01000     0.00077     0.30010     0.09855     0.10642
 PX  C  18   0.00288     0.00005     0.00013     0.03025     0.00914     0.01260
 PY  C  18   0.04047    -0.00424    -0.00000    -0.02124    -0.03478    -0.02350
 PZ  C  18  -0.00659     0.00022    -0.00024    -0.05622    -0.01664    -0.02322
  
  S  C  19   0.02809     0.02016     0.00038     0.19904     0.09824     0.07941
 PX  C  19   0.00409     0.00141     0.00008     0.03853     0.01703     0.01594
 PY  C  19   0.00968    -0.00792     0.00001    -0.00409    -0.01752    -0.00370
 PZ  C  19  -0.00797    -0.00084    -0.00016    -0.07123    -0.03138    -0.02839
  
  S  C  20   0.01351     0.03687     0.00032     0.18513     0.12283     0.06799
 PX  C  20   0.00059    -0.00381     0.00002     0.00546    -0.00219     0.00428
 PY  C  20   0.00602    -0.00994     0.00012     0.05192     0.00854     0.02948
 PZ  C  20  -0.00122     0.00921    -0.00004    -0.01064     0.00327    -0.00655
  
  S  S  21   0.01212     0.01183     0.00032     0.14232     0.07464     0.05801
 PX  S  21  -0.00183    -0.00366    -0.00005    -0.02826    -0.01777    -0.01067
 PY  S  21   0.00702     0.00059     0.00019     0.07042     0.02738     0.03171
 PZ  S  21   0.00317     0.00641     0.00008     0.04961     0.03089     0.01913
  
  S  C  22   0.00443     0.10359     0.00012     0.11218     0.14319     0.00453
 PX  C  22   0.00028    -0.00791     0.00001     0.00208    -0.00605     0.00632
 PY  C  22   0.00144    -0.03111     0.00004     0.01286    -0.01857     0.02498
 PZ  C  22  -0.00035     0.02653    -0.00001    -0.00319     0.00638    -0.00464
  
  S  C  23   0.00190     0.09140     0.00006     0.06935     0.12222    -0.02385
 PX  C  23   0.00025     0.00432     0.00001     0.00711     0.00755     0.00171
 PY  C  23   0.00064    -0.00349     0.00002     0.01414     0.00567     0.01104
 PZ  C  23   0.00043     0.04461     0.00001     0.01970     0.04433    -0.01412
  
  S  C  24   0.00101     0.12072     0.00002     0.04311     0.11562    -0.05304
 PX  C  24   0.00016     0.01491     0.00000     0.00695     0.01477    -0.00419
 PY  C  24   0.00041     0.02571     0.00001     0.01926     0.03361    -0.00365
 PZ  C  24   0.00021     0.05252    -0.00000     0.00500     0.02818    -0.02205
  
  S  C  25   0.00131     0.29168    -0.00001     0.02267     0.13133    -0.10624
 PX  C  25   0.00014     0.02426     0.00000     0.00306     0.00743    -0.00199
 PY  C  25   0.00037     0.03377     0.00001     0.01664     0.02178     0.00837
 PZ  C  25   0.00013     0.10567    -0.00002    -0.02048    -0.00973    -0.02552
  
  S  C  26   0.00180     0.36697    -0.00001     0.01951     0.07607    -0.04197
 PX  C  26  -0.00002    -0.02101     0.00000     0.00094    -0.01007     0.01308
 PY  C  26   0.00002    -0.09039     0.00002     0.01308    -0.02402     0.05035
 PZ  C  26  -0.00014     0.08211    -0.00003    -0.03253    -0.06617     0.02220
  
  S  C  27   0.00270     0.15900     0.00006     0.06626     0.08667     0.01192
 PX  C  27  -0.00011    -0.02148    -0.00000    -0.00471    -0.01236     0.00436
 PY  C  27   0.00029    -0.06376     0.00001    -0.00064    -0.02585     0.02018
 PZ  C  27  -0.00082     0.01740    -0.00003    -0.03113    -0.05270     0.01461
  
  S  N  28   0.00143     0.47611    -0.00006    -0.03711    -0.05755     0.01711
 PX  N  28  -0.00008    -0.03397     0.00001     0.00268    -0.00584     0.01148
 PY  N  28  -0.00004    -0.04438     0.00001     0.00430    -0.04409     0.06316
 PZ  N  28  -0.00025    -0.06778     0.00000    -0.00391    -0.04875     0.04961
  
  S  C  29   0.00075     0.22547    -0.00003    -0.02728    -0.17097     0.16941
 PX  C  29  -0.00013    -0.04181     0.00001     0.00606     0.04023    -0.04022
 PY  C  29  -0.00006    -0.04256     0.00001     0.00311    -0.03479     0.04877
 PZ  C  29  -0.00025    -0.06959     0.00001     0.00325    -0.00312     0.00765
  
  S  C  30   0.00062     0.15017    -0.00002    -0.02555    -0.26175     0.28553
 PX  C  30   0.00007     0.01424    -0.00000    -0.00070    -0.00529     0.00586
 PY  C  30  -0.00005    -0.03398     0.00001     0.00278    -0.01044     0.01811
 PZ  C  30  -0.00008    -0.00945    -0.00000    -0.00317    -0.03334     0.03576
  
  S  C  31   0.00046     0.07802    -0.00001    -0.01760    -0.22704     0.25700
 PX  C  31  -0.00007    -0.01328     0.00000     0.00385     0.04715    -0.05292
 PY  C  31  -0.00004    -0.02215     0.00000     0.00267     0.01955    -0.01894
 PZ  C  31  -0.00008    -0.00700    -0.00000    -0.00034     0.00242    -0.00364
  
  S  C  32   0.00045     0.04288    -0.00001    -0.01352    -0.18608     0.21566
 PX  C  32   0.00005     0.00521    -0.00000    -0.00156    -0.02376     0.02775
 PY  C  32   0.00001    -0.01420     0.00000     0.00240     0.03188    -0.03403
 PZ  C  32  -0.00005     0.00002    -0.00000    -0.00092    -0.00801     0.00880
  
  S  C  33   0.00044     0.01960    -0.00000    -0.00903    -0.11883     0.14198
 PX  C  33  -0.00008    -0.00275     0.00000     0.00155     0.01843    -0.02237
 PY  C  33   0.00003    -0.00705     0.00000     0.00167     0.02932    -0.03255
 PZ  C  33  -0.00009    -0.00172     0.00000     0.00058     0.00796    -0.00980
  
  S  C  34   0.00064     0.00853    -0.00000    -0.00656    -0.06298     0.08070
 PX  C  34  -0.00001     0.00116    -0.00000    -0.00048    -0.00927     0.01065
 PY  C  34   0.00007    -0.00383     0.00000     0.00127     0.02562    -0.02899
 PZ  C  34  -0.00021    -0.00026     0.00000     0.00066     0.00041    -0.00214
  
  S  C  35   0.00032     0.08965    -0.00002    -0.02057    -0.20531     0.22162
 PX  C  35   0.00007     0.01870    -0.00000    -0.00334    -0.03406     0.03722
 PY  C  35  -0.00000    -0.00842     0.00000     0.00079    -0.00833     0.01235
 PZ  C  35  -0.00010    -0.02604     0.00000     0.00450     0.04283    -0.04608
  
  S  C  36   0.00019     0.06260    -0.00001    -0.01358    -0.11509     0.11983
 PX  C  36   0.00008     0.02493    -0.00000    -0.00461    -0.03695     0.03824
 PY  C  36   0.00003     0.00589    -0.00000    -0.00203    -0.02948     0.03359
 PZ  C  36  -0.00002    -0.00672     0.00000     0.00045     0.00016     0.00049
  
  S  C  37   0.00093     0.35552    -0.00005    -0.03595     0.03631    -0.11144
 PX  C  37   0.00006     0.01712    -0.00000    -0.00042    -0.00887     0.01232
 PY  C  37   0.00030     0.09224    -0.00001    -0.00302    -0.03004     0.04019
 PZ  C  37  -0.00026    -0.08516     0.00001     0.00118    -0.03456     0.04140
  
  S  C  38   0.00080     0.28817    -0.00004    -0.01996     0.09341    -0.15276
 PX  C  38   0.00011     0.03668    -0.00000    -0.00104     0.00406    -0.00500
 PY  C  38   0.00033     0.09518    -0.00001     0.00140     0.00871    -0.00044
 PZ  C  38   0.00007     0.04957    -0.00001    -0.01227    -0.00123    -0.02486
  
  S  C  39   0.00027     0.11644    -0.00002    -0.01574     0.06172    -0.11397
 PX  C  39   0.00004     0.01828    -0.00000    -0.00190     0.00734    -0.01311
 PY  C  39   0.00012     0.04470    -0.00001    -0.00297     0.01676    -0.02602
 PZ  C  39   0.00006     0.03318    -0.00001    -0.00764     0.01418    -0.03611
  
  S  C  40   0.00016     0.08373    -0.00002    -0.01675     0.04702    -0.10021
 PX  C  40   0.00003     0.01277    -0.00000    -0.00237     0.00600    -0.01313
 PY  C  40   0.00008     0.04101    -0.00001    -0.00727     0.01944    -0.04149
 PZ  C  40  -0.00000     0.00088    -0.00000    -0.00101    -0.00133    -0.00095
  
  S  C  41   0.00017     0.08778    -0.00002    -0.01833     0.03927    -0.09379
 PX  C  41   0.00001     0.00496    -0.00000    -0.00085     0.00059    -0.00258
 PY  C  41   0.00006     0.03102    -0.00001    -0.00559     0.00781    -0.02239
 PZ  C  41  -0.00006    -0.03144     0.00001     0.00582    -0.01715     0.03548
  
  S  C  42   0.00032     0.14394    -0.00003    -0.02415     0.02177    -0.08039
 PX  C  42   0.00000    -0.00155     0.00000     0.00107    -0.00536     0.00997
 PY  C  42   0.00008     0.02769    -0.00000    -0.00153    -0.01776     0.02238
 PZ  C  42  -0.00014    -0.06309     0.00001     0.00881    -0.01873     0.04236
  
  S  C  43   0.00365     0.00017     0.01488     0.08909     0.04284     0.07182
 PX  C  43  -0.00074    -0.00003     0.00320    -0.00305     0.00146     0.00291
 PY  C  43  -0.00020    -0.00002     0.00080    -0.00430    -0.00150    -0.00233
 PZ  C  43   0.00150     0.00007    -0.00526     0.01195     0.00070     0.00032
  
  S  C  44   0.00139     0.00007     0.01583     0.05815     0.03255     0.05528
 PX  C  44  -0.00049    -0.00002    -0.00265    -0.01516    -0.00762    -0.01282
 PY  C  44   0.00029     0.00001     0.00582     0.01595     0.00960     0.01642
 PZ  C  44   0.00032     0.00002    -0.00377     0.00037    -0.00185    -0.00347
  
  S  C  45   0.00063     0.00004     0.02490     0.04459     0.02804     0.04811
 PX  C  45  -0.00022    -0.00001    -0.00636    -0.01442    -0.00887    -0.01520
 PY  C  45   0.00007     0.00000     0.00737     0.00644     0.00432     0.00745
 PZ  C  45   0.00022     0.00001    -0.00063     0.01149     0.00660     0.01123
  
  S  C  46   0.00056     0.00003     0.04768     0.04187     0.02703     0.04649
 PX  C  46  -0.00002    -0.00000     0.00041     0.00063     0.00062     0.00109
 PY  C  46  -0.00015    -0.00001     0.00826    -0.00996    -0.00598    -0.01022
 PZ  C  46   0.00023     0.00001    -0.01018     0.01188     0.00677     0.01153
  
  S  S  47   0.00127     0.00006     0.02243     0.04452     0.02474     0.04211
 PX  S  47   0.00017     0.00001     0.00904     0.01474     0.00939     0.01612
 PY  S  47  -0.00052    -0.00003    -0.00259    -0.02018    -0.01103    -0.01872
 PZ  S  47   0.00058     0.00002    -0.00833     0.00704     0.00181     0.00284
  
  S  C  48   0.00015     0.00001     0.11293     0.01594     0.01163     0.02018
 PX  C  48  -0.00001    -0.00000    -0.01449    -0.00118    -0.00094    -0.00163
 PY  C  48  -0.00004    -0.00000     0.03995    -0.00366    -0.00216    -0.00369
 PZ  C  48   0.00006     0.00000    -0.02503     0.00646     0.00420     0.00723
  
  S  C  49   0.00006     0.00001     0.22570     0.00548     0.00495     0.00870
 PX  C  49   0.00001     0.00000     0.01547     0.00043     0.00037     0.00065
 PY  C  49  -0.00002    -0.00000     0.04129    -0.00355    -0.00244    -0.00422
 PZ  C  49   0.00001     0.00000    -0.07402     0.00362     0.00237     0.00409
  
  S  C  50   0.00003     0.00000     0.51345    -0.00628    -0.00281    -0.00472
 PX  C  50   0.00000     0.00000    -0.00056     0.00029     0.00027     0.00047
 PY  C  50  -0.00000     0.00000     0.08997    -0.00318    -0.00218    -0.00378
 PZ  C  50   0.00000    -0.00000    -0.10742     0.00338     0.00220     0.00381
  
  S  O  51   0.00002     0.00000     0.41140    -0.00563    -0.00265    -0.00447
 PX  O  51  -0.00001    -0.00000    -0.12204     0.00183     0.00092     0.00156
 PY  O  51   0.00000     0.00000     0.07751    -0.00160    -0.00094    -0.00161
 PZ  O  51   0.00001     0.00000     0.10024    -0.00098    -0.00033    -0.00054
  
  S  O  52   0.00002     0.00000     0.57436    -0.01080    -0.00623    -0.01069
 PX  O  52   0.00000     0.00000     0.11650    -0.00219    -0.00125    -0.00215
 PY  O  52  -0.00001    -0.00000    -0.11882     0.00191     0.00101     0.00173
 PZ  O  52   0.00000    -0.00000    -0.04162     0.00117     0.00077     0.00133
  
  S  C  53   0.00004     0.00000     0.11231     0.00395     0.00345     0.00605
 PX  C  53   0.00001     0.00000     0.03206     0.00088     0.00073     0.00128
 PY  C  53  -0.00001    -0.00000    -0.00598    -0.00169    -0.00125    -0.00217
 PZ  C  53  -0.00000    -0.00000    -0.04387     0.00066     0.00034     0.00058
  
  S  N  54   0.00002     0.00000     0.03929     0.00186     0.00165     0.00291
 PX  N  54   0.00001     0.00000     0.01657     0.00073     0.00065     0.00114
 PY  N  54  -0.00000    -0.00000    -0.00837    -0.00068    -0.00058    -0.00102
 PZ  N  54  -0.00000    -0.00000    -0.01634    -0.00031    -0.00032    -0.00057
  
  S  C  55   0.03935    -0.00051    -0.00019    -0.16089     0.21635     0.18664
 PX  C  55   0.00681    -0.00008    -0.00002    -0.01261     0.01207     0.01005
 PY  C  55  -0.01139     0.00014     0.00005     0.03570    -0.04540    -0.03900
 PZ  C  55  -0.00897     0.00014     0.00004     0.02728    -0.03519    -0.02945
  
  S  C  56   0.02104    -0.00019    -0.00011    -0.09071     0.12153     0.10695
 PX  C  56   0.00141    -0.00001    -0.00000     0.00163    -0.00428    -0.00382
 PY  C  56  -0.00163    -0.00003     0.00000     0.00109     0.00024    -0.00048
 PZ  C  56  -0.00977     0.00015     0.00005     0.03736    -0.04957    -0.04217
  
  S  H  57   0.00005     0.00000     0.05243     0.00578     0.00427     0.00741
  
  S  H  58   0.00184    -0.00003    -0.00001    -0.01687     0.02796     0.02436
  
  S  H  59   0.00255    -0.00004    -0.00002    -0.02205     0.03596     0.03128
  
  S  H  60   0.00230    -0.00004    -0.00002    -0.02085     0.03430     0.02986
  
  S  H  61   0.00993    -0.00013    -0.00005    -0.04765     0.07129     0.06164
  
  S  H  62   0.00777    -0.00011    -0.00004    -0.04050     0.06210     0.05374
  
  S  H  63   0.00844    -0.00013    -0.00005    -0.04952     0.07503     0.06488
  
  S  H  64   0.01191    -0.00018    -0.00007    -0.06652     0.09852     0.08514
  
  S  H  65   0.03861    -0.00044    -0.00011    -0.07291     0.08985     0.07612
  
  S  H  66   0.02384    -0.00031    -0.00009    -0.07282     0.09578     0.08175
  
  S  H  67   0.04553    -0.00051    -0.00015    -0.09474     0.11334     0.09631
  
  S  H  68   0.06015    -0.00067    -0.00015    -0.06863     0.06033     0.04889
  
  S  H  69   0.05987    -0.00064    -0.00015    -0.06728     0.05823     0.04741
  
  S  H  70   0.01137     0.00013     0.00108     0.05209     0.01453     0.02548
  
  S  H  71   0.01146     0.00971     0.00010     0.05686     0.02726     0.02366
  
  S  H  72   0.00082     0.02175     0.00003     0.02519     0.03745    -0.00358
  
  S  H  73   0.00024     0.03254     0.00001     0.01065     0.03306    -0.01836
  
  S  H  74   0.00151     0.05759     0.00003     0.02441     0.00963     0.02734
  
  S  H  75   0.00026     0.08520    -0.00001    -0.01234    -0.07205     0.06900
  
  S  H  76   0.00032     0.08411    -0.00001    -0.00907    -0.06754     0.07012
  
  S  H  77   0.00040     0.07670    -0.00001    -0.00914    -0.10585     0.11802
  
  S  H  78   0.00017     0.03169    -0.00000    -0.00775    -0.09618     0.10833
  
  S  H  79   0.00028     0.03513    -0.00000    -0.00604    -0.08816     0.10124
  
  S  H  80   0.00034     0.01917    -0.00000    -0.00517    -0.07692     0.09002
  
  S  H  81   0.00019     0.02105    -0.00000    -0.00674    -0.08839     0.10161
  
  S  H  82   0.00015     0.00849    -0.00000    -0.00379    -0.05044     0.05983
  
  S  H  83   0.00028     0.00846    -0.00000    -0.00367    -0.04902     0.05878
  
  S  H  84   0.00024     0.00382    -0.00000    -0.00280    -0.02763     0.03510
  
  S  H  85   0.00038     0.00260    -0.00000    -0.00282    -0.02033     0.02793
  
  S  H  86   0.00083     0.00375    -0.00000    -0.00427    -0.02508     0.03629
  
  S  H  87   0.00012     0.03700    -0.00001    -0.00869    -0.08487     0.09119
  
  S  H  88   0.00013     0.03210    -0.00001    -0.00840    -0.09305     0.10237
  
  S  H  89   0.00009     0.02837    -0.00000    -0.00572    -0.04912     0.05137
  
  S  H  90   0.00013     0.04618    -0.00001    -0.00816    -0.04979     0.04747
  
  S  H  91   0.00005     0.01827    -0.00000    -0.00447    -0.03893     0.04064
  
  S  H  92   0.00008     0.03172    -0.00000    -0.00315     0.02019    -0.03278
  
  S  H  93   0.00004     0.01900    -0.00000    -0.00422     0.01254    -0.02652
  
  S  H  94   0.00004     0.02030    -0.00000    -0.00479     0.00967    -0.02411
  
  S  H  95   0.00011     0.04838    -0.00001    -0.00828    -0.00483    -0.01145
  
  S  H  96   0.00057     0.00003     0.00398     0.01915     0.01009     0.01703
  
  S  H  97   0.00015     0.00001     0.00888     0.01175     0.00760     0.01307
  
  S  H  98   0.00001     0.00000     0.24212    -0.00470    -0.00275    -0.00472
  
  S  H  99   0.01667    -0.00022    -0.00008    -0.06623     0.08846     0.07614
  
  S  H 100   0.01472    -0.00020    -0.00008    -0.07091     0.09906     0.08565
  
  S  H 101   0.01204    -0.00009    -0.00005    -0.04138     0.05286     0.04681
  
  S  H 102   0.00591    -0.00004    -0.00003    -0.02990     0.04107     0.03640
  
  S  H 103   0.00951     0.00001    -0.00005    -0.03937     0.05177     0.04718




    ROOT NO.    7           8           9          10          11          12

           -43.46658   -43.01185   -41.88785   -41.24993   -39.74686   -39.64901
  
  
  S  C   1  -0.00626    -0.02283    -0.00638     0.01028     0.31868     0.12664
 PX  C   1  -0.00238    -0.00848    -0.00223     0.00345     0.09588     0.03780
 PY  C   1  -0.00067    -0.00232    -0.00059     0.00084     0.02017     0.00781
 PZ  C   1  -0.00008    -0.00026    -0.00003     0.00003    -0.00136    -0.00062
  
  S  C   2  -0.01107    -0.03885    -0.00991     0.01509     0.40486     0.15943
 PX  C   2  -0.00094    -0.00254    -0.00017    -0.00021    -0.03936    -0.01632
 PY  C   2  -0.00279    -0.00948    -0.00227     0.00310     0.06610     0.02539
 PZ  C   2  -0.00036    -0.00116    -0.00010     0.00014    -0.00554    -0.00250
  
  S  C   3  -0.01438    -0.04859    -0.01132     0.01556     0.32526     0.12508
 PX  C   3  -0.00234    -0.00670    -0.00092     0.00038    -0.04373    -0.01854
 PY  C   3   0.00171     0.00612     0.00169    -0.00279    -0.08769    -0.03515
 PZ  C   3  -0.00117    -0.00373    -0.00047     0.00048    -0.01520    -0.00704
  
  S  C   4  -0.01494    -0.04553    -0.00887     0.00930     0.08588     0.03104
 PX  C   4   0.00192     0.00888     0.00258    -0.00471    -0.11525    -0.04361
 PY  C   4   0.00039     0.00076     0.00018    -0.00034    -0.02251    -0.01004
 PZ  C   4  -0.00331    -0.00987    -0.00106     0.00095    -0.04609    -0.01984
  
  S  C   5  -0.01498    -0.04239    -0.00444     0.00305    -0.17722    -0.07410
 PX  C   5   0.00247     0.01123     0.00332    -0.00479    -0.08843    -0.03042
 PY  C   5  -0.00302    -0.01014    -0.00220     0.00131    -0.02969    -0.01584
 PZ  C   5   0.00053     0.00031     0.00101    -0.00091    -0.06256    -0.02836
  
  S  C   6  -0.00418     0.00075     0.00371    -0.00972    -0.23590    -0.08206
 PX  C   6   0.00431     0.01536     0.00172    -0.00323     0.04050     0.01988
 PY  C   6  -0.00340    -0.01479    -0.00408     0.00364     0.01076    -0.00331
 PZ  C   6  -0.00125    -0.00884    -0.00042     0.00378    -0.01121    -0.00963
  
  S  N   7   0.01189     0.06283     0.01307    -0.02050    -0.08847    -0.00832
 PX  N   7   0.00070     0.00744    -0.00339    -0.00515     0.03791     0.01354
 PY  N   7  -0.00744    -0.01501    -0.00787    -0.00762    -0.07384    -0.02928
 PZ  N   7   0.00042    -0.00958     0.00733     0.00956    -0.06186    -0.02186
  
  S  N   8   0.02294     0.03184     0.03682     0.02949     0.01560     0.01934
 PX  N   8   0.00395     0.00633     0.00484     0.00450     0.01964     0.00824
 PY  N   8  -0.00200     0.02364    -0.00610    -0.02073    -0.03858    -0.00594
 PZ  N   8  -0.00698    -0.01125    -0.00886    -0.00833    -0.03458    -0.01488
  
  S  C   9   0.01990    -0.06120     0.03921     0.08362     0.07870     0.00690
 PX  C   9  -0.00791    -0.01996    -0.01265    -0.00276     0.00585    -0.00804
 PY  C   9  -0.01149     0.05065    -0.02985    -0.05357     0.02912     0.01860
 PZ  C   9   0.01566     0.03695     0.02516     0.00688    -0.01183     0.01482
  
  S  C  10  -0.03908    -0.06175    -0.06913    -0.03450     0.09344    -0.00524
 PX  C  10  -0.01495    -0.01701    -0.02273    -0.01790    -0.01206    -0.01107
 PY  C  10   0.00906     0.05611     0.00583    -0.02440     0.00466     0.02186
 PZ  C  10   0.02823     0.03105     0.04299     0.03460     0.02280     0.02035
  
  S  N  11  -0.00736     0.03286    -0.02645    -0.04266     0.04526     0.01870
 PX  N  11  -0.00444    -0.01206    -0.00625    -0.00044     0.00829    -0.00227
 PY  N  11   0.00396    -0.00420     0.01243     0.01154    -0.05074    -0.01366
 PZ  N  11   0.00880     0.02451     0.01177     0.00021    -0.01418     0.00482
  
  S  C  12  -0.13880    -0.12766    -0.20898    -0.16224     0.01822    -0.04719
 PX  C  12  -0.02260     0.00599    -0.03127    -0.03971    -0.01807     0.00012
 PY  C  12   0.01710     0.03533     0.02176     0.00530     0.00847     0.01464
 PZ  C  12   0.04212    -0.01244     0.05855     0.07514     0.03401    -0.00068
  
  S  C  13  -0.16439    -0.03727    -0.20405    -0.20256    -0.03287    -0.00824
 PX  C  13  -0.00565     0.01702     0.00835     0.00279    -0.00866     0.00960
 PY  C  13   0.05878     0.02375     0.08017     0.07655     0.01527     0.00907
 PZ  C  13   0.00833    -0.03292    -0.01871    -0.00802     0.01592    -0.01851
  
  S  C  14  -0.20711     0.04137    -0.16544    -0.18171    -0.06255     0.03591
 PX  C  14   0.00012     0.03745     0.04119     0.03515    -0.00158     0.01964
 PY  C  14  -0.01128     0.01129    -0.00180    -0.00526    -0.00303     0.00653
 PZ  C  14  -0.00426    -0.06654    -0.07676    -0.06594     0.00185    -0.03451
  
  S  S  15  -0.11043    -0.02656    -0.12544    -0.12077    -0.03295    -0.00532
 PX  S  15   0.00517     0.01908     0.01926     0.01385     0.00005     0.00993
 PY  S  15  -0.06942    -0.00988    -0.08071    -0.08174    -0.01957    -0.00062
 PZ  S  15  -0.00973    -0.03348    -0.03335    -0.02346    -0.00014    -0.01728
  
  S  C  16  -0.10178    -0.13565    -0.14372    -0.08864    -0.00593    -0.04934
 PX  C  16  -0.01800     0.01596    -0.02751    -0.03930    -0.00941     0.00360
 PY  C  16  -0.05072    -0.02625    -0.07942    -0.07240     0.00525    -0.01252
 PZ  C  16   0.03575    -0.02901     0.05511     0.07719     0.01764    -0.00620
  
  S  C  17   0.04716    -0.13428     0.09514     0.15626    -0.01844    -0.02413
 PX  C  17  -0.02499     0.00677    -0.04253    -0.04493     0.00510    -0.00469
 PY  C  17  -0.03514    -0.03994    -0.05276    -0.02643     0.02408    -0.01865
 PZ  C  17   0.04835    -0.01133     0.08218     0.08598    -0.01046     0.00955
  
  S  C  18   0.08900    -0.12496     0.16415     0.22441    -0.00530    -0.00618
 PX  C  18  -0.00564    -0.01783    -0.00709     0.00297     0.00244    -0.00720
 PY  C  18  -0.04886    -0.00308    -0.07835    -0.06386     0.04426    -0.00997
 PZ  C  18   0.01257     0.03416     0.01602    -0.00365    -0.00608     0.01403
  
  S  C  19   0.14672    -0.03232     0.20857     0.18571    -0.05012     0.02502
 PX  C  19   0.01870    -0.01496     0.03427     0.04047    -0.00849     0.00126
 PY  C  19  -0.03712    -0.02856    -0.02551     0.01358     0.01705    -0.01068
 PZ  C  19  -0.03092     0.03115    -0.06248    -0.07716     0.01482    -0.00128
  
  S  C  20   0.20055     0.03598     0.21222     0.10479    -0.06138     0.03873
 PX  C  20  -0.00968    -0.01569     0.00282     0.02051    -0.00129    -0.00303
 PY  C  20  -0.00499    -0.05917     0.05366     0.11057    -0.01578    -0.00341
 PZ  C  20   0.02119     0.03278    -0.00596    -0.03990     0.00185     0.00674
  
  S  S  21   0.09014    -0.02892     0.12740     0.11184    -0.03928     0.00990
 PX  S  21  -0.02797    -0.00076    -0.03573    -0.02432     0.00991    -0.00552
 PY  S  21   0.01915    -0.03741     0.04777     0.07079    -0.01431    -0.00330
 PZ  S  21   0.04955     0.00099     0.06429     0.04533    -0.01804     0.01010
  
  S  C  22   0.26816     0.20101     0.09767    -0.15497    -0.01716     0.04017
 PX  C  22  -0.00909    -0.01520     0.00832     0.02428    -0.00517     0.00123
 PY  C  22  -0.02738    -0.05516     0.04142     0.08841    -0.02066     0.00650
 PZ  C  22   0.02128     0.03144    -0.02249    -0.03147     0.00715    -0.00125
  
  S  C  23   0.20991     0.18582     0.04271    -0.19978     0.00888     0.02107
 PX  C  23   0.01543     0.01017     0.00754    -0.00424    -0.00273     0.00334
 PY  C  23   0.01883     0.00316     0.02333     0.01685    -0.01135     0.00912
 PZ  C  23   0.07407     0.07315    -0.00150    -0.07831     0.00827     0.00284
  
  S  C  24   0.15803     0.16019     0.00649    -0.20729     0.02780    -0.00143
 PX  C  24   0.02537     0.02477    -0.00138    -0.02409     0.00237     0.00103
 PY  C  24   0.06883     0.06474     0.00002    -0.06042     0.00368     0.00653
 PZ  C  24   0.02226     0.02787    -0.01153    -0.03273     0.00909    -0.00852
  
  S  C  25   0.09134     0.11494    -0.04840    -0.12940     0.03588    -0.03528
 PX  C  25   0.01541     0.01732    -0.01678     0.00122     0.00132    -0.00219
 PY  C  25   0.07424     0.07462    -0.03749    -0.02917     0.00380     0.00247
 PZ  C  25  -0.07189    -0.05895    -0.03839     0.09496    -0.00159    -0.02042
  
  S  C  26   0.11148     0.13456    -0.13933    -0.00128     0.01736    -0.02505
 PX  C  26   0.00319    -0.00019     0.00213     0.00812    -0.00407     0.00560
 PY  C  26   0.04411     0.02649     0.03479    -0.03136    -0.01080     0.02701
 PZ  C  26  -0.09346    -0.08076    -0.06759     0.16230    -0.01170    -0.01047
  
  S  C  27   0.20511     0.17715     0.00241    -0.10784    -0.00355     0.02277
 PX  C  27  -0.02184    -0.02317     0.00596     0.02165    -0.00319     0.00005
 PY  C  27  -0.03429    -0.04910     0.04124     0.04041    -0.01240     0.00766
 PZ  C  27  -0.06883    -0.05056    -0.04935     0.07092     0.00225    -0.01092
  
  S  N  28  -0.05562    -0.01948    -0.21850     0.26809    -0.01337    -0.02003
 PX  N  28   0.00986     0.00664     0.00360    -0.00422    -0.00197     0.00474
 PY  N  28   0.03669     0.02738    -0.00680     0.00093    -0.00809     0.02111
 PZ  N  28  -0.01116    -0.02352     0.03579     0.00854    -0.01448     0.02785
  
  S  C  29  -0.00484    -0.01093    -0.07452     0.13720    -0.02878     0.04437
 PX  C  29   0.00142     0.00413     0.00622    -0.01895     0.00628    -0.01332
 PY  C  29   0.02269     0.01096     0.04355    -0.05811     0.00201     0.01038
 PZ  C  29   0.00261    -0.00547     0.05265    -0.05664     0.00191     0.00789
  
  S  C  30   0.03099    -0.00245     0.04492    -0.01240    -0.01883     0.05825
 PX  C  30   0.00204     0.00270    -0.01101     0.01137     0.00090    -0.00609
 PY  C  30   0.01120     0.00401     0.04466    -0.06705     0.01295    -0.01832
 PZ  C  30   0.00030    -0.00618     0.02760    -0.02456    -0.00109     0.01001
  
  S  C  31   0.03958     0.00231     0.10997    -0.12950     0.01695    -0.01369
 PX  C  31  -0.00716     0.00066    -0.02490     0.02814    -0.00248    -0.00088
 PY  C  31   0.00013     0.00028     0.02216    -0.04402     0.01627    -0.03611
 PZ  C  31  -0.00259    -0.00226     0.00428    -0.00567     0.00123    -0.00170
  
  S  C  32   0.03646     0.00144     0.14032    -0.19591     0.04404    -0.08012
 PX  C  32   0.00526     0.00068     0.01922    -0.02839     0.00740    -0.01407
 PY  C  32  -0.00421    -0.00019     0.00000    -0.01280     0.00992    -0.03017
 PZ  C  32   0.00065    -0.00070     0.00807    -0.01218     0.00314    -0.00600
  
  S  C  33   0.02568     0.00091     0.12059    -0.18655     0.05137    -0.11334
 PX  C  33  -0.00394     0.00001    -0.01981     0.03089    -0.00829     0.01940
 PY  C  33  -0.00548    -0.00039    -0.01737     0.02106    -0.00380     0.00049
 PZ  C  33  -0.00196    -0.00022    -0.00729     0.01070    -0.00251     0.00571
  
  S  C  34   0.01463    -0.00000     0.07789    -0.12656     0.03412    -0.09151
 PX  C  34   0.00208     0.00014     0.01070    -0.01736     0.00572    -0.01187
 PY  C  34  -0.00543    -0.00031    -0.02587     0.04010    -0.01265     0.02365
 PZ  C  34  -0.00029     0.00009    -0.00112     0.00159     0.00094     0.00141
  
  S  C  35   0.01656    -0.01209     0.05879    -0.02491    -0.02129     0.06873
 PX  C  35   0.00433     0.00015     0.00506    -0.00251    -0.00057     0.00243
 PY  C  35   0.00680     0.00392     0.01504    -0.02732     0.00720    -0.01253
 PZ  C  35  -0.00386     0.00133    -0.00564    -0.00194     0.00443    -0.01229
  
  S  C  36  -0.00006    -0.01519     0.02894     0.00628    -0.02114     0.05826
 PX  C  36   0.00003    -0.00416     0.00473     0.00596    -0.00562     0.01430
 PY  C  36   0.00627     0.00184     0.00792    -0.00688    -0.00249     0.00985
 PZ  C  36   0.00097     0.00041     0.00330    -0.00435     0.00004     0.00114
  
  S  C  37  -0.15853    -0.14084     0.05684     0.04943    -0.00528    -0.01033
 PX  C  37   0.01263     0.01710    -0.04775     0.03978    -0.00033    -0.00549
 PY  C  37   0.04223     0.05963    -0.16690     0.13203     0.00127    -0.02057
 PZ  C  37   0.00277    -0.00978     0.03502    -0.00426    -0.01281     0.02600
  
  S  C  38  -0.12294    -0.10823     0.11806    -0.08462     0.01509    -0.02217
 PX  C  38   0.00346     0.00886    -0.03143     0.02244     0.00223    -0.00815
 PY  C  38   0.03833     0.05575    -0.12306     0.06964     0.00946    -0.02681
 PZ  C  38  -0.06442    -0.06620     0.05249     0.01144    -0.00798     0.00651
  
  S  C  39  -0.13132    -0.14001     0.22849    -0.14807     0.00070     0.01541
 PX  C  39  -0.01324    -0.01292     0.01660    -0.00999     0.00071    -0.00066
 PY  C  39  -0.01817    -0.01483     0.01410    -0.01319     0.00410    -0.00661
 PZ  C  39  -0.05771    -0.06337     0.09268    -0.04363    -0.00473     0.01147
  
  S  C  40  -0.14095    -0.15651     0.25712    -0.14813    -0.00838     0.03093
 PX  C  40  -0.01842    -0.01998     0.03006    -0.01578    -0.00104     0.00316
 PY  C  40  -0.05657    -0.06105     0.09223    -0.05015    -0.00239     0.00870
 PZ  C  40  -0.00691    -0.00836     0.01149    -0.00152    -0.00251     0.00420
  
  S  C  41  -0.14482    -0.16092     0.25235    -0.13128    -0.01279     0.03561
 PX  C  41  -0.00484    -0.00496     0.00454     0.00006    -0.00062     0.00066
 PY  C  41  -0.03704    -0.03953     0.05135    -0.01993    -0.00330     0.00667
 PZ  C  41   0.04750     0.05171    -0.08113     0.04604     0.00184    -0.00763
  
  S  C  42  -0.14782    -0.15719     0.19429    -0.06446    -0.01615     0.03073
 PX  C  42   0.01326     0.01567    -0.03138     0.02128     0.00072    -0.00417
 PY  C  42   0.01739     0.02374    -0.06994     0.05903    -0.00049    -0.00711
 PZ  C  42   0.05672     0.05754    -0.06759     0.02650     0.00192    -0.00321
  
  S  C  43  -0.26615     0.25364     0.02607    -0.01575    -0.06064     0.11808
 PX  C  43  -0.03493     0.06049     0.03942     0.03315    -0.00152     0.02206
 PY  C  43   0.00269     0.00372     0.00812     0.00861     0.00506    -0.00570
 PZ  C  43   0.04112    -0.08675    -0.06721    -0.05971    -0.00509    -0.02271
  
  S  C  44  -0.24303     0.27530     0.08267     0.04392    -0.04336     0.11591
 PX  C  44   0.04953    -0.04915    -0.00679     0.00146     0.01199    -0.02403
 PY  C  44  -0.07744     0.09283     0.03355     0.02148    -0.00948     0.03160
 PZ  C  44   0.03127    -0.05144    -0.03353    -0.02935    -0.00408    -0.00781
  
  S  C  45  -0.23636     0.29351     0.11934     0.08513    -0.00842     0.05852
 PX  C  45   0.07307    -0.08902    -0.03394    -0.02287     0.00608    -0.02454
 PY  C  45  -0.03881     0.05047     0.02370     0.01915     0.00891    -0.01244
 PZ  C  45  -0.05012     0.05694     0.01600     0.00675    -0.01940     0.04879
  
  S  C  46  -0.23454     0.29813     0.13204     0.10276     0.03730    -0.04319
 PX  C  46  -0.00705     0.01044     0.00619     0.00540     0.00159    -0.00187
 PY  C  46   0.04754    -0.05589    -0.01748    -0.00817     0.02514    -0.06421
 PZ  C  46  -0.05097     0.05699     0.01396     0.00334    -0.03288     0.08146
  
  S  S  47  -0.18608     0.21209     0.06740     0.04044    -0.00853     0.03522
 PX  S  47  -0.07973     0.09932     0.04046     0.02885    -0.00187     0.01749
 PY  S  47   0.08021    -0.08838    -0.02315    -0.00971     0.01908    -0.04605
 PZ  S  47   0.00340    -0.02055    -0.02626    -0.02790    -0.02129     0.03349
  
  S  C  48  -0.11261     0.15509     0.08732     0.08180     0.11285    -0.24737
 PX  C  48   0.00970    -0.01398    -0.00893    -0.00909    -0.01367     0.02656
 PY  C  48   0.01696    -0.01957    -0.00493    -0.00045     0.02587    -0.06726
 PZ  C  48  -0.03676     0.04695     0.02061     0.01535    -0.00946     0.03900
  
  S  C  49  -0.05445     0.08077     0.05431     0.05665     0.10301    -0.22384
 PX  C  49  -0.00393     0.00573     0.00376     0.00401     0.02108    -0.06468
 PY  C  49   0.02314    -0.03168    -0.01787    -0.01694    -0.03363     0.08652
 PZ  C  49  -0.02181     0.02929     0.01567     0.01415     0.00719    -0.00184
  
  S  C  50   0.01855    -0.01948    -0.00388     0.00034     0.03940    -0.11744
 PX  C  50  -0.00333     0.00554     0.00546     0.00766     0.07022    -0.21469
 PY  C  50   0.02162    -0.03115    -0.02138    -0.02391    -0.09612     0.26667
 PZ  C  50  -0.02080     0.02879     0.01713     0.01668     0.00447     0.01915
  
  S  O  51   0.01814    -0.01930    -0.00273     0.00380     0.12888    -0.40608
 PX  O  51  -0.00691     0.00811     0.00281     0.00143    -0.02036     0.06720
 PY  O  51   0.00822    -0.01093    -0.00605    -0.00577    -0.00551     0.00746
 PZ  O  51   0.00106     0.00031     0.00283     0.00469     0.03895    -0.11561
  
  S  O  52   0.05475    -0.07351    -0.04381    -0.04609    -0.16722     0.46101
 PX  O  52   0.01087    -0.01442    -0.00819    -0.00822    -0.02065     0.05240
 PY  O  52  -0.00816     0.01024     0.00501     0.00461     0.01316    -0.03698
 PZ  O  52  -0.00741     0.01054     0.00696     0.00748     0.01691    -0.03858
  
  S  C  53  -0.03788     0.05654     0.03922     0.04193     0.05964    -0.09475
 PX  C  53  -0.00750     0.01052     0.00583     0.00511     0.00540    -0.01508
 PY  C  53   0.01221    -0.01688    -0.00941    -0.00859    -0.01277     0.03280
 PZ  C  53  -0.00277     0.00352     0.00196     0.00211     0.00670    -0.01535
  
  S  N  54  -0.01879     0.02887     0.02188     0.02485     0.03900    -0.05598
 PX  N  54  -0.00730     0.01111     0.00815     0.00904     0.01327    -0.01903
 PY  N  54   0.00641    -0.00964    -0.00685    -0.00745    -0.01152     0.01899
 PZ  N  54   0.00386    -0.00607    -0.00478    -0.00549    -0.00735     0.00759
  
  S  C  55  -0.01319    -0.04114    -0.00463     0.00312    -0.20695    -0.09504
 PX  C  55  -0.00039    -0.00036     0.00062    -0.00128    -0.05313    -0.02117
 PY  C  55   0.00257     0.00778     0.00061    -0.00044     0.03706     0.01629
 PZ  C  55   0.00218     0.00621     0.00159    -0.00186    -0.02238    -0.01031
  
  S  C  56  -0.00716    -0.02322    -0.00062    -0.00149    -0.18751    -0.08686
 PX  C  56   0.00041     0.00158     0.00043    -0.00055    -0.00479    -0.00118
 PY  C  56  -0.00018    -0.00040    -0.00067     0.00093    -0.00252    -0.00076
 PZ  C  56   0.00298     0.00899     0.00117    -0.00107     0.05642     0.02462
  
  S  H  57  -0.04166     0.05761     0.03273     0.03084     0.04809    -0.11225
  
  S  H  58  -0.00216    -0.00794    -0.00227     0.00374     0.12087     0.04819
  
  S  H  59  -0.00273    -0.00993    -0.00275     0.00441     0.13531     0.05370
  
  S  H  60  -0.00263    -0.00960    -0.00271     0.00437     0.13686     0.05442
  
  S  H  61  -0.00497    -0.01727    -0.00409     0.00632     0.15798     0.06199
  
  S  H  62  -0.00447    -0.01566    -0.00400     0.00614     0.16632     0.06568
  
  S  H  63  -0.00535    -0.01830    -0.00449     0.00629     0.14504     0.05627
  
  S  H  64  -0.00681    -0.02297    -0.00508     0.00686     0.12491     0.04688
  
  S  H  65  -0.00552    -0.01550    -0.00344     0.00276     0.04593     0.01854
  
  S  H  66  -0.00602    -0.01803    -0.00351     0.00320     0.01567     0.00481
  
  S  H  67  -0.00592    -0.01752    -0.00119     0.00194    -0.05541    -0.02337
  
  S  H  68  -0.00245    -0.00130     0.00013    -0.00458    -0.09323    -0.03311
  
  S  H  69  -0.00162    -0.00079     0.00215    -0.00350    -0.11111    -0.04074
  
  S  H  70  -0.05143    -0.00349    -0.05756    -0.05934    -0.00880     0.00191
  
  S  H  71   0.05122    -0.00063     0.06432     0.04765    -0.01370     0.01022
  
  S  H  72   0.06523     0.05245     0.02334    -0.05473    -0.00070     0.00908
  
  S  H  73   0.03823     0.03942     0.00787    -0.06441     0.00916    -0.00112
  
  S  H  74   0.06693     0.04904     0.00928    -0.01200    -0.00753     0.01224
  
  S  H  75  -0.00913    -0.01298    -0.01797     0.05139    -0.01348     0.02263
  
  S  H  76   0.00448     0.00089    -0.02677     0.04600    -0.00973     0.01491
  
  S  H  77   0.01851     0.00486     0.01249    -0.00254    -0.00746     0.02246
  
  S  H  78   0.01564    -0.00002     0.04728    -0.05526     0.00726    -0.00592
  
  S  H  79   0.01810     0.00317     0.04125    -0.04977     0.00746    -0.00874
  
  S  H  80   0.01606     0.00110     0.05801    -0.08016     0.01785    -0.03324
  
  S  H  81   0.01603    -0.00014     0.06275    -0.08471     0.01732    -0.02949
  
  S  H  82   0.01066     0.00032     0.04997    -0.07694     0.02120    -0.04588
  
  S  H  83   0.01082     0.00053     0.04943    -0.07630     0.02096    -0.04652
  
  S  H  84   0.00631    -0.00002     0.03351    -0.05425     0.01465    -0.03880
  
  S  H  85   0.00496    -0.00015     0.02778    -0.04600     0.01140    -0.03567
  
  S  H  86   0.00623    -0.00031     0.03329    -0.05393     0.01145    -0.04039
  
  S  H  87   0.00592    -0.00585     0.02417    -0.00896    -0.00920     0.02905
  
  S  H  88   0.01058    -0.00376     0.03784    -0.03134    -0.00425     0.02125
  
  S  H  89   0.00061    -0.00579     0.01176     0.00239    -0.00875     0.02431
  
  S  H  90  -0.00946    -0.01512     0.01303     0.01181    -0.01114     0.02696
  
  S  H  91  -0.00010    -0.00558     0.01229    -0.00005    -0.00771     0.02189
  
  S  H  92  -0.03143    -0.03360     0.06354    -0.04944     0.00193     0.00339
  
  S  H  93  -0.03790    -0.04292     0.07462    -0.04476    -0.00262     0.01003
  
  S  H  94  -0.03930    -0.04455     0.07303    -0.03858    -0.00436     0.01196
  
  S  H  95  -0.04127    -0.04424     0.04661    -0.00430    -0.00757     0.01287
  
  S  H  96  -0.07005     0.07478     0.01752     0.00621    -0.01564     0.03660
  
  S  H  97  -0.06583     0.08347     0.03622     0.02725     0.00236     0.00671
  
  S  H  98   0.02440    -0.03296    -0.01982    -0.02079    -0.06732     0.18007
  
  S  H  99  -0.00539    -0.01654    -0.00194     0.00110    -0.09108    -0.04121
  
  S  H 100  -0.00632    -0.02035    -0.00293     0.00279    -0.05074    -0.02609
  
  S  H 101  -0.00292    -0.00932     0.00036    -0.00160    -0.09064    -0.04137
  
  S  H 102  -0.00248    -0.00824    -0.00020    -0.00064    -0.06870    -0.03236
  
  S  H 103  -0.00290    -0.01003     0.00075    -0.00223    -0.07716    -0.03741




    ROOT NO.   13          14          15          16          17          18

           -39.51315   -39.10315   -37.61060   -36.37989   -36.18194   -35.48933
  
  
  S  C   1  -0.00662    -0.02343     0.05584     0.00840     0.00450     0.11175
 PX  C   1  -0.00197    -0.00667     0.01366     0.00195     0.00053     0.01798
 PY  C   1  -0.00037    -0.00123     0.00118    -0.00068     0.00099     0.00094
 PZ  C   1   0.00009     0.00017    -0.00104    -0.00074     0.00097     0.00115
  
  S  C   2  -0.00847    -0.02788     0.05739     0.01031    -0.00122     0.06714
 PX  C   2   0.00072     0.00378    -0.01252    -0.00029    -0.00482    -0.04808
 PY  C   2  -0.00128    -0.00378     0.00271    -0.00136     0.00109    -0.00721
 PZ  C   2   0.00036     0.00066    -0.00376    -0.00238     0.00316     0.00346
  
  S  C   3  -0.00634    -0.01881     0.01758    -0.00280     0.00233    -0.02297
 PX  C   3   0.00072     0.00471    -0.01601    -0.00016    -0.00676    -0.05823
 PY  C   3   0.00218     0.00667    -0.01888    -0.00749     0.00604    -0.01181
 PZ  C   3   0.00105     0.00203    -0.01238    -0.00863     0.01077     0.01145
  
  S  C   4  -0.00430    -0.00161    -0.00027     0.02194    -0.04407    -0.16638
 PX  C   4   0.00031     0.00647     0.00724     0.01867    -0.02670    -0.03861
 PY  C   4   0.00156     0.00257    -0.01582    -0.01298     0.01533     0.01736
 PZ  C   4   0.00154     0.00491    -0.01886    -0.00595     0.00616    -0.00598
  
  S  C   5   0.00361     0.01687    -0.04189     0.00755    -0.01616    -0.07971
 PX  C   5  -0.00211     0.00210     0.03813     0.04354    -0.05302    -0.05476
 PY  C   5   0.00334     0.00600    -0.04350    -0.03616     0.03956     0.03929
 PZ  C   5   0.00647     0.00664    -0.04756    -0.04648     0.06560     0.12735
  
  S  C   6  -0.00821     0.00762     0.10044     0.11986    -0.15792    -0.20781
 PX  C   6  -0.00384    -0.00622     0.03781     0.01470    -0.02065    -0.00315
 PY  C   6   0.00562     0.00599    -0.06376    -0.05273     0.05539     0.04541
 PZ  C   6   0.00665     0.00441    -0.05176    -0.03608     0.05659     0.08303
  
  S  N   7  -0.02193    -0.01530     0.18811     0.12109    -0.14369    -0.10958
 PX  N   7  -0.00184    -0.00025    -0.01288    -0.04355     0.02854     0.03362
 PY  N   7  -0.00544     0.00688     0.04769     0.04053    -0.10341    -0.17605
 PZ  N   7   0.00441    -0.00045     0.01998     0.07237    -0.03731    -0.02325
  
  S  N   8   0.00950    -0.01838     0.01205     0.05914     0.05819     0.16640
 PX  N   8   0.00226    -0.00247    -0.01382    -0.00961     0.02708     0.04313
 PY  N   8  -0.01295    -0.00329     0.08071     0.04416    -0.06214    -0.04295
 PZ  N   8  -0.00369     0.00461     0.02351     0.01437    -0.04614    -0.07126
  
  S  C   9   0.04624     0.00587    -0.21886    -0.03618     0.12457     0.06575
 PX  C   9   0.00347     0.00956    -0.04483    -0.02269    -0.00428    -0.05514
 PY  C   9  -0.02185    -0.00227     0.04140    -0.03892     0.02858     0.08173
 PZ  C   9  -0.00581    -0.01819     0.08363     0.04336     0.00893     0.10613
  
  S  C  10   0.00757     0.03580    -0.20000    -0.15491     0.08081    -0.03991
 PX  C  10  -0.00391     0.00814    -0.00111    -0.00398    -0.01886    -0.03146
 PY  C  10  -0.02125    -0.01415     0.11069    -0.01860    -0.00609     0.06404
 PZ  C  10   0.00814    -0.01503    -0.00177     0.00698     0.03750     0.06131
  
  S  N  11  -0.02052     0.00338     0.03668    -0.08764    -0.00924    -0.03378
 PX  N  11   0.00302     0.00431    -0.03294    -0.02057     0.02300     0.01962
 PY  N  11   0.00133    -0.00416     0.04697     0.06896    -0.05650    -0.05598
 PZ  N  11  -0.00563    -0.00820     0.06083     0.03461    -0.03839    -0.02516
  
  S  C  12  -0.02921     0.05930    -0.06885    -0.08859    -0.02877    -0.07078
 PX  C  12  -0.01650    -0.00291     0.08262     0.02263    -0.02181     0.04317
 PY  C  12  -0.00511    -0.00953     0.02939    -0.02488     0.02277     0.04926
 PZ  C  12   0.03153     0.00580    -0.15812    -0.04237     0.04108    -0.08327
  
  S  C  13  -0.05930     0.00841     0.18674     0.00656    -0.02772     0.11684
 PX  C  13  -0.00020    -0.01313     0.03031     0.02404     0.00914     0.02516
 PY  C  13   0.02185    -0.00765    -0.06686    -0.01290     0.02426    -0.02925
 PZ  C  13  -0.00037     0.02515    -0.05554    -0.04534    -0.01791    -0.04710
  
  S  C  14  -0.05087    -0.04960     0.25161     0.09013     0.02578     0.16377
 PX  C  14   0.01256    -0.02283    -0.01937     0.01327     0.03367    -0.00684
 PY  C  14  -0.00194    -0.00710     0.01732     0.00264     0.00968     0.02148
 PZ  C  14  -0.02302     0.04001     0.03635    -0.02239    -0.05860     0.01082
  
  S  S  15  -0.03305    -0.00099     0.12619     0.04569    -0.03336     0.04816
 PX  S  15   0.00348    -0.01073     0.00148     0.00357     0.01910     0.01301
 PY  S  15  -0.02385    -0.00210     0.08817     0.02161    -0.01179     0.04955
 PZ  S  15  -0.00551     0.01853    -0.00517    -0.00601    -0.03319    -0.02639
  
  S  C  16  -0.00633     0.04622    -0.06909    -0.00158    -0.06570    -0.12325
 PX  C  16  -0.01655    -0.00292     0.06865     0.00657    -0.00896     0.04630
 PY  C  16  -0.01718     0.01846    -0.00538    -0.03555    -0.00068     0.00260
 PZ  C  16   0.03207     0.00469    -0.13011    -0.01123     0.01749    -0.08780
  
  S  C  17   0.05591     0.00035    -0.08779     0.07730    -0.05165    -0.12340
 PX  C  17  -0.01045     0.00960    -0.01042    -0.01720    -0.00326    -0.01677
 PY  C  17   0.00936     0.02457    -0.13577    -0.03629     0.01925    -0.08223
 PZ  C  17   0.01950    -0.01907     0.02453     0.03339     0.00582     0.03470
  
  S  C  18   0.07416    -0.01871    -0.10202     0.08103     0.01631    -0.01546
 PX  C  18   0.00529     0.00670    -0.03683    -0.00312    -0.00790    -0.04554
 PY  C  18   0.00070     0.02560    -0.15446    -0.06011     0.05658    -0.03748
 PZ  C  18  -0.01023    -0.01352     0.07512     0.00652     0.01377     0.08769
  
  S  C  19   0.01635    -0.04633     0.17702     0.05101    -0.01240     0.11646
 PX  C  19   0.00949    -0.00730     0.01603     0.02251    -0.00902     0.00531
 PY  C  19   0.02804     0.00602    -0.09700     0.03786     0.01314    -0.01824
 PZ  C  19  -0.02066     0.01335    -0.02232    -0.05063     0.01843    -0.01047
  
  S  C  20  -0.04318    -0.04075     0.26555    -0.03689    -0.01905     0.10821
 PX  C  20   0.01197    -0.00208    -0.00758     0.02308    -0.00851    -0.00562
 PY  C  20   0.04421    -0.01920     0.02564     0.08699    -0.02620     0.02699
 PZ  C  20  -0.02539     0.00376     0.02258    -0.05831     0.02022     0.00829
  
  S  S  21   0.00824    -0.02502     0.11495     0.05373    -0.04667     0.02239
 PX  S  21   0.00226     0.00768    -0.03876    -0.00509     0.00546    -0.01885
 PY  S  21   0.02296    -0.00971     0.01282     0.05207    -0.02723    -0.01352
 PZ  S  21  -0.00352    -0.01434     0.07239     0.00790    -0.00914     0.03563
  
  S  C  22  -0.12854     0.00735     0.12004    -0.17446     0.04045     0.01033
 PX  C  22   0.00437    -0.00496     0.02840    -0.00822    -0.00074     0.00973
 PY  C  22   0.01236    -0.01909     0.10745    -0.01722    -0.00614     0.04849
 PZ  C  22  -0.00689     0.00644    -0.02483    -0.02926     0.01452    -0.02796
  
  S  C  23  -0.10092     0.02484    -0.04832    -0.04598     0.01740    -0.02991
 PX  C  23  -0.00849    -0.00088     0.02018    -0.02234     0.00445     0.00331
 PY  C  23  -0.01608    -0.00670     0.07519    -0.06449     0.01128     0.01774
 PZ  C  23  -0.02593     0.01086    -0.03910    -0.00665     0.00654    -0.01892
  
  S  C  24  -0.04344     0.02973    -0.16976     0.12072    -0.02156    -0.02817
 PX  C  24  -0.00842     0.00328    -0.01000    -0.00621     0.00298    -0.00643
 PY  C  24  -0.03328     0.00884    -0.01393    -0.04247     0.01511    -0.02242
 PZ  C  24   0.01884     0.00316    -0.04456     0.06462    -0.01640     0.00912
  
  S  C  25   0.08022     0.01134    -0.16958     0.24910    -0.06467     0.03973
 PX  C  25   0.00622    -0.00035     0.00340    -0.01543     0.00475    -0.00525
 PY  C  25  -0.01780     0.00613    -0.00499    -0.06407     0.02213    -0.03252
 PZ  C  25   0.08560    -0.01816     0.04215     0.04325    -0.01963     0.04769
  
  S  C  26   0.06864    -0.00074    -0.02822    -0.01200     0.00780    -0.03062
 PX  C  26  -0.01565    -0.00016     0.02366    -0.05403     0.01562    -0.02017
 PY  C  26  -0.09011     0.00901     0.04140    -0.14809     0.04546    -0.06115
 PZ  C  26   0.06082    -0.01973     0.07519    -0.03479     0.00388     0.00906
  
  S  C  27  -0.08363     0.01046     0.06110    -0.18805     0.05599    -0.05676
 PX  C  27   0.00554    -0.00347     0.01576    -0.00163    -0.00126     0.00589
 PY  C  27  -0.00718    -0.00865     0.05811    -0.01222    -0.00229     0.02871
 PZ  C  27   0.03851    -0.00428    -0.01707     0.01621    -0.00203    -0.02355
  
  S  N  28   0.09722    -0.02710     0.12070    -0.14867     0.03800    -0.02864
 PX  N  28  -0.01574     0.00148     0.01161    -0.04682     0.01466    -0.02990
 PY  N  28  -0.07236     0.00872     0.01263    -0.09813     0.03250    -0.06655
 PZ  N  28  -0.08853     0.00724     0.03173    -0.10033     0.03058    -0.03285
  
  S  C  29  -0.13399     0.00758     0.06755    -0.20075     0.06142    -0.11217
 PX  C  29   0.04415    -0.00503     0.00772    -0.00860     0.00182    -0.01355
 PY  C  29  -0.04303     0.00975    -0.04217     0.05054    -0.01289    -0.01542
 PZ  C  29  -0.03386     0.00816    -0.04270     0.07351    -0.02050     0.02901
  
  S  C  30  -0.20052     0.02736    -0.05482     0.02574    -0.00344    -0.04795
 PX  C  30   0.02428    -0.00504     0.03240    -0.08046     0.02330    -0.07795
 PY  C  30   0.05703    -0.00385    -0.01626     0.04376    -0.01448    -0.02009
 PZ  C  30  -0.03809     0.00723    -0.03484     0.06506    -0.01845     0.03314
  
  S  C  31   0.03949     0.00022    -0.02367     0.02283    -0.00869    -0.10476
 PX  C  31   0.00572    -0.00251     0.01810    -0.03517     0.01049    -0.00646
 PY  C  31   0.12157    -0.01456     0.01983     0.00300    -0.00392     0.01504
 PZ  C  31   0.00472     0.00001    -0.00660     0.01835    -0.00557     0.01571
  
  S  C  32   0.26316    -0.02746     0.02086     0.01568    -0.01053    -0.02638
 PX  C  32   0.04723    -0.00542     0.00926    -0.01122     0.00205    -0.01983
 PY  C  32   0.10314    -0.01411     0.03583    -0.04046     0.01095     0.03117
 PZ  C  32   0.01960    -0.00201     0.00051     0.00496    -0.00190     0.00804
  
  S  C  33   0.37739    -0.04440     0.07386    -0.05819     0.01182     0.03295
 PX  C  33  -0.06409     0.00751    -0.01191     0.00811    -0.00191    -0.01356
 PY  C  33  -0.00173    -0.00084     0.00946    -0.01975     0.00767     0.02930
 PZ  C  33  -0.01873     0.00214    -0.00319     0.00258    -0.00055     0.00258
  
  S  C  34   0.30058    -0.03619     0.06773    -0.07137     0.02150     0.07256
 PX  C  34   0.04046    -0.00498     0.00982    -0.00864     0.00157     0.00404
 PY  C  34  -0.08096     0.00968    -0.01638     0.00917    -0.00021    -0.00391
 PZ  C  34  -0.00284     0.00018     0.00040     0.00117    -0.00122    -0.00142
  
  S  C  35  -0.24312     0.03634    -0.11942     0.20008    -0.05407     0.14930
 PX  C  35  -0.00736     0.00059     0.00727    -0.03438     0.01034    -0.05616
 PY  C  35   0.04130    -0.00425     0.00382    -0.00665     0.00094    -0.04056
 PZ  C  35   0.04219    -0.00563     0.01183    -0.00991     0.00202    -0.00170
  
  S  C  36  -0.20429     0.02919    -0.09466     0.18114    -0.04934     0.20060
 PX  C  36  -0.04898     0.00642    -0.01483     0.01960    -0.00479     0.01918
 PY  C  36  -0.03579     0.00586    -0.02291     0.04025    -0.01101     0.02573
 PZ  C  36  -0.00478     0.00110    -0.00663     0.01446    -0.00413     0.01202
  
  S  C  37   0.05145    -0.01441     0.05306    -0.00762    -0.00388     0.04453
 PX  C  37   0.02166    -0.00428     0.01508    -0.01922     0.00493    -0.00515
 PY  C  37   0.07699    -0.01292     0.02154     0.01041    -0.00543     0.01895
 PZ  C  37  -0.08378     0.00708     0.04106    -0.13865     0.04248    -0.04392
  
  S  C  38   0.06750    -0.00277    -0.07493     0.21927    -0.06615     0.07319
 PX  C  38   0.02859    -0.00388     0.00182     0.01398    -0.00497     0.01081
 PY  C  38   0.08982    -0.00995    -0.01529     0.07420    -0.02321     0.03956
 PZ  C  38  -0.01158    -0.00429     0.04977    -0.06916     0.01725    -0.00267
  
  S  C  39  -0.05818     0.01071    -0.04097     0.06623    -0.01803    -0.00644
 PX  C  39   0.00194     0.00003    -0.00432     0.01409    -0.00436     0.00542
 PY  C  39   0.02038    -0.00101    -0.02165     0.06634    -0.02015     0.02635
 PZ  C  39  -0.03640     0.00291     0.01758    -0.04751     0.01384    -0.01786
  
  S  C  40  -0.10553     0.01289     0.00954    -0.08210     0.02660    -0.05794
 PX  C  40  -0.01039     0.00105     0.00280    -0.00971     0.00290    -0.00388
 PY  C  40  -0.02907     0.00332     0.00186    -0.00995     0.00291    -0.00554
 PZ  C  40  -0.01271     0.00049     0.01577    -0.04758     0.01437    -0.01341
  
  S  C  41  -0.11764     0.01197     0.03947    -0.15736     0.04871    -0.06614
 PX  C  41  -0.00156    -0.00021     0.00413    -0.00784     0.00214     0.00025
 PY  C  41  -0.02047     0.00125     0.01231    -0.02711     0.00757    -0.00017
 PZ  C  41   0.02588    -0.00315    -0.00053     0.00918    -0.00287     0.01054
  
  S  C  42  -0.09402     0.00543     0.06321    -0.16037     0.04686    -0.03173
 PX  C  42   0.01502    -0.00225     0.00273     0.00372    -0.00155     0.00231
 PY  C  42   0.02782    -0.00516     0.00716     0.02009    -0.00756     0.02398
 PZ  C  42   0.00816     0.00039    -0.01015     0.00705    -0.00089    -0.00266
  
  S  C  43   0.01285    -0.13630     0.08346     0.09229     0.13279     0.04875
 PX  C  43   0.01515    -0.02320    -0.04784    -0.00458     0.02282    -0.04414
 PY  C  43   0.00164     0.00963    -0.01414    -0.01322    -0.01476    -0.00573
 PZ  C  43  -0.02404     0.01964     0.08914     0.02331    -0.01233     0.07286
  
  S  C  44   0.03375    -0.13302    -0.02996     0.04874     0.12081    -0.05011
 PX  C  44  -0.00313     0.02678    -0.01754    -0.02094    -0.02959    -0.01224
 PY  C  44   0.01214    -0.03323    -0.02166     0.00382     0.02264    -0.02034
 PZ  C  44  -0.01126     0.00638     0.05136     0.02308     0.01106     0.04267
  
  S  C  45   0.03406    -0.06616    -0.10623    -0.03563    -0.00643    -0.08128
 PX  C  45  -0.01119     0.02274     0.02305     0.00091    -0.01261     0.01858
 PY  C  45   0.00175     0.01755    -0.01983    -0.02480    -0.04249     0.00012
 PZ  C  45   0.01292    -0.05221    -0.00583     0.03013     0.07080    -0.02505
  
  S  C  46   0.01450     0.07302    -0.09358    -0.09363    -0.14934    -0.01589
 PX  C  46   0.00008    -0.01315    -0.01659    -0.01466    -0.02125    -0.00789
 PY  C  46  -0.01706     0.08479     0.02947    -0.01769    -0.06190     0.04630
 PZ  C  46   0.02115    -0.08413    -0.01334     0.04207     0.10589    -0.04634
  
  S  S  47   0.01663    -0.00389    -0.00523     0.01258     0.03014    -0.00231
 PX  S  47   0.01114    -0.01372    -0.02988    -0.01084    -0.00542    -0.01718
 PY  S  47  -0.01040     0.06619     0.00876    -0.01212    -0.02857     0.00598
 PZ  S  47  -0.00246    -0.05992     0.03397     0.03218     0.04689     0.01775
  
  S  C  48  -0.05014     0.21868    -0.02345    -0.13844    -0.30662     0.10282
 PX  C  48   0.00188    -0.06426    -0.00846     0.01163     0.03331    -0.02070
 PY  C  48  -0.01984     0.05776     0.02995    -0.00115    -0.02619     0.03836
 PZ  C  48   0.02102     0.03175    -0.02349    -0.01769    -0.02206    -0.01390
  
  S  C  49  -0.03959     0.32143     0.04269    -0.07724    -0.21084     0.11927
 PX  C  49  -0.02870    -0.07133    -0.01316    -0.02518    -0.05328     0.01659
 PY  C  49   0.02842     0.01478     0.01401     0.03883     0.08241    -0.02378
 PZ  C  49   0.01127     0.09586     0.00406    -0.00690    -0.01489     0.00238
  
  S  C  50  -0.04803    -0.05806     0.01422     0.00477    -0.00096     0.01511
 PX  C  50  -0.09290    -0.17627     0.01261     0.04283     0.09555    -0.03627
 PY  C  50   0.09818     0.06505    -0.02604    -0.01494    -0.01946    -0.00765
 PZ  C  50   0.02904     0.20128     0.01137    -0.04994    -0.12814     0.06674
  
  S  O  51  -0.18256    -0.38202     0.02780     0.09698     0.21460    -0.07788
 PX  O  51   0.03202     0.07840    -0.00346    -0.01697    -0.03805     0.01411
 PY  O  51  -0.00262    -0.04460    -0.00289     0.01187     0.03033    -0.01546
 PZ  O  51  -0.04764    -0.07063     0.00897     0.01262     0.02380    -0.00375
  
  S  O  52   0.16803     0.10056    -0.05032    -0.04743    -0.08423     0.00893
 PX  O  52   0.01596    -0.01600    -0.00771    -0.00076     0.00256    -0.00533
 PY  O  52  -0.01425    -0.01979    -0.00038     0.00278     0.00815    -0.00618
 PZ  O  52  -0.00816     0.04920     0.01270    -0.00213    -0.01385     0.01588
  
  S  C  53   0.01679     0.49027     0.12205     0.12389     0.23409    -0.04693
 PX  C  53  -0.00685    -0.04088    -0.03696    -0.09579    -0.21241     0.08030
 PY  C  53   0.01142     0.02573     0.02677     0.06982     0.15359    -0.05583
 PZ  C  53  -0.00287     0.03376     0.02676     0.06871     0.15379    -0.06072
  
  S  N  54   0.01909     0.41188     0.13794     0.21593     0.44918    -0.13976
 PX  N  54   0.00632     0.13458     0.04093     0.05813     0.11883    -0.03466
 PY  N  54  -0.00262    -0.09370    -0.02784    -0.03877    -0.07937     0.02357
 PZ  N  54  -0.00693    -0.10204    -0.03173    -0.04596    -0.09384     0.02692
  
  S  C  55   0.01578     0.02565    -0.15463    -0.12382     0.15672     0.22700
 PX  C  55   0.00132     0.00372    -0.00472     0.00224    -0.00280     0.00065
 PY  C  55  -0.00230    -0.00380     0.01554     0.00645    -0.00823    -0.00670
 PZ  C  55   0.00411     0.00179    -0.02113    -0.03218     0.04653     0.10797
  
  S  C  56   0.02047     0.02108    -0.13847    -0.13171     0.17344     0.30835
 PX  C  56  -0.00044    -0.00038     0.00904     0.01024    -0.01308    -0.01875
 PY  C  56  -0.00172     0.00094    -0.00804    -0.00804     0.01069     0.01722
 PZ  C  56  -0.00208    -0.00652     0.03456     0.02451    -0.03196    -0.04595
  
  S  H  57  -0.02856     0.05060    -0.01308    -0.05391    -0.11671     0.03554
  
  S  H  58  -0.00254    -0.00908     0.02296     0.00390     0.00154     0.04870
  
  S  H  59  -0.00275    -0.00989     0.02297     0.00275     0.00306     0.04988
  
  S  H  60  -0.00287    -0.01009     0.02429     0.00372     0.00179     0.04835
  
  S  H  61  -0.00315    -0.01070     0.02101     0.00399    -0.00012     0.02543
  
  S  H  62  -0.00368    -0.01160     0.02576     0.00674    -0.00398     0.02090
  
  S  H  63  -0.00299    -0.00891     0.01190     0.00043    -0.00053    -0.00658
  
  S  H  64  -0.00151    -0.00618    -0.00535    -0.01247     0.01561     0.01231
  
  S  H  65  -0.00361    -0.00268     0.01771     0.02237    -0.03651    -0.09209
  
  S  H  66  -0.00141     0.00097    -0.00424     0.00742    -0.01818    -0.07448
  
  S  H  67   0.00204     0.00504    -0.01349     0.00434    -0.00270    -0.01588
  
  S  H  68  -0.00373     0.00400     0.03749     0.04249    -0.06588    -0.09772
  
  S  H  69  -0.00054     0.00472     0.02639     0.03785    -0.04481    -0.04518
  
  S  H  70  -0.01769    -0.00117     0.05947    -0.00159     0.00066     0.04426
  
  S  H  71   0.00002    -0.01442     0.06219    -0.00087     0.00721     0.04902
  
  S  H  72  -0.03563     0.00587     0.00054    -0.01959     0.00471    -0.00324
  
  S  H  73  -0.01162     0.00950    -0.06322     0.06033    -0.01296    -0.00573
  
  S  H  74  -0.03413    -0.00061     0.05511    -0.09556     0.02655    -0.02444
  
[...]
  10    C        6.985833775    -1.329640064    -1.111331742
  11    N        6.781739272    -0.021080895    -0.757505353
  12    C        7.593512566    -1.917724518    -2.246849497
  13    C        8.176014914    -1.262689051    -3.376982431
  14    C        8.666082265    -2.168378910    -4.273667873
  15    S        8.431883662    -3.803584140    -3.772076029
  16    C        7.663935891    -3.303539400    -2.330590493
  17    C        7.141952613    -4.127328486    -1.311900720
  18    C        6.535846563    -3.584037149    -0.185294150
  19    C        6.067251102    -4.582169252     0.726987962
  20    C        6.334204869    -5.837152576     0.266418315
  21    S        7.144866858    -5.835399588    -1.254342062
  22    C        6.009207826    -7.071143001     0.945881688
  23    C        5.546585195    -8.173263906     0.209086174
  24    C        5.228468604    -9.366075163     0.837358601
  25    C        5.366589183    -9.448810510     2.213796047
  26    C        5.821645974    -8.323587340     2.954148343
  27    C        6.159504589    -7.126897988     2.327152379
  28    N        5.883969436    -8.664436572     4.317406432
  29    C        6.231872525    -7.733957030     5.386430025
  30    C        5.229724772    -6.560668529     5.521898220
  31    C        6.010276495    -5.276102500     5.840613324
  32    C        5.098128026    -4.051586344     5.806434097
  33    C        5.865013920    -2.792157348     6.200527142
  34    C        4.956989077    -1.573986262     6.155036397
  35    C        4.208680061    -6.822342828     6.634290330
  36    C        3.191511142    -7.879489858     6.245514786
  37    C        5.468464030   -10.002916950     4.447028918
  38    C        5.146191069   -10.511860900     3.157954869
  39    C        4.723549014   -11.823538400     3.009209969
  40    C        4.629354712   -12.618284710     4.140361607
  41    C        4.956675644   -12.114644150     5.404140374
  42    C        5.381050269   -10.808124450     5.582131420
  43    C        9.313938589    -1.876998548    -5.511102284
  44    C       10.368547870    -2.571006450    -6.055842471
  45    C       10.769615820    -2.018791162    -7.301118281
  46    C       10.007977900    -0.923041644    -7.655614396
  47    S        8.818746904    -0.582198362    -6.490287173
  48    C       10.227886960    -0.200229319    -8.870053015
  49    C        9.600112735     0.935390415    -9.243463565
  50    C        9.942684596     1.553476171   -10.530407360
  51    O       10.763186130     1.145770035   -11.341015700
  52    O        9.253982825     2.681898374   -10.796307730
  53    C        8.616971578     1.586317745    -8.460188351
  54    N        7.811122586     2.139477512    -7.841219894
  55    C        3.837526974     2.253194181     2.338549781
  56    C        4.165455104     1.854398119     3.767309432
  57    H       10.988100660    -0.634637717    -9.541793543
  58    H       -0.408441191    -1.021010212     0.003781058
  59    H       -0.417664500     0.509207448     0.880500144
  60    H       -0.417963362     0.502009584    -0.884534106
  61    H        1.898436078    -0.567453774     0.875929836
  62    H        1.901619840    -0.559931083    -0.880395945
  63    H        1.652006623     1.980610349    -0.874921425
  64    H        1.675157752     1.988567142     0.883366080
  65    H        3.964608297     0.775860142    -0.811264599
  66    H        3.922908339     2.473394641    -0.376736707
  67    H        3.809179257     0.172610467     1.703698275
  68    H        6.150538344     1.996353410     0.723579848
  69    H        6.218281183     1.028869310     2.220613411
  70    H        8.213276871    -0.179056598    -3.472063547
  71    H        5.555239288    -4.336340248     1.654795764
  72    H        5.427973363    -8.088063927    -0.874817088
  73    H        4.874234097   -10.229094780     0.267746165
  74    H        6.540750117    -6.274894711     2.894220279
  75    H        6.331585265    -8.291001343     6.345099754
  76    H        7.262954542    -7.359050708     5.173906942
  77    H        4.679125704    -6.411627218     4.557239767
  78    H        6.508188174    -5.366560579     6.829006845
  79    H        6.842408141    -5.132193846     5.118184165
  80    H        4.652312565    -3.929874893     4.796423918
  81    H        4.225456685    -4.201898131     6.481871944
  82    H        6.303694098    -2.903825637     7.214750909
  83    H        6.738700462    -2.642620066     5.531311375
  84    H        4.099448851    -1.667136623     6.836940285
  85    H        5.490067137    -0.656202556     6.442917721
  86    H        4.546025082    -1.396637645     5.150272162
  87    H        4.716347818    -7.100190316     7.582384038
  88    H        3.676794190    -5.874055438     6.883185924
  89    H        2.645913613    -7.619486831     5.326777626
  90    H        3.647362900    -8.864531135     6.074816253
  91    H        2.433010714    -8.019656808     7.030103335
  92    H        4.474788935   -12.211748550     2.018393369
  93    H        4.297191370   -13.655855210     4.048304322
  94    H        4.875618846   -12.772826320     6.275189923
  95    H        5.636537897   -10.436815520     6.576125792
  96    H       10.853968710    -3.430888686    -5.600506840
  97    H       11.589655580    -2.424574783    -7.891210554
  98    H        9.512267404     3.053071357   -11.652426500
  99    H        4.338991386     3.209130874     2.077300030
 100    H        2.749364623     2.481406982     2.255854461
 101    H        5.243676664     1.724584796     3.940130369
 102    H        3.828356459     2.615873691     4.486344241
 103    H        3.683188191     0.910632386     4.062109049


           Empirical Formula: C46 H47 N5 O2 S3  =   103 atoms



      MOLECULAR POINT GROUP   :   C1  


                  EIGENVALUES  
 -50.82911 -48.70515 -46.74025 -44.91476 -44.14357 -44.08760 -43.46658 -43.01185
 -41.88785 -41.24993 -39.74686 -39.64901 -39.51315 -39.10315 -37.61060 -36.37989
 -36.18194 -35.48933 -35.24752 -35.05435 -34.48574 -33.30101 -32.98037 -32.59472
 -31.73269 -31.57087 -30.23907 -29.94450 -29.48582 -29.34998 -28.96425 -28.08958
 -27.72749 -26.82474 -26.47332 -26.27789 -26.16431 -26.01684 -25.70736 -25.27120
 -24.97950 -24.57795 -24.29789 -23.97174 -23.84116 -23.59901 -23.20814 -22.77043
 -22.36192 -21.96522 -21.80830 -21.01985 -20.60219 -20.39335 -20.35166 -20.12632
 -20.06773 -19.97864 -19.63490 -19.11278 -18.93545 -18.78234 -18.59546 -18.43314
 -18.34487 -18.09154 -17.92535 -17.75543 -17.60409 -17.27967 -17.18972 -16.89903
 -16.81851 -16.66309 -16.43264 -16.31093 -16.09657 -15.99529 -15.94826 -15.82094
 -15.76730 -15.70607 -15.57887 -15.34164 -15.17636 -15.02475 -14.98567 -14.81972
 -14.67059 -14.55855 -14.49645 -14.47887 -14.33603 -14.27490 -14.22820 -13.92619
 -13.81117 -13.77601 -13.73670 -13.61903 -13.56600 -13.49796 -13.47589 -13.35240
 -13.32968 -13.23245 -13.09845 -13.05213 -12.97203 -12.87974 -12.86444 -12.82955
 -12.77139 -12.71368 -12.54676 -12.48348 -12.39609 -12.26047 -12.25332 -12.08822
 -12.02290 -11.92942 -11.91442 -11.76480 -11.69831 -11.55257 -11.32329 -11.12341
 -10.96696 -10.81879 -10.73917 -10.73445 -10.66940 -10.18091 -10.05509  -9.49984
  -9.28146  -9.06654  -8.34646  -8.12418  -7.65938  -7.61976  -6.85047  -1.44079
  -0.91326  -0.02230   0.20634   0.66528   0.72362   0.85840   1.02207   1.13308
   1.31935   1.59707   1.69060   2.05680   2.09080   2.13876   2.16973   2.36489
   2.43561   2.72228   2.74846   2.80334   2.84076   2.97622   3.05183   3.20653
   3.25515   3.33641   3.42529   3.44200   3.46638   3.49702   3.60654   3.68132
   3.70441   3.82915   3.94937   3.97588   4.06347   4.19734   4.21241   4.26019
   4.39935   4.48161   4.57071   4.59979   4.71125   4.78036   4.86269   4.93657
   5.12203   5.13316   5.18992   5.26238   5.29717   5.45467   5.48906   5.52458
   5.69086   5.82050   6.36553   6.39807   6.44825   6.45385   6.49001   6.62401
   6.66968   6.75730   6.76037   6.79535   6.83259   6.89371   6.90661   6.93589
   6.94453   6.97129   6.98942   6.99767   7.00765   7.03399   7.05496   7.06839
   7.10338   7.54911   7.57560   7.67083   7.76816   8.16702   8.21160   8.39674
   8.41639   8.57558   8.60909   8.69411   8.69525   8.75732   8.85618   8.95867
   9.06367   9.14930   9.26160   9.41762   9.66941   9.79429  10.17113  10.23565
  10.37507  10.46950  10.50728  10.66845  10.83994  10.97074  11.06244  11.16086
  11.28287  11.46741  11.67620  12.01751  12.13181  12.60954  12.67859  13.01478
  13.17170  13.38910  13.83446  14.18108  14.34059  14.89243  15.19384


              NET ATOMIC CHARGES AND DIPOLE CONTRIBUTIONS

  ATOM NO.   TYPE          CHARGE      No. of ELECS.   s-Pop       p-Pop       
    1          C          -0.027460        4.0275     1.05481     2.97265
    2          C          -0.004563        4.0046     1.04372     2.96085
    3          C          -0.010300        4.0103     1.05220     2.95810
    4          C          -0.009242        4.0092     1.05503     2.95421
    5          C           0.016737        3.9833     1.03820     2.94507
    6          C           0.083184        3.9168     1.06219     2.85462
    7          N           0.131948        4.8681     1.26851     3.59954
    8          N          -0.261743        5.2617     1.67621     3.58553
    9          C           0.076524        3.9235     1.05836     2.86511
   10          C           0.078730        3.9213     1.05866     2.86261
   11          N          -0.265955        5.2660     1.67719     3.58877
   12          C           0.002663        3.9973     1.04125     2.95608
   13          C          -0.021943        4.0219     1.08834     2.93360
   14          C           0.038256        3.9617     1.07196     2.88978
   15          S          -0.057405        6.0574     1.77363     4.28378
   16          C           0.037248        3.9628     1.07475     2.88800
   17          C           0.025133        3.9749     1.07266     2.90220
   18          C           0.011596        3.9884     1.04468     2.94372
   19          C          -0.051240        4.0512     1.08468     2.96656
   20          C           0.046049        3.9540     1.08730     2.86665
   21          S          -0.062157        6.0622     1.77340     4.28876
   22          C           0.028256        3.9717     1.04146     2.93028
   23          C          -0.048481        4.0485     1.07897     2.96951
   24          C          -0.017910        4.0179     1.08140     2.93651
   25          C          -0.020748        4.0207     1.04682     2.97393
   26          C           0.077462        3.9225     1.05368     2.86886
   27          C          -0.050670        4.0507     1.07892     2.97175
   28          N          -0.154967        5.1550     1.23672     3.91825
   29          C           0.074361        3.9256     1.05623     2.86941
   30          C           0.008951        3.9910     1.04441     2.94664
   31          C          -0.012791        4.0128     1.05856     2.95424
   32          C          -0.011640        4.0116     1.05361     2.95803
   33          C          -0.007021        4.0070     1.04469     2.96233
   34          C          -0.027944        4.0279     1.05519     2.97275
   35          C          -0.006735        4.0067     1.05051     2.95623
   36          C          -0.031703        4.0317     1.05644     2.97526
   37          C           0.079745        3.9203     1.05093     2.86932
   38          C          -0.018531        4.0185     1.04731     2.97122
   39          C          -0.021687        4.0217     1.07915     2.94254
   40          C          -0.046127        4.0461     1.07742     2.96871
   41          C          -0.024898        4.0249     1.08043     2.94447
   42          C          -0.042672        4.0427     1.07589     2.96679
   43          C           0.084941        3.9151     1.07825     2.83681
   44          C          -0.046797        4.0468     1.08212     2.96468
   45          C           0.036764        3.9632     1.10077     2.86246
   46          C          -0.001731        4.0017     1.05962     2.94211
   47          S          -0.019795        6.0198     1.76687     4.25292
   48          C           0.121077        3.8789     1.09438     2.78454
   49          C           0.004171        3.9958     1.00043     2.99540
   50          C           0.495240        3.5048     1.04511     2.45965
   51          O          -0.612690        6.6127     1.81687     4.79582
   52          O          -0.311095        6.3111     1.68763     4.62347
   53          C           0.216474        3.7835     1.14918     2.63435
   54          N          -0.396315        5.3963     1.75360     3.64271
   55          C          -0.009164        4.0092     1.05063     2.95853
   56          C          -0.028633        4.0286     1.05551     2.97313
   57          H           0.059200        0.9408     0.94080
   58          H           0.000757        0.9992     0.99924
   59          H           0.008327        0.9917     0.99167
   60          H           0.008339        0.9917     0.99166
   61          H           0.007827        0.9922     0.99217
   62          H           0.006703        0.9933     0.99330
   63          H           0.001275        0.9987     0.99872
   64          H           0.013518        0.9865     0.98648
   65          H           0.004477        0.9955     0.99552
   66          H           0.003391        0.9966     0.99661
   67          H           0.019476        0.9805     0.98052
   68          H           0.034540        0.9655     0.96546
   69          H           0.031998        0.9680     0.96800
   70          H           0.042871        0.9571     0.95713
   71          H           0.035339        0.9647     0.96466
   72          H           0.020956        0.9790     0.97904
   73          H           0.024860        0.9751     0.97514
   74          H           0.029588        0.9704     0.97041
   75          H           0.022317        0.9777     0.97768
   76          H           0.015003        0.9850     0.98500
   77          H           0.016774        0.9832     0.98323
   78          H           0.009154        0.9908     0.99085
   79          H           0.002752        0.9972     0.99725
   80          H           0.006858        0.9931     0.99314
   81          H           0.012833        0.9872     0.98717
   82          H           0.006559        0.9934     0.99344
   83          H           0.006350        0.9936     0.99365
   84          H           0.007846        0.9922     0.99215
   85          H           0.000291        0.9997     0.99971
   86          H           0.008171        0.9918     0.99183
   87          H           0.009037        0.9910     0.99096
   88          H           0.007779        0.9922     0.99222
   89          H           0.007510        0.9925     0.99249
   90          H           0.012406        0.9876     0.98759
   91          H           0.000540        0.9995     0.99946
   92          H           0.023859        0.9761     0.97614
   93          H           0.016622        0.9834     0.98338
   94          H           0.019009        0.9810     0.98099
   95          H           0.027547        0.9725     0.97245
   96          H           0.037822        0.9622     0.96218
   97          H           0.048721        0.9513     0.95128
   98          H           0.245800        0.7542     0.75420
   99          H           0.011040        0.9890     0.98896
  100          H           0.009531        0.9905     0.99047
  101          H           0.010605        0.9894     0.98940
  102          H           0.002252        0.9977     0.99775
  103          H           0.008807        0.9912     0.99119
 DIPOLE           X         Y         Z       TOTAL
 POINT-CHG.     0.729    -3.053     6.655     7.358
 HYBRID         1.629     0.799     0.115     1.818
 SUM            2.358    -2.255     6.770     7.515


          ATOMIC ORBITAL ELECTRON POPULATIONS

     Atom    s        px        py        pz   
    1  C   1.05481   0.98961   0.98933   0.99371
    2  C   1.04372   0.99185   0.98238   0.98661
    3  C   1.05220   0.98697   0.98499   0.98615
    4  C   1.05503   0.99316   0.98622   0.97483
    5  C   1.03820   0.96611   0.98108   0.99787
    6  C   1.06219   0.99647   0.89591   0.96224
    7  N   1.26851   1.39044   1.06117   1.14793
    8  N   1.67621   1.29727   0.98781   1.30045
    9  C   1.05836   0.96727   0.93389   0.96396
   10  C   1.05866   0.96265   0.94193   0.95803
   11  N   1.67719   1.23751   1.28192   1.06934
   12  C   1.04125   1.00893   0.97912   0.96803
   13  C   1.08834   0.99542   0.93555   1.00263
   14  C   1.07196   1.01214   0.91121   0.96644
   15  S   1.77363   1.74553   1.21540   1.32285
   16  C   1.07475   0.99365   0.97912   0.91523
   17  C   1.07266   1.02854   0.88615   0.98751
   18  C   1.04468   1.00318   0.94482   0.99572
   19  C   1.08468   1.03012   0.98037   0.95607
   20  C   1.08730   0.96842   0.98767   0.91056
   21  S   1.77340   1.74862   1.19630   1.34384
   22  C   1.04146   0.98173   0.96542   0.98313
   23  C   1.07897   1.04543   0.98207   0.94201
   24  C   1.08140   0.98929   0.96694   0.98028
   25  C   1.04682   1.03404   0.98492   0.95497
   26  C   1.05368   0.98783   0.98887   0.89216
   27  C   1.07892   1.05434   0.95631   0.96110
   28  N   1.23672   1.69419   1.13500   1.08906
   29  C   1.05623   0.98298   0.95418   0.93226
   30  C   1.04441   0.98366   0.98288   0.98011
   31  C   1.05856   0.97397   0.99328   0.98699
   32  C   1.05361   0.97708   0.99340   0.98755
   33  C   1.04469   0.97451   1.00221   0.98561
   34  C   1.05519   0.99266   0.98717   0.99292
   35  C   1.05051   0.99149   0.98916   0.97558
   36  C   1.05644   0.98929   0.99477   0.99120
   37  C   1.05093   0.98251   0.88978   0.99703
   38  C   1.04731   1.02985   0.95961   0.98176
   39  C   1.07915   0.99978   0.98747   0.95529
   40  C   1.07742   1.02741   0.94985   0.99144
   41  C   1.08043   1.00152   0.97885   0.96410
   42  C   1.07589   1.04177   0.98295   0.94207
   43  C   1.07825   0.96967   0.93446   0.93268
   44  C   1.08212   1.00630   0.97030   0.98809
   45  C   1.10077   0.93084   0.95918   0.97245
   46  C   1.05962   0.98747   1.01252   0.94212
   47  S   1.76687   1.49930   1.45290   1.30072
   48  C   1.09438   0.89678   0.93571   0.95205
   49  C   1.00043   1.04181   1.00680   0.94679
   50  C   1.04511   0.76861   0.79741   0.89363
   51  O   1.81687   1.44192   1.76997   1.58393
   52  O   1.68763   1.70070   1.43325   1.48952
   53  C   1.14918   0.91316   0.85832   0.86287
   54  N   1.75360   1.20661   1.21247   1.22363
   55  C   1.05063   0.98672   0.97782   0.99400
   56  C   1.05551   0.99410   0.99250   0.98653
   57  H   0.94080
   58  H   0.99924
   59  H   0.99167
   60  H   0.99166
   61  H   0.99217
   62  H   0.99330
   63  H   0.99872
   64  H   0.98648
   65  H   0.99552
   66  H   0.99661
   67  H   0.98052
   68  H   0.96546
   69  H   0.96800
   70  H   0.95713
   71  H   0.96466
   72  H   0.97904
   73  H   0.97514
   74  H   0.97041
   75  H   0.97768
   76  H   0.98500
   77  H   0.98323
   78  H   0.99085
   79  H   0.99725
   80  H   0.99314
   81  H   0.98717
   82  H   0.99344
   83  H   0.99365
   84  H   0.99215
   85  H   0.99971
   86  H   0.99183
   87  H   0.99096
   88  H   0.99222
   89  H   0.99249
   90  H   0.98759
   91  H   0.99946
   92  H   0.97614
   93  H   0.98338
   94  H   0.98099
   95  H   0.97245
   96  H   0.96218
   97  H   0.95128
   98  H   0.75420
   99  H   0.98896
  100  H   0.99047
  101  H   0.98940
  102  H   0.99775
  103  H   0.99119

 **********************
 *                    *
 * JOB ENDED NORMALLY *
 *                    *
 **********************



 TOTAL JOB TIME:           746.37 SECONDS

 == MOPAC DONE ==
