 *******************************************************************************
 ** Site#: 4824         For non-commercial use only    Version 21.013L 64BITS **
 *******************************************************************************
 ** Cite this program as: MOPAC2016, Version: 21.013L, James J. P. Stewart,   **
 ** Stewart Computational Chemistry, web: HTTP://OpenMOPAC.net. Days left:  84**
 *******************************************************************************
 **                                                                           **
 **                                MOPAC2016                                  **
 **                                                                           **
 *******************************************************************************

                              INDO CALCULATION RESULTS

 *******************************************************************************
 *  CALCULATION DONE:                                Thu Oct 21 23:40:28 2021  *
 *  INDO       - The INDO Hamiltonian to be used
 *  CIS        - C.I. USES 1 ELECTRON EXCITATIONS ONLY
 *  EPS= 32.70 - USE ANDREAS KLAMT'S COSMO IMPLICIT SOLVATION MODEL
 *  n**2 =  1.320 for COSMO-CI
 *  T=         - A TIME OF 172800.0 SECONDS REQUESTED
 *  DUMP=N     - RESTART FILE WRITTEN EVERY 7200.0 SECONDS REQUESTED
 *******************************************************************************
INDO CIS EPS=32.7 N**2=1.32
 Dye87
 Calculo de Estados Excitados
   ATOM   CHEMICAL          X               Y               Z
  NUMBER   SYMBOL      (ANGSTROMS)     (ANGSTROMS)     (ANGSTROMS)
 
     1       C         -0.25578095  *   0.59304574  *  -0.17983450  *
     2       C          1.25797255  *   0.48881629  *  -0.08977808  *
     3       C          1.89827136  *   1.87458639  *  -0.11136256  *
     4       C          3.41875895  *   1.77070253  *  -0.01695869  *
     5       C          4.05711166  *   3.15789600  *  -0.04033129  *
     6       C          5.57849256  *   3.05255339  *   0.04658971  *
     7       C          6.21060237  *   4.44533363  *   0.04999843  *
     8       C          7.74114212  *   4.31120016  *   0.01969031  *
     9       N          8.42129234  *   5.53863047  *   0.48666912  *
    10       C          7.93551910  *   6.85248679  *   0.18915327  *
    11       O          7.10360671  *   7.06918512  *  -0.66917846  *
    12       C          8.59365906  *   7.85723952  *   1.04233813  *
    13       C          8.26157400  *   9.15351799  *   0.96844000  *
    14       C          8.82081655  *  10.20807910  *   1.76383781  *
    15       C          8.89610227  *  11.51258565  *   1.33849721  *
    16       C          9.48944133  *  12.36294565  *   2.31755972  *
    17       C          9.82771360  *  11.67425872  *   3.45163383  *
    18       S          9.43672100  *  10.01906143  *   3.34354091  *
    19       C         10.42291108  *  12.24371122  *   4.63759942  *
    20       C          9.97643428  *  13.47727905  *   5.09490086  *
    21       C         10.51723683  *  14.06186514  *   6.24585935  *
    22       C         11.50874447  *  13.37396259  *   6.91235905  *
    23       C         11.98718413  *  12.12400700  *   6.42600206  *
    24       C         11.45211046  *  11.55256617  *   5.30426810  *
    25       C         13.13250704  *  11.74804222  *   7.29225801  *
    26       C         13.56857224  *  10.39303638  *   7.80713392  *
    27       C         14.33651707  *  10.79019073  *   9.09925841  *
    28       C         13.94998692  *  12.25079639  *   9.46652219  *
    29       C         12.70241264  *  12.43824626  *   8.62384583  *
    30       N         12.06775292  *  13.72708777  *   8.20639071  *
    31       C         12.90551215  *  14.89097609  *   8.26667140  *
    32       C         13.27439342  *  15.62126274  *   7.12551234  *
    33       C         14.01949127  *  16.78631317  *   7.22754893  *
    34       C         14.40101961  *  17.20165510  *   8.49786880  *
    35       C         14.02306022  *  16.46957611  *   9.65565702  *
    36       C         13.27707936  *  15.31123174  *   9.54753671  *
    37       C         14.55127096  *  17.17956303  *  10.79413207  *
    38       C         14.49179650  *  16.94060155  *  12.15673653  *
    39       C         15.10439605  *  17.84569025  *  13.01121973  *
    40       C         15.76728110  *  18.97133992  *  12.51347382  *
    41       C         15.84625099  *  19.22991465  *  11.15333860  *
    42       C         15.23532982  *  18.32054806  *  10.29428916  *
    43       N         15.22239945  *  18.28865239  *   8.88114833  *
    44       C         15.45635236  *  19.45520365  *   8.03334229  *
    45       C         14.21619700  *  20.35503321  *   7.93146917  *
    46       C         14.50952187  *  21.54915552  *   7.02840862  *
    47       C         13.28497281  *  22.45415743  *   6.91800929  *
    48       C         13.57512680  *  23.64354196  *   6.01722075  *
    49       S          9.79696431  *   7.12934429  *   2.04322681  *
    50       C          9.51718066  *   5.53160546  *   1.33497666  *
    51       C         10.36023691  *   4.50795686  *   1.62285557  *
    52       C         10.44196388  *   3.26196084  *   0.86521295  *
    53       O         10.37099202  *   3.12420243  *  -0.34738276  *
    54       O         10.66270172  *   2.17942912  *   1.64146755  *
    55       C         11.30843757  *   4.65245229  *   2.66331692  *
    56       N         12.08607111  *   4.75718463  *   3.51350464  *
    57       H          7.50256061  *   9.47256981  *   0.23417847  *
    58       H         -0.58550910  *   1.09132852  *  -1.10289868  *
    59       H         -0.73545428  *  -0.39642131  *  -0.16776560  *
    60       H         -0.68538252  *   1.16123834  *   0.65781827  *
    61       H          1.54903943  *  -0.06053662  *   0.83052879  *
    62       H          1.64847455  *  -0.13342142  *  -0.92274141  *
    63       H          1.60356485  *   2.41885242  *  -1.03346080  *
    64       H          1.50021398  *   2.49436340  *   0.71975044  *
    65       H          3.71097054  *   1.22599925  *   0.90572155  *
    66       H          3.81526305  *   1.14942497  *  -0.84772612  *
    67       H          3.75870380  *   3.70361709  *  -0.96049039  *
    68       H          3.66529268  *   3.77761845  *   0.79381544  *
    69       H          5.87049450  *   2.48694687  *   0.95699769  *
    70       H          5.97326319  *   2.45219710  *  -0.80042230  *
    71       H          5.84342106  *   5.02092332  *  -0.82562207  *
    72       H          5.87066397  *   5.01868574  *   0.93757529  *
    73       H          8.03935191  *   3.46258226  *   0.67903740  *
    74       H          8.09675471  *   4.06175242  *  -1.00796024  *
    75       H          8.55959939  *  11.87204352  *   0.36786110  *
    76       H          9.65477656  *  13.42574660  *   2.15823409  *
    77       H          9.17646650  *  14.00307281  *   4.56380030  *
    78       H         10.15213068  *  15.02613274  *   6.60874464  *
    79       H         11.82461307  *  10.59509232  *   4.93133141  *
    80       H         14.02914442  *  12.24560512  *   6.83020331  *
    81       H         12.71427098  *   9.72120900  *   8.01607459  *
    82       H         14.20099172  *   9.83287317  *   7.09412311  *
    83       H         14.09922225  *  10.09521159  *   9.92644274  *
    84       H         15.42963189  *  10.69925857  *   8.95653633  *
    85       H         13.77603888  *  12.37844718  *  10.55100815  *
    86       H         14.75300491  *  12.97195504  *   9.21963231  *
    87       H         11.85058881  *  11.89281296  *   9.11886351  *
    88       H         12.97661058  *  15.27784996  *   6.12931312  *
    89       H         14.29611155  *  17.34777586  *   6.33283872  *
    90       H         12.98146669  *  14.76097641  *  10.44504931  *
    91       H         13.97142630  *  16.05941171  *  12.54010550  *
    92       H         15.06905241  *  17.67959049  *  14.09133128  *
    93       H         16.23569110  *  19.66714935  *  13.21693429  *
    94       H         16.36898079  *  20.11263686  *  10.78156605  *
    95       H         16.32977278  *  20.01993729  *   8.43338814  *
    96       H         15.77671248  *  19.10000869  *   7.02622867  *
    97       H         13.35075603  *  19.77448738  *   7.54689651  *
    98       H         13.90183038  *  20.69358843  *   8.94134901  *
    99       H         15.37775853  *  22.12434201  *   7.41442357  *
   100       H         14.82458900  *  21.20584911  *   6.02013283  *
   101       H         12.41359466  *  21.88449496  *   6.53116762  *
   102       H         12.96736316  *  22.80357941  *   7.92325327  *
   103       H         14.40392433  *  24.26022415  *   6.39385573  *
   104       H         13.84568153  *  23.33794846  *   4.99620699  *
   105       H         12.70432699  *  24.30887830  *   5.92604978  *
   106       H         10.79391112  *   1.38502844  *   1.10412706  *
 


          CARTESIAN COORDINATES 

    NO.       ATOM           X           Y           Z

     1         C         -0.2558      0.5930     -0.1798
     2         C          1.2580      0.4888     -0.0898
     3         C          1.8983      1.8746     -0.1114
     4         C          3.4188      1.7707     -0.0170
     5         C          4.0571      3.1579     -0.0403
     6         C          5.5785      3.0526      0.0466
     7         C          6.2106      4.4453      0.0500
     8         C          7.7411      4.3112      0.0197
     9         N          8.4213      5.5386      0.4867
    10         C          7.9355      6.8525      0.1892
    11         O          7.1036      7.0692     -0.6692
    12         C          8.5937      7.8572      1.0423
    13         C          8.2616      9.1535      0.9684
    14         C          8.8208     10.2081      1.7638
    15         C          8.8961     11.5126      1.3385
    16         C          9.4894     12.3629      2.3176
    17         C          9.8277     11.6743      3.4516
    18         S          9.4367     10.0191      3.3435
    19         C         10.4229     12.2437      4.6376
    20         C          9.9764     13.4773      5.0949
    21         C         10.5172     14.0619      6.2459
    22         C         11.5087     13.3740      6.9124
    23         C         11.9872     12.1240      6.4260
    24         C         11.4521     11.5526      5.3043
    25         C         13.1325     11.7480      7.2923
    26         C         13.5686     10.3930      7.8071
    27         C         14.3365     10.7902      9.0993
    28         C         13.9500     12.2508      9.4665
    29         C         12.7024     12.4382      8.6238
    30         N         12.0678     13.7271      8.2064
    31         C         12.9055     14.8910      8.2667
    32         C         13.2744     15.6213      7.1255
    33         C         14.0195     16.7863      7.2275
    34         C         14.4010     17.2017      8.4979
    35         C         14.0231     16.4696      9.6557
    36         C         13.2771     15.3112      9.5475
    37         C         14.5513     17.1796     10.7941
    38         C         14.4918     16.9406     12.1567
    39         C         15.1044     17.8457     13.0112
    40         C         15.7673     18.9713     12.5135
    41         C         15.8463     19.2299     11.1533
    42         C         15.2353     18.3205     10.2943
    43         N         15.2224     18.2887      8.8811
    44         C         15.4564     19.4552      8.0333
    45         C         14.2162     20.3550      7.9315
    46         C         14.5095     21.5492      7.0284
    47         C         13.2850     22.4542      6.9180
    48         C         13.5751     23.6435      6.0172
    49         S          9.7970      7.1293      2.0432
    50         C          9.5172      5.5316      1.3350
    51         C         10.3602      4.5080      1.6229
    52         C         10.4420      3.2620      0.8652
    53         O         10.3710      3.1242     -0.3474
    54         O         10.6627      2.1794      1.6415
    55         C         11.3084      4.6525      2.6633
    56         N         12.0861      4.7572      3.5135
    57         H          7.5026      9.4726      0.2342
    58         H         -0.5855      1.0913     -1.1029
    59         H         -0.7355     -0.3964     -0.1678
    60         H         -0.6854      1.1612      0.6578
    61         H          1.5490     -0.0605      0.8305
    62         H          1.6485     -0.1334     -0.9227
    63         H          1.6036      2.4189     -1.0335
    64         H          1.5002      2.4944      0.7198
    65         H          3.7110      1.2260      0.9057
    66         H          3.8153      1.1494     -0.8477
    67         H          3.7587      3.7036     -0.9605
    68         H          3.6653      3.7776      0.7938
    69         H          5.8705      2.4869      0.9570
    70         H          5.9733      2.4522     -0.8004
    71         H          5.8434      5.0209     -0.8256
    72         H          5.8707      5.0187      0.9376
    73         H          8.0394      3.4626      0.6790
    74         H          8.0968      4.0618     -1.0080
    75         H          8.5596     11.8720      0.3679
    76         H          9.6548     13.4257      2.1582
    77         H          9.1765     14.0031      4.5638
    78         H         10.1521     15.0261      6.6087
    79         H         11.8246     10.5951      4.9313
    80         H         14.0291     12.2456      6.8302
    81         H         12.7143      9.7212      8.0161
    82         H         14.2010      9.8329      7.0941
    83         H         14.0992     10.0952      9.9264
    84         H         15.4296     10.6993      8.9565
    85         H         13.7760     12.3784     10.5510
    86         H         14.7530     12.9720      9.2196
    87         H         11.8506     11.8928      9.1189
    88         H         12.9766     15.2778      6.1293
    89         H         14.2961     17.3478      6.3328
    90         H         12.9815     14.7610     10.4450
    91         H         13.9714     16.0594     12.5401
    92         H         15.0691     17.6796     14.0913
    93         H         16.2357     19.6671     13.2169
    94         H         16.3690     20.1126     10.7816
    95         H         16.3298     20.0199      8.4334
    96         H         15.7767     19.1000      7.0262
    97         H         13.3508     19.7745      7.5469
    98         H         13.9018     20.6936      8.9413
    99         H         15.3778     22.1243      7.4144
   100         H         14.8246     21.2058      6.0201
   101         H         12.4136     21.8845      6.5312
   102         H         12.9674     22.8036      7.9233
   103         H         14.4039     24.2602      6.3939
   104         H         13.8457     23.3379      4.9962
   105         H         12.7043     24.3089      5.9260
   106         H         10.7939      1.3850      1.1041

           Empirical Formula: C47 H50 N4 O3 S2  =   106 atoms



      MOLECULAR POINT GROUP   :   C1  


      RHF CALCULATION, NO. OF DOUBLY OCCUPIED LEVELS = 144

 WARNING: INDO only performs single-point calculations

 Summary of symmetry occupancy in each shell:

 SHELL     
    1  144
    v  130
 TOTAL 274




    ROOT NO.    1           2           3           4           5           6

           -49.37999   -48.39125   -47.89881   -46.37524   -43.92413   -43.11118
  
  
  S  C   1   0.00000    -0.00000     0.00200    -0.00251    -0.00269     0.00674
 PX  C   1   0.00000    -0.00000     0.00089    -0.00107    -0.00105     0.00254
 PY  C   1   0.00000    -0.00000     0.00024    -0.00027    -0.00023     0.00053
 PZ  C   1   0.00000    -0.00000     0.00004    -0.00005    -0.00005     0.00012
  
  S  C   2   0.00000    -0.00000     0.00454    -0.00528    -0.00489     0.01157
 PX  C   2   0.00000    -0.00000     0.00100    -0.00097    -0.00057     0.00101
 PY  C   2   0.00000    -0.00000     0.00139    -0.00155    -0.00127     0.00285
 PZ  C   2   0.00000    -0.00000     0.00000     0.00001     0.00002    -0.00006
  
  S  C   3   0.00000    -0.00001     0.00926    -0.00976    -0.00728     0.01578
 PX  C   3   0.00000    -0.00000     0.00319    -0.00297    -0.00155     0.00270
 PY  C   3   0.00000    -0.00000     0.00030    -0.00007     0.00043    -0.00136
 PZ  C   3   0.00000    -0.00000     0.00018    -0.00017    -0.00011     0.00022
  
  S  C   4   0.00001    -0.00002     0.01812    -0.01680    -0.00970     0.01850
 PX  C   4   0.00000    -0.00000     0.00335    -0.00219    -0.00021    -0.00073
 PY  C   4   0.00000    -0.00001     0.00516    -0.00448    -0.00193     0.00305
 PZ  C   4   0.00000    -0.00000     0.00000     0.00007     0.00007    -0.00018
  
  S  C   5   0.00002    -0.00004     0.03532    -0.02956    -0.01222     0.01961
 PX  C   5   0.00001    -0.00001     0.01173    -0.00835    -0.00203     0.00173
 PY  C   5   0.00000    -0.00000     0.00102    -0.00045     0.00107    -0.00269
 PZ  C   5   0.00000    -0.00000     0.00076    -0.00046    -0.00017     0.00021
  
  S  C   6   0.00004    -0.00008     0.06822    -0.04737    -0.01488     0.01910
 PX  C   6   0.00001    -0.00001     0.01259    -0.00430     0.00011    -0.00211
 PY  C   6   0.00001    -0.00002     0.01927    -0.01387    -0.00268     0.00227
 PZ  C   6   0.00000    -0.00000     0.00089     0.00010     0.00004    -0.00016
  
  S  C   7   0.00010    -0.00017     0.13835    -0.09834    -0.01799     0.01656
 PX  C   7   0.00004    -0.00006     0.04860    -0.02952    -0.00307     0.00031
 PY  C   7   0.00001    -0.00002     0.00977    -0.01351     0.00164    -0.00349
 PZ  C   7   0.00000    -0.00001     0.00455    -0.00138    -0.00031     0.00012
  
  S  C   8   0.00017    -0.00030     0.24881    -0.12905    -0.02207     0.01464
 PX  C   8   0.00002    -0.00004     0.03555     0.00675     0.00014    -0.00184
 PY  C   8   0.00007    -0.00011     0.07877    -0.07169    -0.00542     0.00141
 PZ  C   8   0.00003    -0.00005     0.03745    -0.01442    -0.00260     0.00133
  
  S  N   9   0.00037    -0.00057     0.44100    -0.28942    -0.02738     0.01116
 PX  N   9   0.00000    -0.00000     0.00424     0.02108     0.00115    -0.00076
 PY  N   9   0.00005    -0.00005     0.01959    -0.05295     0.00319    -0.00404
 PZ  N   9   0.00002    -0.00002     0.01404     0.00118    -0.00005     0.00001
  
  S  C  10   0.00040    -0.00051     0.32421    -0.29652    -0.00044    -0.00779
 PX  C  10   0.00001    -0.00001     0.00559     0.01560    -0.00123     0.00199
 PY  C  10   0.00000     0.00006    -0.07766     0.04489     0.01471    -0.00846
 PZ  C  10   0.00001    -0.00000    -0.00440     0.02117     0.00038     0.00139
  
  S  O  11   0.00027    -0.00035     0.22577    -0.24297     0.00267    -0.01015
 PX  O  11   0.00008    -0.00010     0.06216    -0.06524     0.00092    -0.00289
 PY  O  11  -0.00002     0.00004    -0.03365     0.02884     0.00386    -0.00174
 PZ  O  11   0.00008    -0.00010     0.06503    -0.06858     0.00111    -0.00297
  
  S  C  12   0.00058    -0.00046     0.15824    -0.14772     0.03465    -0.02131
 PX  C  12  -0.00001     0.00002    -0.01433     0.01947    -0.00099     0.00154
 PY  C  12   0.00016    -0.00003    -0.06641     0.05025     0.02216    -0.00971
 PZ  C  12   0.00001     0.00002    -0.02793     0.02968     0.00303    -0.00014
  
  S  C  13   0.00122    -0.00072     0.06022    -0.06772     0.08322    -0.04069
 PX  C  13   0.00025    -0.00013     0.00152    -0.00113     0.01516    -0.00658
 PY  C  13   0.00044    -0.00020    -0.03108     0.03123     0.02381    -0.00838
 PZ  C  13   0.00030    -0.00016    -0.00487     0.00538     0.01792    -0.00737
  
  S  C  14   0.00433    -0.00222     0.02055    -0.02735     0.19790    -0.08199
 PX  C  14   0.00074    -0.00036    -0.00153     0.00167     0.02190    -0.00757
 PY  C  14   0.00167    -0.00083    -0.00608     0.00595     0.06138    -0.02245
 PZ  C  14   0.00096    -0.00046    -0.00321     0.00369     0.02282    -0.00700
  
  S  C  15   0.00505    -0.00254     0.00937    -0.01460     0.20796    -0.08259
 PX  C  15   0.00094    -0.00045     0.00008    -0.00039     0.02860    -0.01022
 PY  C  15  -0.00022     0.00015    -0.00348     0.00485    -0.02653     0.01249
 PZ  C  15   0.00233    -0.00115     0.00155    -0.00291     0.07949    -0.02956
  
  S  C  16   0.01108    -0.00510     0.00544    -0.00967     0.24916    -0.08421
 PX  C  16   0.00135    -0.00055    -0.00049     0.00076    -0.00044     0.00358
 PY  C  16  -0.00167     0.00089    -0.00255     0.00430    -0.08107     0.03253
 PZ  C  16   0.00455    -0.00196     0.00003    -0.00027     0.04369    -0.00784
  
  S  C  17   0.02422    -0.01052     0.00513    -0.00934     0.31484    -0.08839
 PX  C  17   0.00429    -0.00170    -0.00093     0.00146    -0.00397     0.00888
 PY  C  17   0.00499    -0.00201    -0.00073     0.00090     0.02195     0.00198
 PZ  C  17   0.00810    -0.00317    -0.00186     0.00299    -0.01295     0.02009
  
  S  S  18   0.00801    -0.00370     0.00863    -0.01240     0.17757    -0.06331
 PX  S  18   0.00147    -0.00061    -0.00164     0.00201     0.00057     0.00258
 PY  S  18   0.00475    -0.00219     0.00053    -0.00182     0.09571    -0.03154
 PZ  S  18   0.00042    -0.00006    -0.00481     0.00661    -0.05010     0.02335
  
  S  C  19   0.07674    -0.03032     0.00174    -0.00416     0.37016    -0.04816
 PX  C  19   0.01527    -0.00571    -0.00029     0.00046     0.01422     0.00354
 PY  C  19   0.01109    -0.00397    -0.00018     0.00021     0.02772     0.00782
 PZ  C  19   0.02733    -0.01014    -0.00057     0.00087     0.03353     0.01158
  
  S  C  20   0.07477    -0.02822     0.00087    -0.00244     0.30164    -0.01284
 PX  C  20   0.02715    -0.00989     0.00005    -0.00030     0.07172     0.00239
 PY  C  20  -0.01562     0.00657    -0.00032     0.00081    -0.07714     0.01375
 PZ  C  20   0.02009    -0.00689    -0.00024     0.00036     0.02262     0.01328
  
  S  C  21   0.12167    -0.03974     0.00021    -0.00111     0.23472     0.04520
 PX  C  21   0.04335    -0.01276    -0.00008     0.00002     0.02344     0.02276
 PY  C  21  -0.03914     0.01521    -0.00011     0.00049    -0.09178     0.00487
 PZ  C  21   0.01872    -0.00402    -0.00018     0.00043    -0.04764     0.02303
  
  S  C  22   0.30824    -0.09785    -0.00033    -0.00032     0.18581     0.08544
 PX  C  22   0.07680    -0.02234    -0.00027     0.00050    -0.05931     0.01642
 PY  C  22  -0.03987     0.01890     0.00002     0.00012    -0.02544     0.05010
 PZ  C  22   0.06931    -0.01834    -0.00034     0.00075    -0.09859     0.04041
  
  S  C  23   0.26621    -0.09364    -0.00016    -0.00061     0.17811    -0.04391
 PX  C  23   0.02199    -0.00676    -0.00023     0.00058    -0.09412    -0.02059
 PY  C  23   0.05609    -0.01720    -0.00007    -0.00005     0.04429     0.03767
 PZ  C  23   0.08180    -0.02634    -0.00036     0.00071    -0.08466    -0.00413
  
  S  C  24   0.10705    -0.04094     0.00069    -0.00207     0.26813    -0.04539
 PX  C  24   0.00463    -0.00125    -0.00029     0.00067    -0.06294    -0.00125
 PY  C  24   0.03675    -0.01359     0.00011    -0.00049     0.09388     0.00006
 PZ  C  24   0.03723    -0.01338    -0.00027     0.00043     0.00011    -0.00368
  
  S  C  25   0.31476    -0.11023    -0.00070     0.00084    -0.09999    -0.17987
 PX  C  25  -0.05121     0.01720     0.00006     0.00005    -0.04132    -0.03091
 PY  C  25   0.05973    -0.01707    -0.00011     0.00008     0.02450     0.05488
 PZ  C  25   0.06504    -0.02216    -0.00022     0.00043    -0.08000    -0.06346
  
  S  C  26   0.17150    -0.06392    -0.00045     0.00070    -0.14250    -0.22426
 PX  C  26  -0.01424     0.00508     0.00002    -0.00000    -0.00716    -0.00306
 PY  C  26   0.07631    -0.02743    -0.00020     0.00029    -0.05060    -0.07131
 PZ  C  26   0.02084    -0.00759    -0.00008     0.00015    -0.03485    -0.03742
  
  S  C  27   0.15073    -0.05513    -0.00043     0.00074    -0.16160    -0.21922
 PX  C  27  -0.04408     0.01613     0.00012    -0.00020     0.03781     0.05138
 PY  C  27   0.04286    -0.01445    -0.00012     0.00020    -0.03716    -0.03959
 PZ  C  27  -0.03510     0.01320     0.00009    -0.00015     0.02904     0.04469
  
  S  C  28   0.19375    -0.06229    -0.00053     0.00088    -0.16369    -0.16267
 PX  C  28  -0.04705     0.01538     0.00012    -0.00018     0.02260     0.01340
 PY  C  28  -0.01331     0.00990     0.00005    -0.00010     0.03360     0.07357
 PZ  C  28  -0.06972     0.02401     0.00018    -0.00028     0.04467     0.04927
  
  S  C  29   0.36217    -0.11659    -0.00088     0.00121    -0.14080    -0.09554
 PX  C  29   0.00223    -0.00137    -0.00004     0.00015    -0.05460    -0.07246
 PY  C  29   0.03338    -0.00267    -0.00005     0.00003     0.03479     0.11945
 PZ  C  29  -0.09692     0.03316     0.00020    -0.00018    -0.00809    -0.00435
  
  S  N  30   0.39680    -0.10727    -0.00087     0.00104    -0.02238     0.19845
 PX  N  30   0.06261    -0.01309    -0.00016     0.00027    -0.03090     0.03325
 PY  N  30  -0.06347     0.03077     0.00015    -0.00015     0.00896     0.06023
 PZ  N  30  -0.06769     0.02285     0.00012    -0.00005    -0.02707    -0.02438
  
  S  C  31   0.23111     0.01815    -0.00041     0.00066    -0.03367     0.32821
 PX  C  31  -0.02773     0.03204     0.00009    -0.00007    -0.00750     0.01813
 PY  C  31  -0.07065     0.05873     0.00022    -0.00023     0.00890     0.04621
 PZ  C  31  -0.01320     0.01286     0.00003     0.00002    -0.01631    -0.00376
  
  S  C  32   0.12375     0.05399    -0.00014     0.00027    -0.00498     0.27853
 PX  C  32  -0.01393     0.02053     0.00005    -0.00002    -0.00658     0.01137
 PY  C  32  -0.03200     0.03078     0.00010    -0.00009    -0.00264     0.01027
 PZ  C  32   0.03947     0.02756    -0.00004     0.00013    -0.01251     0.09892
  
  S  C  33   0.07529     0.13236     0.00007     0.00009    -0.00816     0.22158
 PX  C  33  -0.00592     0.01396     0.00004    -0.00004     0.00105    -0.03561
 PY  C  33  -0.01380     0.01495     0.00005    -0.00007     0.00366    -0.06598
 PZ  C  33   0.02836     0.06530     0.00005     0.00002    -0.00552     0.06949
  
  S  C  34   0.11928     0.34806     0.00035    -0.00006    -0.00586     0.16187
 PX  C  34   0.00206     0.04914     0.00008    -0.00008     0.00584    -0.06501
 PY  C  34  -0.00022     0.06482     0.00012    -0.00012     0.00980    -0.09860
 PZ  C  34   0.02376     0.10203     0.00013    -0.00007     0.00148    -0.03603
  
  S  C  35   0.11219     0.27835     0.00024     0.00004    -0.01593     0.16291
 PX  C  35   0.00618     0.05993     0.00009    -0.00008     0.00521    -0.04778
 PY  C  35   0.01033     0.09821     0.00015    -0.00012     0.00929    -0.06194
 PZ  C  35  -0.02177    -0.02460     0.00001    -0.00006     0.00545    -0.10036
  
  S  C  36   0.12445     0.08726    -0.00012     0.00035    -0.03700     0.24246
 PX  C  36  -0.00392     0.03099     0.00006    -0.00004    -0.00008     0.00742
 PY  C  36  -0.01323     0.05429     0.00012    -0.00011     0.00751     0.03074
 PZ  C  36  -0.04431    -0.01109     0.00007    -0.00014     0.00923    -0.10273
  
  S  C  37   0.07999     0.29196     0.00034    -0.00014     0.00276    -0.11226
 PX  C  37   0.00402     0.02695     0.00004    -0.00003     0.00297    -0.04363
 PY  C  37   0.00918     0.05316     0.00008    -0.00006     0.00490    -0.06267
 PZ  C  37  -0.02878    -0.09562    -0.00010     0.00003     0.00129    -0.06379
  
  S  C  38   0.03138     0.12146     0.00015    -0.00007     0.00297    -0.14581
 PX  C  38   0.00343     0.01825     0.00003    -0.00002     0.00162    -0.03673
 PY  C  38   0.00686     0.03445     0.00005    -0.00003     0.00267    -0.06070
 PZ  C  38  -0.01300    -0.04677    -0.00005     0.00002     0.00008     0.01388
  
  S  C  39   0.02030     0.08904     0.00012    -0.00007     0.00508    -0.16662
 PX  C  39  -0.00026    -0.00002     0.00000    -0.00000     0.00032    -0.00429
 PY  C  39   0.00062     0.00452     0.00001    -0.00001     0.00076    -0.01384
 PZ  C  39  -0.01043    -0.04514    -0.00006     0.00004    -0.00224     0.06811
  
  S  C  40   0.02050     0.09280     0.00012    -0.00008     0.00613    -0.17347
 PX  C  40  -0.00416    -0.01829    -0.00002     0.00001    -0.00098     0.02993
 PY  C  40  -0.00596    -0.02613    -0.00003     0.00002    -0.00137     0.04395
 PZ  C  40  -0.00770    -0.03429    -0.00004     0.00003    -0.00199     0.04665
  
  S  C  41   0.03391     0.14879     0.00019    -0.00012     0.00834    -0.17659
 PX  C  41  -0.00854    -0.03624    -0.00005     0.00003    -0.00159     0.03404
 PY  C  41  -0.01277    -0.05432    -0.00007     0.00004    -0.00237     0.05660
 PZ  C  41  -0.00731    -0.02927    -0.00004     0.00002    -0.00075    -0.02034
  
  S  C  42   0.08950     0.36094     0.00045    -0.00023     0.01160    -0.16936
 PX  C  42  -0.01304    -0.04635    -0.00005     0.00002     0.00023    -0.00761
 PY  C  42  -0.01858    -0.06484    -0.00007     0.00002     0.00081    -0.00734
 PZ  C  42  -0.02529    -0.09589    -0.00011     0.00005    -0.00147    -0.05607
  
  S  N  43   0.11814     0.46666     0.00057    -0.00028     0.01379    -0.06071
 PX  N  43  -0.01962    -0.07073    -0.00008     0.00003    -0.00049    -0.01079
 PY  N  43  -0.01399    -0.04103    -0.00004     0.00000     0.00247    -0.02909
 PZ  N  43   0.01432     0.05871     0.00007    -0.00004     0.00119    -0.03021
  
  S  C  44   0.05064     0.21144     0.00027    -0.00015     0.01080    -0.05213
 PX  C  44  -0.00971    -0.03922    -0.00005     0.00003    -0.00178     0.00481
 PY  C  44  -0.01695    -0.06634    -0.00008     0.00004    -0.00143    -0.00045
 PZ  C  44   0.01389     0.05870     0.00007    -0.00004     0.00232    -0.01831
  
  S  C  45   0.02790     0.11975     0.00015    -0.00009     0.00846    -0.04403
 PX  C  45   0.00640     0.02802     0.00004    -0.00002     0.00171    -0.00983
 PY  C  45  -0.00942    -0.03710    -0.00005     0.00002    -0.00081    -0.00058
 PZ  C  45   0.00304     0.01258     0.00002    -0.00001     0.00010    -0.00230
  
  S  C  46   0.01141     0.05244     0.00007    -0.00005     0.00609    -0.03634
 PX  C  46  -0.00026    -0.00142    -0.00000     0.00000    -0.00050     0.00326
 PY  C  46  -0.00369    -0.01574    -0.00002     0.00001    -0.00093     0.00358
 PZ  C  46   0.00242     0.01082     0.00001    -0.00001     0.00086    -0.00509
  
  S  C  47   0.00530     0.02552     0.00003    -0.00003     0.00410    -0.02652
 PX  C  47   0.00135     0.00647     0.00001    -0.00001     0.00094    -0.00596
 PY  C  47  -0.00155    -0.00696    -0.00001     0.00001    -0.00067     0.00348
 PZ  C  47   0.00046     0.00199     0.00000    -0.00000     0.00008    -0.00031
  
  S  C  48   0.00215     0.01085     0.00002    -0.00001     0.00226    -0.01548
 PX  C  48   0.00012     0.00057     0.00000    -0.00000     0.00007    -0.00043
 PY  C  48  -0.00087    -0.00429    -0.00001     0.00000    -0.00076     0.00500
 PZ  C  48   0.00052     0.00260     0.00000    -0.00000     0.00048    -0.00322
  
  S  S  49   0.00028    -0.00025     0.11208    -0.07712     0.00999    -0.00655
 PX  S  49  -0.00009     0.00009    -0.04408     0.03950    -0.00401     0.00283
 PY  S  49   0.00007    -0.00001    -0.03805     0.01545     0.01024    -0.00475
 PZ  S  49  -0.00008     0.00009    -0.05203     0.04062    -0.00174     0.00173
  
  S  C  50   0.00023    -0.00036     0.28206    -0.10832    -0.01298     0.00503
 PX  C  50  -0.00008     0.00011    -0.07829     0.08326     0.00565    -0.00215
 PY  C  50   0.00003    -0.00001    -0.01498    -0.05289     0.00273    -0.00252
 PZ  C  50  -0.00006     0.00009    -0.07093     0.04659     0.00482    -0.00206
  
  S  C  51   0.00011    -0.00021     0.20786     0.11005    -0.00412     0.00228
 PX  C  51  -0.00003     0.00005    -0.03423     0.03653     0.00361    -0.00185
 PY  C  51   0.00001     0.00000    -0.02137    -0.08989    -0.00336     0.00138
 PZ  C  51  -0.00002     0.00005    -0.04617    -0.01443     0.00170    -0.00105
  
  S  C  52   0.00011    -0.00029     0.32455     0.39955     0.00593    -0.00210
 PX  C  52  -0.00001     0.00002    -0.00893     0.03091     0.00270    -0.00161
 PY  C  52   0.00000     0.00002    -0.04261    -0.14216    -0.00705     0.00375
 PZ  C  52  -0.00001     0.00003    -0.02765    -0.01508     0.00178    -0.00153
  
  S  O  53   0.00009    -0.00023     0.26384     0.31925     0.00302    -0.00011
 PX  O  53  -0.00000     0.00000    -0.00096     0.01631     0.00117    -0.00070
 PY  O  53   0.00001    -0.00001     0.00811    -0.01446    -0.00164     0.00097
 PZ  O  53   0.00004    -0.00010     0.10995     0.13783     0.00181    -0.00046
  
  S  O  54   0.00008    -0.00024     0.29442     0.49588     0.01593    -0.00828
 PX  O  54  -0.00000     0.00001    -0.01182    -0.01297    -0.00010    -0.00001
 PY  O  54   0.00001    -0.00004     0.04321     0.06038     0.00125    -0.00055
 PZ  O  54  -0.00002     0.00007    -0.08049    -0.13324    -0.00399     0.00197
  
  S  C  55   0.00004    -0.00008     0.07904     0.06839    -0.00003    -0.00004
 PX  C  55  -0.00001     0.00002    -0.02445    -0.01281     0.00052    -0.00028
 PY  C  55  -0.00000     0.00001    -0.01154    -0.02588    -0.00092     0.00042
 PZ  C  55  -0.00001     0.00003    -0.03005    -0.02498     0.00012    -0.00010
  
  S  N  56   0.00001    -0.00002     0.02359     0.02475     0.00023    -0.00019
 PX  N  56  -0.00000     0.00001    -0.00943    -0.00924    -0.00004     0.00005
 PY  N  56   0.00000     0.00000    -0.00289    -0.00576    -0.00022     0.00011
 PZ  N  56  -0.00000     0.00001    -0.01099    -0.01215    -0.00014     0.00010
  
  S  H  57   0.00045    -0.00027     0.02699    -0.03121     0.03147    -0.01578
  
  S  H  58   0.00000    -0.00000     0.00087    -0.00109    -0.00116     0.00289
  
  S  H  59   0.00000    -0.00000     0.00062    -0.00081    -0.00091     0.00233
  
  S  H  60   0.00000    -0.00000     0.00087    -0.00109    -0.00116     0.00289
  
  S  H  61   0.00000    -0.00000     0.00198    -0.00227    -0.00206     0.00485
  
  S  H  62   0.00000    -0.00000     0.00198    -0.00227    -0.00206     0.00485
  
  S  H  63   0.00000    -0.00000     0.00405    -0.00424    -0.00309     0.00665
  
  S  H  64   0.00000    -0.00000     0.00406    -0.00424    -0.00309     0.00664
  
  S  H  65   0.00000    -0.00001     0.00795    -0.00719    -0.00411     0.00779
  
  S  H  66   0.00000    -0.00001     0.00791    -0.00719    -0.00411     0.00779
  
  S  H  67   0.00001    -0.00002     0.01549    -0.01313    -0.00517     0.00825
  
  S  H  68   0.00001    -0.00002     0.01569    -0.01317    -0.00519     0.00825
  
  S  H  69   0.00002    -0.00003     0.03038    -0.01911    -0.00632     0.00808
  
  S  H  70   0.00002    -0.00003     0.02947    -0.01920    -0.00628     0.00806
  
  S  H  71   0.00004    -0.00008     0.06040    -0.04759    -0.00733     0.00663
  
  S  H  72   0.00005    -0.00008     0.06514    -0.04868    -0.00766     0.00677
  
  S  H  73   0.00007    -0.00013     0.11279    -0.02084    -0.00879     0.00649
  
  S  H  74   0.00006    -0.00011     0.09487    -0.03945    -0.00816     0.00562
  
  S  H  75   0.00121    -0.00062     0.00345    -0.00514     0.05638    -0.02316
  
  S  H  76   0.00476    -0.00210     0.00135    -0.00252     0.08019    -0.02419
  
  S  H  77   0.01766    -0.00681     0.00044    -0.00107     0.09796    -0.00810
  
  S  H  78   0.03865    -0.01084     0.00003    -0.00025     0.06078     0.02636
  
  S  H  79   0.03088    -0.01207     0.00033    -0.00083     0.07831    -0.02324
  
  S  H  80   0.12508    -0.04264    -0.00028     0.00034    -0.04086    -0.06733
  
  S  H  81   0.06499    -0.02440    -0.00016     0.00025    -0.05018    -0.08469
  
  S  H  82   0.05052    -0.01918    -0.00013     0.00020    -0.04428    -0.07563
  
  S  H  83   0.04823    -0.01786    -0.00014     0.00025    -0.05660    -0.07810
  
  S  H  84   0.04877    -0.01786    -0.00014     0.00025    -0.05670    -0.07757
  
  S  H  85   0.06044    -0.01775    -0.00017     0.00029    -0.05472    -0.04753
  
  S  H  86   0.08061    -0.02140    -0.00021     0.00035    -0.06247    -0.04508
  
  S  H  87   0.13368    -0.04453    -0.00032     0.00044    -0.05317    -0.04896
  
  S  H  88   0.05554     0.00358    -0.00007     0.00006     0.01178     0.08737
  
  S  H  89   0.02116     0.04544     0.00004     0.00001    -0.00041     0.05612
  
  S  H  90   0.04944     0.01924    -0.00007     0.00016    -0.01833     0.06346
  
  S  H  91   0.01009     0.03256     0.00004    -0.00001    -0.00040    -0.03315
  
  S  H  92   0.00460     0.02036     0.00003    -0.00002     0.00128    -0.04539
  
  S  H  93   0.00462     0.02150     0.00003    -0.00002     0.00166    -0.04786
  
  S  H  94   0.01100     0.04881     0.00006    -0.00004     0.00299    -0.05170
  
  S  H  95   0.01781     0.07642     0.00010    -0.00006     0.00444    -0.02804
  
  S  H  96   0.01869     0.07586     0.00009    -0.00005     0.00379    -0.01232
  
  S  H  97   0.01385     0.05620     0.00007    -0.00004     0.00340    -0.01315
  
  S  H  98   0.01284     0.05520     0.00007    -0.00004     0.00375    -0.02239
  
  S  H  99   0.00485     0.02245     0.00003    -0.00002     0.00260    -0.01603
  
  S  H 100   0.00496     0.02253     0.00003    -0.00002     0.00255    -0.01462
  
  S  H 101   0.00241     0.01138     0.00002    -0.00001     0.00172    -0.01087
  
  S  H 102   0.00237     0.01134     0.00002    -0.00001     0.00174    -0.01130
  
  S  H 103   0.00094     0.00473     0.00001    -0.00001     0.00097    -0.00668
  
  S  H 104   0.00094     0.00473     0.00001    -0.00001     0.00097    -0.00659
  
  S  H 105   0.00066     0.00340     0.00000    -0.00000     0.00077    -0.00536
  
  S  H 106   0.00003    -0.00010     0.12374     0.20897     0.00670    -0.00345




    ROOT NO.    7           8           9          10          11          12

           -42.79974   -42.62806   -42.34912   -41.59365   -41.23856   -40.21797
  
  
  S  C   1   0.15608    -0.01965     0.04048     0.03565     0.00524     0.16023
 PX  C   1   0.05802    -0.00724     0.01471     0.01241     0.00179     0.05089
 PY  C   1   0.01174    -0.00144     0.00286     0.00223     0.00031     0.00749
 PZ  C   1   0.00280    -0.00035     0.00071     0.00061     0.00009     0.00257
  
  S  C   2   0.26220    -0.03259     0.06571     0.05441     0.00777     0.21590
 PX  C   2   0.01982    -0.00224     0.00378     0.00132     0.00007    -0.01009
 PY  C   2   0.06299    -0.00772     0.01521     0.01173     0.00160     0.03876
 PZ  C   2  -0.00147     0.00019    -0.00041    -0.00042    -0.00006    -0.00217
  
  S  C   3   0.34437    -0.04190     0.08147     0.06057     0.00812     0.18529
 PX  C   3   0.05263    -0.00595     0.01003     0.00385     0.00024    -0.01807
 PY  C   3  -0.03368     0.00439    -0.00950    -0.00922    -0.00145    -0.04697
 PZ  C   3   0.00453    -0.00054     0.00099     0.00059     0.00008     0.00099
  
  S  C   4   0.38086    -0.04474     0.08179     0.04896     0.00590     0.06845
 PX  C   4  -0.02606     0.00387    -0.00977    -0.01219    -0.00183    -0.06535
 PY  C   4   0.05671    -0.00622     0.00988     0.00268    -0.00003    -0.02517
 PZ  C   4  -0.00412     0.00052    -0.00105    -0.00096    -0.00008    -0.00269
  
  S  C   5   0.37033    -0.04118     0.06782     0.02608     0.00142    -0.07850
 PX  C   5   0.01679    -0.00068    -0.00286    -0.00991    -0.00178    -0.06518
 PY  C   5  -0.06042     0.00742    -0.01446    -0.00915    -0.00172    -0.02331
 PZ  C   5   0.00336    -0.00032     0.00034    -0.00069     0.00008    -0.00250
  
  S  C   6   0.31408    -0.03152     0.04069    -0.01172    -0.00184    -0.18953
 PX  C   6  -0.05769     0.00768    -0.01673    -0.01715    -0.00059    -0.01415
 PY  C   6   0.02459    -0.00146    -0.00156    -0.00700    -0.00188    -0.04613
 PZ  C   6  -0.00400     0.00053    -0.00118    -0.00257     0.00043     0.00155
  
  S  C   7   0.21097    -0.01661     0.00679    -0.02638    -0.00915    -0.21397
 PX  C   7  -0.02985     0.00567    -0.01633    -0.02197    -0.00035    -0.00639
 PY  C   7  -0.06433     0.00671    -0.00841     0.02063    -0.00464     0.03808
 PZ  C   7  -0.00189     0.00055    -0.00222    -0.01020     0.00201     0.00342
  
  S  C   8   0.10197     0.00072    -0.03947    -0.13541     0.00764    -0.14093
 PX  C   8  -0.05140     0.00707    -0.01705    -0.05267     0.01154     0.05945
 PY  C   8  -0.02245     0.00548    -0.01716    -0.01877    -0.00119     0.00777
 PZ  C   8  -0.00062     0.00198    -0.00998    -0.04026     0.00665     0.00532
  
  S  N   9  -0.03493     0.02038    -0.08595    -0.25217     0.03401     0.03807
 PX  N   9  -0.01800     0.00297    -0.01122    -0.09067     0.02315     0.05963
 PY  N   9  -0.04335     0.00183     0.00866     0.06116    -0.00729     0.05190
 PZ  N   9  -0.00881     0.00213    -0.00969    -0.07611     0.01876     0.04159
  
  S  C  10  -0.11035     0.00622     0.02100     0.26834    -0.05316     0.03519
 PX  C  10   0.00511     0.00335    -0.02536    -0.21195     0.04877     0.06373
 PY  C  10  -0.02116    -0.00745     0.04416     0.13586    -0.01415     0.01844
 PZ  C  10   0.01009     0.00173    -0.01949    -0.20163     0.04828     0.05864
  
  S  O  11  -0.10292    -0.00027     0.05946     0.56948    -0.12332    -0.06513
 PX  O  11  -0.03140     0.00055     0.01356     0.13226    -0.02780    -0.00609
 PY  O  11  -0.00283    -0.00136     0.00588    -0.01518     0.00791     0.01904
 PZ  O  11  -0.02935     0.00002     0.01560     0.14046    -0.02932    -0.01042
  
  S  C  12  -0.09231    -0.01005     0.07401     0.07479     0.02640     0.12892
 PX  C  12   0.01087     0.00074    -0.01004    -0.07311     0.01455     0.00789
 PY  C  12   0.00703    -0.01239     0.05129     0.04918     0.00852    -0.00877
 PZ  C  12   0.01408    -0.00174    -0.00034    -0.06432     0.01610     0.00361
  
  S  C  13  -0.07222    -0.03415     0.16607     0.09463     0.05546     0.10193
 PX  C  13  -0.00551    -0.00603     0.02514    -0.01601     0.01543     0.01552
 PY  C  13   0.01439    -0.01033     0.03379    -0.04864     0.02286    -0.01345
 PZ  C  13  -0.00164    -0.00731     0.02841    -0.02626     0.01865     0.01168
  
  S  C  14  -0.06228    -0.07489     0.31174    -0.01995     0.12689     0.08138
 PX  C  14  -0.00066    -0.00673     0.02382    -0.01489     0.00910    -0.00428
 PY  C  14  -0.00299    -0.02101     0.07822    -0.03380     0.03100    -0.00982
 PZ  C  14   0.00220    -0.00602     0.01869    -0.01984     0.00605    -0.01096
  
  S  C  15  -0.04867    -0.07582     0.30619    -0.04789     0.12304     0.04816
 PX  C  15  -0.00362    -0.00903     0.03390    -0.01139     0.01215    -0.00101
 PY  C  15   0.01163     0.01182    -0.05167    -0.00163    -0.02286    -0.01982
 PZ  C  15  -0.01347    -0.02649     0.10259    -0.02558     0.03839     0.00565
  
  S  C  16  -0.03416    -0.07204     0.26905    -0.06696     0.08688    -0.00114
 PX  C  16   0.00459     0.00472    -0.02368     0.00152    -0.01488    -0.01082
 PY  C  16   0.01745     0.02981    -0.11886     0.02367    -0.04751    -0.01450
 PZ  C  16   0.00286    -0.00347     0.00120    -0.00855    -0.01387    -0.02111
  
  S  C  17  -0.02021    -0.06588     0.21378    -0.07111     0.03213    -0.04877
 PX  C  17   0.01021     0.01160    -0.05664     0.00687    -0.03318    -0.01931
 PY  C  17   0.00755     0.00509    -0.03126    -0.00063    -0.02491    -0.02223
 PZ  C  17   0.02078     0.02479    -0.11782     0.01551    -0.06690    -0.03747
  
  S  S  18  -0.03194    -0.05374     0.20446    -0.03954     0.06882     0.01866
 PX  S  18   0.00552     0.00386    -0.02128    -0.00126    -0.01384    -0.01333
 PY  S  18  -0.00979    -0.02614     0.09364    -0.02746     0.02666    -0.00837
 PZ  S  18   0.01888     0.02286    -0.09857     0.01042    -0.04540    -0.02859
  
  S  C  19   0.03456    -0.00706    -0.08015    -0.03408    -0.13685    -0.13325
 PX  C  19   0.00875     0.00873    -0.04763     0.00712    -0.02587    -0.00666
 PY  C  19   0.00800     0.00875    -0.03960     0.00479    -0.02123    -0.01097
 PZ  C  19   0.01741     0.01872    -0.09371     0.01398    -0.04908    -0.01526
  
  S  C  20   0.03809     0.01339    -0.12878    -0.01250    -0.12794    -0.10693
 PX  C  20   0.01265     0.00882    -0.05337     0.00256    -0.03644    -0.02082
 PY  C  20  -0.00760     0.00248     0.01773     0.00781     0.03164     0.02926
 PZ  C  20   0.00968     0.01317    -0.05376     0.01026    -0.01992    -0.00050
  
  S  C  21   0.03794     0.04059    -0.16397     0.01647    -0.07260    -0.03555
 PX  C  21   0.00472     0.01250    -0.02697     0.00921     0.01120     0.01870
 PY  C  21  -0.01569    -0.00867     0.06404    -0.00252     0.04357     0.02012
 PZ  C  21  -0.00634     0.00655     0.01654     0.00937     0.04685     0.04352
  
  S  C  22   0.03611     0.06352    -0.18220     0.04773     0.02813     0.09549
 PX  C  22  -0.00814     0.00415     0.02468     0.01029     0.06063     0.05996
 PY  C  22  -0.00856     0.01013     0.03319     0.00210     0.04033     0.00238
 PZ  C  22  -0.01535     0.00990     0.04989     0.01630     0.10728     0.09381
  
  S  C  23   0.03853     0.01539    -0.16903     0.01689    -0.08527     0.01198
 PX  C  23  -0.01305    -0.01419     0.05228    -0.00182     0.03374     0.02876
 PY  C  23   0.00809     0.02153    -0.04435     0.01546     0.02225     0.03523
 PZ  C  23  -0.00939    -0.00248     0.02817     0.01014     0.05845     0.06791
  
  S  C  24   0.03825     0.00410    -0.13446    -0.01166    -0.14045    -0.09346
 PX  C  24  -0.00508    -0.00123     0.01011     0.00586     0.01886     0.02570
 PY  C  24   0.01555     0.00973    -0.06337     0.00220    -0.04378    -0.02415
 PZ  C  24   0.00669     0.00589    -0.03992     0.00873    -0.01389     0.01157
  
  S  C  25  -0.00163    -0.06040     0.01680    -0.01941    -0.07420    -0.01508
 PX  C  25  -0.00858    -0.02060     0.04784    -0.01759    -0.02630    -0.05212
 PY  C  25   0.00435     0.02691    -0.03263     0.02105     0.05537     0.06612
 PZ  C  25  -0.01049    -0.02956     0.05329    -0.01518    -0.01425    -0.02320
  
  S  C  26  -0.01293    -0.09184     0.08553    -0.05007    -0.13224    -0.11789
 PX  C  26  -0.00197    -0.00347     0.01100    -0.00394    -0.00512    -0.01411
 PY  C  26  -0.00425    -0.02812     0.02597    -0.01342    -0.03350    -0.02476
 PZ  C  26  -0.00469    -0.01741     0.02668    -0.01075    -0.01935    -0.02625
  
  S  C  27  -0.01826    -0.09469     0.11252    -0.05581    -0.12782    -0.13845
 PX  C  27   0.00374     0.02117    -0.02266     0.01111     0.02588     0.02324
 PY  C  27  -0.00443    -0.01710     0.02484    -0.00955    -0.01667    -0.01998
 PZ  C  27   0.00252     0.01823    -0.01622     0.00938     0.02503     0.02031
  
  S  C  28  -0.02071    -0.07212     0.11518    -0.04298    -0.07128    -0.09784
 PX  C  28   0.00235     0.00489    -0.01010     0.00061    -0.00621    -0.00750
 PY  C  28   0.00242     0.03008    -0.02038     0.01625     0.04888     0.04017
 PZ  C  28   0.00444     0.02039    -0.02378     0.00911     0.01713     0.01353
  
  S  C  29  -0.01258    -0.03295     0.05265    -0.00325     0.02904     0.04592
 PX  C  29  -0.00821    -0.03508     0.05124    -0.02523    -0.05579    -0.07291
 PY  C  29   0.00166     0.04835    -0.02654     0.02965     0.09895     0.08282
 PZ  C  29  -0.00527    -0.00916     0.03334    -0.01454    -0.02483    -0.05579
  
  S  N  30  -0.00454     0.08263    -0.02677     0.06350     0.23357     0.20737
 PX  N  30  -0.00720     0.00771     0.02759     0.00299     0.03851     0.01130
 PY  N  30  -0.00589     0.01170     0.02804    -0.00536     0.00777    -0.04543
 PZ  N  30  -0.00671    -0.01578     0.04040    -0.01618    -0.02661    -0.04937
  
  S  C  31  -0.03191     0.07597     0.11797     0.00687     0.13394    -0.05955
 PX  C  31  -0.00699    -0.00858     0.03840    -0.01832    -0.04266    -0.07476
 PY  C  31  -0.00873    -0.00743     0.04842    -0.02586    -0.06523    -0.11774
 PZ  C  31  -0.00402     0.00026     0.02598    -0.00827    -0.01039    -0.02576
  
  S  C  32  -0.02843     0.03572     0.10552    -0.01237     0.04240    -0.13115
 PX  C  32  -0.00466    -0.00991     0.02142    -0.00999    -0.02309    -0.03706
 PY  C  32  -0.00505    -0.01619     0.02312    -0.01367    -0.03659    -0.05217
 PZ  C  32  -0.01239     0.01505     0.05189    -0.00803     0.01132    -0.05128
  
  S  C  33  -0.03036    -0.03382     0.09871    -0.02854    -0.03533    -0.13914
 PX  C  33   0.00285    -0.02015    -0.01892     0.00142    -0.01295     0.03084
 PY  C  33   0.00601    -0.03488    -0.03855     0.00526    -0.01249     0.05390
 PZ  C  33  -0.01040    -0.00879     0.03852    -0.01311    -0.02768    -0.03927
  
  S  C  34  -0.02759    -0.07696     0.07962    -0.04191    -0.14109    -0.04569
 PX  C  34   0.00633    -0.03688    -0.04158     0.00435    -0.02620     0.07604
 PY  C  34   0.00919    -0.07074    -0.07148     0.01033    -0.02422     0.11273
 PZ  C  34   0.00485     0.02205     0.00009    -0.00686    -0.04922     0.03901
  
  S  C  35  -0.02060     0.06964     0.13011    -0.04110    -0.08939    -0.12440
 PX  C  35   0.00581    -0.00336    -0.02013    -0.00050    -0.03041     0.04262
 PY  C  35   0.00747    -0.01115    -0.02914    -0.00153    -0.04801     0.06128
 PZ  C  35   0.01551     0.04032    -0.03859     0.01335     0.02541     0.04180
  
  S  C  36  -0.02994     0.06859     0.14517    -0.02239     0.03166    -0.14577
 PX  C  36  -0.00200     0.00354     0.01650    -0.00913    -0.02760    -0.03090
 PY  C  36  -0.00356     0.00872     0.02560    -0.01355    -0.04030    -0.05263
 PZ  C  36   0.01213    -0.00597    -0.04193     0.00413    -0.02046     0.03745
  
  S  C  37   0.02643     0.23538     0.03127     0.00182     0.02147    -0.04108
 PX  C  37   0.00790     0.03324    -0.01397     0.00692     0.01867     0.01423
 PY  C  37   0.01099     0.04111    -0.02179     0.00924     0.02090     0.02573
 PZ  C  37   0.01512     0.09805    -0.01542     0.02277     0.11013    -0.03860
  
  S  C  38   0.03506     0.28078     0.01018     0.02521     0.13598    -0.08005
 PX  C  38   0.00810     0.05364    -0.00449     0.00729     0.03236    -0.00876
 PY  C  38   0.01346     0.09034    -0.00654     0.01173     0.05240    -0.01516
 PZ  C  38  -0.00346    -0.03668    -0.00839     0.00166     0.00416     0.00688
  
  S  C  39   0.03882     0.28456    -0.00675     0.03449     0.17050    -0.07436
 PX  C  39   0.00082     0.00284    -0.00214     0.00129     0.00467     0.00126
 PY  C  39   0.00289     0.01590    -0.00381     0.00341     0.01388    -0.00049
 PZ  C  39  -0.01554    -0.11241     0.00266    -0.01254    -0.05996     0.02373
  
  S  C  40   0.03923     0.27168    -0.01612     0.03668     0.17219    -0.05858
 PX  C  40  -0.00690    -0.05029     0.00108    -0.00572    -0.02784     0.01187
 PY  C  40  -0.01025    -0.07622     0.00075    -0.00831    -0.04112     0.01866
 PZ  C  40  -0.00988    -0.06238     0.00676    -0.00864    -0.03608     0.00506
  
  S  C  41   0.03597     0.20866    -0.03503     0.03375     0.13478    -0.00791
 PX  C  41  -0.00703    -0.04407     0.00430    -0.00521    -0.02060     0.00214
 PY  C  41  -0.01223    -0.08319     0.00383    -0.00833    -0.03499     0.00704
 PZ  C  41   0.00734     0.07865     0.01092     0.00661     0.04656    -0.03987
  
  S  C  42   0.02902     0.12973    -0.03747     0.01245     0.00527     0.07139
 PX  C  42   0.00135    -0.00302    -0.01041     0.00657     0.02738     0.00065
 PY  C  42   0.00002    -0.03300    -0.02365     0.01082     0.04116     0.00766
 PZ  C  42   0.01822     0.17852     0.01678     0.01931     0.12135    -0.08640
  
  S  N  43  -0.00503    -0.21355    -0.08195    -0.01007    -0.14746     0.19435
 PX  N  43   0.00296     0.01868    -0.00530     0.00716     0.03470    -0.00839
 PY  N  43   0.00229    -0.04678    -0.04117     0.01662     0.05723     0.01844
 PZ  N  43   0.00663     0.05746     0.00927    -0.00416    -0.02551     0.01607
  
  S  C  44  -0.00597    -0.25728    -0.12381     0.02912     0.06547     0.07910
 PX  C  44   0.00209     0.05475     0.02353    -0.00647    -0.02139    -0.00190
 PY  C  44   0.00134     0.01131    -0.00541     0.01199     0.07360    -0.05572
 PZ  C  44   0.00126    -0.01720    -0.01161    -0.00223    -0.03108     0.04502
  
  S  C  45  -0.00631    -0.26567    -0.13909     0.05291     0.21506    -0.04879
 PX  C  45  -0.00062    -0.03904    -0.02001     0.00471     0.00935     0.01693
 PY  C  45   0.00049    -0.00203    -0.00835     0.01110     0.06747    -0.05546
 PZ  C  45   0.00108     0.02141     0.01114    -0.00798    -0.04473     0.03281
  
  S  C  46  -0.00559    -0.24497    -0.13766     0.06646     0.31347    -0.15455
 PX  C  46   0.00071     0.02902     0.01712    -0.01007    -0.05251     0.03535
 PY  C  46   0.00063     0.02094     0.00879    -0.00030     0.00884    -0.02348
 PZ  C  46  -0.00044    -0.02430    -0.01308     0.00446     0.01577     0.00216
  
  S  C  47  -0.00428    -0.19072    -0.11102     0.05982     0.29921    -0.18070
 PX  C  47  -0.00091    -0.04085    -0.02348     0.01201     0.05831    -0.03169
 PY  C  47   0.00058     0.02323     0.01222    -0.00474    -0.01908     0.00245
 PZ  C  47   0.00005     0.00120     0.00115    -0.00158    -0.01041     0.01120
  
  S  C  48  -0.00255    -0.11512    -0.06849     0.03922     0.20222    -0.13416
 PX  C  48  -0.00006    -0.00256    -0.00141     0.00059     0.00248    -0.00052
 PY  C  48   0.00082     0.03657     0.02138    -0.01169    -0.05883     0.03612
 PZ  C  48  -0.00051    -0.02307    -0.01359     0.00750     0.03791    -0.02360
  
  S  S  49  -0.04563     0.00075     0.00676    -0.09007     0.03555     0.10469
 PX  S  49   0.01885     0.00004    -0.00510     0.02119    -0.01126    -0.03461
 PY  S  49   0.00310    -0.00635     0.02807     0.05852    -0.00426    -0.01843
 PZ  S  49   0.01978    -0.00149     0.00166     0.03541    -0.01228    -0.03988
  
  S  C  50  -0.04219     0.01507    -0.06303    -0.28171     0.05601     0.12055
 PX  C  50   0.00890    -0.00426     0.01735     0.05094    -0.00710    -0.00523
 PY  C  50  -0.01855    -0.00023     0.00833     0.03058    -0.00172     0.02471
 PZ  C  50   0.00591    -0.00374     0.01622     0.05089    -0.00705    -0.00257
  
  S  C  51  -0.01565     0.00676    -0.03125    -0.16201     0.03348     0.07904
 PX  C  51  -0.00025    -0.00253     0.01313     0.05320    -0.00862    -0.00064
 PY  C  51  -0.00558     0.00293    -0.01318    -0.05973     0.01181     0.02395
 PZ  C  51  -0.00143    -0.00128     0.00734     0.03068    -0.00449     0.01090
  
  S  C  52  -0.00679    -0.00088     0.00493     0.00024     0.00180    -0.00028
 PX  C  52  -0.00522    -0.00131     0.00889     0.03911    -0.00608     0.00621
 PY  C  52   0.00338     0.00473    -0.02639    -0.12225     0.02189     0.01753
 PZ  C  52  -0.00770    -0.00102     0.00925     0.05165    -0.00819     0.03543
  
  S  O  53   0.00468    -0.00005    -0.00440    -0.04918     0.00894    -0.04693
 PX  O  53  -0.00297    -0.00040     0.00317     0.01292    -0.00179     0.00276
 PY  O  53   0.00140     0.00118    -0.00693    -0.03308     0.00580     0.00084
 PZ  O  53  -0.00025    -0.00024     0.00036    -0.00840     0.00178    -0.01257
  
  S  O  54  -0.01869    -0.00799     0.04875     0.22018    -0.03726     0.00830
 PX  O  54  -0.00050     0.00006    -0.00010    -0.00007     0.00008     0.00114
 PY  O  54  -0.00199    -0.00030     0.00201     0.00532    -0.00032     0.00657
 PZ  O  54   0.00355     0.00202    -0.01168    -0.05084     0.00871     0.00491
  
  S  C  55  -0.01244     0.00267    -0.01061    -0.07067     0.01785     0.07999
 PX  C  55   0.00187    -0.00082     0.00374     0.01813    -0.00348    -0.00330
 PY  C  55  -0.00043     0.00067    -0.00334    -0.01554     0.00298     0.00430
 PZ  C  55   0.00191    -0.00058     0.00255     0.01314    -0.00257    -0.00134
  
  S  N  56  -0.00657     0.00117    -0.00437    -0.03456     0.00969     0.05585
 PX  N  56   0.00241    -0.00046     0.00175     0.01293    -0.00350    -0.01882
 PY  N  56   0.00023     0.00011    -0.00062    -0.00223     0.00028    -0.00154
 PZ  N  56   0.00262    -0.00044     0.00158     0.01265    -0.00356    -0.02008
  
  S  H  57  -0.03067    -0.01311     0.06590     0.05984     0.01616     0.03553
  
  S  H  58   0.06690    -0.00842     0.01733     0.01524     0.00224     0.06834
  
  S  H  59   0.05443    -0.00688     0.01428     0.01283     0.00190     0.05997
  
  S  H  60   0.06687    -0.00841     0.01732     0.01523     0.00224     0.06832
  
  S  H  61   0.10955    -0.01360     0.02734     0.02247     0.00321     0.08815
  
  S  H  62   0.10951    -0.01359     0.02734     0.02248     0.00320     0.08814
  
  S  H  63   0.14471    -0.01758     0.03412     0.02529     0.00335     0.07636
  
  S  H  64   0.14465    -0.01758     0.03411     0.02525     0.00336     0.07640
  
  S  H  65   0.15985    -0.01875     0.03417     0.02008     0.00250     0.02816
  
  S  H  66   0.15997    -0.01877     0.03421     0.02024     0.00247     0.02805
  
  S  H  67   0.15556    -0.01730     0.02855     0.01204     0.00034    -0.03237
  
  S  H  68   0.15531    -0.01725     0.02837     0.01130     0.00048    -0.03229
  
  S  H  69   0.13209    -0.01318     0.01665    -0.00803    -0.00005    -0.07696
  
  S  H  70   0.13222    -0.01324     0.01696    -0.00596    -0.00054    -0.07862
  
  S  H  71   0.08740    -0.00737     0.00597     0.01104    -0.00840    -0.09121
  
  S  H  72   0.08485    -0.00663     0.00283    -0.00535    -0.00501    -0.08601
  
  S  H  73   0.05158    -0.00056    -0.01652    -0.07654     0.00805    -0.05976
  
  S  H  74   0.04216    -0.00025    -0.01372    -0.04833     0.00217    -0.05969
  
  S  H  75  -0.01525    -0.02153     0.08873    -0.00960     0.03665     0.01784
  
  S  H  76  -0.00760    -0.01965     0.06946    -0.02029     0.01768    -0.00795
  
  S  H  77   0.00907    -0.00036    -0.02147    -0.00851    -0.03451    -0.03667
  
  S  H  78   0.00930     0.01523    -0.04270     0.00690    -0.00878    -0.00456
  
  S  H  79   0.00926    -0.00451    -0.02604    -0.00781    -0.04291    -0.03259
  
  S  H  80  -0.00139    -0.02358     0.01015    -0.00841    -0.02894    -0.01022
  
  S  H  81  -0.00418    -0.03417     0.02910    -0.01847    -0.05119    -0.04380
  
  S  H  82  -0.00397    -0.03118     0.02774    -0.01767    -0.04876    -0.04456
  
  S  H  83  -0.00656    -0.03404     0.04088    -0.02062    -0.04753    -0.05304
  
  S  H  84  -0.00663    -0.03397     0.04118    -0.02069    -0.04760    -0.05360
  
  S  H  85  -0.00766    -0.02165     0.04249    -0.01473    -0.02096    -0.03668
  
  S  H  86  -0.00917    -0.02216     0.04885    -0.01555    -0.01910    -0.03882
  
  S  H  87  -0.00401    -0.01651     0.01814    -0.00305     0.00170     0.01364
  
  S  H  88  -0.00527     0.01588     0.01434     0.00234     0.02309    -0.02505
  
  S  H  89  -0.00859    -0.02904     0.01713    -0.00617    -0.00847    -0.03235
  
  S  H  90  -0.00838     0.02914     0.04574    -0.00461     0.02179    -0.03830
  
  S  H  91   0.00871     0.08002     0.00823     0.00576     0.03750    -0.03025
  
  S  H  92   0.01076     0.07996    -0.00162     0.01008     0.05103    -0.02386
  
  S  H  93   0.01091     0.07529    -0.00507     0.01092     0.05183    -0.01797
  
  S  H  94   0.00941     0.03898    -0.01834     0.01114     0.03973     0.00736
  
  S  H  95  -0.00089    -0.09535    -0.05240     0.01441     0.03892     0.02840
  
  S  H  96  -0.00363    -0.10590    -0.04679     0.01156     0.03094     0.02120
  
  S  H  97  -0.00349    -0.11309    -0.05549     0.02074     0.08526    -0.02231
  
  S  H  98  -0.00190    -0.10711    -0.05874     0.02235     0.08971    -0.01830
  
  S  H  99  -0.00221    -0.10215    -0.05788     0.02784     0.13074    -0.06342
  
  S  H 100  -0.00246    -0.10313    -0.05738     0.02757     0.12999    -0.06412
  
  S  H 101  -0.00183    -0.07965    -0.04607     0.02465     0.12298    -0.07380
  
  S  H 102  -0.00175    -0.07935    -0.04622     0.02472     0.12320    -0.07359
  
  S  H 103  -0.00108    -0.04926    -0.02932     0.01677     0.08638    -0.05719
  
  S  H 104  -0.00110    -0.04930    -0.02928     0.01674     0.08630    -0.05721
  
  S  H 105  -0.00089    -0.04034    -0.02416     0.01411     0.07348    -0.05021
  
  S  H 106  -0.00705    -0.00346     0.02070     0.09355    -0.01606    -0.00207




    ROOT NO.   13          14          15          16          17          18

           -40.10586   -39.32878   -38.42259   -37.64653   -37.25858   -36.00656
  
  
  S  C   1   0.19983     0.07673    -0.05281    -0.18554    -0.03847     0.24376
 PX  C   1   0.06293     0.02265    -0.01426    -0.04567    -0.00898     0.04589
 PY  C   1   0.00907     0.00275    -0.00127    -0.00252    -0.00031    -0.00249
 PZ  C   1   0.00319     0.00117    -0.00076    -0.00248    -0.00049     0.00269
  
  S  C   2   0.26627     0.09423    -0.05829    -0.18466    -0.03618     0.18533
 PX  C   2  -0.01420    -0.00971     0.01003     0.04501     0.01031    -0.08448
 PY  C   2   0.04691     0.01421    -0.00673    -0.01449    -0.00206    -0.00590
 PZ  C   2  -0.00275    -0.00114     0.00085     0.00317     0.00067    -0.00458
  
  S  C   3   0.22272     0.06392    -0.02786    -0.05308    -0.00663    -0.03875
 PX  C   3  -0.02571    -0.01765     0.01730     0.07286     0.01610    -0.11492
 PY  C   3  -0.05886    -0.02312     0.01578     0.05347     0.01078    -0.05909
 PZ  C   3   0.00106    -0.00004     0.00031     0.00196     0.00048    -0.00420
  
  S  C   4   0.07205    -0.00394     0.02284     0.12536     0.02957    -0.23170
 PX  C   4  -0.08180    -0.03053     0.01850     0.05234     0.00921    -0.01851
 PY  C   4  -0.03410    -0.01897     0.01557     0.05637     0.01149    -0.05918
 PZ  C   4  -0.00326    -0.00099     0.00033     0.00060     0.00004     0.00149
  
  S  C   5  -0.11102    -0.06979     0.05802     0.20469     0.04095    -0.19227
 PX  C   5  -0.08105    -0.02747     0.01260     0.01848     0.00092     0.05358
 PY  C   5  -0.02604    -0.00268    -0.00413    -0.03158    -0.00794     0.07117
 PZ  C   5  -0.00328    -0.00157     0.00062     0.00251     0.00042    -0.00015
  
  S  C   6  -0.24283    -0.09504     0.05281     0.12559     0.01832     0.04236
 PX  C   6  -0.01306     0.00993    -0.01598    -0.07404    -0.01677     0.10880
 PY  C   6  -0.05545    -0.01501     0.00126    -0.01924    -0.00620     0.07064
 PZ  C   6   0.00192     0.00058    -0.00175    -0.00286    -0.00058     0.00245
  
  S  C   7  -0.25686    -0.07365     0.00682    -0.06143    -0.02056     0.22330
 PX  C   7  -0.00128     0.01322    -0.02749    -0.08562    -0.01721     0.06059
 PY  C   7   0.05347     0.02090    -0.01439    -0.04585    -0.00657    -0.02296
 PZ  C   7   0.00345    -0.00136    -0.00529    -0.00036    -0.00005    -0.00089
  
  S  C   8  -0.16189    -0.00236    -0.05404    -0.19006    -0.04282     0.21486
 PX  C   8   0.07087     0.04224    -0.01242    -0.00639     0.00153    -0.07072
 PY  C   8   0.01767    -0.00821    -0.04200    -0.06560    -0.01061    -0.01293
 PZ  C   8   0.00536    -0.00440    -0.01419    -0.01284    -0.00231    -0.00258
  
  S  N   9   0.05199    -0.03470    -0.18324    -0.11487    -0.01771    -0.03598
 PX  N   9   0.05838    -0.00176     0.00057     0.07957     0.01638    -0.06966
 PY  N   9   0.06300    -0.02799    -0.03275     0.09217     0.02132    -0.08778
 PZ  N   9   0.03891    -0.01960    -0.01597     0.06376     0.01265    -0.03953
  
  S  C  10   0.06873     0.01402    -0.00483     0.03595     0.01277    -0.08450
 PX  C  10   0.04773    -0.04626    -0.10084     0.11374     0.01962    -0.00443
 PY  C  10   0.01271     0.02212     0.08203     0.12318     0.02069     0.01261
 PZ  C  10   0.03897    -0.04899    -0.09537     0.12890     0.02130     0.01657
  
  S  O  11  -0.00883     0.09368     0.18211    -0.14887    -0.01898    -0.09515
 PX  O  11   0.00783     0.02091     0.03413    -0.02130    -0.00173    -0.02722
 PY  O  11   0.01372    -0.00115     0.00513     0.05539     0.00933     0.00113
 PZ  O  11   0.00267     0.02032     0.03721    -0.01988    -0.00181    -0.01886
  
  S  C  12   0.09480    -0.03025    -0.04109     0.38403     0.06202     0.07262
 PX  C  12   0.00353    -0.01424    -0.02123    -0.00050    -0.00017    -0.00669
 PY  C  12  -0.03805     0.01922     0.04120     0.06552     0.00285     0.12244
 PZ  C  12  -0.00681    -0.01103    -0.01496     0.00905    -0.00036     0.02150
  
  S  C  13   0.01248    -0.00236     0.00887     0.37383     0.04474     0.24309
 PX  C  13  -0.00124    -0.00491    -0.00891     0.04388     0.00434     0.03202
 PY  C  13  -0.03754     0.00224     0.00010    -0.07137    -0.01822     0.03188
 PZ  C  13  -0.00809    -0.00487    -0.00969     0.02881     0.00100     0.03657
  
  S  C  14  -0.07155    -0.00036    -0.00009     0.14604    -0.00260     0.19476
 PX  C  14  -0.00934     0.00018    -0.00201    -0.04641    -0.00705    -0.03386
 PY  C  14  -0.03691     0.00392     0.00207    -0.12648    -0.02373    -0.05645
 PZ  C  14  -0.00923     0.00032    -0.00263    -0.07267    -0.00921    -0.05935
  
  S  C  15  -0.08899     0.00403     0.00229    -0.03247    -0.02670     0.06903
 PX  C  15  -0.01015     0.00051    -0.00071    -0.03459    -0.00549    -0.02606
 PY  C  15   0.01207     0.00023    -0.00073    -0.05777    -0.00217    -0.07119
 PZ  C  15  -0.02958     0.00142    -0.00070    -0.05743    -0.01205    -0.02960
  
  S  C  16  -0.06427     0.00467     0.00041    -0.15966    -0.02367    -0.11135
 PX  C  16   0.01226    -0.00029    -0.00021    -0.00527     0.00482    -0.02455
 PY  C  16   0.03586    -0.00157    -0.00000     0.03689     0.01330    -0.00315
 PZ  C  16   0.01315     0.00017    -0.00036    -0.03370     0.00637    -0.06370
  
  S  C  17  -0.01660     0.00371    -0.00025    -0.17287    -0.00453    -0.18523
 PX  C  17   0.02647    -0.00071     0.00003     0.01105     0.00920    -0.01452
 PY  C  17   0.02017     0.00006     0.00025    -0.01945     0.00888    -0.05076
 PZ  C  17   0.05379    -0.00158     0.00011     0.02890     0.02054    -0.02592
  
  S  S  18  -0.04108     0.00032    -0.00274    -0.01859    -0.00820     0.00593
 PX  S  18   0.00852     0.00042     0.00040    -0.02480     0.00038    -0.03155
 PY  S  18  -0.02199     0.00241     0.00132    -0.07811    -0.01066    -0.05453
 PZ  S  18   0.02863     0.00044     0.00181    -0.03179     0.00472    -0.05458
  
  S  C  19   0.11172    -0.00039    -0.00001    -0.05655     0.03756    -0.14201
 PX  C  19   0.01636    -0.00081    -0.00001     0.03589    -0.00172     0.05326
 PY  C  19   0.01668    -0.00054     0.00001     0.01784     0.01131     0.00189
 PZ  C  19   0.03326    -0.00152     0.00001     0.06357     0.00644     0.07322
  
  S  C  20   0.10428    -0.00134     0.00003     0.00225     0.05023    -0.08059
 PX  C  20   0.02624    -0.00070    -0.00000     0.02213     0.00795     0.01966
 PY  C  20  -0.02440     0.00006    -0.00001     0.01458    -0.00354     0.03223
 PZ  C  20   0.01208    -0.00086    -0.00000     0.04213     0.00520     0.05348
  
  S  C  21   0.05226    -0.00164     0.00002     0.05279     0.04047     0.01807
 PX  C  21  -0.01337    -0.00005    -0.00000     0.00948    -0.00284     0.02165
 PY  C  21  -0.02626     0.00070    -0.00000    -0.02254    -0.00049    -0.01914
 PZ  C  21  -0.04103     0.00052    -0.00000    -0.00532    -0.01310     0.01084
  
  S  C  22  -0.06478    -0.00039     0.00001     0.04771    -0.03272     0.07334
 PX  C  22  -0.05849     0.00090    -0.00001    -0.01818    -0.02858     0.00397
 PY  C  22  -0.00822     0.00041     0.00000    -0.02415     0.03681    -0.06108
 PZ  C  22  -0.09387     0.00157    -0.00000    -0.04067    -0.03050    -0.04536
  
  S  C  23   0.01354    -0.00146    -0.00000     0.08068    -0.05855     0.17890
 PX  C  23  -0.03161     0.00063    -0.00000    -0.01273    -0.01757     0.01293
 PY  C  23  -0.02721     0.00008     0.00000     0.00609    -0.00763    -0.00155
 PZ  C  23  -0.06444     0.00089     0.00000    -0.01152    -0.03371     0.00949
  
  S  C  24   0.09713    -0.00167    -0.00002     0.03426     0.00334     0.04773
 PX  C  24  -0.02048    -0.00000    -0.00001     0.01814    -0.01518     0.05480
 PY  C  24   0.02963    -0.00072    -0.00000     0.02102     0.00574     0.01523
 PZ  C  24  -0.00071    -0.00059     0.00000     0.03915    -0.01486     0.07800
  
  S  C  25   0.01807    -0.00048    -0.00000     0.03312    -0.03984     0.12012
 PX  C  25   0.04174    -0.00019     0.00000    -0.01174     0.03701    -0.04070
 PY  C  25  -0.05787     0.00058    -0.00000    -0.00600    -0.02917    -0.00655
 PZ  C  25   0.01520     0.00015     0.00000    -0.01703     0.01555    -0.04775
  
  S  C  26   0.10362    -0.00108     0.00000     0.01985     0.03427     0.05478
 PX  C  26   0.01132    -0.00005     0.00000    -0.00448     0.01438    -0.01977
 PY  C  26   0.02135    -0.00019    -0.00000     0.00380     0.00115     0.01274
 PZ  C  26   0.02116    -0.00010     0.00000    -0.00647     0.01793    -0.02963
  
  S  C  27   0.11753    -0.00096     0.00000    -0.00255     0.06656    -0.04187
 PX  C  27  -0.01967     0.00016    -0.00000    -0.00074    -0.00602    -0.00104
 PY  C  27   0.01575    -0.00005    -0.00000    -0.00572     0.00855    -0.02423
 PZ  C  27  -0.01794     0.00019    -0.00000    -0.00516    -0.00377    -0.02038
  
  S  C  28   0.07738    -0.00028     0.00000    -0.02641     0.05015    -0.11150
 PX  C  28   0.00818    -0.00018     0.00000     0.00632     0.00590     0.01319
 PY  C  28  -0.03624     0.00042    -0.00000    -0.00753    -0.01639    -0.01244
 PZ  C  28  -0.01053     0.00003     0.00000     0.00193    -0.00291     0.00006
  
  S  C  29  -0.04761     0.00092    -0.00000    -0.02812    -0.03189    -0.05884
 PX  C  29   0.06181    -0.00050     0.00000    -0.00204     0.03590    -0.02199
 PY  C  29  -0.07646     0.00099    -0.00000    -0.02467    -0.01844    -0.05246
 PZ  C  29   0.04601    -0.00029     0.00000    -0.01165     0.03819    -0.05924
  
  S  N  30  -0.19347     0.00260    -0.00000    -0.06421    -0.03677    -0.12295
 PX  N  30  -0.01558     0.00047    -0.00000    -0.02217     0.00922    -0.04558
 PY  N  30   0.03623    -0.00019     0.00000    -0.01231     0.05635    -0.03968
 PZ  N  30   0.03982    -0.00020    -0.00000    -0.00977     0.01489    -0.03804
  
  S  C  31   0.03462     0.00044    -0.00000    -0.04608     0.11127    -0.07720
 PX  C  31   0.06548    -0.00071    -0.00000     0.01434     0.02205     0.03899
 PY  C  31   0.10443    -0.00122     0.00000     0.02636     0.04727     0.07266
 PZ  C  31   0.02033    -0.00008    -0.00000    -0.00290    -0.03053    -0.03943
  
  S  C  32   0.10568    -0.00077     0.00000    -0.00787     0.19182     0.07288
 PX  C  32   0.03236    -0.00035    -0.00000     0.00632     0.02160     0.02958
 PY  C  32   0.04647    -0.00054     0.00000     0.01123     0.03451     0.04732
 PZ  C  32   0.04039    -0.00023    -0.00000    -0.00378     0.02834    -0.00210
  
  S  C  33   0.11796    -0.00113     0.00000     0.00580     0.19895     0.12406
 PX  C  33  -0.02498     0.00019    -0.00000    -0.00110    -0.01960    -0.00897
 PY  C  33  -0.04406     0.00035    -0.00000    -0.00364    -0.02456    -0.01648
 PZ  C  33   0.03385    -0.00034    -0.00000     0.00708     0.00250     0.01725
  
  S  C  34   0.04547    -0.00070     0.00000     0.02704    -0.03606     0.06036
 PX  C  34  -0.06200     0.00050     0.00000    -0.00494    -0.03474    -0.02306
 PY  C  34  -0.09267     0.00078     0.00000    -0.01385    -0.00772    -0.02874
 PZ  C  34  -0.02979     0.00014    -0.00000     0.02079    -0.19163    -0.04752
  
  S  C  35   0.10811    -0.00115    -0.00000     0.05057    -0.21949    -0.00309
 PX  C  35  -0.03325     0.00018     0.00000     0.00890    -0.07249    -0.00423
 PY  C  35  -0.04743     0.00024     0.00000     0.01350    -0.09912    -0.00018
 PZ  C  35  -0.03555     0.00032    -0.00000     0.00183    -0.07526    -0.03426
  
  S  C  36   0.11488    -0.00064    -0.00000    -0.00489    -0.00847    -0.05982
 PX  C  36   0.02826    -0.00038     0.00000     0.01507    -0.03047     0.02132
 PY  C  36   0.04805    -0.00064     0.00000     0.02494    -0.03859     0.04250
 PZ  C  36  -0.02825     0.00009     0.00000     0.01107    -0.06491    -0.00086
  
  S  C  37   0.03485    -0.00040    -0.00000     0.03798    -0.23067    -0.02544
 PX  C  37  -0.01269     0.00014     0.00000    -0.00549     0.02125     0.00069
 PY  C  37  -0.02232     0.00023     0.00000    -0.00749     0.02589     0.00035
 PZ  C  37   0.02671    -0.00002     0.00000    -0.01926     0.13422     0.01620
  
  S  C  38   0.06125    -0.00037    -0.00000     0.00664    -0.00778     0.00689
 PX  C  38   0.00587    -0.00000     0.00000    -0.00388     0.02917     0.00627
 PY  C  38   0.01036    -0.00001     0.00000    -0.00524     0.04063     0.00909
 PZ  C  38  -0.00626     0.00009     0.00000    -0.01088     0.07243     0.01195
  
  S  C  39   0.05447    -0.00022     0.00000    -0.01436     0.13294     0.03129
 PX  C  39  -0.00135     0.00003     0.00000    -0.00333     0.02130     0.00311
 PY  C  39  -0.00034     0.00004     0.00000    -0.00568     0.03722     0.00557
 PZ  C  39  -0.01721     0.00007    -0.00000     0.00248    -0.02302    -0.00457
  
  S  C  40   0.04086    -0.00006     0.00000    -0.02547     0.19023     0.03269
 PX  C  40  -0.00871     0.00004    -0.00000     0.00111    -0.01268    -0.00372
 PY  C  40  -0.01383     0.00007    -0.00000     0.00108    -0.01649    -0.00594
 PZ  C  40  -0.00252    -0.00004    -0.00000     0.00577    -0.03067    -0.00002
  
  S  C  41   0.00005     0.00026     0.00000    -0.03064     0.17211     0.00858
 PX  C  41  -0.00093    -0.00002    -0.00000     0.00112    -0.00320     0.00100
 PY  C  41  -0.00443    -0.00001    -0.00000     0.00089    -0.00258     0.00032
 PZ  C  41   0.03122    -0.00021     0.00000    -0.00017     0.03409     0.01711
  
  S  C  42  -0.05916     0.00050     0.00000    -0.00205    -0.06266    -0.03153
 PX  C  42  -0.00231     0.00011     0.00000    -0.01447     0.08537     0.00510
 PY  C  42  -0.00914     0.00022     0.00000    -0.02617     0.15203     0.00798
 PZ  C  42   0.06648    -0.00039     0.00000    -0.00292     0.06790     0.02164
  
  S  N  43  -0.15525     0.00116     0.00000    -0.02393     0.03439    -0.02704
 PX  N  43   0.00494     0.00005     0.00000    -0.00989     0.05318    -0.00258
 PY  N  43  -0.01897     0.00035     0.00000    -0.03183     0.16586    -0.00360
 PZ  N  43  -0.01182     0.00002    -0.00000     0.01712    -0.13846    -0.02676
  
  S  C  44  -0.06984     0.00084     0.00000    -0.05985     0.31320     0.00209
 PX  C  44   0.00249    -0.00006    -0.00000     0.00665    -0.04109    -0.00334
 PY  C  44   0.04329    -0.00028    -0.00000     0.00408    -0.00367     0.00084
 PZ  C  44  -0.03640     0.00030     0.00000    -0.00797     0.01453    -0.01109
  
  S  C  45   0.03124     0.00008     0.00000    -0.03275     0.20365     0.00731
 PX  C  45  -0.01485     0.00018     0.00000    -0.01358     0.07188    -0.00016
 PY  C  45   0.04379    -0.00033    -0.00000     0.01483    -0.07247    -0.00183
 PZ  C  45  -0.02568     0.00018     0.00000    -0.00532     0.01676    -0.00361
  
  S  C  46   0.11658    -0.00065    -0.00000     0.01357    -0.04539     0.00135
 PX  C  46  -0.02767     0.00021     0.00000    -0.01115     0.05902     0.00122
 PY  C  46   0.01974    -0.00021    -0.00000     0.01935    -0.11408    -0.00474
 PZ  C  46  -0.00268     0.00007     0.00000    -0.00857     0.05116     0.00135
  
  S  C  47   0.13994    -0.00097    -0.00000     0.04851    -0.25686    -0.00727
 PX  C  47   0.02421    -0.00015    -0.00000     0.00501    -0.02275    -0.00031
 PY  C  47  -0.00104    -0.00004    -0.00000     0.00835    -0.05460    -0.00296
 PZ  C  47  -0.00913     0.00009     0.00000    -0.00757     0.04490     0.00169
  
  S  C  48   0.10504    -0.00079    -0.00000     0.04862    -0.27245    -0.00962
 PX  C  48   0.00030     0.00000     0.00000    -0.00093     0.00615     0.00030
 PY  C  48  -0.02802     0.00020     0.00000    -0.00983     0.05180     0.00138
 PZ  C  48   0.01834    -0.00013    -0.00000     0.00685    -0.03671    -0.00113
  
  S  S  49   0.09212    -0.06721    -0.00039     0.20109     0.03597    -0.03233
 PX  S  49  -0.02850     0.01189     0.04862    -0.08693    -0.01519     0.00184
 PY  S  49  -0.03103     0.02934    -0.03461     0.03202     0.00181     0.06582
 PZ  S  49  -0.03720     0.01829     0.03136    -0.07878    -0.01481     0.02049
  
  S  C  50   0.12661    -0.06993     0.05260     0.05406     0.01418    -0.12726
 PX  C  50  -0.00630    -0.00154     0.14208     0.00422     0.00010     0.00076
 PY  C  50   0.02550    -0.02921    -0.08549     0.08088     0.01618    -0.01879
 PZ  C  50  -0.00354    -0.02954     0.07755     0.01461     0.00218     0.00703
  
  S  C  51   0.08513    -0.10154     0.29032    -0.02233    -0.00255    -0.06970
 PX  C  51   0.00121    -0.04173     0.06408    -0.00042    -0.00034     0.01753
 PY  C  51   0.02475    -0.00390     0.03482     0.01785     0.00425    -0.02711
 PZ  C  51   0.01442    -0.10608     0.05040    -0.00941    -0.00159     0.01243
  
  S  C  52  -0.00270     0.12800     0.07628     0.01959     0.00337    -0.01885
 PX  C  52   0.00895    -0.05566    -0.01202     0.00489     0.00141    -0.00470
 PY  C  52   0.01500     0.09136     0.16263    -0.00765    -0.00162    -0.02094
 PZ  C  52   0.04800    -0.40218    -0.07806    -0.07008    -0.01160    -0.00507
  
  S  O  53  -0.06440     0.59654     0.15385     0.10595     0.01766    -0.00289
 PX  O  53   0.00346     0.00103     0.00077     0.00900     0.00195    -0.00654
 PY  O  53  -0.00075     0.05314     0.04310     0.00098    -0.00002    -0.00453
 PZ  O  53  -0.01727     0.16920     0.03715     0.03096     0.00526    -0.00467
  
  S  O  54   0.02215    -0.41252    -0.28352    -0.03993    -0.00578     0.00673
 PX  O  54   0.00131     0.00052     0.00405     0.00196     0.00044    -0.00096
 PY  O  54   0.00806    -0.03619     0.02835    -0.00866    -0.00154    -0.00373
 PZ  O  54   0.00365     0.03187     0.06294    -0.00443    -0.00101    -0.00234
  
  S  C  55   0.09131    -0.25066     0.51290    -0.05570    -0.01061     0.05485
 PX  C  55  -0.00253    -0.02025     0.08482    -0.01576    -0.00399     0.05786
 PY  C  55   0.00410     0.01351     0.02729     0.00607     0.00122    -0.00057
 PZ  C  55  -0.00039    -0.02669     0.09382    -0.01657    -0.00414     0.06081
  
  S  N  56   0.06517    -0.21146     0.49289    -0.06185    -0.01307     0.11736
 PX  N  56  -0.02182     0.06765    -0.14868     0.01765     0.00361    -0.02894
 PY  N  56  -0.00199     0.01317    -0.01578     0.00420     0.00089    -0.00609
 PZ  N  56  -0.02334     0.07336    -0.16200     0.01954     0.00402    -0.03237
  
  S  H  57   0.00300     0.00422     0.01363     0.13739     0.01604     0.09419
  
  S  H  58   0.08523     0.03272    -0.02253    -0.07929    -0.01646     0.10485
  
  S  H  59   0.07505     0.02951    -0.02092    -0.07550    -0.01587     0.10547
  
  S  H  60   0.08520     0.03271    -0.02253    -0.07927    -0.01645     0.10484
  
  S  H  61   0.10861     0.03816    -0.02341    -0.07354    -0.01435     0.07239
  
  S  H  62   0.10860     0.03817    -0.02340    -0.07357    -0.01435     0.07245
  
  S  H  63   0.09173     0.02620    -0.01136    -0.02176    -0.00274    -0.01494
  
[...]
  17    C        9.827713596    11.674258720     3.451633827
  18    S        9.436720998    10.019061430     3.343540908
  19    C       10.422911080    12.243711220     4.637599416
  20    C        9.976434282    13.477279050     5.094900858
  21    C       10.517236830    14.061865140     6.245859353
  22    C       11.508744470    13.373962590     6.912359051
  23    C       11.987184130    12.124007000     6.426002064
  24    C       11.452110460    11.552566170     5.304268098
  25    C       13.132507040    11.748042220     7.292258011
  26    C       13.568572240    10.393036380     7.807133923
  27    C       14.336517070    10.790190730     9.099258412
  28    C       13.949986920    12.250796390     9.466522190
  29    C       12.702412640    12.438246260     8.623845832
  30    N       12.067752920    13.727087770     8.206390708
  31    C       12.905512150    14.890976090     8.266671399
  32    C       13.274393420    15.621262740     7.125512336
  33    C       14.019491270    16.786313170     7.227548933
  34    C       14.401019610    17.201655100     8.497868799
  35    C       14.023060220    16.469576110     9.655657019
  36    C       13.277079360    15.311231740     9.547536705
  37    C       14.551270960    17.179563030    10.794132070
  38    C       14.491796500    16.940601550    12.156736530
  39    C       15.104396050    17.845690250    13.011219730
  40    C       15.767281100    18.971339920    12.513473820
  41    C       15.846250990    19.229914650    11.153338600
  42    C       15.235329820    18.320548060    10.294289160
  43    N       15.222399450    18.288652390     8.881148327
  44    C       15.456352360    19.455203650     8.033342288
  45    C       14.216197000    20.355033210     7.931469169
  46    C       14.509521870    21.549155520     7.028408620
  47    C       13.284972810    22.454157430     6.918009290
  48    C       13.575126800    23.643541960     6.017220748
  49    S        9.796964310     7.129344290     2.043226814
  50    C        9.517180662     5.531605457     1.334976662
  51    C       10.360236910     4.507956859     1.622855573
  52    C       10.441963880     3.261960838     0.865212951
  53    O       10.370992020     3.124202433    -0.347382759
  54    O       10.662701720     2.179429120     1.641467546
  55    C       11.308437570     4.652452288     2.663316921
  56    N       12.086071110     4.757184631     3.513504637
  57    H        7.502560610     9.472569812     0.234178471
  58    H       -0.585509097     1.091328515    -1.102898684
  59    H       -0.735454282    -0.396421313    -0.167765603
  60    H       -0.685382524     1.161238339     0.657818269
  61    H        1.549039431    -0.060536621     0.830528790
  62    H        1.648474552    -0.133421416    -0.922741412
  63    H        1.603564851     2.418852420    -1.033460796
  64    H        1.500213982     2.494363404     0.719750437
  65    H        3.710970545     1.225999249     0.905721546
  66    H        3.815263047     1.149424973    -0.847726122
  67    H        3.758703798     3.703617087    -0.960490388
  68    H        3.665292685     3.777618450     0.793815438
  69    H        5.870494501     2.486946865     0.956997694
  70    H        5.973263188     2.452197105    -0.800422302
  71    H        5.843421055     5.020923318    -0.825622068
  72    H        5.870663971     5.018685738     0.937575289
  73    H        8.039351911     3.462582261     0.679037403
  74    H        8.096754715     4.061752417    -1.007960241
  75    H        8.559599395    11.872043520     0.367861103
  76    H        9.654776561    13.425746600     2.158234094
  77    H        9.176466501    14.003072810     4.563800298
  78    H       10.152130680    15.026132740     6.608744643
  79    H       11.824613070    10.595092320     4.931331411
  80    H       14.029144420    12.245605120     6.830203308
  81    H       12.714270980     9.721209004     8.016074592
  82    H       14.200991720     9.832873165     7.094123112
  83    H       14.099222250    10.095211590     9.926442744
  84    H       15.429631890    10.699258570     8.956536333
  85    H       13.776038880    12.378447180    10.551008150
  86    H       14.753004910    12.971955040     9.219632307
  87    H       11.850588810    11.892812960     9.118863513
  88    H       12.976610580    15.277849960     6.129313118
  89    H       14.296111550    17.347775860     6.332838719
  90    H       12.981466690    14.760976410    10.445049310
  91    H       13.971426300    16.059411710    12.540105500
  92    H       15.069052410    17.679590490    14.091331280
  93    H       16.235691100    19.667149350    13.216934290
  94    H       16.368980790    20.112636860    10.781566050
  95    H       16.329772780    20.019937290     8.433388142
  96    H       15.776712480    19.100008690     7.026228670
  97    H       13.350756030    19.774487380     7.546896506
  98    H       13.901830380    20.693588430     8.941349010
  99    H       15.377758530    22.124342010     7.414423570
 100    H       14.824589000    21.205849110     6.020132829
 101    H       12.413594660    21.884494960     6.531167624
 102    H       12.967363160    22.803579410     7.923253269
 103    H       14.403924330    24.260224150     6.393855726
 104    H       13.845681530    23.337948460     4.996206994
 105    H       12.704326990    24.308878300     5.926049779
 106    H       10.793911120     1.385028439     1.104127060


           Empirical Formula: C47 H50 N4 O3 S2  =   106 atoms



      MOLECULAR POINT GROUP   :   C1  


                  EIGENVALUES  
 -49.37999 -48.39125 -47.89881 -46.37524 -43.92413 -43.11118 -42.79974 -42.62806
 -42.34912 -41.59365 -41.23856 -40.21797 -40.10586 -39.32878 -38.42259 -37.64653
 -37.25858 -36.00656 -35.42410 -34.80384 -34.55879 -34.02095 -33.02188 -32.43774
 -31.76324 -31.42219 -30.87503 -30.00161 -29.86019 -28.90100 -28.32435 -27.92912
 -27.24625 -27.06182 -26.82413 -26.51566 -25.95423 -25.87239 -25.70497 -25.31111
 -25.09533 -24.66903 -24.34325 -24.07077 -23.92984 -23.74982 -23.59642 -23.46854
 -22.80326 -22.50357 -21.69449 -21.44141 -21.25258 -21.00571 -20.73941 -20.63601
 -20.13346 -20.06487 -19.94413 -19.51348 -19.38589 -18.84021 -18.63657 -18.56460
 -18.49677 -18.43232 -18.19954 -17.93526 -17.90667 -17.85796 -17.55224 -17.26321
 -17.22405 -17.05025 -16.64113 -16.52325 -16.38128 -16.28778 -16.14442 -16.06202
 -16.01479 -15.87578 -15.56887 -15.43751 -15.35094 -15.16623 -15.10419 -14.96122
 -14.90334 -14.88343 -14.62616 -14.44620 -14.27966 -14.27016 -14.12961 -14.06496
 -13.98400 -13.93425 -13.86708 -13.81267 -13.71632 -13.69155 -13.62911 -13.54399
 -13.46983 -13.44178 -13.34134 -13.29742 -13.12749 -13.08573 -12.92759 -12.83979
 -12.75139 -12.68710 -12.66904 -12.49014 -12.47191 -12.42254 -12.38485 -12.36431
 -12.25812 -12.10560 -12.04844 -11.90491 -11.80692 -11.77505 -11.73335 -11.59611
 -11.21331 -11.13027 -10.96422 -10.91804 -10.56651 -10.18258 -10.08840  -9.93263
  -9.74312  -8.99845  -8.81129  -8.76374  -8.30754  -7.74649  -7.46740  -7.13920
  -1.03845  -0.46138   0.19552   0.37339   0.56220   0.77511   0.90512   1.09147
   1.18009   1.29716   1.53026   1.71088   1.83529   2.07370   2.31348   2.44377
   2.55852   2.79638   2.82229   2.89407   2.90695   3.02648   3.12656   3.20249
   3.24964   3.30773   3.34281   3.46753   3.50282   3.53307   3.67892   3.79112
   3.81227   3.89945   3.99612   4.05945   4.09184   4.11573   4.22305   4.25304
   4.42671   4.45341   4.53932   4.63428   4.70832   4.74600   4.79908   4.83199
   5.09241   5.16634   5.21818   5.23660   5.36997   5.43236   5.49954   5.61963
   5.71711   5.90630   6.03370   6.27936   6.35142   6.39109   6.46758   6.56166
   6.63058   6.66913   6.76107   6.76693   6.76837   6.80115   6.81030   6.82494
   6.83732   6.84963   6.88818   6.92208   6.93516   7.03307   7.03509   7.04155
   7.05245   7.10417   7.12159   7.20288   7.49875   8.01811   8.25018   8.36708
   8.38418   8.46636   8.51582   8.57917   8.62254   8.65763   8.69643   8.69773
   8.82347   8.82832   8.90826   8.97147   9.15756   9.20157   9.45590   9.59877
   9.79165   9.87787   9.94703  10.20136  10.27458  10.68824  10.89183  10.99999
  11.09952  11.17909  11.43095  11.47736  11.67011  11.94717  12.30992  12.50038
  12.67721  12.75595  13.01375  13.16518  13.21660  13.48148  13.96782  14.38072
  14.50587  15.18670


              NET ATOMIC CHARGES AND DIPOLE CONTRIBUTIONS

  ATOM NO.   TYPE          CHARGE      No. of ELECS.   s-Pop       p-Pop       
    1          C          -0.027918        4.0279     1.05497     2.97294
    2          C          -0.006973        4.0070     1.04480     2.96217
    3          C          -0.008548        4.0085     1.05054     2.95801
    4          C          -0.011061        4.0111     1.05203     2.95903
    5          C          -0.011074        4.0111     1.05209     2.95899
    6          C          -0.011198        4.0112     1.05223     2.95897
    7          C          -0.004125        4.0041     1.05447     2.94965
    8          C           0.079421        3.9206     1.05751     2.86307
    9          N          -0.094492        5.0945     1.24387     3.85063
   10          C           0.429769        3.5702     1.05291     2.51732
   11          O          -0.613058        6.6131     1.81371     4.79935
   12          C           0.004673        3.9953     1.06189     2.93344
   13          C           0.084109        3.9159     1.08642     2.82947
   14          C           0.003107        3.9969     1.06416     2.93273
   15          C           0.000178        3.9998     1.09516     2.90466
   16          C          -0.056138        4.0561     1.08321     2.97293
   17          C           0.058319        3.9417     1.08581     2.85587
   18          S          -0.037200        6.0372     1.76860     4.26860
   19          C           0.017540        3.9825     1.03961     2.94285
   20          C          -0.033097        4.0331     1.08149     2.95160
   21          C          -0.035630        4.0356     1.08045     2.95518
   22          C           0.073228        3.9268     1.06219     2.86458
   23          C           0.007121        3.9929     1.06672     2.92615
   24          C          -0.036608        4.0366     1.07824     2.95837
   25          C           0.012590        3.9874     1.03777     2.94964
   26          C          -0.005298        4.0053     1.05408     2.95122
   27          C          -0.012777        4.0128     1.05993     2.95285
   28          C          -0.004557        4.0046     1.05928     2.94527
   29          C           0.071560        3.9284     1.05051     2.87793
   30          N          -0.223345        5.2233     1.41840     3.80495
   31          C           0.080237        3.9198     1.04744     2.87233
   32          C          -0.042262        4.0423     1.08046     2.96181
   33          C          -0.039513        4.0395     1.07868     2.96083
   34          C           0.062189        3.9378     1.04961     2.88820
   35          C          -0.013677        4.0137     1.05011     2.96357
   36          C          -0.041502        4.0415     1.08025     2.96126
   37          C          -0.017699        4.0177     1.04791     2.96979
   38          C          -0.021872        4.0219     1.07937     2.94250
   39          C          -0.046060        4.0461     1.07755     2.96851
   40          C          -0.024687        4.0247     1.08067     2.94402
   41          C          -0.044314        4.0443     1.07583     2.96849
   42          C           0.077765        3.9222     1.05278     2.86946
   43          N          -0.166340        5.1663     1.27459     3.89175
   44          C           0.072512        3.9275     1.04927     2.87822
   45          C          -0.004060        4.0041     1.05242     2.95164
   46          C          -0.008100        4.0081     1.04924     2.95886
   47          C          -0.006233        4.0062     1.04446     2.96178
   48          C          -0.027478        4.0275     1.05483     2.97265
   49          S          -0.034745        6.0347     1.78434     4.25040
   50          C           0.242952        3.7570     1.08341     2.67364
   51          C          -0.010934        4.0109     0.98979     3.02115
   52          C           0.519145        3.4809     1.04199     2.43887
   53          O          -0.610522        6.6105     1.81683     4.79370
   54          O          -0.307736        6.3077     1.68732     4.62041
   55          C           0.218200        3.7818     1.14720     2.63460
   56          N          -0.403583        5.4036     1.75382     3.64977
   57          H           0.050560        0.9494     0.94944
   58          H           0.007681        0.9923     0.99232
   59          H          -0.000022        1.0000     1.00002
   60          H           0.007703        0.9923     0.99230
   61          H           0.006348        0.9937     0.99365
   62          H           0.006199        0.9938     0.99380
   63          H           0.006595        0.9934     0.99341
   64          H           0.006888        0.9931     0.99311
   65          H           0.007294        0.9927     0.99271
   66          H           0.006633        0.9934     0.99337
   67          H           0.005642        0.9944     0.99436
   68          H           0.007275        0.9927     0.99272
   69          H           0.011249        0.9888     0.98875
   70          H           0.007630        0.9924     0.99237
   71          H           0.011438        0.9886     0.98856
   72          H           0.017780        0.9822     0.98222
   73          H           0.035158        0.9648     0.96484
   74          H           0.030376        0.9696     0.96962
   75          H           0.040271        0.9597     0.95973
   76          H           0.033823        0.9662     0.96618
   77          H           0.023741        0.9763     0.97626
   78          H           0.024169        0.9758     0.97583
   79          H           0.025930        0.9741     0.97407
   80          H           0.020390        0.9796     0.97961
   81          H           0.012725        0.9873     0.98727
   82          H           0.002646        0.9974     0.99735
   83          H           0.007397        0.9926     0.99260
   84          H           0.007813        0.9922     0.99219
   85          H           0.002985        0.9970     0.99702
   86          H           0.016002        0.9840     0.98400
   87          H           0.013411        0.9866     0.98659
   88          H           0.026259        0.9737     0.97374
   89          H           0.027427        0.9726     0.97257
   90          H           0.026310        0.9737     0.97369
   91          H           0.023936        0.9761     0.97606
   92          H           0.016650        0.9834     0.98335
   93          H           0.018932        0.9811     0.98107
   94          H           0.026765        0.9732     0.97324
   95          H           0.018510        0.9815     0.98149
   96          H           0.019054        0.9809     0.98095
   97          H           0.012182        0.9878     0.98782
   98          H           0.011597        0.9884     0.98840
   99          H           0.009062        0.9909     0.99094
  100          H           0.009270        0.9907     0.99073
  101          H           0.006777        0.9932     0.99322
  102          H           0.006632        0.9934     0.99337
  103          H           0.007960        0.9920     0.99204
  104          H           0.008125        0.9919     0.99188
  105          H          -0.000122        1.0001     1.00012
  106          H           0.250742        0.7493     0.74926
 DIPOLE           X         Y         Z       TOTAL
 POINT-CHG.    -0.397     4.959     2.657     5.640
 HYBRID        -0.918     0.073    -3.860     3.968
 SUM           -1.315     5.031    -1.202     5.337


          ATOMIC ORBITAL ELECTRON POPULATIONS

     Atom    s        px        py        pz   
    1  C   1.05497   0.99081   0.98908   0.99305
    2  C   1.04480   0.99245   0.98391   0.98582
    3  C   1.05054   0.99268   0.97858   0.98675
    4  C   1.05203   0.99135   0.98092   0.98676
    5  C   1.05209   0.99119   0.98182   0.98597
    6  C   1.05223   0.99266   0.97778   0.98852
    7  C   1.05447   0.96684   0.99082   0.99200
    8  C   1.05751   0.98503   0.89262   0.98542
    9  N   1.24387   1.28592   1.08489   1.47981
   10  C   1.05291   0.79073   0.90945   0.81714
   11  O   1.81371   1.42535   1.93955   1.43445
   12  C   1.06189   0.98782   0.93891   1.00670
   13  C   1.08642   0.92004   0.97718   0.93226
   14  C   1.06416   1.04358   0.97588   0.91328
   15  C   1.09516   0.96571   0.99057   0.94839
   16  C   1.08321   1.04136   0.93037   1.00120
   17  C   1.08581   0.96170   0.90670   0.98746
   18  S   1.76860   1.75828   1.22726   1.28306
   19  C   1.03961   0.98774   0.98568   0.96943
   20  C   1.08149   0.98848   0.97277   0.99035
   21  C   1.08045   0.98846   0.96119   1.00553
   22  C   1.06219   0.97052   0.98375   0.91031
   23  C   1.06672   0.96789   0.98574   0.97252
   24  C   1.07824   1.01696   0.96469   0.97672
   25  C   1.03777   0.96560   1.00622   0.97781
   26  C   1.05408   0.99372   0.96164   0.99586
   27  C   1.05993   0.97767   0.98640   0.98878
   28  C   1.05928   0.99236   0.98739   0.96552
   29  C   1.05051   0.96279   0.91845   0.99669
   30  N   1.41840   1.40818   1.09049   1.30628
   31  C   1.04744   0.95363   0.92537   0.99332
   32  C   1.08046   1.02562   0.99215   0.94404
   33  C   1.07868   1.02278   0.99066   0.94739
   34  C   1.04961   0.96144   0.94430   0.98246
   35  C   1.05011   1.00618   0.97463   0.98276
   36  C   1.08025   1.02711   0.98466   0.94948
   37  C   1.04791   1.02036   0.99646   0.95298
   38  C   1.07937   0.99015   0.96465   0.98771
   39  C   1.07755   1.02410   1.00192   0.94249
   40  C   1.08067   0.99069   0.97649   0.97683
   41  C   1.07583   1.01662   0.97242   0.97944
   42  C   1.05278   0.98772   0.99815   0.88359
   43  N   1.27459   1.58818   1.20349   1.10008
   44  C   1.04927   0.99161   0.93119   0.95543
   45  C   1.05242   0.97073   0.99024   0.99067
   46  C   1.04924   0.97900   0.99283   0.98704
   47  C   1.04446   0.98008   0.99629   0.98541
   48  C   1.05483   0.99034   0.98939   0.99292
   49  S   1.78434   1.55723   1.12375   1.56942
   50  C   1.08341   0.89266   0.92443   0.85654
   51  C   0.98979   1.04047   0.95649   1.02418
   52  C   1.04199   0.65261   0.89823   0.88802
   53  O   1.81683   1.56726   1.96012   1.26631
   54  O   1.68732   1.86360   1.22077   1.53604
   55  C   1.14720   0.89569   0.82970   0.90921
   56  N   1.75382   1.22065   1.20350   1.22562
   57  H   0.94944
   58  H   0.99232
   59  H   1.00002
   60  H   0.99230
   61  H   0.99365
   62  H   0.99380
   63  H   0.99341
   64  H   0.99311
   65  H   0.99271
   66  H   0.99337
   67  H   0.99436
   68  H   0.99272
   69  H   0.98875
   70  H   0.99237
   71  H   0.98856
   72  H   0.98222
   73  H   0.96484
   74  H   0.96962
   75  H   0.95973
   76  H   0.96618
   77  H   0.97626
   78  H   0.97583
   79  H   0.97407
   80  H   0.97961
   81  H   0.98727
   82  H   0.99735
   83  H   0.99260
   84  H   0.99219
   85  H   0.99702
   86  H   0.98400
   87  H   0.98659
   88  H   0.97374
   89  H   0.97257
   90  H   0.97369
   91  H   0.97606
   92  H   0.98335
   93  H   0.98107
   94  H   0.97324
   95  H   0.98149
   96  H   0.98095
   97  H   0.98782
   98  H   0.98840
   99  H   0.99094
  100  H   0.99073
  101  H   0.99322
  102  H   0.99337
  103  H   0.99204
  104  H   0.99188
  105  H   1.00012
  106  H   0.74926

 **********************
 *                    *
 * JOB ENDED NORMALLY *
 *                    *
 **********************



 TOTAL JOB TIME:           735.45 SECONDS

 == MOPAC DONE ==
