 *******************************************************************************
 ** Site#: 4824         For non-commercial use only    Version 21.013L 64BITS **
 *******************************************************************************
 ** Cite this program as: MOPAC2016, Version: 21.013L, James J. P. Stewart,   **
 ** Stewart Computational Chemistry, web: HTTP://OpenMOPAC.net. Days left:  84**
 *******************************************************************************
 **                                                                           **
 **                                MOPAC2016                                  **
 **                                                                           **
 *******************************************************************************

                              INDO CALCULATION RESULTS

 *******************************************************************************
 *  CALCULATION DONE:                                Thu Oct 21 22:40:29 2021  *
 *  INDO       - The INDO Hamiltonian to be used
 *  CIS        - C.I. USES 1 ELECTRON EXCITATIONS ONLY
 *  EPS=  7.58 - USE ANDREAS KLAMT'S COSMO IMPLICIT SOLVATION MODEL
 *  n**2 =  1.400 for COSMO-CI
 *  T=         - A TIME OF 172800.0 SECONDS REQUESTED
 *  DUMP=N     - RESTART FILE WRITTEN EVERY 7200.0 SECONDS REQUESTED
 *******************************************************************************
INDO CIS EPS=7.58 N**2=1.40
 Dye89
 Calculo de Estados Excitados
   ATOM   CHEMICAL          X               Y               Z
  NUMBER   SYMBOL      (ANGSTROMS)     (ANGSTROMS)     (ANGSTROMS)
 
     1       C          0.00000000  *   0.00000000  *   0.00000000  *
     2       C          1.51999536  *   0.00000000  *   0.00000000  *
     3       C          2.06137292  *   1.42743977  *   0.00000000  *
     4       C          3.58823349  *   1.42863637  *  -0.00053346  *
     5       C          4.12820887  *   2.85705686  *  -0.00021350  *
     6       C          5.65520494  *   2.85782063  *  -0.00130352  *
     7       C          6.19590956  *   4.28578877  *   0.00914854  *
     8       C          7.72309360  *   4.28655406  *  -0.00387046  *
     9       C          8.25897344  *   5.71587931  *   0.03282431  *
    10       C          9.78663959  *   5.71724736  *  -0.03176195  *
    11       C         10.30028017  *   7.10451968  *   0.12001721  *
    12       N          9.99296494  *   8.04403401  *  -0.87083180  *
    13       C         10.56178510  *   9.21084693  *  -0.54956210  *
    14       S         11.46579651  *   9.23157145  *   0.91506162  *
    15       C         11.08495736  *   7.59363383  *   1.14387822  *
    16       C         11.54064829  *   6.85235505  *   2.29864962  *
    17       C         12.91202264  *   6.79338883  *   2.58376544  *
    18       C         13.37879085  *   6.08850289  *   3.68324583  *
    19       C         12.46117304  *   5.43738658  *   4.48975622  *
    20       C         11.07216048  *   5.50602099  *   4.19645433  *
    21       C         10.59683261  *   6.21586858  *   3.09941519  *
    22       N         10.34613264  *   4.83003733  *   5.20659367  *
    23       C          9.00108804  *   4.29336227  *   4.99849306  *
    24       C          9.01766223  *   3.01947124  *   4.14174684  *
    25       C          7.59721236  *   2.50383255  *   3.93441298  *
    26       C          7.61152343  *   1.21074362  *   3.13544858  *
    27       C         11.29922249  *   4.21449755  *   6.05509000  *
    28       C         12.60428469  *   4.62136202  *   5.66903030  *
    29       C         13.70822364  *   4.21623704  *   6.40042548  *
    30       C         13.50319409  *   3.39847294  *   7.50234162  *
    31       C         12.21705026  *   2.99275803  *   7.86995899  *
    32       C         11.09519770  *   3.39070958  *   7.15779482  *
    33       C         10.41942034  *  10.37187486  *  -1.38988330  *
    34       N         10.96450145  *  11.54810803  *  -1.06109317  *
    35       C         10.66331809  *  12.48144901  *  -2.05826217  *
    36       C          9.90530573  *  11.97549024  *  -3.09869502  *
    37       S          9.54040262  *  10.33111903  *  -2.87000965  *
    38       C          9.44541953  *  12.72507804  *  -4.22090535  *
    39       C          8.80186423  *  13.93602898  *  -4.15266757  *
    40       C          8.48727947  *  14.43493188  *  -5.44647029  *
    41       C          8.90337989  *  13.58369324  *  -6.44911641  *
    42       S          9.67447290  *  12.20246216  *  -5.82175393  *
    43       C          8.69399978  *  13.87270192  *  -7.83482596  *
    44       C          9.01007530  *  13.06745307  *  -8.87102928  *
    45       C          8.72852419  *  13.51787904  * -10.24031361  *
    46       O          8.22130781  *  14.58136674  * -10.56895443  *
    47       O          9.08487524  *  12.63160999  * -11.19180021  *
    48       C          9.60406472  *  11.79072576  *  -8.72494393  *
    49       N         10.08743794  *  10.74347579  *  -8.63553991  *
    50       C         11.14327680  *  13.88300277  *  -1.93935874  *
    51       C         12.48525048  *  13.97359999  *  -1.21383084  *
    52       C         12.98905238  *  15.41570032  *  -1.21166758  *
    53       C         14.31726518  *  15.51889713  *  -0.46519561  *
    54       C         14.82779459  *  16.95814395  *  -0.46640171  *
    55       C         16.15519087  *  17.06145411  *   0.28143920  *
    56       C         16.66602572  *  18.50034246  *   0.28053615  *
    57       C         17.99336549  *  18.60507112  *   1.02746137  *
    58       C         18.50087449  *  20.03784380  *   1.02651220  *
    59       H          8.22807504  *  14.85128567  *  -8.04271734  *
    60       H         -0.41702990  *   0.50648510  *  -0.88239590  *
    61       H         -0.40933064  *  -1.02063219  *  -0.00022366  *
    62       H         -0.41712506  *   0.50621774  *   0.88249719  *
    63       H          1.90229936  *  -0.56150785  *   0.87864702  *
    64       H          1.90218790  *  -0.56130420  *  -0.87884013  *
    65       H          1.67358146  *   1.98484924  *  -0.87877613  *
    66       H          1.67389947  *   1.98481156  *   0.87893060  *
    67       H          3.97454337  *   0.86976557  *   0.87807684  *
    68       H          3.97390856  *   0.87064184  *  -0.87989413  *
    69       H          3.74166112  *   3.41583113  *  -0.87869271  *
    70       H          3.74243499  *   3.41495756  *   0.87916843  *
    71       H          6.04203902  *   2.29333097  *   0.87444983  *
    72       H          6.04056740  *   2.30573011  *  -0.88443335  *
    73       H          5.80294702  *   4.85379557  *  -0.86053290  *
    74       H          5.81743294  *   4.83461218  *   0.89749433  *
    75       H          8.11700077  *   3.70266312  *   0.85611456  *
    76       H          8.10185436  *   3.75515464  *  -0.90236668  *
    77       H          7.84028269  *   6.31156956  *  -0.80592773  *
    78       H          7.91018623  *   6.23631197  *   0.94975269  *
    79       H         10.22471727  *   5.05364652  *   0.74409783  *
    80       H         10.13943454  *   5.29082256  *  -0.99663972  *
    81       H         13.62388376  *   7.30136311  *   1.92713385  *
    82       H         14.44633176  *   6.04108881  *   3.91305760  *
    83       H          9.53076692  *   6.28551580  *   2.87313361  *
    84       H          8.53864957  *   4.10201633  *   5.99436671  *
    85       H          8.36883883  *   5.08358046  *   4.53195973  *
    86       H          9.50509101  *   3.21769995  *   3.16307806  *
    87       H          9.65076977  *   2.24254783  *   4.62068217  *
    88       H          7.09105579  *   2.34441057  *   4.91007237  *
    89       H          6.97779356  *   3.26655326  *   3.41531295  *
    90       H          8.16605892  *   0.41034606  *   3.64632770  *
    91       H          6.59547686  *   0.82754406  *   2.96033389  *
    92       H          8.07677955  *   1.33742816  *   2.14670225  *
    93       H         14.71139766  *   4.53707153  *   6.10918120  *
    94       H         14.35941079  *   3.06392983  *   8.09454346  *
    95       H         12.09264968  *   2.34389529  *   8.74279735  *
    96       H         10.09714064  *   3.06809966  *   7.45910680  *
    97       H          8.54590582  *  14.45445579  *  -3.23168763  *
    98       H          7.97283335  *  15.38120472  *  -5.60547438  *
    99       H          8.88127060  *  12.96991600  * -12.07590554  *
   100       H         11.21548376  *  14.33987911  *  -2.95098264  *
   101       H         10.36908792  *  14.48078583  *  -1.40883867  *
   102       H         12.39214768  *  13.59482085  *  -0.17399959  *
   103       H         13.22695325  *  13.30211422  *  -1.69497129  *
   104       H         13.10225671  *  15.78985619  *  -2.25126969  *
   105       H         12.23436624  *  16.08783384  *  -0.75111580  *
   106       H         14.20394099  *  15.15052170  *   0.57639472  *
   107       H         15.06965165  *  14.84181343  *  -0.92222525  *
   108       H         14.94246307  *  17.32630378  *  -1.50788694  *
   109       H         14.07463537  *  17.63508692  *  -0.01047355  *
   110       H         16.04087431  *  16.69355129  *   1.32306061  *
   111       H         16.90848395  *  16.38453214  *  -0.17431322  *
   112       H         16.78141701  *  18.86967005  *  -0.76042475  *
   113       H         15.91433123  *  19.17841636  *   0.73714094  *
   114       H         17.88320917  *  18.23924042  *   2.07030055  *
   115       H         18.75013758  *  17.93118977  *   0.57285992  *
   116       H         18.66839959  *  20.42029175  *   0.00929719  *
   117       H         17.79825643  *  20.72951542  *   1.51331039  *
   118       H         19.45751364  *  20.13359276  *   1.56028042  *
 


          CARTESIAN COORDINATES 

    NO.       ATOM           X           Y           Z

     1         C          0.0000      0.0000      0.0000
     2         C          1.5200      0.0000      0.0000
     3         C          2.0614      1.4274      0.0000
     4         C          3.5882      1.4286     -0.0005
     5         C          4.1282      2.8571     -0.0002
     6         C          5.6552      2.8578     -0.0013
     7         C          6.1959      4.2858      0.0091
     8         C          7.7231      4.2866     -0.0039
     9         C          8.2590      5.7159      0.0328
    10         C          9.7866      5.7172     -0.0318
    11         C         10.3003      7.1045      0.1200
    12         N          9.9930      8.0440     -0.8708
    13         C         10.5618      9.2108     -0.5496
    14         S         11.4658      9.2316      0.9151
    15         C         11.0850      7.5936      1.1439
    16         C         11.5406      6.8524      2.2986
    17         C         12.9120      6.7934      2.5838
    18         C         13.3788      6.0885      3.6832
    19         C         12.4612      5.4374      4.4898
    20         C         11.0722      5.5060      4.1965
    21         C         10.5968      6.2159      3.0994
    22         N         10.3461      4.8300      5.2066
    23         C          9.0011      4.2934      4.9985
    24         C          9.0177      3.0195      4.1417
    25         C          7.5972      2.5038      3.9344
    26         C          7.6115      1.2107      3.1354
    27         C         11.2992      4.2145      6.0551
    28         C         12.6043      4.6214      5.6690
    29         C         13.7082      4.2162      6.4004
    30         C         13.5032      3.3985      7.5023
    31         C         12.2171      2.9928      7.8700
    32         C         11.0952      3.3907      7.1578
    33         C         10.4194     10.3719     -1.3899
    34         N         10.9645     11.5481     -1.0611
    35         C         10.6633     12.4814     -2.0583
    36         C          9.9053     11.9755     -3.0987
    37         S          9.5404     10.3311     -2.8700
    38         C          9.4454     12.7251     -4.2209
    39         C          8.8019     13.9360     -4.1527
    40         C          8.4873     14.4349     -5.4465
    41         C          8.9034     13.5837     -6.4491
    42         S          9.6745     12.2025     -5.8218
    43         C          8.6940     13.8727     -7.8348
    44         C          9.0101     13.0675     -8.8710
    45         C          8.7285     13.5179    -10.2403
    46         O          8.2213     14.5814    -10.5690
    47         O          9.0849     12.6316    -11.1918
    48         C          9.6041     11.7907     -8.7249
    49         N         10.0874     10.7435     -8.6355
    50         C         11.1433     13.8830     -1.9394
    51         C         12.4853     13.9736     -1.2138
    52         C         12.9891     15.4157     -1.2117
    53         C         14.3173     15.5189     -0.4652
    54         C         14.8278     16.9581     -0.4664
    55         C         16.1552     17.0615      0.2814
    56         C         16.6660     18.5003      0.2805
    57         C         17.9934     18.6051      1.0275
    58         C         18.5009     20.0378      1.0265
    59         H          8.2281     14.8513     -8.0427
    60         H         -0.4170      0.5065     -0.8824
    61         H         -0.4093     -1.0206     -0.0002
    62         H         -0.4171      0.5062      0.8825
    63         H          1.9023     -0.5615      0.8786
    64         H          1.9022     -0.5613     -0.8788
    65         H          1.6736      1.9848     -0.8788
    66         H          1.6739      1.9848      0.8789
    67         H          3.9745      0.8698      0.8781
    68         H          3.9739      0.8706     -0.8799
    69         H          3.7417      3.4158     -0.8787
    70         H          3.7424      3.4150      0.8792
    71         H          6.0420      2.2933      0.8744
    72         H          6.0406      2.3057     -0.8844
    73         H          5.8029      4.8538     -0.8605
    74         H          5.8174      4.8346      0.8975
    75         H          8.1170      3.7027      0.8561
    76         H          8.1019      3.7552     -0.9024
    77         H          7.8403      6.3116     -0.8059
    78         H          7.9102      6.2363      0.9498
    79         H         10.2247      5.0536      0.7441
    80         H         10.1394      5.2908     -0.9966
    81         H         13.6239      7.3014      1.9271
    82         H         14.4463      6.0411      3.9131
    83         H          9.5308      6.2855      2.8731
    84         H          8.5386      4.1020      5.9944
    85         H          8.3688      5.0836      4.5320
    86         H          9.5051      3.2177      3.1631
    87         H          9.6508      2.2425      4.6207
    88         H          7.0911      2.3444      4.9101
    89         H          6.9778      3.2666      3.4153
    90         H          8.1661      0.4103      3.6463
    91         H          6.5955      0.8275      2.9603
    92         H          8.0768      1.3374      2.1467
    93         H         14.7114      4.5371      6.1092
    94         H         14.3594      3.0639      8.0945
    95         H         12.0926      2.3439      8.7428
    96         H         10.0971      3.0681      7.4591
    97         H          8.5459     14.4545     -3.2317
    98         H          7.9728     15.3812     -5.6055
    99         H          8.8813     12.9699    -12.0759
   100         H         11.2155     14.3399     -2.9510
   101         H         10.3691     14.4808     -1.4088
   102         H         12.3921     13.5948     -0.1740
   103         H         13.2270     13.3021     -1.6950
   104         H         13.1023     15.7899     -2.2513
   105         H         12.2344     16.0878     -0.7511
   106         H         14.2039     15.1505      0.5764
   107         H         15.0697     14.8418     -0.9222
   108         H         14.9425     17.3263     -1.5079
   109         H         14.0746     17.6351     -0.0105
   110         H         16.0409     16.6936      1.3231
   111         H         16.9085     16.3845     -0.1743
   112         H         16.7814     18.8697     -0.7604
   113         H         15.9143     19.1784      0.7371
   114         H         17.8832     18.2392      2.0703
   115         H         18.7501     17.9312      0.5729
   116         H         18.6684     20.4203      0.0093
   117         H         17.7983     20.7295      1.5133
   118         H         19.4575     20.1336      1.5603

           Empirical Formula: C49 H60 N4 O2 S3  =   118 atoms



      MOLECULAR POINT GROUP   :   C1  


      RHF CALCULATION, NO. OF DOUBLY OCCUPIED LEVELS = 153

 WARNING: INDO only performs single-point calculations

 Summary of symmetry occupancy in each shell:

 SHELL     
    1  153
    v  139
 TOTAL 292




    ROOT NO.    1           2           3           4           5           6

           -48.56595   -46.74635   -46.03430   -45.38522   -43.23967   -43.08451
  
  
  S  C   1   0.00012     0.00001     0.00130    -0.00275     0.10907    -0.01857
 PX  C   1   0.00005     0.00000     0.00054    -0.00112     0.04072    -0.00688
 PY  C   1   0.00002     0.00000     0.00017    -0.00035     0.01149    -0.00192
 PZ  C   1   0.00000    -0.00000    -0.00000     0.00000    -0.00000    -0.00000
  
  S  C   2   0.00028     0.00001     0.00269    -0.00547     0.18892    -0.03181
 PX  C   2   0.00006     0.00000     0.00042    -0.00076     0.01390    -0.00217
 PY  C   2   0.00009     0.00000     0.00080    -0.00159     0.04791    -0.00796
 PZ  C   2   0.00000    -0.00000    -0.00000    -0.00000     0.00000    -0.00000
  
  S  C   3   0.00058     0.00002     0.00481    -0.00929     0.26056    -0.04308
 PX  C   3   0.00021     0.00001     0.00141    -0.00253     0.04760    -0.00751
 PY  C   3   0.00003     0.00000     0.00007     0.00001    -0.01826     0.00330
 PZ  C   3   0.00001    -0.00000    -0.00000    -0.00000     0.00001    -0.00001
  
  S  C   4   0.00122     0.00004     0.00812    -0.01472     0.31082    -0.05001
 PX  C   4   0.00025     0.00001     0.00087    -0.00119    -0.01330     0.00277
 PY  C   4   0.00034     0.00001     0.00212    -0.00361     0.05182    -0.00790
 PZ  C   4   0.00005    -0.00000     0.00000    -0.00001     0.00020    -0.00005
  
  S  C   5   0.00223     0.00007     0.01347    -0.02274     0.33705    -0.05202
 PX  C   5   0.00077     0.00002     0.00375    -0.00574     0.03652    -0.00467
 PY  C   5   0.00002     0.00000     0.00008     0.00034    -0.04148     0.00715
 PZ  C   5   0.00010    -0.00000     0.00001    -0.00002     0.00033    -0.00008
  
  S  C   6   0.00437     0.00013     0.02211    -0.03470     0.33806    -0.04909
 PX  C   6   0.00073     0.00002     0.00220    -0.00248    -0.03580     0.00667
 PY  C   6   0.00088     0.00003     0.00572    -0.00832     0.04047    -0.00473
 PZ  C   6   0.00046     0.00000     0.00004    -0.00009     0.00155    -0.00036
  
  S  C   7   0.00667     0.00022     0.03659    -0.05301     0.30879    -0.04016
 PX  C   7   0.00199     0.00007     0.01004    -0.01311     0.01245     0.00065
 PY  C   7  -0.00020     0.00001     0.00035     0.00074    -0.05298     0.00845
 PZ  C   7   0.00049    -0.00000    -0.00004     0.00002     0.00012     0.00008
  
  S  C   8   0.01149     0.00039     0.05910    -0.07959     0.25504    -0.02627
 PX  C   8   0.00138     0.00004     0.00529    -0.00498    -0.04919     0.00902
 PY  C   8   0.00218     0.00011     0.01576    -0.01951     0.01487     0.00076
 PZ  C   8   0.00142     0.00000     0.00038    -0.00062     0.00224     0.00047
  
  S  C   9   0.01706     0.00073     0.10224    -0.12566     0.17461    -0.01246
 PX  C   9   0.00467     0.00022     0.02816    -0.03135    -0.01766     0.00531
 PY  C   9  -0.00037     0.00005     0.00470    -0.00191    -0.04883     0.00325
 PZ  C   9   0.00178    -0.00001    -0.00080     0.00053    -0.00114     0.00366
  
  S  C  10   0.02546     0.00110     0.14659    -0.17025     0.08686     0.00637
 PX  C  10   0.00093     0.00001    -0.00118     0.00421    -0.04108     0.00847
 PY  C  10   0.00493     0.00039     0.04757    -0.04978    -0.01753    -0.00257
 PZ  C  10   0.00534     0.00003     0.00481    -0.00693     0.00110     0.01269
  
  S  C  11   0.03615     0.00246     0.29615    -0.30688    -0.03039    -0.02228
 PX  C  11   0.00256     0.00008     0.00773    -0.00588    -0.02206     0.00924
 PY  C  11   0.00264     0.00082     0.08779    -0.07716    -0.05271    -0.03576
 PZ  C  11   0.00520    -0.00024    -0.02442     0.01976     0.00362     0.03471
  
  S  N  12   0.02479     0.00315     0.33927    -0.30805    -0.08093    -0.09518
 PX  N  12   0.00502     0.00065     0.07108    -0.06496    -0.02483    -0.01953
 PY  N  12  -0.00031     0.00040     0.02370    -0.00016    -0.02290    -0.01726
 PZ  N  12   0.00886     0.00088     0.10637    -0.10920    -0.02491    -0.02300
  
  S  C  13   0.01784     0.00381     0.30168    -0.16531    -0.08415    -0.10269
 PX  C  13  -0.00132    -0.00022    -0.02441     0.02370     0.00638     0.00991
 PY  C  13  -0.00863     0.00008    -0.07665     0.15244     0.02725     0.00770
 PZ  C  13   0.00244    -0.00038     0.00072    -0.04107    -0.00285     0.01195
  
  S  S  14   0.01760     0.00173     0.16551    -0.12911    -0.05162    -0.02026
 PX  S  14  -0.00407    -0.00063    -0.06080     0.04812     0.01777     0.01789
 PY  S  14  -0.01038    -0.00043    -0.06694     0.08237     0.02236    -0.00776
 PZ  S  14  -0.00153    -0.00080    -0.06460     0.03602     0.01835     0.03155
  
  S  C  15   0.04716     0.00184     0.22387    -0.23519    -0.05543     0.05715
 PX  C  15   0.00017    -0.00036    -0.04177     0.04155     0.00193     0.02298
 PY  C  15  -0.01001     0.00017     0.01176    -0.00195    -0.01384    -0.03939
 PZ  C  15   0.00748    -0.00064    -0.07033     0.06393     0.01428     0.05903
  
  S  C  16   0.11112     0.00076     0.10955    -0.13794    -0.04284     0.23247
 PX  C  16   0.00545    -0.00012    -0.01439     0.01463    -0.00765     0.02187
 PY  C  16  -0.02396     0.00007     0.00660    -0.00362    -0.00068    -0.03621
 PZ  C  16   0.03341    -0.00020    -0.02220     0.01968    -0.00473     0.05426
  
  S  C  17   0.09678     0.00035     0.05573    -0.07669    -0.04145     0.21104
 PX  C  17  -0.03099    -0.00015    -0.02250     0.02976     0.01090    -0.06265
 PY  C  17  -0.02215     0.00001    -0.00087     0.00356     0.00503    -0.03512
 PZ  C  17   0.02748    -0.00005    -0.00352     0.00086    -0.00673     0.04191
  
  S  C  18   0.12615     0.00012     0.02561    -0.04149    -0.03866     0.18181
 PX  C  18  -0.05940    -0.00005    -0.01124     0.01824     0.01428    -0.07781
 PY  C  18  -0.01513     0.00004     0.00498    -0.00611    -0.00026     0.01090
 PZ  C  18   0.01279    -0.00006    -0.00926     0.01202     0.00225    -0.02753
  
  S  C  19   0.30004    -0.00011    -0.00168    -0.00979    -0.03888     0.13311
 PX  C  19  -0.10218     0.00007     0.00668    -0.00568    -0.00010    -0.01314
 PY  C  19  -0.03648     0.00010     0.01447    -0.01940    -0.00544     0.05794
 PZ  C  19   0.03710    -0.00014    -0.02014     0.02743     0.00705    -0.08487
  
  S  C  20   0.37020    -0.00012    -0.00199    -0.01060    -0.01673     0.13953
 PX  C  20   0.01670     0.00003     0.00597    -0.00984    -0.02052     0.04838
 PY  C  20  -0.07048     0.00015     0.02011    -0.02549    -0.01023     0.05497
 PZ  C  20   0.10201    -0.00022    -0.02920     0.03662     0.00795    -0.07060
  
  S  C  21   0.16086     0.00037     0.06080    -0.08330    -0.01918     0.19510
 PX  C  21   0.04175     0.00008     0.01478    -0.02237    -0.01904     0.08446
 PY  C  21  -0.03084     0.00011     0.01384    -0.01571    -0.00574     0.00893
 PZ  C  21   0.04687    -0.00020    -0.02475     0.02782     0.00009    -0.00219
  
  S  N  22   0.47442    -0.00046    -0.05121     0.05526     0.02774    -0.04423
 PX  N  22   0.09802    -0.00009    -0.01020     0.01052    -0.01481     0.00083
 PY  N  22  -0.02548     0.00005     0.00628    -0.00824    -0.00848     0.02679
 PZ  N  22  -0.03040     0.00000    -0.00139     0.00333    -0.00339    -0.02541
  
  S  C  23   0.21613    -0.00021    -0.02317     0.02543     0.05213    -0.04055
 PX  C  23   0.09853    -0.00010    -0.01143     0.01265     0.00393    -0.01101
 PY  C  23   0.01415    -0.00001    -0.00034    -0.00000    -0.00908     0.00920
 PZ  C  23  -0.00224    -0.00001    -0.00211     0.00302    -0.00765    -0.00658
  
  S  C  24   0.12376    -0.00011    -0.01191     0.01266     0.06727    -0.03697
 PX  C  24   0.01772    -0.00002    -0.00228     0.00264    -0.01256     0.00252
 PY  C  24   0.04022    -0.00004    -0.00389     0.00419     0.00204    -0.00234
 PZ  C  24   0.02471    -0.00003    -0.00437     0.00530    -0.00057    -0.00726
  
  S  C  25   0.05206    -0.00004    -0.00354     0.00309     0.07157    -0.02930
 PX  C  25   0.01781    -0.00002    -0.00184     0.00203     0.01046    -0.00640
 PY  C  25   0.00920    -0.00001    -0.00075     0.00083    -0.00043    -0.00055
 PZ  C  25   0.00428    -0.00001    -0.00149     0.00200    -0.00731    -0.00035
  
  S  C  26   0.02318    -0.00001    -0.00043    -0.00042     0.05700    -0.01934
 PX  C  26   0.00361    -0.00000    -0.00041     0.00050     0.00049    -0.00119
 PY  C  26   0.00862    -0.00000    -0.00021    -0.00003     0.01579    -0.00562
 PZ  C  26   0.00488    -0.00001    -0.00098     0.00124     0.00196    -0.00269
  
  S  C  27   0.36486    -0.00041    -0.04914     0.05789    -0.00688    -0.14017
 PX  C  27  -0.00926     0.00000    -0.00015     0.00106    -0.01728    -0.02739
 PY  C  27   0.07308    -0.00006    -0.00588     0.00504    -0.00015     0.02338
 PZ  C  27  -0.10438     0.00009     0.00819    -0.00689    -0.00504    -0.03539
  
  S  C  28   0.29695    -0.00031    -0.03540     0.04034    -0.02877    -0.09454
 PX  C  28  -0.11015     0.00011     0.01251    -0.01356    -0.00137     0.00818
 PY  C  28   0.01133     0.00002     0.00374    -0.00655    -0.00016     0.04914
 PZ  C  28  -0.03195    -0.00001    -0.00355     0.00737    -0.00056    -0.06774
  
  S  C  29   0.12161    -0.00016    -0.02062     0.02669    -0.02344    -0.12411
 PX  C  29  -0.06010     0.00008     0.01001    -0.01275     0.00819     0.05143
 PY  C  29   0.00057     0.00001     0.00167    -0.00281     0.00078     0.02276
 PZ  C  29  -0.00995    -0.00000    -0.00082     0.00200     0.00006    -0.02386
  
  S  C  30   0.08793    -0.00013    -0.01859     0.02549    -0.01937    -0.14160
 PX  C  30  -0.03330     0.00005     0.00690    -0.00935     0.00558     0.04815
 PY  C  30   0.01524    -0.00002    -0.00277     0.00362    -0.00294    -0.01644
 PZ  C  30  -0.02607     0.00004     0.00486    -0.00640     0.00486     0.02997
  
  S  C  31   0.09158    -0.00014    -0.01959     0.02687    -0.01655    -0.14710
 PX  C  31  -0.00060    -0.00000    -0.00014     0.00032    -0.00240    -0.00560
 PY  C  31   0.02709    -0.00004    -0.00539     0.00722    -0.00437    -0.03542
 PZ  C  31  -0.03770     0.00006     0.00743    -0.00992     0.00548     0.04803
  
  S  C  32   0.14890    -0.00020    -0.02673     0.03477    -0.00876    -0.14892
 PX  C  32   0.02640    -0.00004    -0.00625     0.00878    -0.00997    -0.05257
 PY  C  32   0.04020    -0.00005    -0.00591     0.00712    -0.00062    -0.01822
 PZ  C  32  -0.05361     0.00006     0.00744    -0.00875    -0.00172     0.01796
  
  S  C  33   0.00570     0.00738     0.29998     0.17818    -0.04551    -0.13299
 PX  C  33   0.00016     0.00059     0.02251     0.02374    -0.00269    -0.01230
 PY  C  33  -0.00171     0.00305     0.07498     0.15624     0.00596    -0.03371
 PZ  C  33   0.00118    -0.00055     0.00016    -0.04042    -0.00767    -0.00384
  
  S  N  34   0.00302     0.00963     0.33646     0.32423    -0.02727    -0.13762
 PX  N  34  -0.00058    -0.00195    -0.06781    -0.06565     0.00672     0.03136
 PY  N  34  -0.00065    -0.00029    -0.02394    -0.00153     0.01126     0.02674
 PZ  N  34  -0.00066    -0.00324    -0.10571    -0.11409     0.00538     0.03958
  
  S  C  35   0.00191     0.01054     0.29189     0.31798     0.00343    -0.04431
 PX  C  35  -0.00008    -0.00071    -0.00898    -0.00800     0.00058    -0.00076
 PY  C  35  -0.00074    -0.00197    -0.08681    -0.08089     0.01634     0.06553
 PZ  C  35   0.00024    -0.00016     0.02695     0.02488    -0.00776    -0.03436
  
  S  C  36   0.00142     0.01060     0.21639     0.23711     0.01394     0.01964
 PX  C  36   0.00026     0.00047     0.03823     0.03979    -0.00488    -0.02660
 PY  C  36  -0.00020     0.00145    -0.00995    -0.00068     0.01399     0.04996
 PZ  C  36   0.00057     0.00059     0.07437     0.07334    -0.01354    -0.06386
  
  S  S  37   0.00205     0.00520     0.16178     0.13232    -0.01299    -0.04910
 PX  S  37   0.00069     0.00159     0.05814     0.04873    -0.00642    -0.02531
 PY  S  37   0.00008     0.00269     0.06509     0.08343     0.00174    -0.01066
 PZ  S  37   0.00114     0.00138     0.06601     0.04036    -0.01172    -0.03728
  
  S  C  38   0.00047     0.01753     0.10528     0.13665     0.06169     0.22625
 PX  C  38   0.00006    -0.00193     0.00784     0.00657    -0.00800    -0.03486
 PY  C  38  -0.00004     0.00405     0.00120     0.00673     0.01701     0.06770
 PZ  C  38   0.00017    -0.00363     0.02557     0.02542    -0.01243    -0.05743
  
  S  C  39   0.00025     0.01773     0.07067     0.09886     0.06505     0.24743
 PX  C  39   0.00006     0.00176     0.01462     0.01893     0.00709     0.02448
 PY  C  39  -0.00008    -0.00341    -0.02037    -0.02702    -0.01305    -0.04811
 PZ  C  39   0.00002    -0.00668    -0.00370    -0.00956    -0.02113    -0.08686
  
  S  C  40   0.00012     0.02596     0.04389     0.06736     0.06553     0.25891
 PX  C  40   0.00003     0.00386     0.00961     0.01440     0.01257     0.04911
 PY  C  40  -0.00005    -0.00762    -0.01635    -0.02486    -0.02310    -0.09089
 PZ  C  40   0.00002    -0.00527     0.00659     0.00861     0.00263     0.00814
  
  S  C  41   0.00010     0.04856     0.03788     0.05999     0.06533     0.26109
 PX  C  41   0.00000    -0.00099     0.00073     0.00081    -0.00036    -0.00183
 PY  C  41  -0.00000     0.00039     0.00029     0.00078     0.00206     0.00856
 PZ  C  41   0.00005    -0.01269     0.01615     0.02365     0.01856     0.07137
  
  S  S  42   0.00014     0.02334     0.04170     0.06021     0.04759     0.18576
 PX  S  42  -0.00002    -0.00605    -0.00732    -0.01180    -0.01305    -0.05202
 PY  S  42   0.00004     0.01060     0.01609     0.02496     0.02503     0.09899
 PZ  S  42   0.00007    -0.00399     0.01878     0.02476     0.01097     0.03966
  
  S  C  43   0.00003     0.11332     0.01107     0.02106     0.03263     0.13409
 PX  C  43   0.00000     0.00610     0.00081     0.00148     0.00229     0.00943
 PY  C  43  -0.00000    -0.01860    -0.00092    -0.00204    -0.00390    -0.01625
 PZ  C  43   0.00001    -0.04523     0.00741     0.01070     0.01065     0.04218
  
  S  C  44   0.00002     0.22585    -0.00013     0.00558     0.01638     0.06903
 PX  C  44  -0.00000    -0.01390     0.00029     0.00014    -0.00019    -0.00086
 PY  C  44   0.00000     0.02034     0.00003     0.00056     0.00145     0.00610
 PZ  C  44   0.00000    -0.08244     0.00554     0.00738     0.00910     0.03721
  
  S  C  45   0.00001     0.51327    -0.01446    -0.01196    -0.00469    -0.01757
 PX  C  45  -0.00000    -0.00750     0.00023     0.00019    -0.00015    -0.00076
 PY  C  45   0.00000    -0.00017     0.00020     0.00042     0.00134     0.00590
 PZ  C  45  -0.00000    -0.13963     0.00598     0.00697     0.00874     0.03628
  
  S  O  46   0.00001     0.41095    -0.01207    -0.01038    -0.00459    -0.01725
 PX  O  46   0.00000     0.07387    -0.00221    -0.00194    -0.00101    -0.00390
 PY  O  46  -0.00000    -0.15787     0.00478     0.00425     0.00237     0.00921
 PZ  O  46   0.00000     0.02252    -0.00022     0.00025     0.00148     0.00639
  
  S  O  47   0.00001     0.57419    -0.01875    -0.01813    -0.01561    -0.06375
 PX  O  47  -0.00000    -0.06657     0.00220     0.00214     0.00184     0.00749
 PY  O  47   0.00000     0.15042    -0.00492    -0.00476    -0.00399    -0.01621
 PZ  O  47   0.00000     0.04851    -0.00126    -0.00092     0.00011     0.00071
  
  S  C  48   0.00001     0.11239     0.00071     0.00421     0.01139     0.04816
 PX  C  48  -0.00000    -0.02075     0.00003    -0.00046    -0.00115    -0.00474
 PY  C  48   0.00000     0.04179     0.00015     0.00127     0.00284     0.01173
 PZ  C  48   0.00000    -0.02855     0.00179     0.00236     0.00294     0.01204
  
  S  N  49   0.00000     0.03931     0.00045     0.00193     0.00571     0.02443
 PX  N  49  -0.00000    -0.01023    -0.00009    -0.00045    -0.00129    -0.00551
 PY  N  49   0.00000     0.02157     0.00021     0.00099     0.00286     0.01221
 PZ  N  49  -0.00000    -0.00653     0.00026     0.00032     0.00041     0.00167
  
  S  C  50   0.00071     0.00607     0.14372     0.17484     0.02625     0.04753
 PX  C  50  -0.00003    -0.00043    -0.00169     0.00024     0.00317     0.00597
 PY  C  50  -0.00028    -0.00162    -0.04535    -0.04973     0.00138     0.01308
 PZ  C  50   0.00003    -0.00038     0.00452     0.00511    -0.00074    -0.00707
  
  S  C  51   0.00043     0.00356     0.09858     0.12578     0.03048     0.06288
 PX  C  51  -0.00013    -0.00094    -0.02394    -0.02772     0.00013     0.00568
 PY  C  51  -0.00007    -0.00018    -0.00663    -0.00441     0.00708     0.02175
 PZ  C  51  -0.00006    -0.00053    -0.01186    -0.01455    -0.00165    -0.00245
  
  S  C  52   0.00019     0.00202     0.05688     0.07941     0.03741     0.09343
 PX  C  52  -0.00003    -0.00024    -0.00487    -0.00497     0.00413     0.01343
 PY  C  52  -0.00006    -0.00056    -0.01513    -0.01937    -0.00333    -0.00528
 PZ  C  52  -0.00000    -0.00004     0.00025     0.00101     0.00295     0.00840
  
  S  C  53   0.00010     0.00114     0.03519     0.05269     0.03988     0.10797
 PX  C  53  -0.00003    -0.00030    -0.00841    -0.01137    -0.00260    -0.00449
 PY  C  53  -0.00001    -0.00005    -0.00096    -0.00018     0.00541     0.01695
 PZ  C  53  -0.00002    -0.00017    -0.00466    -0.00654    -0.00264    -0.00617
  
  S  C  54   0.00005     0.00065     0.02124     0.03433     0.03973     0.11397
 PX  C  54  -0.00001    -0.00008    -0.00202    -0.00245     0.00242     0.00878
 PY  C  54  -0.00002    -0.00018    -0.00557    -0.00834    -0.00544    -0.01409
 PZ  C  54  -0.00000    -0.00001    -0.00002     0.00030     0.00252     0.00798
  
  S  C  55   0.00002     0.00037     0.01285     0.02226     0.03653     0.10895
 PX  C  55  -0.00001    -0.00010    -0.00316    -0.00499    -0.00438    -0.01186
 PY  C  55  -0.00000    -0.00002    -0.00035    -0.00016     0.00322     0.01068
 PZ  C  55  -0.00000    -0.00005    -0.00176    -0.00286    -0.00320    -0.00908
  
  S  C  56   0.00001     0.00020     0.00761     0.01404     0.03063     0.09390
 PX  C  56  -0.00000    -0.00003    -0.00084    -0.00127    -0.00015     0.00028
 PY  C  56  -0.00000    -0.00006    -0.00207    -0.00362    -0.00588    -0.01746
 PZ  C  56  -0.00000    -0.00000    -0.00006     0.00001     0.00113     0.00376
  
  S  C  57   0.00001     0.00011     0.00425     0.00827     0.02220     0.06930
 PX  C  57  -0.00000    -0.00003    -0.00124    -0.00231    -0.00507    -0.01552
 PY  C  57  -0.00000    -0.00001    -0.00026    -0.00040     0.00006     0.00049
 PZ  C  57  -0.00000    -0.00002    -0.00067    -0.00126    -0.00295    -0.00908
  
  S  C  58   0.00000     0.00005     0.00206     0.00415     0.01282     0.04046
 PX  C  58  -0.00000    -0.00001    -0.00051    -0.00099    -0.00268    -0.00838
 PY  C  58  -0.00000    -0.00002    -0.00073    -0.00144    -0.00413    -0.01295
 PZ  C  58  -0.00000    -0.00000    -0.00014    -0.00028    -0.00070    -0.00219
  
  S  H  59   0.00001     0.05258     0.00381     0.00759     0.01212     0.04984
  
  S  H  60   0.00005     0.00000     0.00056    -0.00119     0.04679    -0.00796
  
  S  H  61   0.00004     0.00000     0.00042    -0.00090     0.03763    -0.00643
  
  S  H  62   0.00005     0.00000     0.00056    -0.00119     0.04679    -0.00796
  
  S  H  63   0.00013     0.00001     0.00115    -0.00234     0.07921    -0.01332
  
  S  H  64   0.00012     0.00001     0.00115    -0.00234     0.07921    -0.01332
  
  S  H  65   0.00025     0.00001     0.00208    -0.00399     0.10979    -0.01812
  
  S  H  66   0.00026     0.00001     0.00208    -0.00399     0.10982    -0.01813
  
  S  H  67   0.00063     0.00002     0.00350    -0.00632     0.13130    -0.02114
  
  S  H  68   0.00053     0.00002     0.00350    -0.00631     0.13095    -0.02104
  
  S  H  69   0.00089     0.00003     0.00581    -0.00975     0.14177    -0.02182
  
  S  H  70   0.00101     0.00003     0.00582    -0.00977     0.14218    -0.02192
  
  S  H  71   0.00293     0.00005     0.00952    -0.01493     0.14525    -0.02147
  
  S  H  72   0.00181     0.00005     0.00952    -0.01486     0.14227    -0.02061
  
  S  H  73   0.00258     0.00010     0.01589    -0.02281     0.12953    -0.01694
  
  S  H  74   0.00322     0.00010     0.01593    -0.02292     0.13042    -0.01691
  
  S  H  75   0.00771     0.00016     0.02503    -0.03381     0.11035    -0.01100
  
  S  H  76   0.00456     0.00016     0.02507    -0.03366     0.10713    -0.01126
  
  S  H  77   0.00642     0.00034     0.04640    -0.05560     0.07239    -0.00853
  
  S  H  78   0.00933     0.00033     0.04611    -0.05618     0.07282    -0.00330
  
  S  H  79   0.01743     0.00042     0.05785    -0.06939     0.03889     0.01707
  
  S  H  80   0.00863     0.00042     0.05656    -0.06559     0.03743    -0.00122
  
  S  H  81   0.02340     0.00015     0.02193    -0.02815    -0.01370     0.06021
  
  S  H  82   0.03411     0.00002     0.00568    -0.00957    -0.01152     0.04566
  
  S  H  83   0.05485     0.00020     0.02958    -0.03778     0.00401     0.05281
  
  S  H  84   0.07720    -0.00008    -0.00938     0.01070     0.02072    -0.02208
  
  S  H  85   0.07777    -0.00006    -0.00587     0.00586     0.02213    -0.00846
  
  S  H  86   0.05843    -0.00004    -0.00319     0.00273     0.03121    -0.01143
  
  S  H  87   0.05783    -0.00006    -0.00639     0.00709     0.02678    -0.01951
  
  S  H  88   0.02218    -0.00002    -0.00195     0.00194     0.02771    -0.01258
  
  S  H  89   0.02230    -0.00001    -0.00035    -0.00031     0.03716    -0.01244
  
  S  H  90   0.01028    -0.00001    -0.00052     0.00030     0.02164    -0.00811
  
  S  H  91   0.00719    -0.00000     0.00027    -0.00078     0.02628    -0.00767
  
  S  H  92   0.01058     0.00000     0.00070    -0.00146     0.03141    -0.00901
  
  S  H  93   0.03313    -0.00004    -0.00487     0.00613    -0.00767    -0.02854
  
  S  H  94   0.02003    -0.00003    -0.00453     0.00635    -0.00536    -0.03863
  
  S  H  95   0.02113    -0.00003    -0.00486     0.00682    -0.00433    -0.04063
  
  S  H  96   0.04919    -0.00007    -0.00850     0.01091     0.00109    -0.04347
  
  S  H  97   0.00012     0.00483     0.02863     0.03819     0.01895     0.06916
  
  S  H  98   0.00003     0.00914     0.01132     0.01770     0.01847     0.07342
  
  S  H  99   0.00000     0.24189    -0.00800    -0.00782    -0.00697    -0.02854
  
  S  H 100   0.00026     0.00313     0.05743     0.07178     0.01508     0.03612
  
  S  H 101   0.00027     0.00248     0.05592     0.06871     0.01162     0.02317
  
  S  H 102   0.00022     0.00154     0.04488     0.05593     0.01207     0.02335
  
  S  H 103   0.00021     0.00158     0.04440     0.05571     0.01243     0.02477
  
  S  H 104   0.00008     0.00089     0.02418     0.03378     0.01598     0.04020
  
  S  H 105   0.00008     0.00087     0.02418     0.03373     0.01585     0.03967
  
  S  H 106   0.00005     0.00050     0.01531     0.02272     0.01676     0.04525
  
  S  H 107   0.00004     0.00050     0.01529     0.02272     0.01679     0.04534
  
  S  H 108   0.00002     0.00028     0.00914     0.01471     0.01676     0.04804
  
  S  H 109   0.00002     0.00028     0.00914     0.01471     0.01676     0.04801
  
  S  H 110   0.00001     0.00016     0.00555     0.00956     0.01539     0.04584
  
  S  H 111   0.00001     0.00016     0.00555     0.00956     0.01539     0.04585
  
  S  H 112   0.00001     0.00009     0.00328     0.00602     0.01291     0.03953
  
  S  H 113   0.00001     0.00009     0.00328     0.00602     0.01291     0.03953
  
  S  H 114   0.00000     0.00005     0.00183     0.00353     0.00931     0.02902
  
  S  H 115   0.00000     0.00005     0.00183     0.00353     0.00931     0.02902
  
  S  H 116   0.00000     0.00002     0.00089     0.00180     0.00550     0.01735
  
  S  H 117   0.00000     0.00002     0.00089     0.00180     0.00550     0.01735
  
  S  H 118   0.00000     0.00002     0.00067     0.00137     0.00442     0.01401




    ROOT NO.    7           8           9          10          11          12

           -43.05290   -42.93153   -42.40084   -41.43785   -40.93565   -40.17100
  
  
  S  C   1  -0.00101     0.01966    -0.03988     0.20187     0.03501     0.03777
 PX  C   1  -0.00037     0.00724    -0.01430     0.06866     0.01154     0.01181
 PY  C   1  -0.00010     0.00200    -0.00383     0.01700     0.00272     0.00254
 PZ  C   1  -0.00000    -0.00000     0.00001    -0.00001    -0.00000     0.00001
  
  S  C   2  -0.00172     0.03330    -0.06487     0.30373     0.05039     0.05065
 PX  C   2  -0.00012     0.00208    -0.00272     0.00037    -0.00115    -0.00313
 PY  C   2  -0.00043     0.00824    -0.01531     0.06436     0.00997     0.00875
 PZ  C   2  -0.00000    -0.00000     0.00003    -0.00002    -0.00000     0.00006
  
  S  C   3  -0.00232     0.04430    -0.08081     0.32781     0.04983     0.04243
 PX  C   3  -0.00040     0.00734    -0.01074     0.01917     0.00043    -0.00387
 PY  C   3   0.00018    -0.00366     0.00854    -0.05281    -0.00982    -0.01169
 PZ  C   3  -0.00000    -0.00000     0.00008    -0.00005    -0.00001     0.00019
  
  S  C   4  -0.00268     0.04998    -0.08143     0.25062     0.03062     0.01475
 PX  C   4   0.00015    -0.00347     0.01038    -0.07123    -0.01334    -0.01446
 PY  C   4  -0.00042     0.00748    -0.00953     0.00189    -0.00293    -0.00810
 PZ  C   4  -0.00000     0.00002     0.00034    -0.00011    -0.00000     0.00088
  
  S  C   5  -0.00275     0.05003    -0.06968     0.10039     0.00053    -0.02446
 PX  C   5  -0.00023     0.00355     0.00099    -0.05920    -0.01270    -0.01619
 PY  C   5   0.00039    -0.00748     0.01369    -0.06094    -0.00887    -0.00853
 PZ  C   5  -0.00001     0.00003     0.00066    -0.00027    -0.00002     0.00159
  
  S  C   6  -0.00254     0.04456    -0.04587    -0.07961    -0.02978    -0.05267
 PX  C   6   0.00038    -0.00725     0.01517    -0.06226    -0.00770    -0.00274
 PY  C   6  -0.00021     0.00366    -0.00149    -0.05818    -0.01136    -0.01995
 PZ  C   6  -0.00003     0.00017     0.00260    -0.00110    -0.00008     0.00610
  
  S  C   7  -0.00195     0.03360    -0.02553    -0.23239    -0.04929    -0.08284
 PX  C   7   0.00011    -0.00184     0.00693    -0.07142    -0.00925    -0.01188
 PY  C   7   0.00045    -0.00822     0.00793    -0.00150     0.00374     0.00401
 PZ  C   7   0.00002     0.00021     0.00195    -0.00026     0.00008     0.00442
  
  S  C   8  -0.00100     0.01976    -0.00488    -0.31606    -0.05129    -0.08075
 PX  C   8   0.00058    -0.00734     0.00688     0.01505     0.00790     0.01335
 PY  C   8   0.00012    -0.00220     0.00071    -0.05238    -0.00486    -0.01529
 PZ  C   8   0.00011     0.00115     0.00324    -0.00260    -0.00024     0.00718
  
  S  C   9  -0.00053    -0.00290     0.00406    -0.29805    -0.03349    -0.07153
 PX  C   9   0.00028    -0.00820     0.00330    -0.00392     0.00662     0.00593
 PY  C   9  -0.00023    -0.00950     0.00236     0.06215     0.01251     0.01403
 PZ  C   9   0.00059     0.00392    -0.00026     0.00120     0.00013     0.00649
  
  S  C  10   0.00083    -0.01630     0.00430    -0.20287    -0.00725    -0.02889
 PX  C  10   0.00084     0.00103    -0.00376     0.06668     0.01042     0.02358
 PY  C  10  -0.00105    -0.01835     0.00456     0.01679     0.00994     0.00171
 PZ  C  10   0.00202     0.01225    -0.00597    -0.00776    -0.00051     0.01364
  
  S  C  11  -0.00610    -0.09369     0.02829    -0.00097     0.03473    -0.00844
 PX  C  11   0.00124     0.00539    -0.00690     0.03865     0.00515     0.02103
 PY  C  11  -0.00682    -0.05888     0.02502     0.10452     0.01952    -0.01140
 PZ  C  11   0.00582     0.04060    -0.02337    -0.01585    -0.00417     0.03625
  
  S  N  12  -0.01815    -0.16030     0.06992     0.12610     0.03617    -0.05667
 PX  N  12  -0.00382    -0.03501     0.01450     0.04255     0.01007    -0.00725
 PY  N  12  -0.00279    -0.00874     0.00676     0.04998    -0.00499    -0.00138
 PZ  N  12  -0.00479    -0.05270     0.02046     0.03599     0.01829    -0.01285
  
  S  C  13  -0.01576    -0.08724     0.04889     0.13719    -0.01363    -0.03253
 PX  C  13   0.00235     0.01604    -0.00779    -0.01235    -0.00268     0.00873
 PY  C  13   0.00455     0.08022    -0.02525    -0.04961    -0.04619     0.01577
 PZ  C  13   0.00135    -0.01548     0.00061     0.00381     0.01914     0.00552
  
  S  S  14  -0.00326    -0.03588     0.00850     0.07441     0.00899     0.01607
 PX  S  14   0.00302     0.02487    -0.01158    -0.02922    -0.00429     0.00595
 PY  S  14   0.00014     0.01947     0.00088    -0.02904    -0.01669    -0.01608
 PZ  S  14   0.00457     0.02900    -0.01756    -0.03376     0.00152     0.01605
  
  S  C  15   0.00708     0.00330    -0.03247     0.03801     0.02747     0.08162
 PX  C  15   0.00402     0.03371    -0.02037    -0.00287    -0.00642     0.01983
 PY  C  15  -0.00636    -0.04159     0.02509     0.04312     0.00486    -0.02832
 PZ  C  15   0.01005     0.07756    -0.04323    -0.03534    -0.01341     0.04622
  
  S  C  16   0.03607     0.21404    -0.15635    -0.02130    -0.00244     0.18046
 PX  C  16   0.00355     0.02574    -0.02782     0.00979    -0.00367     0.01230
 PY  C  16  -0.00590    -0.04114     0.02126     0.01006     0.00524    -0.00936
 PZ  C  16   0.00888     0.06411    -0.03587     0.00011    -0.00828     0.01409
  
  S  C  17   0.03306     0.20501    -0.16591    -0.00625    -0.00981     0.15039
 PX  C  17  -0.00978    -0.05959     0.04005     0.00437     0.00131    -0.04293
 PY  C  17  -0.00560    -0.03694     0.02854     0.00221     0.00369    -0.01188
 PZ  C  17   0.00671     0.04521    -0.03600     0.00014    -0.00509     0.01084
  
  S  C  18   0.02859     0.18053    -0.17421    -0.00168    -0.01425     0.08712
 PX  C  18  -0.01229    -0.07872     0.05712    -0.00069     0.00513    -0.02388
 PY  C  18   0.00174     0.01118     0.00159    -0.00133     0.00022     0.02179
 PZ  C  18  -0.00437    -0.02803     0.00603     0.00249     0.00046    -0.03612
  
  S  C  19   0.02087     0.13260    -0.15434     0.01702    -0.01274    -0.06424
 PX  C  19  -0.00225    -0.01928    -0.03643    -0.01506    -0.00079     0.07034
 PY  C  19   0.00922     0.06011    -0.02326    -0.00416    -0.00303     0.05474
 PZ  C  19  -0.01354    -0.08901     0.02605     0.00484     0.00419    -0.07322
  
  S  C  20   0.02251     0.15663     0.01257     0.03168    -0.00597    -0.10432
 PX  C  20   0.00736     0.04153    -0.11039    -0.00159    -0.00629     0.00336
 PY  C  20   0.00853     0.05024    -0.07063    -0.01461    -0.00408     0.07737
 PZ  C  20  -0.01103    -0.06586     0.07299     0.02463     0.00464    -0.12814
  
  S  C  21   0.03083     0.19532    -0.07257    -0.02094    -0.00632     0.09820
 PX  C  21   0.01325     0.08306    -0.07268     0.00196    -0.00478     0.04079
 PY  C  21   0.00120     0.00267    -0.03053    -0.00531     0.00075     0.02893
 PZ  C  21  -0.00007     0.00724     0.02915     0.01962    -0.00153    -0.04232
  
  S  N  22  -0.00598    -0.01241     0.27962     0.05963     0.01106    -0.21068
 PX  N  22  -0.00010    -0.00417    -0.06089     0.01311    -0.00254    -0.11280
 PY  N  22   0.00413     0.02449    -0.04374     0.00034    -0.00277    -0.02114
 PZ  N  22  -0.00425    -0.03244    -0.03549    -0.00559     0.00030     0.00706
  
  S  C  23  -0.00520    -0.00798     0.30454     0.00815     0.01078     0.12695
 PX  C  23  -0.00155    -0.00451     0.06341     0.01765     0.00315    -0.07639
 PY  C  23   0.00134     0.00709    -0.02229     0.01069    -0.00036    -0.08704
 PZ  C  23  -0.00121    -0.01068    -0.02615     0.00606     0.00019    -0.04719
  
  S  C  24  -0.00451    -0.00438     0.28347    -0.02793     0.00688     0.33532
 PX  C  24   0.00020    -0.00144    -0.02618     0.01350     0.00039    -0.10104
 PY  C  24  -0.00027     0.00116     0.03671     0.00829     0.00187    -0.03725
 PZ  C  24  -0.00112    -0.00577     0.02577     0.00784     0.00205    -0.01240
  
  S  C  25  -0.00334    -0.00011     0.22102    -0.04685     0.00234     0.40902
 PX  C  25  -0.00080    -0.00108     0.05259    -0.00555     0.00150     0.07132
 PY  C  25  -0.00008    -0.00002     0.01018     0.00233     0.00065    -0.01922
 PZ  C  25  -0.00016    -0.00198     0.00270     0.00697     0.00136    -0.01564
  
  S  C  26  -0.00207     0.00180     0.13454    -0.03917    -0.00039     0.30357
 PX  C  26  -0.00017    -0.00056     0.01292    -0.00205     0.00040     0.01992
 PY  C  26  -0.00061     0.00039     0.04183    -0.01136     0.00004     0.08195
 PZ  C  26  -0.00037    -0.00100     0.02536    -0.00232     0.00103     0.05025
  
  S  C  27  -0.02282    -0.15920    -0.06495    -0.00335     0.00401    -0.06710
 PX  C  27  -0.00502    -0.04784    -0.15388    -0.02403    -0.00430     0.04360
 PY  C  27   0.00396     0.03264     0.04647     0.02243     0.00010    -0.09757
 PZ  C  27  -0.00612    -0.05254    -0.09946    -0.03322    -0.00114     0.12499
  
  S  C  28  -0.01604    -0.12587    -0.21876    -0.01877    -0.00443    -0.03319
 PX  C  28   0.00115     0.00283    -0.04267    -0.01786    -0.00177     0.08729
 PY  C  28   0.00809     0.05990     0.04206     0.01779    -0.00120    -0.05461
 PZ  C  28  -0.01120    -0.08385    -0.06742    -0.02697     0.00137     0.08443
  
  S  C  29  -0.02100    -0.16630    -0.25978    -0.05312    -0.00361     0.12659
 PX  C  29   0.00863     0.06667     0.08896     0.01695     0.00075    -0.03018
 PY  C  29   0.00378     0.02867     0.02682     0.00999    -0.00036    -0.03322
 PZ  C  29  -0.00395    -0.02981    -0.02408    -0.01120     0.00062     0.04064
  
  S  C  30  -0.02382    -0.18631    -0.25482    -0.06267    -0.00195     0.17546
 PX  C  30   0.00806     0.06210     0.07568     0.01875     0.00019    -0.04962
 PY  C  30  -0.00277    -0.02179    -0.03258    -0.00641    -0.00043     0.01313
 PZ  C  30   0.00505     0.03945     0.05626     0.01173     0.00062    -0.02603
  
  S  C  31  -0.02464    -0.19051    -0.23550    -0.06155    -0.00068     0.17791
 PX  C  31  -0.00100    -0.00901    -0.02475    -0.00490    -0.00069     0.01266
 PY  C  31  -0.00593    -0.04570    -0.05662    -0.01333    -0.00022     0.03301
 PZ  C  31   0.00803     0.06160     0.07339     0.01770     0.00018    -0.04467
  
  S  C  32  -0.02463    -0.18300    -0.15786    -0.04507     0.00215     0.12444
 PX  C  32  -0.00892    -0.07133    -0.11330    -0.02438    -0.00134     0.05852
 PY  C  32  -0.00296    -0.02048    -0.00596     0.00012     0.00065    -0.01190
 PZ  C  32   0.00283     0.01773    -0.01390    -0.00343    -0.00126     0.01926
  
  S  C  33  -0.01346     0.08509     0.00515     0.04502    -0.13162    -0.00783
 PX  C  33   0.00246     0.01395    -0.00165    -0.00038    -0.01071     0.00127
 PY  C  33   0.00138     0.07958    -0.01672    -0.03274    -0.05644     0.01164
 PZ  C  33   0.00264    -0.01728     0.00594     0.01634     0.00931    -0.00399
  
  S  N  34   0.01018     0.14944    -0.01469    -0.00783    -0.11511     0.00609
 PX  N  34   0.00589    -0.03420     0.00303    -0.00069     0.04340    -0.00164
 PY  N  34   0.01390    -0.01380    -0.00258    -0.01760     0.05856     0.00176
 PZ  N  34  -0.00038    -0.05125     0.00668     0.00890     0.03791    -0.00364
  
  S  C  35   0.00578     0.08492    -0.01575    -0.03619     0.01000     0.00807
 PX  C  35   0.02570    -0.00226    -0.00035    -0.00542     0.04288    -0.00103
 PY  C  35   0.01695    -0.06553     0.00446    -0.00811     0.11506    -0.00307
 PZ  C  35   0.02577     0.02971    -0.00259    -0.00287    -0.00052     0.00013
  
  S  C  36  -0.07261     0.02379    -0.00766    -0.01440    -0.05671     0.00708
 PX  C  36   0.01512     0.02744    -0.00314    -0.00527    -0.00288     0.00111
 PY  C  36  -0.01885    -0.03826     0.00144    -0.00557     0.04140     0.00026
 PZ  C  36   0.02776     0.06181    -0.00590    -0.00603    -0.02811     0.00197
  
  S  S  37  -0.02641     0.04602    -0.00131     0.01080    -0.08104    -0.00058
 PX  S  37  -0.00321     0.02332    -0.00115     0.00310    -0.02941    -0.00000
 PY  S  37  -0.01525     0.02802    -0.00537    -0.00840    -0.03589     0.00438
 PZ  S  37   0.00177     0.02502     0.00085     0.00961    -0.03200    -0.00230
  
  S  C  38  -0.20002    -0.15673     0.00781     0.00332    -0.01191     0.00283
 PX  C  38   0.02883     0.02920    -0.00264    -0.00472     0.00484     0.00061
 PY  C  38  -0.04938    -0.05358     0.00385     0.00372     0.00898    -0.00070
 PZ  C  38   0.04459     0.05110    -0.00513    -0.00993     0.00729     0.00181
  
  S  C  39  -0.20726    -0.18128     0.01100     0.00932    -0.00318     0.00079
 PX  C  39  -0.01895    -0.01622     0.00049    -0.00138     0.00521     0.00046
 PY  C  39   0.04273     0.03344    -0.00169    -0.00073     0.00293    -0.00067
 PZ  C  39   0.07519     0.06846    -0.00548    -0.00924     0.01383     0.00090
  
  S  C  40  -0.21926    -0.19720     0.01402     0.01926    -0.02204    -0.00163
 PX  C  40  -0.04121    -0.03703     0.00251     0.00303    -0.00265    -0.00014
 PY  C  40   0.07732     0.06883    -0.00480    -0.00632     0.00763     0.00035
 PZ  C  40  -0.00576    -0.00461    -0.00016    -0.00208     0.00592     0.00085
  
  S  C  41  -0.22275    -0.20102     0.01498     0.02361    -0.03321    -0.00341
 PX  C  41   0.00165     0.00171    -0.00021    -0.00058     0.00102     0.00016
 PY  C  41  -0.00706    -0.00689     0.00058     0.00102    -0.00093    -0.00019
 PZ  C  41  -0.06014    -0.05276     0.00327     0.00243     0.00014     0.00101
  
  S  S  42  -0.16093    -0.13894     0.00946     0.01272    -0.02093    -0.00069
 PX  S  42   0.04444     0.03992    -0.00293    -0.00436     0.00594     0.00043
 PY  S  42  -0.08359    -0.07554     0.00539     0.00742    -0.00824    -0.00068
 PZ  S  42  -0.03547    -0.02682     0.00114    -0.00050    -0.00082     0.00120
  
  S  C  43  -0.11514    -0.10619     0.00880     0.01775    -0.03002    -0.00487
 PX  C  43  -0.00809    -0.00749     0.00063     0.00130    -0.00224    -0.00036
 PY  C  43   0.01403     0.01306    -0.00114    -0.00258     0.00473     0.00082
 PZ  C  43  -0.03590    -0.03214     0.00228     0.00289    -0.00286     0.00024
  
  S  C  44  -0.05962    -0.05603     0.00505     0.01194    -0.02221    -0.00417
 PX  C  44   0.00075     0.00073    -0.00008    -0.00024     0.00054     0.00019
 PY  C  44  -0.00526    -0.00493     0.00044     0.00104    -0.00202    -0.00056
 PZ  C  44  -0.03193    -0.02934     0.00240     0.00476    -0.00799    -0.00126
  
  S  C  45   0.01481     0.01263    -0.00071    -0.00019    -0.00100    -0.00074
 PX  C  45   0.00068     0.00074    -0.00011    -0.00055     0.00151     0.00067
 PY  C  45  -0.00513    -0.00500     0.00053     0.00188    -0.00460    -0.00172
 PZ  C  45  -0.03125    -0.02906     0.00254     0.00596    -0.01128    -0.00231
  
  S  O  46   0.01455     0.01241    -0.00066     0.00037    -0.00315    -0.00211
 PX  O  46   0.00331     0.00290    -0.00019    -0.00015    -0.00005    -0.00020
 PY  O  46  -0.00783    -0.00691     0.00047     0.00050    -0.00025     0.00033
 PZ  O  46  -0.00555    -0.00532     0.00052     0.00149    -0.00313    -0.00083
  
  S  O  47   0.05473     0.05033    -0.00423    -0.00965     0.01866     0.00443
 PX  O  47  -0.00643    -0.00590     0.00049     0.00107    -0.00198    -0.00041
 PY  O  47   0.01391     0.01274    -0.00105    -0.00227     0.00418     0.00086
 PZ  O  47  -0.00066    -0.00077     0.00012     0.00049    -0.00108    -0.00022
  
  S  C  48  -0.04164    -0.03922     0.00359     0.00880    -0.01674    -0.00307
 PX  C  48   0.00408     0.00377    -0.00031    -0.00059     0.00090     0.00010
 PY  C  48  -0.01008    -0.00932     0.00077     0.00146    -0.00224    -0.00028
 PZ  C  48  -0.01033    -0.00951     0.00078     0.00158    -0.00270    -0.00048
  
  S  N  49  -0.02119    -0.02012     0.00192     0.00515    -0.01032    -0.00203
 PX  N  49   0.00477     0.00452    -0.00043    -0.00110     0.00217     0.00042
 PY  N  49  -0.01057    -0.01002     0.00094     0.00244    -0.00479    -0.00092
 PZ  N  49  -0.00143    -0.00132     0.00011     0.00020    -0.00032    -0.00005
  
  S  C  50   0.08265    -0.01907    -0.00800    -0.04993     0.23742    -0.00003
 PX  C  50   0.04152    -0.00975    -0.00008    -0.00757     0.06662    -0.00210
 PY  C  50   0.01299    -0.02124     0.00304     0.00451     0.02102    -0.00241
 PZ  C  50   0.02663     0.00403    -0.00082    -0.00462     0.03113    -0.00086
  
  S  C  51   0.17687    -0.05401    -0.00438    -0.05106     0.33181    -0.00614
 PX  C  51   0.01419    -0.01291     0.00228     0.00660    -0.00899    -0.00150
 PY  C  51   0.04469    -0.02592     0.00146    -0.00452     0.06313    -0.00268
 PZ  C  51   0.00066    -0.00114     0.00092     0.00452    -0.01721    -0.00034
  
  S  C  52   0.24742    -0.10238     0.00154    -0.03725     0.32429    -0.01000
 PX  C  52   0.04067    -0.02017     0.00196     0.00411    -0.00124    -0.00131
 PY  C  52  -0.01326     0.00148     0.00143     0.01071    -0.06380     0.00086
 PZ  C  52   0.02648    -0.01162     0.00082     0.00019     0.01223    -0.00093
  
  S  C  53   0.29640    -0.13246     0.00661    -0.01265     0.19498    -0.00906
 PX  C  53  -0.01075     0.00178     0.00112     0.01077    -0.07684     0.00188
 PY  C  53   0.04692    -0.02389     0.00223     0.00658    -0.02604    -0.00023
 PZ  C  53  -0.01580     0.00602     0.00019     0.00487    -0.03910     0.00113
  
  S  C  54   0.31576    -0.14907     0.01061     0.01569    -0.00336    -0.00401
 PX  C  54   0.02565    -0.01419     0.00191     0.01085    -0.07459     0.00198
 PY  C  54  -0.03823     0.01626    -0.00042     0.00606    -0.06191     0.00245
 PZ  C  54   0.02278    -0.01157     0.00119     0.00503    -0.03044     0.00064
  
  S  C  55   0.30470    -0.14868     0.01271     0.03939    -0.20067     0.00287
 PX  C  55  -0.03245     0.01445    -0.00063     0.00351    -0.04460     0.00216
 PY  C  55   0.03043    -0.01610     0.00191     0.01062    -0.07689     0.00239
 PZ  C  55  -0.02507     0.01170    -0.00076    -0.00016    -0.00997     0.00076
  
  S  C  56   0.26405    -0.13181     0.01259     0.05151    -0.32640     0.00846
 PX  C  56   0.00123    -0.00145     0.00052     0.00566    -0.05074     0.00207
 PY  C  56  -0.04877     0.02368    -0.00196    -0.00520     0.02095     0.00008
 PZ  C  56   0.01077    -0.00572     0.00071     0.00435    -0.03370     0.00118
  
  S  C  57   0.19562    -0.09907     0.01012     0.04773    -0.33011     0.01002
 PX  C  57  -0.04363     0.02175    -0.00206    -0.00814     0.04994    -0.00119
 PY  C  57   0.00154    -0.00112     0.00027     0.00281    -0.02560     0.00109
 PZ  C  57  -0.02557     0.01282    -0.00125    -0.00529     0.03418    -0.00091
  
  S  C  58   0.11445    -0.05848     0.00622     0.03172    -0.22929     0.00748
 PX  C  58  -0.02364     0.01198    -0.00122    -0.00575     0.03957    -0.00119
 PY  C  58  -0.03658     0.01860    -0.00193    -0.00941     0.06619    -0.00206
 PZ  C  58  -0.00616     0.00311    -0.00031    -0.00139     0.00929    -0.00026
  
  S  H  59  -0.04277    -0.03951     0.00328     0.00666    -0.01127    -0.00190
  
  S  H  60  -0.00043     0.00843    -0.01708     0.08623     0.01494     0.01609
  
  S  H  61  -0.00035     0.00683    -0.01405     0.07298     0.01284     0.01417
  
  S  H  62  -0.00043     0.00843    -0.01707     0.08622     0.01494     0.01610
  
  S  H  63  -0.00072     0.01392    -0.02696     0.12532     0.02070     0.02076
  
  S  H  64  -0.00072     0.01392    -0.02700     0.12534     0.02070     0.02067
  
  S  H  65  -0.00097     0.01862    -0.03392     0.13630     0.02064     0.01726
  
  S  H  66  -0.00098     0.01863    -0.03383     0.13626     0.02064     0.01748
  
  S  H  67  -0.00114     0.02103    -0.03343     0.10379     0.01264     0.00769
  
  S  H  68  -0.00113     0.02101    -0.03413     0.10404     0.01265     0.00595
  
  S  H  69  -0.00115     0.02100    -0.02979     0.04196     0.00024    -0.01163
  
  S  H  70  -0.00116     0.02105    -0.02908     0.04166     0.00022    -0.00992
  
  S  H  71  -0.00115     0.01895    -0.01321    -0.03493    -0.01237    -0.00763
  
  S  H  72  -0.00106     0.01871    -0.01971    -0.03302    -0.01234    -0.02270
  
  S  H  73  -0.00084     0.01383    -0.01214    -0.09584    -0.02034    -0.03762
  
  S  H  74  -0.00082     0.01420    -0.00988    -0.09681    -0.02038    -0.03267
  
  S  H  75  -0.00035     0.00967     0.00563    -0.13333    -0.02127    -0.01776
  
  S  H  76  -0.00046     0.00801    -0.00280    -0.13118    -0.02126    -0.03488
  
  S  H  77  -0.00078    -0.00524     0.00254    -0.12078    -0.01334    -0.03429
  
  S  H  78   0.00007     0.00036     0.00219    -0.12307    -0.01351    -0.02649
  
  S  H  79   0.00274     0.00992    -0.00460    -0.09200    -0.00494     0.00233
  
  S  H  80  -0.00022    -0.00941     0.00329    -0.08379    -0.00361    -0.01663
  
  S  H  81   0.00937     0.05653    -0.04909    -0.00035    -0.00165     0.05229
  
  S  H  82   0.00714     0.04425    -0.05706    -0.00128    -0.00433     0.02680
  
  S  H  83   0.00838     0.05243     0.00174    -0.01987    -0.00070     0.03464
  
  S  H  84  -0.00305    -0.01046     0.11580     0.00093     0.00446     0.06519
  
  S  H  85  -0.00083     0.00499     0.11958    -0.00052     0.00367     0.06309
  
  S  H  86  -0.00120     0.00301     0.11786    -0.01602     0.00199     0.13451
  
  S  H  87  -0.00256    -0.00675     0.11576    -0.01055     0.00317     0.13765
  
  S  H  88  -0.00148    -0.00096     0.09197    -0.01740     0.00137     0.16788
  
  S  H  89  -0.00132     0.00151     0.09123    -0.02465    -0.00016     0.16548
  
  S  H  90  -0.00090     0.00021     0.05766    -0.01522     0.00019     0.12948
  
  S  H  91  -0.00077     0.00153     0.04657    -0.01494    -0.00057     0.11334
  
  S  H  92  -0.00090     0.00175     0.05729    -0.02159    -0.00118     0.12821
  
  S  H  93  -0.00490    -0.04020    -0.07825    -0.01482    -0.00163     0.03724
  
  S  H  94  -0.00651    -0.05126    -0.07254    -0.01857    -0.00063     0.05555
  
  S  H  95  -0.00681    -0.05280    -0.06552    -0.01820    -0.00015     0.05682
  
  S  H  96  -0.00709    -0.05051    -0.02036    -0.01106     0.00156     0.04088
  
  S  H  97  -0.05521    -0.04888     0.00240    -0.00017     0.00738     0.00059
  
  S  H  98  -0.06213    -0.05631     0.00410     0.00599    -0.00707    -0.00068
  
  S  H  99   0.02451     0.02257    -0.00191    -0.00436     0.00837     0.00191
  
  S  H 100   0.02554    -0.02139    -0.00239    -0.02038     0.10436    -0.00019
  
  S  H 101   0.03370    -0.01149    -0.00296    -0.02032     0.10070    -0.00019
  
  S  H 102   0.07571    -0.02001    -0.00202    -0.02111     0.13498    -0.00247
  
  S  H 103   0.07420    -0.02101    -0.00196    -0.02113     0.13503    -0.00244
  
  S  H 104   0.10364    -0.04379     0.00070    -0.01543     0.13441    -0.00412
  
  S  H 105   0.10399    -0.04337     0.00067    -0.01548     0.13460    -0.00413
  
  S  H 106   0.12487    -0.05552     0.00275    -0.00526     0.08054    -0.00372
  
  S  H 107   0.12478    -0.05559     0.00275    -0.00526     0.08060    -0.00372
  
  S  H 108   0.13287    -0.06273     0.00445     0.00652    -0.00140    -0.00165
  
  S  H 109   0.13291    -0.06271     0.00444     0.00652    -0.00138    -0.00165
  
  S  H 110   0.12822    -0.06249     0.00532     0.01635    -0.08292     0.00118
  
  S  H 111   0.12821    -0.06249     0.00532     0.01635    -0.08293     0.00118
  
  S  H 112   0.11112    -0.05542     0.00527     0.02141    -0.13518     0.00348
  
  S  H 113   0.11112    -0.05542     0.00527     0.02141    -0.13519     0.00349
  
  S  H 114   0.08189    -0.04143     0.00421     0.01970    -0.13563     0.00409
  
  S  H 115   0.08188    -0.04143     0.00421     0.01970    -0.13563     0.00409
  
  S  H 116   0.04907    -0.02507     0.00266     0.01355    -0.09786     0.00319
  
  S  H 117   0.04907    -0.02507     0.00266     0.01355    -0.09785     0.00319
  
  S  H 118   0.03967    -0.02033     0.00219     0.01147    -0.08407     0.00281




    ROOT NO.   13          14          15          16          17          18

           -39.69454   -39.15304   -38.93583   -38.05210   -37.05066   -36.40733
  
  
  S  C   1   0.01006    -0.04200     0.25414    -0.05157     0.12738    -0.02055
 PX  C   1   0.00303    -0.01207     0.07159    -0.01324     0.02871    -0.00417
 PY  C   1   0.00061    -0.00224     0.01273    -0.00189     0.00258    -0.00020
 PZ  C   1  -0.00000     0.00000    -0.00001     0.00000     0.00001     0.00000
  
  S  C   2   0.01282    -0.05046     0.29778    -0.05413     0.11579    -0.01674
 PX  C   2  -0.00118     0.00643    -0.04251     0.01155    -0.03631     0.00666
 PY  C   2   0.00201    -0.00683     0.03756    -0.00450     0.00245     0.00047
 PZ  C   2  -0.00000     0.00000    -0.00002    -0.00000     0.00006     0.00001
  
  S  C   3   0.00962    -0.03211     0.17542    -0.02076     0.01336     0.00128
 PX  C   3  -0.00167     0.00976    -0.06522     0.01764    -0.05256     0.00909
 PY  C   3  -0.00313     0.01336    -0.08127     0.01646    -0.03906     0.00585
 PZ  C   3  -0.00001     0.00001    -0.00005    -0.00001     0.00020     0.00003
  
  S  C   4   0.00118     0.00618    -0.06158     0.02920    -0.10369     0.01886
 PX  C   4  -0.00396     0.01570    -0.09210     0.01528    -0.02378     0.00235
 PY  C   4  -0.00245     0.01204    -0.07606     0.01675    -0.03984     0.00550
 PZ  C   4  -0.00002     0.00004    -0.00020    -0.00002     0.00080     0.00011
  
  S  C   5  -0.00772     0.04047    -0.25873     0.05770    -0.13468     0.01776
 PX  C   5  -0.00381     0.01405    -0.07873     0.00920     0.00016    -0.00277
 PY  C   5  -0.00096     0.00109     0.00068    -0.00589     0.02697    -0.00612
 PZ  C   5  -0.00004     0.00008    -0.00033    -0.00005     0.00133     0.00017
  
  S  C   6  -0.01264     0.05100    -0.29662     0.04396    -0.04911    -0.00019
 PX  C   6   0.00053    -0.00705     0.05358    -0.01825     0.05563    -0.00891
 PY  C   6  -0.00210     0.00551    -0.02408    -0.00301     0.02160    -0.00708
 PZ  C   6  -0.00015     0.00031    -0.00141    -0.00015     0.00470     0.00062
  
  S  C   7  -0.01043     0.03048    -0.14724    -0.00125     0.06054    -0.02047
 PX  C   7   0.00111    -0.01016     0.07320    -0.02100     0.04723    -0.00712
 PY  C   7   0.00305    -0.01359     0.08214    -0.01403     0.01638    -0.00091
 PZ  C   7  -0.00005     0.00003     0.00007    -0.00014     0.00168     0.00028
  
  S  C   8  -0.00272    -0.00831     0.09498    -0.04567     0.11320    -0.02172
 PX  C   8   0.00404    -0.01565     0.08770    -0.00830    -0.01325     0.00628
 PY  C   8   0.00239    -0.01272     0.08071    -0.01504     0.01273    -0.00073
 PZ  C   8  -0.00012     0.00001     0.00060    -0.00037     0.00082     0.00002
  
  S  C   9   0.00712    -0.04265     0.27708    -0.05433     0.06189    -0.00251
 PX  C   9   0.00421    -0.01423     0.07300    -0.00055    -0.03210     0.00995
 PY  C   9   0.00158    -0.00039    -0.01282     0.01261    -0.03026     0.00824
 PZ  C   9  -0.00010     0.00010    -0.00050     0.00064    -0.01082    -0.00100
  
  S  C  10   0.01287    -0.05304     0.30083    -0.02733    -0.04874     0.01776
 PX  C  10  -0.00051     0.00738    -0.05645     0.01769    -0.04156     0.00266
 PY  C  10   0.00307    -0.00532     0.01240     0.01139    -0.02265     0.00949
 PZ  C  10   0.00029    -0.00216     0.01286     0.00036    -0.03399    -0.00247
  
  S  C  11   0.01344    -0.02747     0.09125     0.03346    -0.06173     0.02996
 PX  C  11  -0.00133     0.00768    -0.05048     0.01159    -0.03523    -0.00462
 PY  C  11  -0.00121     0.01877    -0.13451     0.02571     0.05765     0.00319
 PZ  C  11  -0.00067    -0.00206     0.01810     0.00044    -0.08990    -0.00961
  
  S  N  12   0.00409     0.01010    -0.10648     0.02568     0.13361     0.02073
 PX  N  12   0.00034     0.00556    -0.04509     0.01016     0.02226     0.00248
 PY  N  12  -0.00602     0.01791    -0.08074    -0.01108     0.03793    -0.01518
 PZ  N  12   0.00397    -0.00175    -0.02221     0.02074     0.01701     0.01200
  
  S  C  13  -0.01626     0.04082    -0.15622    -0.04008     0.10956    -0.03844
 PX  C  13  -0.00076    -0.00112     0.01376    -0.00052    -0.02677    -0.00536
 PY  C  13  -0.01326     0.01011     0.04347    -0.05845    -0.03365    -0.03657
 PZ  C  13   0.00569    -0.00743     0.00240     0.02878    -0.02636     0.01020
  
  S  S  14  -0.00413     0.01518    -0.08005     0.00802    -0.02849    -0.01806
 PX  S  14   0.00102    -0.00522     0.02980    -0.00255    -0.01210     0.00315
 PY  S  14  -0.00396     0.00184     0.02475    -0.02478     0.03881    -0.00808
 PZ  S  14   0.00383    -0.00989     0.03832     0.00825    -0.03994     0.00950
  
  S  C  15   0.00625    -0.00871     0.00122     0.04128    -0.19901    -0.00010
 PX  C  15  -0.00252     0.00461    -0.01462    -0.00464    -0.01347    -0.00776
 PY  C  15  -0.00174     0.01071    -0.06453     0.00436     0.07055     0.00024
 PZ  C  15  -0.00264    -0.00059     0.02461    -0.01105    -0.07285    -0.01345
  
  S  C  16  -0.00143    -0.00239     0.01534     0.01161    -0.23525    -0.02236
 PX  C  16  -0.00270     0.00797    -0.03782    -0.00359     0.06012    -0.00034
 PY  C  16   0.00128    -0.00103    -0.00358     0.00738    -0.02229     0.00117
 PZ  C  16  -0.00344     0.00736    -0.02598    -0.01023     0.05452    -0.00384
  
  S  C  17  -0.00585     0.01151    -0.04807    -0.00210    -0.03052    -0.01362
 PX  C  17   0.00056     0.00023    -0.00283    -0.00257     0.06570     0.00679
 PY  C  17   0.00150    -0.00310     0.01085     0.00480    -0.04125    -0.00126
 PZ  C  17  -0.00230     0.00545    -0.02142    -0.00693     0.07167     0.00243
  
  S  C  18  -0.00728     0.01719    -0.07280    -0.01399     0.18222     0.00772
 PX  C  18   0.00225    -0.00494     0.01973     0.00410    -0.03515    -0.00018
 PY  C  18  -0.00017    -0.00024     0.00176     0.00146    -0.04610    -0.00679
 PZ  C  18   0.00056    -0.00021    -0.00067    -0.00140     0.06221     0.00979
  
  S  C  19  -0.00463     0.01470    -0.06770    -0.01428     0.30436     0.03159
 PX  C  19  -0.00136     0.00199    -0.00709    -0.00178     0.01616    -0.00029
 PY  C  19  -0.00187     0.00300    -0.00989    -0.00226    -0.02493    -0.00825
 PZ  C  19   0.00251    -0.00388     0.01217     0.00308     0.04083     0.01219
  
  S  C  20  -0.00071     0.00342    -0.01408    -0.00476     0.04011     0.00145
 PX  C  20  -0.00272     0.00776    -0.03573    -0.00650     0.15130     0.01638
 PY  C  20  -0.00217     0.00286    -0.00773    -0.00277    -0.01995    -0.00607
 PZ  C  20   0.00274    -0.00229     0.00136     0.00330     0.06219     0.01262
  
  S  C  21  -0.00115    -0.00378     0.03135    -0.00032    -0.17800    -0.02170
 PX  C  21  -0.00250     0.00550    -0.02339    -0.00208     0.01111    -0.00235
 PY  C  21   0.00011    -0.00085     0.00299     0.00307    -0.03117    -0.00113
 PZ  C  21  -0.00120     0.00522    -0.02608    -0.00342     0.05735     0.00083
  
  S  N  22   0.00626    -0.01072     0.03945     0.01123    -0.15914    -0.01608
 PX  N  22   0.00057     0.00220    -0.01538    -0.00217     0.14137     0.02200
 PY  N  22  -0.00056     0.00187    -0.00823    -0.00252     0.05207     0.00655
 PZ  N  22   0.00007    -0.00005    -0.00095     0.00105     0.00360     0.00148
  
  S  C  23   0.00097    -0.00580     0.02967     0.00608    -0.20673    -0.02967
 PX  C  23   0.00230    -0.00433     0.01718     0.00445    -0.08248    -0.00958
 PY  C  23   0.00161    -0.00254     0.00991     0.00210    -0.03916    -0.00426
 PZ  C  23   0.00091    -0.00115     0.00320     0.00193    -0.02035    -0.00195
  
  S  C  24  -0.00440     0.00445    -0.01242    -0.00401     0.01778    -0.00096
 PX  C  24   0.00217    -0.00385     0.01572     0.00316    -0.06818    -0.00839
 PY  C  24   0.00147    -0.00353     0.01615     0.00281    -0.08630    -0.01200
 PZ  C  24   0.00080    -0.00180     0.00739     0.00238    -0.05259    -0.00702
  
  S  C  25  -0.00766     0.01265    -0.05097    -0.00946     0.20471     0.02537
 PX  C  25  -0.00088     0.00066    -0.00082    -0.00124     0.00414    -0.00032
 PY  C  25   0.00080    -0.00220     0.01092     0.00116    -0.05597    -0.00862
 PZ  C  25   0.00075    -0.00185     0.00858     0.00112    -0.03719    -0.00508
  
  S  C  26  -0.00666     0.01280    -0.05593    -0.00783     0.22824     0.03096
 PX  C  26  -0.00019    -0.00011     0.00172    -0.00090     0.00483     0.00025
 PY  C  26  -0.00163     0.00275    -0.01107    -0.00215     0.04452     0.00531
 PZ  C  26  -0.00073     0.00088    -0.00269    -0.00148     0.02595     0.00346
  
  S  C  27   0.00270    -0.00474     0.01622     0.00557    -0.03376     0.00079
 PX  C  27  -0.00180     0.00375    -0.01535    -0.00461     0.10390     0.01391
 PY  C  27   0.00102     0.00037    -0.00607    -0.00046     0.07360     0.01179
 PZ  C  27  -0.00152     0.00005     0.00543     0.00002    -0.07837    -0.01279
  
  S  C  28  -0.00106     0.00489    -0.02580    -0.00579     0.22172     0.03221
 PX  C  28  -0.00173     0.00199    -0.00488    -0.00249    -0.00113    -0.00282
 PY  C  28  -0.00012     0.00210    -0.01165    -0.00203     0.06713     0.00809
 PZ  C  28  -0.00002    -0.00266     0.01541     0.00255    -0.09199    -0.01129
  
  S  C  29  -0.00231     0.00286    -0.00875    -0.00416     0.07021     0.00934
 PX  C  29   0.00038    -0.00027     0.00051     0.00048    -0.01496    -0.00277
 PY  C  29   0.00007     0.00098    -0.00606    -0.00099     0.04556     0.00632
 PZ  C  29  -0.00002    -0.00141     0.00849     0.00147    -0.06538    -0.00914
  
  S  C  30  -0.00196    -0.00012     0.00786    -0.00066    -0.07220    -0.01141
 PX  C  30   0.00034     0.00064    -0.00493    -0.00068     0.04063     0.00583
 PY  C  30  -0.00025     0.00037    -0.00139    -0.00059     0.01692     0.00271
 PZ  C  30   0.00040    -0.00043     0.00121     0.00072    -0.01731    -0.00286
  
  S  C  31  -0.00142    -0.00188     0.01617     0.00189    -0.14880    -0.02260
 PX  C  31  -0.00037     0.00064    -0.00227    -0.00101     0.01853     0.00245
 PY  C  31  -0.00027    -0.00027     0.00244     0.00020    -0.01539    -0.00193
 PZ  C  31   0.00032     0.00046    -0.00370    -0.00042     0.02420     0.00308
  
  S  C  32   0.00009    -0.00414     0.02319     0.00503    -0.17447    -0.02398
 PX  C  32  -0.00078     0.00028     0.00121    -0.00059    -0.01265    -0.00202
 PY  C  32   0.00045    -0.00076     0.00250     0.00089    -0.00204     0.00086
 PZ  C  32  -0.00067     0.00107    -0.00339    -0.00130     0.00289    -0.00112
  
  S  C  33  -0.04497     0.05982    -0.05161    -0.16051     0.03711    -0.08197
 PX  C  33  -0.00780     0.00860     0.00122    -0.01287    -0.00328    -0.02404
 PY  C  33  -0.01616     0.01085     0.04933    -0.04391    -0.04642    -0.02150
 PZ  C  33  -0.00477     0.00894    -0.02327    -0.00099     0.01838    -0.02903
  
  S  N  34  -0.05458     0.05582     0.02150    -0.09347    -0.01621    -0.10919
 PX  N  34   0.01018    -0.01156    -0.00336     0.04448     0.00702     0.01115
 PY  N  34   0.01205    -0.02009     0.02137     0.09541    -0.00681     0.02542
 PZ  N  34   0.01198    -0.00984    -0.01727     0.02045     0.01449     0.00951
  
  S  C  35   0.00979    -0.02509     0.04673     0.11744    -0.02333     0.05293
 PX  C  35  -0.01099     0.00892     0.00361     0.04848     0.00947    -0.04420
 PY  C  35   0.02745    -0.03409    -0.00269     0.14620     0.01940     0.03487
 PZ  C  35  -0.02945     0.03002     0.00639    -0.00554     0.00352    -0.08201
  
  S  C  36   0.06019    -0.06615     0.01747     0.00118    -0.03352     0.18298
 PX  C  36  -0.01323     0.01078     0.00960     0.01176    -0.00290    -0.01867
 PY  C  36   0.03312    -0.03662     0.00051     0.06946     0.00099     0.05809
 PZ  C  36  -0.03275     0.03040     0.01536    -0.01465    -0.00656    -0.04693
  
  S  S  37  -0.00099     0.00485    -0.01019    -0.08553    -0.00018     0.03857
 PX  S  37  -0.00741     0.00878    -0.00174    -0.03106     0.00011    -0.00565
 PY  S  37   0.00694    -0.00891     0.01413    -0.02611    -0.02092     0.03932
 PZ  S  37  -0.01585     0.01919    -0.01022    -0.03949     0.01096    -0.02886
  
  S  C  38   0.14275    -0.13206    -0.02340    -0.00013    -0.01337     0.20463
 PX  C  38  -0.01190     0.00721     0.00836     0.02019    -0.00307     0.01148
 PY  C  38   0.02854    -0.02335    -0.01084     0.00077     0.00578    -0.00263
 PZ  C  38  -0.00393    -0.00736     0.01378     0.04229    -0.00883     0.06574
  
  S  C  39   0.13275    -0.11962    -0.03345    -0.01695    -0.00018     0.11417
 PX  C  39   0.01848    -0.01795    -0.00093     0.01359    -0.00177     0.03486
 PY  C  39  -0.03279     0.02949     0.00488    -0.00116     0.00378    -0.05506
 PZ  C  39  -0.02319     0.01329     0.01499     0.04322    -0.00486     0.03893
  
  S  C  40   0.05421    -0.04214    -0.02988    -0.06637     0.01004    -0.08558
 PX  C  40   0.01835    -0.01271    -0.00598    -0.00903     0.00104     0.00296
 PY  C  40  -0.02971     0.01888     0.01079     0.02130    -0.00193     0.00232
 PZ  C  40   0.05384    -0.04902    -0.00982     0.00498    -0.00224     0.08977
  
  S  C  41  -0.06770     0.08942     0.00045    -0.05480     0.01113    -0.21667
 PX  C  41   0.00820     0.00090     0.00077     0.00395    -0.00113     0.02573
 PY  C  41  -0.00461    -0.01302    -0.00433    -0.00872     0.00229    -0.04054
 PZ  C  41   0.11820    -0.10551    -0.03092    -0.03088     0.00065     0.09324
  
  S  S  42   0.03162     0.00881    -0.00777    -0.03109    -0.00053     0.01948
 PX  S  42  -0.00575    -0.00138     0.00412     0.01399    -0.00173     0.01984
 PY  S  42   0.01719    -0.00793    -0.00927    -0.02230     0.00343    -0.03366
 PZ  S  42   0.06696    -0.08398    -0.01802    -0.01214    -0.00331     0.06676
  
  S  C  43  -0.29560     0.20699     0.04599     0.00790     0.00724    -0.30969
 PX  C  43  -0.01528     0.03651     0.00747     0.00421     0.00008    -0.01660
 PY  C  43   0.04239    -0.07942    -0.01727    -0.01159     0.00020     0.03339
 PZ  C  43   0.07978    -0.00374    -0.01054    -0.02628     0.00354    -0.03105
  
  S  C  44  -0.26806     0.30144     0.07129     0.05145    -0.00022    -0.16761
 PX  C  44   0.03742     0.04749     0.00751     0.00538    -0.00097     0.02994
 PY  C  44  -0.08957    -0.09685    -0.01496    -0.01146     0.00232    -0.07322
 PZ  C  44  -0.07162     0.05883     0.01243     0.00162     0.00179    -0.06996
  
[...]
  49    N       10.087437940    10.743475790    -8.635539913
  50    C       11.143276800    13.883002770    -1.939358736
  51    C       12.485250480    13.973599990    -1.213830841
  52    C       12.989052380    15.415700320    -1.211667577
  53    C       14.317265180    15.518897130    -0.465195608
  54    C       14.827794590    16.958143950    -0.466401713
  55    C       16.155190870    17.061454110     0.281439198
  56    C       16.666025720    18.500342460     0.280536145
  57    C       17.993365490    18.605071120     1.027461367
  58    C       18.500874490    20.037843800     1.026512195
  59    H        8.228075042    14.851285670    -8.042717343
  60    H       -0.417029895     0.506485097    -0.882395905
  61    H       -0.409330636    -1.020632192    -0.000223662
  62    H       -0.417125060     0.506217741     0.882497192
  63    H        1.902299359    -0.561507850     0.878647023
  64    H        1.902187905    -0.561304201    -0.878840125
  65    H        1.673581456     1.984849243    -0.878776125
  66    H        1.673899474     1.984811561     0.878930604
  67    H        3.974543373     0.869765569     0.878076838
  68    H        3.973908556     0.870641843    -0.879894129
  69    H        3.741661116     3.415831126    -0.878692713
  70    H        3.742434990     3.414957559     0.879168428
  71    H        6.042039016     2.293330966     0.874449830
  72    H        6.040567403     2.305730107    -0.884433355
  73    H        5.802947025     4.853795570    -0.860532899
  74    H        5.817432944     4.834612183     0.897494328
  75    H        8.117000772     3.702663118     0.856114557
  76    H        8.101854365     3.755154643    -0.902366682
  77    H        7.840282692     6.311569564    -0.805927731
  78    H        7.910186230     6.236311969     0.949752694
  79    H       10.224717270     5.053646519     0.744097827
  80    H       10.139434540     5.290822555    -0.996639724
  81    H       13.623883760     7.301363111     1.927133848
  82    H       14.446331760     6.041088811     3.913057596
  83    H        9.530766920     6.285515798     2.873133606
  84    H        8.538649571     4.102016326     5.994366712
  85    H        8.368838831     5.083580463     4.531959726
  86    H        9.505091012     3.217699945     3.163078056
  87    H        9.650769774     2.242547832     4.620682170
  88    H        7.091055795     2.344410567     4.910072369
  89    H        6.977793557     3.266553256     3.415312954
  90    H        8.166058916     0.410346062     3.646327696
  91    H        6.595476863     0.827544055     2.960333893
  92    H        8.076779553     1.337428163     2.146702253
  93    H       14.711397660     4.537071533     6.109181197
  94    H       14.359410790     3.063929833     8.094543455
  95    H       12.092649680     2.343895287     8.742797351
  96    H       10.097140640     3.068099658     7.459106804
  97    H        8.545905824    14.454455790    -3.231687628
  98    H        7.972833351    15.381204720    -5.605474380
  99    H        8.881270598    12.969916000   -12.075905540
 100    H       11.215483760    14.339879110    -2.950982643
 101    H       10.369087920    14.480785830    -1.408838665
 102    H       12.392147680    13.594820850    -0.173999594
 103    H       13.226953250    13.302114220    -1.694971289
 104    H       13.102256710    15.789856190    -2.251269692
 105    H       12.234366240    16.087833840    -0.751115804
 106    H       14.203940990    15.150521700     0.576394717
 107    H       15.069651650    14.841813430    -0.922225250
 108    H       14.942463070    17.326303780    -1.507886945
 109    H       14.074635370    17.635086920    -0.010473546
 110    H       16.040874310    16.693551290     1.323060608
 111    H       16.908483950    16.384532140    -0.174313224
 112    H       16.781417010    18.869670050    -0.760424754
 113    H       15.914331230    19.178416360     0.737140938
 114    H       17.883209170    18.239240420     2.070300547
 115    H       18.750137580    17.931189770     0.572859918
 116    H       18.668399590    20.420291750     0.009297186
 117    H       17.798256430    20.729515420     1.513310394
 118    H       19.457513640    20.133592760     1.560280417


           Empirical Formula: C49 H60 N4 O2 S3  =   118 atoms



      MOLECULAR POINT GROUP   :   C1  


                  EIGENVALUES  
 -48.56595 -46.74635 -46.03430 -45.38522 -43.23967 -43.08451 -43.05290 -42.93153
 -42.40084 -41.43785 -40.93565 -40.17100 -39.69454 -39.15304 -38.93583 -38.05210
 -37.05066 -36.40733 -35.81505 -35.08438 -34.29826 -33.93012 -33.02121 -32.77817
 -32.36719 -31.20989 -30.77051 -30.37069 -29.94227 -29.32883 -28.94961 -28.44551
 -28.37591 -27.50171 -26.53882 -26.20737 -26.08294 -25.97138 -25.77081 -25.50378
 -25.10576 -24.99477 -24.84685 -24.73446 -24.28707 -24.17655 -24.02789 -23.67112
 -23.39272 -22.93958 -22.41987 -22.05705 -21.71566 -21.59462 -21.46162 -21.31731
 -20.95597 -20.53763 -20.52933 -20.38920 -20.08234 -19.73116 -19.35841 -19.18357
 -19.07576 -18.96127 -18.76244 -18.69273 -18.45503 -18.31265 -18.20086 -18.04802
 -17.82689 -17.53616 -17.29641 -17.09514 -16.90746 -16.77523 -16.74481 -16.64537
 -16.44310 -16.39799 -16.26434 -16.07214 -15.95574 -15.94136 -15.70930 -15.56922
 -15.44550 -15.32712 -15.27954 -15.21370 -15.05234 -14.92050 -14.74628 -14.58523
 -14.53936 -14.50182 -14.34867 -14.31941 -14.23631 -14.08471 -14.01817 -13.96029
 -13.81137 -13.67065 -13.63156 -13.58181 -13.55874 -13.52556 -13.47648 -13.46412
 -13.44473 -13.39597 -13.33477 -13.20047 -13.10076 -13.08228 -12.99015 -12.92666
 -12.85907 -12.80885 -12.69728 -12.62602 -12.54577 -12.50688 -12.43447 -12.41451
 -12.40976 -12.39023 -12.36007 -12.34014 -12.09738 -11.82752 -11.75530 -11.59673
 -11.36923 -11.29937 -10.98959 -10.89956 -10.78775 -10.74571 -10.70484 -10.64093
 -10.46948  -9.96827  -9.89872  -9.05914  -8.85186  -8.17746  -7.75757  -7.58726
  -7.14148  -1.43815  -0.98753   0.14571   0.45503   0.73064   0.84505   1.04984
   1.15170   1.46026   1.59686   1.76490   1.81566   2.06536   2.08792   2.15754
   2.21484   2.46808   2.72099   2.73329   2.92191   3.00099   3.07314   3.19794
   3.23001   3.36241   3.42291   3.45652   3.52137   3.68645   3.72281   3.76684
   3.85382   3.88495   3.89506   3.95898   4.07222   4.08785   4.18587   4.21511
   4.22905   4.25857   4.28365   4.39495   4.51613   4.58551   4.62050   4.69099
   4.86305   4.97014   5.07065   5.09632   5.19799   5.26730   5.35897   5.38571
   5.42882   5.49192   5.72311   5.73119   5.77151   5.83562   6.41605   6.44792
   6.48066   6.58867   6.69825   6.70588   6.71767   6.75111   6.76631   6.77077
   6.77452   6.77465   6.79046   6.80338   6.80777   6.81080   6.83661   6.85290
   6.87020   6.89682   6.94642   6.95642   7.01236   7.01822   7.01896   7.04284
   7.04952   7.06646   7.09957   7.09962   7.75554   8.20522   8.24712   8.43685
   8.43789   8.50787   8.51752   8.53250   8.54848   8.57770   8.64633   8.67445
   8.69205   8.70751   8.71387   8.71943   8.75255   8.76725   8.92883   8.97678
   9.07733   9.15407   9.30768   9.41936   9.60073   9.94672  10.11079  10.21238
  10.50480  10.51515  10.85769  10.93884  11.02403  11.17524  11.48353  11.67810
  11.87173  12.02766  12.40487  12.65042  12.67244  12.81373  13.10625  13.34308
  13.75454  14.30144  14.36863  15.08380


              NET ATOMIC CHARGES AND DIPOLE CONTRIBUTIONS

  ATOM NO.   TYPE          CHARGE      No. of ELECS.   s-Pop       p-Pop       
    1          C          -0.027940        4.0279     1.05493     2.97301
    2          C          -0.007064        4.0071     1.04480     2.96226
    3          C          -0.008624        4.0086     1.05053     2.95809
    4          C          -0.011701        4.0117     1.05217     2.95953
    5          C          -0.011974        4.0120     1.05221     2.95976
    6          C          -0.013265        4.0133     1.05289     2.96037
    7          C          -0.012075        4.0121     1.05234     2.95973
    8          C          -0.012075        4.0121     1.05301     2.95906
    9          C          -0.003072        4.0031     1.04990     2.95318
   10          C           0.007727        3.9923     1.04332     2.94895
   11          C           0.062661        3.9373     1.06365     2.87369
   12          N          -0.303796        5.3038     1.62925     3.67454
   13          C           0.178415        3.8216     1.08460     2.73698
   14          S          -0.019608        6.0196     1.77478     4.24483
   15          C           0.015970        3.9840     1.07863     2.90540
   16          C           0.034049        3.9660     1.04259     2.92336
   17          C          -0.051032        4.0510     1.07747     2.97356
   18          C          -0.017850        4.0179     1.08172     2.93613
   19          C          -0.020355        4.0204     1.04662     2.97374
   20          C           0.078806        3.9212     1.05677     2.86443
   21          C          -0.051707        4.0517     1.07743     2.97427
   22          N          -0.164870        5.1649     1.28550     3.87937
   23          C           0.072927        3.9271     1.04948     2.87759
   24          C          -0.001628        4.0016     1.05108     2.95054
   25          C          -0.007101        4.0071     1.04377     2.96334
   26          C          -0.027301        4.0273     1.05522     2.97208
   27          C           0.076605        3.9234     1.05292     2.87048
   28          C          -0.013339        4.0133     1.04785     2.96549
   29          C          -0.022294        4.0223     1.07901     2.94328
   30          C          -0.043679        4.0437     1.07770     2.96597
   31          C          -0.025699        4.0257     1.08043     2.94527
   32          C          -0.042316        4.0423     1.07587     2.96644
   33          C           0.194450        3.8056     1.08807     2.71748
   34          N          -0.309155        5.3092     1.62906     3.68009
   35          C           0.084807        3.9152     1.06708     2.84811
   36          C           0.006062        3.9939     1.06546     2.92847
   37          S          -0.016342        6.0163     1.77520     4.24114
   38          C           0.087094        3.9129     1.08026     2.83265
   39          C          -0.050039        4.0500     1.08225     2.96779
   40          C           0.038945        3.9611     1.10148     2.85957
   41          C          -0.004919        4.0049     1.05950     2.94542
   42          S          -0.025331        6.0253     1.76803     4.25730
   43          C           0.121439        3.8786     1.09433     2.78423
   44          C           0.004238        3.9958     1.00040     2.99536
   45          C           0.495909        3.5041     1.04512     2.45897
   46          O          -0.612434        6.6124     1.81682     4.79561
   47          O          -0.311217        6.3112     1.68735     4.62387
   48          C           0.216871        3.7831     1.14899     2.63414
   49          N          -0.395744        5.3957     1.75364     3.64211
   50          C           0.008424        3.9916     1.04320     2.94838
   51          C          -0.005629        4.0056     1.05034     2.95529
   52          C          -0.011426        4.0114     1.05228     2.95914
   53          C          -0.011884        4.0119     1.05226     2.95963
   54          C          -0.011740        4.0117     1.05217     2.95957
   55          C          -0.011685        4.0117     1.05216     2.95953
   56          C          -0.008549        4.0085     1.05052     2.95803
   57          C          -0.007031        4.0070     1.04480     2.96223
   58          C          -0.027910        4.0279     1.05493     2.97298
   59          H           0.058926        0.9411     0.94107
   60          H           0.007836        0.9922     0.99216
   61          H           0.000384        0.9996     0.99962
   62          H           0.007731        0.9923     0.99227
   63          H           0.006151        0.9938     0.99385
   64          H           0.006258        0.9937     0.99374
   65          H           0.006864        0.9931     0.99314
   66          H           0.006746        0.9933     0.99325
   67          H           0.006311        0.9937     0.99369
   68          H           0.006478        0.9935     0.99352
   69          H           0.006202        0.9938     0.99380
   70          H           0.006101        0.9939     0.99390
   71          H           0.007449        0.9926     0.99255
   72          H           0.006238        0.9938     0.99376
   73          H           0.006506        0.9935     0.99349
   74          H           0.006361        0.9936     0.99364
   75          H           0.007239        0.9928     0.99276
   76          H           0.007793        0.9922     0.99221
   77          H           0.010556        0.9894     0.98944
   78          H           0.008838        0.9912     0.99116
   79          H           0.011265        0.9887     0.98874
   80          H           0.015612        0.9844     0.98439
   81          H           0.018753        0.9812     0.98125
   82          H           0.024568        0.9754     0.97543
   83          H           0.028322        0.9717     0.97168
   84          H           0.019238        0.9808     0.98076
   85          H           0.018759        0.9812     0.98124
   86          H           0.012092        0.9879     0.98791
   87          H           0.012794        0.9872     0.98721
   88          H           0.008581        0.9914     0.99142
   89          H           0.007910        0.9921     0.99209
   90          H           0.008222        0.9918     0.99178
   91          H           0.001836        0.9982     0.99816
   92          H           0.009069        0.9909     0.99093
   93          H           0.024024        0.9760     0.97598
   94          H           0.016432        0.9836     0.98357
   95          H           0.018533        0.9815     0.98147
   96          H           0.026084        0.9739     0.97392
   97          H           0.040260        0.9597     0.95974
   98          H           0.049994        0.9500     0.95001
   99          H           0.245956        0.7540     0.75404
  100          H           0.015054        0.9849     0.98495
  101          H           0.023935        0.9761     0.97606
  102          H           0.009838        0.9902     0.99016
  103          H           0.008023        0.9920     0.99198
  104          H           0.007338        0.9927     0.99266
  105          H           0.007149        0.9929     0.99285
  106          H           0.006155        0.9938     0.99385
  107          H           0.006126        0.9939     0.99387
  108          H           0.006343        0.9937     0.99366
  109          H           0.006219        0.9938     0.99378
  110          H           0.006319        0.9937     0.99368
  111          H           0.006343        0.9937     0.99366
  112          H           0.006884        0.9931     0.99312
  113          H           0.006809        0.9932     0.99319
  114          H           0.006119        0.9939     0.99388
  115          H           0.006126        0.9939     0.99387
  116          H           0.007832        0.9922     0.99217
  117          H           0.007810        0.9922     0.99219
  118          H           0.000306        0.9997     0.99969
 DIPOLE           X         Y         Z       TOTAL
 POINT-CHG.    -1.696     0.898     6.517     6.793
 HYBRID        -1.499     2.151    -0.480     2.665
 SUM           -3.195     3.049     6.037     7.480


          ATOMIC ORBITAL ELECTRON POPULATIONS

     Atom    s        px        py        pz   
    1  C   1.05493   0.99092   0.98892   0.99317
    2  C   1.04480   0.99082   0.98562   0.98582
    3  C   1.05053   0.99116   0.97999   0.98694
    4  C   1.05217   0.99023   0.98303   0.98627
    5  C   1.05221   0.99133   0.98242   0.98601
    6  C   1.05289   0.99109   0.98261   0.98667
    7  C   1.05234   0.99031   0.98326   0.98616
    8  C   1.05301   0.99179   0.98024   0.98703
    9  C   1.04990   0.97894   0.98549   0.98875
   10  C   1.04332   0.99237   0.96794   0.98864
   11  C   1.06365   0.96117   0.94428   0.96823
   12  N   1.62925   1.25813   1.09648   1.31993
   13  C   1.08460   0.90554   0.93724   0.89420
   14  S   1.77478   1.65400   1.25643   1.33439
   15  C   1.07863   1.01726   0.89579   0.99235
   16  C   1.04259   0.98881   0.97065   0.96390
   17  C   1.07747   0.95725   1.02699   0.98932
   18  C   1.08172   0.94779   0.99566   0.99268
   19  C   1.04662   0.97645   1.01127   0.98601
   20  C   1.05677   0.97582   0.96445   0.92415
   21  C   1.07743   0.94212   1.02952   1.00264
   22  N   1.28550   1.10674   1.47105   1.30158
   23  C   1.04948   0.88985   0.99027   0.99746
   24  C   1.05108   0.98570   0.97974   0.98511
   25  C   1.04377   0.98340   0.99197   0.98796
   26  C   1.05522   0.98940   0.99010   0.99258
   27  C   1.05292   0.95281   0.96471   0.95295
   28  C   1.04785   0.97326   1.00826   0.98397
   29  C   1.07901   0.95079   0.99686   0.99563
   30  C   1.07770   0.95980   1.01499   0.99118
   31  C   1.08043   0.99645   0.98315   0.96566
   32  C   1.07587   0.95281   1.02339   0.99025
   33  C   1.08807   0.88500   0.94038   0.89210
   34  N   1.62906   1.26836   1.09353   1.31820
   35  C   1.06708   0.96164   0.94322   0.94325
   36  C   1.06546   1.04670   0.89390   0.98788
   37  S   1.77520   1.66809   1.24810   1.32495
   38  C   1.08026   0.94388   0.98229   0.90648
   39  C   1.08225   1.04153   0.97818   0.94808
   40  C   1.10148   0.90839   0.93689   1.01429
   41  C   1.05950   1.05215   0.95323   0.94004
   42  S   1.76803   1.73730   1.37943   1.14058
   43  C   1.09433   0.84002   0.95306   0.99114
   44  C   1.00040   1.12174   0.95570   0.91792
   45  C   1.04512   0.70920   0.83279   0.91698
   46  O   1.81682   1.50903   1.36069   1.92589
   47  O   1.68735   1.82546   1.57410   1.22431
   48  C   1.14899   0.88964   0.93738   0.80712
   49  N   1.75364   1.19255   1.22327   1.22629
   50  C   1.04320   0.99030   0.96752   0.99056
   51  C   1.05034   0.98482   0.98571   0.98475
   52  C   1.05228   0.99057   0.98260   0.98597
   53  C   1.05226   0.99030   0.98437   0.98496
   54  C   1.05217   0.99023   0.98420   0.98513
   55  C   1.05216   0.99068   0.98352   0.98533
   56  C   1.05052   0.98796   0.98503   0.98505
   57  C   1.04480   0.99398   0.98255   0.98570
   58  C   1.05493   0.98845   0.99250   0.99203
   59  H   0.94107
   60  H   0.99216
   61  H   0.99962
   62  H   0.99227
   63  H   0.99385
   64  H   0.99374
   65  H   0.99314
   66  H   0.99325
   67  H   0.99369
   68  H   0.99352
   69  H   0.99380
   70  H   0.99390
   71  H   0.99255
   72  H   0.99376
   73  H   0.99349
   74  H   0.99364
   75  H   0.99276
   76  H   0.99221
   77  H   0.98944
   78  H   0.99116
   79  H   0.98874
   80  H   0.98439
   81  H   0.98125
   82  H   0.97543
   83  H   0.97168
   84  H   0.98076
   85  H   0.98124
   86  H   0.98791
   87  H   0.98721
   88  H   0.99142
   89  H   0.99209
   90  H   0.99178
   91  H   0.99816
   92  H   0.99093
   93  H   0.97598
   94  H   0.98357
   95  H   0.98147
   96  H   0.97392
   97  H   0.95974
   98  H   0.95001
   99  H   0.75404
  100  H   0.98495
  101  H   0.97606
  102  H   0.99016
  103  H   0.99198
  104  H   0.99266
  105  H   0.99285
  106  H   0.99385
  107  H   0.99387
  108  H   0.99366
  109  H   0.99378
  110  H   0.99368
  111  H   0.99366
  112  H   0.99312
  113  H   0.99319
  114  H   0.99388
  115  H   0.99387
  116  H   0.99217
  117  H   0.99219
  118  H   0.99969

 **********************
 *                    *
 * JOB ENDED NORMALLY *
 *                    *
 **********************



 TOTAL JOB TIME:           764.65 SECONDS

 == MOPAC DONE ==
