 *******************************************************************************
 ** Site#: 4824         For non-commercial use only    Version 21.013L 64BITS **
 *******************************************************************************
 ** Cite this program as: MOPAC2016, Version: 21.013L, James J. P. Stewart,   **
 ** Stewart Computational Chemistry, web: HTTP://OpenMOPAC.net. Days left:  84**
 *******************************************************************************
 **                                                                           **
 **                                MOPAC2016                                  **
 **                                                                           **
 *******************************************************************************

                              INDO CALCULATION RESULTS

 *******************************************************************************
 *  CALCULATION DONE:                                Thu Oct 21 23:40:28 2021  *
 *  INDO       - The INDO Hamiltonian to be used
 *  CIS        - C.I. USES 1 ELECTRON EXCITATIONS ONLY
 *  EPS= 32.70 - USE ANDREAS KLAMT'S COSMO IMPLICIT SOLVATION MODEL
 *  n**2 =  1.320 for COSMO-CI
 *  T=         - A TIME OF 172800.0 SECONDS REQUESTED
 *  DUMP=N     - RESTART FILE WRITTEN EVERY 7200.0 SECONDS REQUESTED
 *******************************************************************************
INDO CIS EPS=32.7 N**2=1.32
 Dye88
 Calculo de Estados Excitados
   ATOM   CHEMICAL          X               Y               Z
  NUMBER   SYMBOL      (ANGSTROMS)     (ANGSTROMS)     (ANGSTROMS)
 
     1       C          0.00000000  *   0.00000000  *   0.00000000  *
     2       C          1.52002285  *   0.00000000  *   0.00000000  *
     3       C          2.06124645  *   1.42750827  *   0.00000000  *
     4       C          3.58815260  *   1.42817406  *   0.00075811  *
     5       C          4.12711697  *   2.85703713  *  -0.00092392  *
     6       C          5.65432793  *   2.85562743  *   0.00451670  *
     7       C          6.18857785  *   4.28598260  *  -0.00694860  *
     8       C          7.72087923  *   4.26625186  *   0.05454122  *
     9       N          8.26968572  *   5.63494749  *  -0.01321896  *
    10       C          8.52006011  *   6.36509515  *   1.20242925  *
    11       O          8.30495065  *   5.86929411  *   2.28876601  *
    12       C          9.06355255  *   7.69124386  *   0.89672058  *
    13       C          9.45469521  *   8.60236348  *   1.79015078  *
    14       C          9.32888592  *   8.45341646  *   3.23243723  *
    15       C          8.08410482  *   8.23575204  *   3.81566506  *
    16       C          7.97788593  *   8.13864437  *   5.19694997  *
    17       C          9.11549203  *   8.25160875  *   5.99281351  *
    18       C         10.36106553  *   8.47262096  *   5.40601446  *
    19       C         10.46704757  *   8.58157615  *   4.02761972  *
    20       C          9.00462023  *   8.13876319  *   7.44370218  *
    21       C          8.31464123  *   7.07327443  *   8.00230908  *
    22       C          8.18076676  *   6.93936974  *   9.38884159  *
    23       C          8.77099599  *   7.89612693  *  10.18953985  *
    24       C          9.48099209  *   8.99217414  *   9.61180705  *
    25       C          9.60441409  *   9.11652820  *   8.25549306  *
    26       C         10.06047392  *   9.76208304  *  10.74186773  *
    27       C         10.21485891  *  11.25660267  *  10.93353813  *
    28       C         10.23286932  *  11.36806342  *  12.48445371  *
    29       C          9.68713010  *  10.03841303  *  13.07663613  *
    30       C          9.01352728  *   9.43712591  *  11.85524744  *
    31       N          8.81533766  *   7.97757358  *  11.62565050  *
    32       C          7.85648790  *   7.24615669  *  12.38869432  *
    33       C          7.99491119  *   5.84331741  *  12.38013726  *
    34       C          7.16431874  *   5.03634775  *  13.13797561  *
    35       C          6.19721143  *   5.65757682  *  13.92335537  *
    36       C          6.06139962  *   7.07018050  *  13.94068108  *
    37       C          6.89116728  *   7.87225993  *  13.17541713  *
    38       C          4.97296496  *   7.37843853  *  14.83404657  *
    39       C          4.39683209  *   8.57316782  *  15.23348771  *
    40       C          3.32687146  *   8.52628624  *  16.11440356  *
    41       C          2.83879277  *   7.30567524  *  16.59167807  *
    42       C          3.40109717  *   6.09672120  *  16.21261564  *
    43       C          4.47840664  *   6.14227824  *  15.33119360  *
    44       N          5.28337639  *   5.08960470  *  14.84153201  *
    45       C          4.86914996  *   3.68913529  *  14.80543437  *
    46       C          3.91973260  *   3.39896892  *  13.63379220  *
    47       C          3.51971306  *   1.92677217  *  13.63650247  *
    48       C          2.57651378  *   1.62361210  *  12.47486805  *
    49       C          2.17644862  *   0.15726381  *  12.47600983  *
    50       S          9.18642678  *   7.93639361  *  -0.81325449  *
    51       C          8.50841155  *   6.34692415  *  -1.17925239  *
    52       C          8.27905414  *   5.94611280  *  -2.46140193  *
    53       C          8.63493931  *   6.79833552  *  -3.59446830  *
    54       O          9.18761859  *   7.89178978  *  -3.57315218  *
    55       O          8.29463451  *   6.27128041  *  -4.79079563  *
    56       C          7.68658479  *   4.71408461  *  -2.82111549  *
    57       N          7.20423090  *   3.72750369  *  -3.18802420  *
    58       H          9.90918066  *   9.54500157  *   1.45067200  *
    59       H         -0.41690424  *   0.50710762  *  -0.88210158  *
    60       H         -0.40931042  *  -1.02063380  *  -0.00105288  *
    61       H         -0.41717888  *   0.50560870  *   0.88281065  *
    62       H          1.90233472  *  -0.56154661  *   0.87861420  *
    63       H          1.90228690  *  -0.56111505  *  -0.87892856  *
    64       H          1.67450042  *   1.98430082  *  -0.87963116  *
    65       H          1.67290069  *   1.98512833  *   0.87838965  *
    66       H          3.97363494  *   0.87068539  *   0.88052222  *
    67       H          3.97445803  *   0.86953368  *  -0.87798265  *
    68       H          3.74558631  *   3.41164344  *  -0.88427570  *
    69       H          3.73735126  *   3.41766258  *   0.87500143  *
    70       H          6.03592780  *   2.30594071  *   0.89101399  *
    71       H          6.04222415  *   2.29210359  *  -0.87106151  *
    72       H          5.83093327  *   4.82836976  *  -0.90710333  *
    73       H          5.78062560  *   4.86349454  *   0.84993795  *
    74       H          8.06505400  *   3.78777665  *   1.00452619  *
    75       H          8.17982784  *   3.62772291  *  -0.73291085  *
    76       H          7.19151597  *   8.14069592  *   3.18980167  *
    77       H          6.99812801  *   7.97614806  *   5.65646344  *
    78       H         11.25671666  *   8.54971199  *   6.02986785  *
    79       H         11.44368555  *   8.75569045  *   3.56584752  *
    80       H          7.86415491  *   6.31397034  *   7.35415423  *
    81       H          7.60968311  *   6.10547477  *   9.80250953  *
    82       H         10.14404076  *   9.95911823  *   7.81597478  *
    83       H         11.05676563  *   9.28330080  *  10.95227365  *
    84       H         11.13065043  *  11.66693107  *  10.46998327  *
    85       H          9.38606572  *  11.83361738  *  10.48095702  *
    86       H         11.25456146  *  11.57077476  *  12.85666831  *
    87       H          9.63055012  *  12.23175980  *  12.82329395  *
    88       H         10.49180933  *   9.39600286  *  13.48240229  *
    89       H          8.99901819  *  10.20207333  *  13.92637563  *
    90       H          8.04826899  *   9.99547877  *  11.67841159  *
    91       H          8.78637074  *   5.37829473  *  11.78122418  *
    92       H          7.27822311  *   3.95046271  *  13.12073129  *
    93       H          6.76781354  *   8.95663662  *  13.21529205  *
    94       H          4.78228640  *   9.52413800  *  14.85779528  *
    95       H          2.85444665  *   9.45603883  *  16.44278762  *
    96       H          1.98978706  *   7.30625761  *  17.28276075  *
    97       H          3.00950815  *   5.15287135  *  16.59545783  *
    98       H          5.78176097  *   3.05130672  *  14.74870998  *
    99       H          4.39444247  *   3.43053845  *  15.77998981  *
   100       H          3.02213793  *   4.05010011  *  13.69501769  *
   101       H          4.40189177  *   3.67350158  *  12.67151573  *
   102       H          4.42016649  *   1.27907526  *  13.57836334  *
   103       H          3.03961355  *   1.65632483  *  14.60090058  *
   104       H          1.67289093  *   2.26707986  *  12.52905852  *
   105       H          3.05247806  *   1.88982676  *  11.50733567  *
   106       H          3.04296988  *  -0.51205548  *  12.37486882  *
   107       H          1.65737188  *  -0.13320861  *  13.40081032  *
   108       H          1.49630574  *  -0.08107834  *  11.64540130  *
   109       H          8.55166940  *   6.86171933  *  -5.51360914  *
 


          CARTESIAN COORDINATES 

    NO.       ATOM           X           Y           Z

     1         C          0.0000      0.0000      0.0000
     2         C          1.5200      0.0000      0.0000
     3         C          2.0612      1.4275      0.0000
     4         C          3.5882      1.4282      0.0008
     5         C          4.1271      2.8570     -0.0009
     6         C          5.6543      2.8556      0.0045
     7         C          6.1886      4.2860     -0.0069
     8         C          7.7209      4.2663      0.0545
     9         N          8.2697      5.6349     -0.0132
    10         C          8.5201      6.3651      1.2024
    11         O          8.3050      5.8693      2.2888
    12         C          9.0636      7.6912      0.8967
    13         C          9.4547      8.6024      1.7902
    14         C          9.3289      8.4534      3.2324
    15         C          8.0841      8.2358      3.8157
    16         C          7.9779      8.1386      5.1969
    17         C          9.1155      8.2516      5.9928
    18         C         10.3611      8.4726      5.4060
    19         C         10.4670      8.5816      4.0276
    20         C          9.0046      8.1388      7.4437
    21         C          8.3146      7.0733      8.0023
    22         C          8.1808      6.9394      9.3888
    23         C          8.7710      7.8961     10.1895
    24         C          9.4810      8.9922      9.6118
    25         C          9.6044      9.1165      8.2555
    26         C         10.0605      9.7621     10.7419
    27         C         10.2149     11.2566     10.9335
    28         C         10.2329     11.3681     12.4845
    29         C          9.6871     10.0384     13.0766
    30         C          9.0135      9.4371     11.8552
    31         N          8.8153      7.9776     11.6257
    32         C          7.8565      7.2462     12.3887
    33         C          7.9949      5.8433     12.3801
    34         C          7.1643      5.0363     13.1380
    35         C          6.1972      5.6576     13.9234
    36         C          6.0614      7.0702     13.9407
    37         C          6.8912      7.8723     13.1754
    38         C          4.9730      7.3784     14.8340
    39         C          4.3968      8.5732     15.2335
    40         C          3.3269      8.5263     16.1144
    41         C          2.8388      7.3057     16.5917
    42         C          3.4011      6.0967     16.2126
    43         C          4.4784      6.1423     15.3312
    44         N          5.2834      5.0896     14.8415
    45         C          4.8691      3.6891     14.8054
    46         C          3.9197      3.3990     13.6338
    47         C          3.5197      1.9268     13.6365
    48         C          2.5765      1.6236     12.4749
    49         C          2.1764      0.1573     12.4760
    50         S          9.1864      7.9364     -0.8133
    51         C          8.5084      6.3469     -1.1793
    52         C          8.2791      5.9461     -2.4614
    53         C          8.6349      6.7983     -3.5945
    54         O          9.1876      7.8918     -3.5732
    55         O          8.2946      6.2713     -4.7908
    56         C          7.6866      4.7141     -2.8211
    57         N          7.2042      3.7275     -3.1880
    58         H          9.9092      9.5450      1.4507
    59         H         -0.4169      0.5071     -0.8821
    60         H         -0.4093     -1.0206     -0.0011
    61         H         -0.4172      0.5056      0.8828
    62         H          1.9023     -0.5615      0.8786
    63         H          1.9023     -0.5611     -0.8789
    64         H          1.6745      1.9843     -0.8796
    65         H          1.6729      1.9851      0.8784
    66         H          3.9736      0.8707      0.8805
    67         H          3.9745      0.8695     -0.8780
    68         H          3.7456      3.4116     -0.8843
    69         H          3.7374      3.4177      0.8750
    70         H          6.0359      2.3059      0.8910
    71         H          6.0422      2.2921     -0.8711
    72         H          5.8309      4.8284     -0.9071
    73         H          5.7806      4.8635      0.8499
    74         H          8.0651      3.7878      1.0045
    75         H          8.1798      3.6277     -0.7329
    76         H          7.1915      8.1407      3.1898
    77         H          6.9981      7.9761      5.6565
    78         H         11.2567      8.5497      6.0299
    79         H         11.4437      8.7557      3.5658
    80         H          7.8642      6.3140      7.3542
    81         H          7.6097      6.1055      9.8025
    82         H         10.1440      9.9591      7.8160
    83         H         11.0568      9.2833     10.9523
    84         H         11.1307     11.6669     10.4700
    85         H          9.3861     11.8336     10.4810
    86         H         11.2546     11.5708     12.8567
    87         H          9.6306     12.2318     12.8233
    88         H         10.4918      9.3960     13.4824
    89         H          8.9990     10.2021     13.9264
    90         H          8.0483      9.9955     11.6784
    91         H          8.7864      5.3783     11.7812
    92         H          7.2782      3.9505     13.1207
    93         H          6.7678      8.9566     13.2153
    94         H          4.7823      9.5241     14.8578
    95         H          2.8544      9.4560     16.4428
    96         H          1.9898      7.3063     17.2828
    97         H          3.0095      5.1529     16.5955
    98         H          5.7818      3.0513     14.7487
    99         H          4.3944      3.4305     15.7800
   100         H          3.0221      4.0501     13.6950
   101         H          4.4019      3.6735     12.6715
   102         H          4.4202      1.2791     13.5784
   103         H          3.0396      1.6563     14.6009
   104         H          1.6729      2.2671     12.5291
   105         H          3.0525      1.8898     11.5073
   106         H          3.0430     -0.5121     12.3749
   107         H          1.6574     -0.1332     13.4008
   108         H          1.4963     -0.0811     11.6454
   109         H          8.5517      6.8617     -5.5136

           Empirical Formula: C49 H52 N4 O3 S  =   109 atoms



      MOLECULAR POINT GROUP   :   C1  


      RHF CALCULATION, NO. OF DOUBLY OCCUPIED LEVELS = 146

 WARNING: INDO only performs single-point calculations

 Summary of symmetry occupancy in each shell:

 SHELL     
    1  146
    v  134
 TOTAL 280




    ROOT NO.    1           2           3           4           5           6

           -49.22296   -48.41023   -47.64145   -46.67005   -44.98544   -43.44254
  
  
  S  C   1   0.00000    -0.00001     0.00240    -0.00139    -0.00393     0.01296
 PX  C   1   0.00000    -0.00000     0.00104    -0.00059    -0.00157     0.00488
 PY  C   1   0.00000    -0.00000     0.00035    -0.00019    -0.00049     0.00140
 PZ  C   1  -0.00000     0.00000    -0.00000    -0.00000     0.00000    -0.00000
  
  S  C   2   0.00001    -0.00002     0.00539    -0.00297    -0.00764     0.02278
 PX  C   2   0.00000    -0.00000     0.00104    -0.00051    -0.00098     0.00185
 PY  C   2   0.00000    -0.00001     0.00172    -0.00091    -0.00217     0.00588
 PZ  C   2   0.00000     0.00000    -0.00000    -0.00000     0.00000    -0.00000
  
  S  C   3   0.00002    -0.00003     0.01082    -0.00557    -0.01257     0.03221
 PX  C   3   0.00001    -0.00001     0.00363    -0.00174    -0.00326     0.00625
 PY  C   3   0.00000    -0.00000     0.00055    -0.00017     0.00014    -0.00198
 PZ  C   3   0.00000    -0.00000    -0.00001    -0.00001     0.00001    -0.00001
  
  S  C   4   0.00005    -0.00007     0.02075    -0.00992    -0.01908     0.03983
 PX  C   4   0.00001    -0.00001     0.00324    -0.00126    -0.00121    -0.00105
 PY  C   4   0.00001    -0.00002     0.00608    -0.00273    -0.00449     0.00710
 PZ  C   4   0.00000     0.00000    -0.00003    -0.00003     0.00003    -0.00005
  
  S  C   5   0.00010    -0.00014     0.03968    -0.01748    -0.02809     0.04544
 PX  C   5   0.00003    -0.00005     0.01284    -0.00517    -0.00655     0.00593
 PY  C   5   0.00001    -0.00001     0.00181    -0.00037     0.00084    -0.00486
 PZ  C   5   0.00000    -0.00000    -0.00008    -0.00017     0.00011    -0.00012
  
  S  C   6   0.00020    -0.00028     0.07467    -0.03066    -0.04061     0.04863
 PX  C   6   0.00004    -0.00005     0.01112    -0.00380    -0.00194    -0.00382
 PY  C   6   0.00007    -0.00009     0.02221    -0.00856    -0.00927     0.00694
 PZ  C   6   0.00000    -0.00000    -0.00048    -0.00060     0.00054    -0.00062
  
  S  C   7   0.00046    -0.00060     0.15058    -0.05877    -0.06036     0.04913
 PX  C   7   0.00018    -0.00023     0.05336    -0.02066    -0.01521     0.00442
 PY  C   7   0.00006    -0.00006     0.01206    -0.00419     0.00081    -0.00689
 PZ  C   7   0.00001    -0.00001    -0.00008    -0.00335     0.00159    -0.00190
  
  S  C   8   0.00088    -0.00110     0.26228    -0.10285    -0.08379     0.04602
 PX  C   8   0.00008    -0.00009     0.01783    -0.00729     0.00023    -0.00668
 PY  C   8   0.00038    -0.00046     0.10563    -0.04304    -0.02677     0.00730
 PZ  C   8   0.00004    -0.00002    -0.00208    -0.00736     0.00648    -0.00696
  
  S  N   9   0.00177    -0.00214     0.48444    -0.19220    -0.12506     0.04431
 PX  N   9   0.00002    -0.00001    -0.00111     0.00017     0.00475    -0.00523
 PY  N   9   0.00017    -0.00018     0.03094    -0.01279     0.00142    -0.00681
 PZ  N   9   0.00018    -0.00015     0.01454    -0.02371     0.01206    -0.01511
  
  S  C  10   0.00237    -0.00228     0.38220    -0.18635     0.00002    -0.04207
 PX  C  10  -0.00004     0.00009    -0.02669     0.01317     0.01023    -0.00268
 PY  C  10  -0.00002     0.00017    -0.06723     0.03263     0.03088    -0.00852
 PZ  C  10   0.00038    -0.00015    -0.03938     0.00078     0.06117    -0.04195
  
  S  O  11   0.00216    -0.00194     0.28010    -0.15534     0.04576    -0.07062
 PX  O  11   0.00016    -0.00013     0.01462    -0.00875     0.00721    -0.00689
 PY  O  11   0.00051    -0.00038     0.03386    -0.02065     0.02348    -0.01840
 PZ  O  11  -0.00060     0.00062    -0.11181     0.05897    -0.00007     0.01698
  
  S  C  12   0.00182    -0.00152     0.19313    -0.09245     0.04786    -0.04289
 PX  C  12  -0.00010     0.00013    -0.03075     0.01347     0.00777    -0.00106
 PY  C  12  -0.00018     0.00028    -0.07556     0.03289     0.02305    -0.00416
 PZ  C  12   0.00059    -0.00033    -0.00812    -0.00546     0.04914    -0.02643
  
  S  C  13   0.00268    -0.00174     0.08834    -0.05271     0.13774    -0.07029
 PX  C  13  -0.00024     0.00018    -0.01643     0.00908    -0.01017     0.00715
 PY  C  13  -0.00042     0.00033    -0.03511     0.01901    -0.01656     0.01319
 PZ  C  13   0.00111    -0.00060    -0.00402    -0.00132     0.05787    -0.01993
  
  S  C  14   0.00768    -0.00432     0.07555    -0.05400     0.31625    -0.11249
 PX  C  14  -0.00029     0.00018    -0.00834     0.00512    -0.01013     0.00469
 PY  C  14  -0.00029     0.00018    -0.01061     0.00630    -0.00936     0.00498
 PZ  C  14   0.00301    -0.00151    -0.00893     0.00206     0.08745    -0.01310
  
  S  C  15   0.00836    -0.00450     0.05782    -0.04292     0.29006    -0.08911
 PX  C  15   0.00265    -0.00146     0.01733    -0.01347     0.10249    -0.03235
 PY  C  15   0.00013    -0.00007    -0.00370     0.00181     0.00902    -0.00206
 PZ  C  15   0.00282    -0.00134    -0.00949     0.00364     0.05641    -0.00186
  
  S  C  16   0.01598    -0.00769     0.03315    -0.02878     0.30767    -0.04937
 PX  C  16   0.00522    -0.00259     0.01136    -0.01020     0.11525    -0.02088
 PY  C  16   0.00026    -0.00017     0.00110    -0.00117     0.01614    -0.00512
 PZ  C  16   0.00403    -0.00159    -0.00934     0.00651    -0.02327     0.02962
  
  S  C  17   0.03132    -0.01424     0.03004    -0.02832     0.37123    -0.01520
 PX  C  17  -0.00048     0.00015     0.00027    -0.00031     0.00431    -0.00488
 PY  C  17  -0.00052     0.00017     0.00049    -0.00046     0.00425    -0.00486
 PZ  C  17   0.00939    -0.00360    -0.01088     0.00878    -0.06172     0.05337
  
  S  C  18   0.01657    -0.00797     0.02862    -0.02602     0.30554    -0.04942
 PX  C  18  -0.00572     0.00278    -0.01058     0.00954    -0.11028     0.01639
 PY  C  18  -0.00071     0.00034    -0.00131     0.00113    -0.01255     0.00076
 PZ  C  18   0.00337    -0.00129    -0.00804     0.00632    -0.04210     0.03061
  
  S  C  19   0.00840    -0.00446     0.03994    -0.03246     0.28417    -0.08248
 PX  C  19  -0.00302     0.00164    -0.01662     0.01327    -0.10962     0.03230
 PY  C  19  -0.00060     0.00032    -0.00397     0.00295    -0.02001     0.00566
 PZ  C  19   0.00253    -0.00120    -0.00331     0.00077     0.04069     0.00007
  
  S  C  20   0.08210    -0.03341     0.01203    -0.01356     0.26981     0.11766
 PX  C  20  -0.00084     0.00015     0.00019    -0.00017     0.00077    -0.00745
 PY  C  20   0.00038    -0.00038     0.00016    -0.00015     0.00018    -0.00945
 PZ  C  20   0.03257    -0.01227    -0.00410     0.00342    -0.02096     0.05359
  
  S  C  21   0.07837    -0.02982     0.00609    -0.00755     0.17913     0.13619
 PX  C  21   0.01465    -0.00607     0.00109    -0.00139     0.03332     0.02034
 PY  C  21   0.02514    -0.01026     0.00186    -0.00234     0.05541     0.03429
 PZ  C  21   0.02448    -0.00810    -0.00173     0.00141    -0.00647     0.03989
  
  S  C  22   0.12659    -0.04005     0.00165    -0.00312     0.10757     0.17674
 PX  C  22   0.02806    -0.01085     0.00031    -0.00065     0.02304     0.02808
 PY  C  22   0.04842    -0.01814     0.00038    -0.00091     0.03380     0.04453
 PZ  C  22   0.02508    -0.00377    -0.00156     0.00172    -0.03808     0.00705
  
  S  C  23   0.31165    -0.10251    -0.00181    -0.00029     0.06203     0.18830
 PX  C  23   0.02939    -0.01385    -0.00035     0.00019    -0.00141    -0.02418
 PY  C  23   0.07072    -0.02876    -0.00100     0.00070    -0.00993    -0.03443
 PZ  C  23   0.08003    -0.02039    -0.00276     0.00295    -0.06999    -0.00518
  
  S  C  24   0.26891    -0.09997    -0.00061    -0.00141     0.07702     0.05912
 PX  C  24  -0.02470     0.00785    -0.00014     0.00041    -0.01700    -0.04055
 PY  C  24  -0.02482     0.00775    -0.00059     0.00100    -0.03492    -0.07373
 PZ  C  24   0.09483    -0.03265    -0.00296     0.00294    -0.06373    -0.05096
  
  S  C  25   0.11094    -0.04413     0.00526    -0.00688     0.16729     0.09142
 PX  C  25  -0.01714     0.00661    -0.00087     0.00119    -0.03244    -0.02980
 PY  C  25  -0.02327     0.00909    -0.00168     0.00218    -0.05556    -0.04789
 PZ  C  25   0.04396    -0.01651    -0.00240     0.00214    -0.02494     0.00604
  
  S  C  26   0.31458    -0.11872    -0.00447     0.00325    -0.05565    -0.20416
 PX  C  26  -0.07962     0.02807     0.00107    -0.00072     0.00791     0.00118
 PY  C  26  -0.04246     0.01302     0.00023     0.00010    -0.01509    -0.08583
 PZ  C  26   0.04653    -0.01711    -0.00127     0.00131    -0.03534    -0.08500
  
  S  C  27   0.17333    -0.06900    -0.00297     0.00252    -0.06093    -0.26027
 PX  C  27  -0.02512     0.00940     0.00040    -0.00032     0.00640     0.01978
 PY  C  27  -0.06830     0.02640     0.00109    -0.00086     0.01784     0.06637
 PZ  C  27   0.03488    -0.01382    -0.00077     0.00074    -0.02033    -0.07222
  
  S  C  28   0.15123    -0.05997    -0.00286     0.00258    -0.06734    -0.26893
 PX  C  28  -0.02236     0.00835     0.00041    -0.00036     0.00869     0.02879
 PY  C  28  -0.05639     0.02168     0.00103    -0.00090     0.02181     0.07602
 PZ  C  28  -0.03635     0.01470     0.00064    -0.00054     0.01298     0.05484
  
  S  C  29   0.18764    -0.06863    -0.00340     0.00301    -0.07279    -0.22988
 PX  C  29  -0.00816     0.00072     0.00011    -0.00008     0.00047    -0.01803
 PY  C  29  -0.00840     0.00038     0.00005     0.00001    -0.00400    -0.04638
 PZ  C  29  -0.08424     0.03191     0.00146    -0.00124     0.02790     0.08891
  
  S  C  30   0.36345    -0.12464    -0.00571     0.00451    -0.08379    -0.14407
 PX  C  30   0.04112    -0.02046    -0.00077     0.00067    -0.01712    -0.09540
 PY  C  30  -0.05645     0.01228     0.00060    -0.00029    -0.00701    -0.12880
 PZ  C  30  -0.07192     0.02752     0.00083    -0.00043    -0.00152    -0.01515
  
  S  N  31   0.40061    -0.11303    -0.00561     0.00407    -0.05090     0.18630
 PX  N  31  -0.01956    -0.00358     0.00025    -0.00022     0.00227    -0.06722
 PY  N  31   0.07509    -0.03348    -0.00121     0.00092    -0.01626    -0.05718
 PZ  N  31  -0.05833     0.02645     0.00056    -0.00017    -0.00761    -0.00977
  
  S  C  32   0.20959     0.02505    -0.00250     0.00210    -0.03200     0.27940
 PX  C  32   0.03463    -0.03902    -0.00071     0.00046    -0.00448    -0.00846
 PY  C  32   0.04234    -0.03605    -0.00085     0.00062    -0.00960    -0.02776
 PZ  C  32  -0.03805     0.03810     0.00066    -0.00037     0.00073    -0.00219
  
  S  C  33   0.10537     0.06122    -0.00085     0.00082    -0.01250     0.22931
 PX  C  33  -0.00928    -0.03244    -0.00011    -0.00000     0.00176    -0.04179
 PY  C  33   0.04285     0.00084    -0.00055     0.00045    -0.00640     0.06075
 PZ  C  33   0.00049     0.02851     0.00015    -0.00001    -0.00263     0.02457
  
  S  C  34   0.07308     0.13321     0.00010     0.00022    -0.00663     0.16224
 PX  C  34  -0.00896    -0.04425    -0.00025     0.00011    -0.00101     0.01031
 PY  C  34   0.02943     0.03808    -0.00010     0.00019    -0.00434     0.07751
 PZ  C  34   0.00477     0.03426     0.00021    -0.00010     0.00078    -0.01432
  
  S  C  35   0.12451     0.34665     0.00123    -0.00028    -0.00174     0.10327
 PX  C  35  -0.01654    -0.09705    -0.00063     0.00036    -0.00533     0.06989
 PY  C  35   0.01735     0.02691    -0.00003     0.00010    -0.00300     0.03906
 PZ  C  35   0.01294     0.08079     0.00054    -0.00031     0.00454    -0.06095
  
  S  C  36   0.11593     0.27747     0.00072     0.00002    -0.00690     0.11586
 PX  C  36   0.00155    -0.05142    -0.00049     0.00034    -0.00577     0.07133
 PY  C  36  -0.02573    -0.09248    -0.00044     0.00018    -0.00183    -0.01462
 PZ  C  36   0.00030     0.04969     0.00045    -0.00029     0.00481    -0.06007
  
  S  C  37   0.12392     0.08664    -0.00102     0.00110    -0.02237     0.18453
 PX  C  37   0.02889    -0.02920    -0.00063     0.00047    -0.00721     0.03050
 PY  C  37  -0.02108    -0.05026    -0.00012    -0.00003     0.00150    -0.07579
 PZ  C  37  -0.02287     0.02825     0.00052    -0.00037     0.00481    -0.02414
  
  S  C  38   0.08704     0.28951     0.00130    -0.00050     0.00409    -0.06907
 PX  C  38   0.00942     0.01627    -0.00001     0.00006    -0.00193     0.04588
 PY  C  38  -0.03094    -0.11081    -0.00053     0.00022    -0.00229     0.00718
 PZ  C  38  -0.00573    -0.00595     0.00004    -0.00006     0.00173    -0.03869
  
  S  C  39   0.03466     0.11999     0.00057    -0.00024     0.00273    -0.08241
 PX  C  39   0.00246     0.00215    -0.00002     0.00003    -0.00089     0.01919
 PY  C  39  -0.01640    -0.06014    -0.00030     0.00013    -0.00160     0.03335
 PZ  C  39  -0.00100     0.00201     0.00004    -0.00003     0.00083    -0.01795
  
  S  C  40   0.02274     0.08791     0.00046    -0.00023     0.00343    -0.09450
 PX  C  40   0.00581     0.02112     0.00010    -0.00005     0.00058    -0.01583
 PY  C  40  -0.00923    -0.03657    -0.00020     0.00010    -0.00148     0.03556
 PZ  C  40  -0.00417    -0.01496    -0.00007     0.00003    -0.00038     0.01070
  
  S  C  41   0.02302     0.09163     0.00050    -0.00025     0.00394    -0.10001
 PX  C  41   0.00914     0.03567     0.00019    -0.00009     0.00136    -0.03210
 PY  C  41  -0.00139    -0.00577    -0.00003     0.00002    -0.00026     0.00211
 PZ  C  41  -0.00741    -0.02889    -0.00015     0.00008    -0.00110     0.02613
  
  S  C  42   0.03783     0.14713     0.00078    -0.00038     0.00549    -0.10904
 PX  C  42   0.01383     0.05167     0.00026    -0.00012     0.00147    -0.01937
 PY  C  42   0.00479     0.01910     0.00010    -0.00005     0.00086    -0.03097
 PZ  C  42  -0.01188    -0.04452    -0.00023     0.00010    -0.00130     0.01829
  
  S  C  43   0.09849     0.35786     0.00176    -0.00078     0.00901    -0.11857
 PX  C  43   0.02834     0.09498     0.00042    -0.00016     0.00095     0.01464
 PY  C  43  -0.00538    -0.02237    -0.00012     0.00006    -0.00086    -0.01241
 PZ  C  43  -0.02293    -0.07672    -0.00034     0.00013    -0.00079    -0.01054
  
  S  N  44   0.12940     0.46301     0.00224    -0.00096     0.01052    -0.07257
 PX  N  44  -0.00137    -0.01384    -0.00011     0.00008    -0.00154     0.02731
 PY  N  44   0.02636     0.08728     0.00038    -0.00014     0.00074    -0.00132
 PZ  N  44  -0.01469    -0.04638    -0.00019     0.00006    -0.00025    -0.01073
  
  S  C  45   0.05575     0.20889     0.00106    -0.00049     0.00657    -0.05780
 PX  C  45   0.00398     0.01191     0.00004    -0.00001    -0.00014     0.00778
 PY  C  45   0.02548     0.09338     0.00046    -0.00020     0.00233    -0.01674
 PZ  C  45  -0.00521    -0.01825    -0.00009     0.00004    -0.00048     0.00176
  
  S  C  46   0.03078     0.11810     0.00062    -0.00030     0.00453    -0.04727
 PX  C  46   0.00799     0.02875     0.00014    -0.00006     0.00069    -0.00295
 PY  C  46   0.00683     0.02412     0.00011    -0.00005     0.00037     0.00026
 PZ  C  46   0.00754     0.02925     0.00015    -0.00007     0.00101    -0.00988
  
  S  C  47   0.01270     0.05161     0.00029    -0.00015     0.00278    -0.03657
 PX  C  47   0.00172     0.00630     0.00003    -0.00001     0.00015    -0.00005
 PY  C  47   0.00454     0.01769     0.00009    -0.00005     0.00072    -0.00738
 PZ  C  47   0.00053     0.00189     0.00001    -0.00000    -0.00002     0.00139
  
  S  C  48   0.00594     0.02509     0.00015    -0.00008     0.00170    -0.02579
 PX  C  48   0.00145     0.00586     0.00003    -0.00002     0.00032    -0.00411
 PY  C  48   0.00101     0.00391     0.00002    -0.00001     0.00014    -0.00100
 PZ  C  48   0.00154     0.00645     0.00004    -0.00002     0.00039    -0.00552
  
  S  C  49   0.00242     0.01066     0.00006    -0.00004     0.00087    -0.01468
 PX  C  49   0.00050     0.00212     0.00001    -0.00001     0.00015    -0.00231
 PY  C  49   0.00100     0.00430     0.00003    -0.00001     0.00032    -0.00511
 PZ  C  49   0.00030     0.00127     0.00001    -0.00000     0.00009    -0.00130
  
  S  S  50   0.00060    -0.00065     0.13426    -0.01889    -0.01400    -0.00011
 PX  S  50  -0.00011     0.00013    -0.03186     0.00516     0.00728    -0.00250
 PY  S  50  -0.00025     0.00031    -0.07466     0.01302     0.01765    -0.00603
 PZ  S  50   0.00027    -0.00025     0.03501    -0.04192     0.00055    -0.00501
  
  S  C  51   0.00097    -0.00122     0.30006    -0.03303    -0.07499     0.03323
 PX  C  51  -0.00006     0.00009    -0.02309     0.00797     0.00957    -0.00590
 PY  C  51  -0.00016     0.00022    -0.05741     0.02479     0.02368    -0.01349
 PZ  C  51   0.00041    -0.00047     0.09324    -0.09557    -0.02772     0.00604
  
  S  C  52   0.00042    -0.00061     0.18964     0.15395    -0.03036     0.02200
 PX  C  52  -0.00000    -0.00000     0.00245     0.01647     0.00315    -0.00231
 PY  C  52  -0.00001     0.00001     0.00448     0.04428     0.00847    -0.00544
 PZ  C  52   0.00016    -0.00019     0.03011    -0.10054    -0.02522     0.01120
  
  S  C  53   0.00024    -0.00045     0.20212     0.47026     0.02627    -0.00646
 PX  C  53  -0.00000    -0.00000     0.00204     0.01195     0.00207    -0.00151
 PY  C  53  -0.00000    -0.00001     0.00784     0.04055     0.00632    -0.00405
 PZ  C  53   0.00001     0.00002    -0.02813    -0.13981    -0.01909     0.00913
  
  S  O  54   0.00017    -0.00032     0.15077     0.37915     0.02587    -0.00918
 PX  O  54  -0.00003     0.00006    -0.02908    -0.07357    -0.00507     0.00176
 PY  O  54  -0.00006     0.00012    -0.05676    -0.14211    -0.00958     0.00327
 PZ  O  54  -0.00000     0.00001    -0.00626    -0.02983    -0.00425     0.00211
  
  S  O  55   0.00018    -0.00039     0.19678     0.54827     0.04435    -0.01603
 PX  O  55   0.00002    -0.00004     0.02288     0.06594     0.00572    -0.00230
 PY  O  55   0.00004    -0.00008     0.04059     0.11863     0.01060    -0.00440
 PZ  O  55   0.00004    -0.00008     0.03639     0.09084     0.00543    -0.00104
  
  S  C  56   0.00026    -0.00038     0.11791     0.07551    -0.02773     0.02336
 PX  C  56   0.00003    -0.00004     0.01316     0.01828     0.00005    -0.00068
 PY  C  56   0.00005    -0.00008     0.02828     0.04145     0.00015    -0.00082
 PZ  C  56   0.00009    -0.00011     0.02437    -0.02906    -0.01241     0.00653
  
  S  N  57   0.00011    -0.00017     0.05170     0.02468    -0.01665     0.01595
 PX  N  57   0.00002    -0.00003     0.01096     0.00789    -0.00278     0.00256
 PY  N  57   0.00005    -0.00007     0.02313     0.01676    -0.00599     0.00581
 PZ  N  57   0.00004    -0.00006     0.01518    -0.00404    -0.00649     0.00504
  
  S  H  58   0.00086    -0.00055     0.02376    -0.01453     0.04638    -0.02273
  
  S  H  59   0.00000    -0.00000     0.00105    -0.00060    -0.00170     0.00556
  
  S  H  60   0.00000    -0.00000     0.00075    -0.00044    -0.00130     0.00445
  
  S  H  61   0.00000    -0.00000     0.00105    -0.00060    -0.00170     0.00556
  
  S  H  62   0.00000    -0.00001     0.00234    -0.00128    -0.00325     0.00957
  
  S  H  63   0.00000    -0.00001     0.00235    -0.00128    -0.00325     0.00957
  
  S  H  64   0.00001    -0.00002     0.00473    -0.00241    -0.00538     0.01360
  
  S  H  65   0.00001    -0.00002     0.00472    -0.00242    -0.00537     0.01358
  
  S  H  66   0.00002    -0.00003     0.00904    -0.00432    -0.00814     0.01678
  
  S  H  67   0.00002    -0.00003     0.00907    -0.00428    -0.00818     0.01684
  
  S  H  68   0.00004    -0.00006     0.01756    -0.00750    -0.01212     0.01928
  
  S  H  69   0.00004    -0.00006     0.01738    -0.00772    -0.01193     0.01906
  
  S  H  70   0.00009    -0.00012     0.03213    -0.01361    -0.01701     0.02017
  
  S  H  71   0.00009    -0.00012     0.03272    -0.01270    -0.01768     0.02094
  
  S  H  72   0.00021    -0.00027     0.06917    -0.02268    -0.02747     0.02228
  
  S  H  73   0.00022    -0.00028     0.06649    -0.02767    -0.02430     0.01904
  
  S  H  74   0.00038    -0.00045     0.10285    -0.04434    -0.02902     0.01441
  
  S  H  75   0.00030    -0.00039     0.09801    -0.03203    -0.03418     0.02128
  
  S  H  76   0.00217    -0.00122     0.02814    -0.01866     0.08204    -0.03009
  
  S  H  77   0.00700    -0.00318     0.00903    -0.00800     0.09270    -0.00623
  
  S  H  78   0.00768    -0.00351     0.00724    -0.00690     0.09164    -0.00723
  
  S  H  79   0.00212    -0.00114     0.01253    -0.00982     0.07793    -0.02497
  
  S  H  80   0.01905    -0.00727     0.00295    -0.00329     0.06578     0.03699
  
  S  H  81   0.04350    -0.00906     0.00024    -0.00064     0.02545     0.06920
  
  S  H  82   0.03246    -0.01325     0.00243    -0.00287     0.05945     0.01512
  
  S  H  83   0.12225    -0.04629    -0.00174     0.00127    -0.02209    -0.08338
  
  S  H  84   0.05108    -0.02072    -0.00086     0.00072    -0.01806    -0.08598
  
  S  H  85   0.06612    -0.02623    -0.00109     0.00090    -0.02138    -0.09525
  
  S  H  86   0.04859    -0.01952    -0.00094     0.00086    -0.02305    -0.09547
  
  S  H  87   0.04881    -0.01940    -0.00094     0.00086    -0.02315    -0.09452
  
  S  H  88   0.07252    -0.02616    -0.00131     0.00115    -0.02743    -0.08242
  
  S  H  89   0.05884    -0.01972    -0.00108     0.00097    -0.02405    -0.06961
  
  S  H  90   0.14089    -0.04664    -0.00219     0.00173    -0.03239    -0.05511
  
  S  H  91   0.04113     0.00889    -0.00038     0.00029    -0.00241     0.07825
  
  S  H  92   0.02082     0.04543     0.00010     0.00001    -0.00099     0.03951
  
  S  H  93   0.05401     0.01747    -0.00061     0.00057    -0.01140     0.04488
  
  S  H  94   0.01107     0.03212     0.00012    -0.00004     0.00011    -0.01773
  
  S  H  95   0.00517     0.02009     0.00011    -0.00005     0.00084    -0.02534
  
  S  H  96   0.00521     0.02122     0.00012    -0.00006     0.00102    -0.02731
  
  S  H  97   0.01230     0.04832     0.00026    -0.00013     0.00189    -0.03356
  
  S  H  98   0.02047     0.07497     0.00037    -0.00017     0.00223    -0.01675
  
  S  H  99   0.01969     0.07546     0.00039    -0.00019     0.00264    -0.02708
  
  S  H 100   0.01423     0.05464     0.00029    -0.00014     0.00206    -0.02251
  
  S  H 101   0.01506     0.05523     0.00028    -0.00013     0.00183    -0.01646
  
  S  H 102   0.00550     0.02215     0.00012    -0.00006     0.00116    -0.01495
  
  S  H 103   0.00542     0.02211     0.00012    -0.00007     0.00119    -0.01587
  
  S  H 104   0.00266     0.01117     0.00006    -0.00004     0.00073    -0.01097
  
  S  H 105   0.00269     0.01119     0.00006    -0.00004     0.00072    -0.01069
  
  S  H 106   0.00106     0.00464     0.00003    -0.00002     0.00037    -0.00627
  
  S  H 107   0.00106     0.00464     0.00003    -0.00002     0.00038    -0.00632
  
  S  H 108   0.00075     0.00334     0.00002    -0.00001     0.00029    -0.00504
  
  S  H 109   0.00007    -0.00016     0.08147     0.23118     0.01953    -0.00755




    ROOT NO.    7           8           9          10          11          12

           -43.07412   -42.76869   -42.60612   -41.69827   -41.27470   -40.21566
  
  
  S  C   1   0.07192     0.13065    -0.03052     0.08968    -0.03348     0.03758
 PX  C   1   0.02666     0.04775    -0.01107     0.03099    -0.01128     0.01180
 PY  C   1   0.00746     0.01310    -0.00300     0.00785    -0.00276     0.00257
 PZ  C   1  -0.00001    -0.00001     0.00000    -0.00000     0.00000    -0.00000
  
  S  C   2   0.12321     0.21887    -0.05050     0.13809    -0.04973     0.05059
 PX  C   2   0.00840     0.01247    -0.00257     0.00188     0.00028    -0.00304
 PY  C   2   0.03087     0.05345    -0.01215     0.03025    -0.01034     0.00889
 PZ  C   2  -0.00001    -0.00002     0.00000     0.00000    -0.00000    -0.00001
  
  S  C   3   0.16700     0.28594    -0.06464     0.15565    -0.05235     0.04330
 PX  C   3   0.02917     0.04494    -0.00952     0.01281    -0.00235    -0.00353
 PY  C   3  -0.01271    -0.02550     0.00624    -0.02244     0.00896    -0.01131
 PZ  C   3  -0.00004    -0.00003     0.00000     0.00005    -0.00003    -0.00002
  
  S  C   4   0.19397     0.31345    -0.06854     0.13069    -0.03780     0.01571
 PX  C   4  -0.01081    -0.02623     0.00687    -0.02968     0.01216    -0.01496
 PY  C   4   0.03087     0.04416    -0.00891     0.00598     0.00067    -0.00703
 PZ  C   4  -0.00017    -0.00016     0.00002     0.00019    -0.00011    -0.00007
  
  S  C   5   0.20263     0.29989    -0.06211     0.07171    -0.01147    -0.01872
 PX  C   5   0.01842     0.01469    -0.00135    -0.02143     0.01068    -0.01493
 PY  C   5  -0.02750    -0.04969     0.01149    -0.02930     0.00969    -0.00634
 PZ  C   5  -0.00031    -0.00003    -0.00005     0.00103    -0.00051    -0.00025
  
  S  C   6   0.19166     0.24638    -0.04620    -0.00586     0.01830    -0.04491
 PX  C   6  -0.02612    -0.05128     0.01218    -0.03094     0.00936    -0.00261
 PY  C   6   0.01985     0.01342    -0.00076    -0.02258     0.01017    -0.01088
 PZ  C   6  -0.00178    -0.00085    -0.00008     0.00405    -0.00204    -0.00087
  
  S  C   7   0.15932     0.15386    -0.02182    -0.08221     0.04138    -0.04891
 PX  C   7  -0.00128    -0.02816     0.00882    -0.03529     0.01065    -0.00191
 PY  C   7  -0.03388    -0.05225     0.01088    -0.00756    -0.00134     0.01001
 PZ  C   7  -0.00490    -0.00078    -0.00077     0.01534    -0.00752    -0.00438
  
  S  C   8   0.11116     0.04506     0.00447    -0.12849     0.04765    -0.03429
 PX  C   8  -0.03127    -0.04479     0.00879     0.00343    -0.00584     0.01216
 PY  C   8   0.00131    -0.03357     0.01066    -0.03468     0.00786     0.00392
 PZ  C   8  -0.01806    -0.00433    -0.00226     0.04902    -0.02363    -0.01333
  
  S  N   9   0.05568    -0.08574     0.03620    -0.18786     0.06059     0.03059
 PX  N   9  -0.01718    -0.01621     0.00220     0.00834    -0.00316     0.01366
 PY  N   9  -0.02652    -0.03144     0.00543     0.00238    -0.00011     0.03072
 PZ  N   9  -0.03907    -0.00738    -0.00566     0.11328    -0.05450    -0.03632
  
  S  C  10  -0.13265    -0.08216     0.00015     0.24260    -0.11576    -0.04107
 PX  C  10  -0.00221     0.00352    -0.00091    -0.01933     0.01467     0.02131
 PY  C  10  -0.00637     0.01568    -0.00451    -0.04174     0.03540     0.05045
 PZ  C  10  -0.08759     0.01590    -0.02184     0.24547    -0.10582    -0.07310
  
  S  O  11  -0.18912    -0.05725    -0.01949     0.46656    -0.22086    -0.13726
 PX  O  11  -0.01687    -0.00376    -0.00196     0.03396    -0.01439    -0.00545
 PY  O  11  -0.04177    -0.00450    -0.00613     0.07999    -0.03167    -0.01057
 PZ  O  11   0.05253     0.02543     0.00284    -0.13546     0.06782     0.04389
  
  S  C  12  -0.10097    -0.02964    -0.00736     0.08545    -0.01218     0.06422
 PX  C  12   0.00297     0.01036    -0.00246    -0.00667     0.00672     0.00461
 PY  C  12   0.00535     0.02806    -0.00710    -0.01335     0.01625     0.01092
 PZ  C  12  -0.04608     0.02090    -0.01417     0.08483    -0.02351    -0.00620
  
  S  C  13  -0.12050     0.03981    -0.02987     0.08868     0.01592     0.07990
 PX  C  13   0.01526     0.00078     0.00233    -0.02097     0.00588    -0.00323
 PY  C  13   0.02967     0.00413     0.00382    -0.04167     0.01260    -0.00649
 PZ  C  13  -0.02229     0.03039    -0.01149    -0.00039     0.01708     0.01317
  
  S  C  14  -0.14594     0.12356    -0.05375     0.00541     0.08441     0.10235
 PX  C  14   0.00914    -0.00075     0.00172    -0.01493     0.00563     0.00271
 PY  C  14   0.01027     0.00027     0.00164    -0.01771     0.00708     0.00319
 PZ  C  14   0.00501     0.03816    -0.00739    -0.07444     0.04118     0.00599
  
  S  C  15  -0.10418     0.10738    -0.04223    -0.02585     0.07309     0.06362
 PX  C  15  -0.03686     0.04073    -0.01561    -0.01567     0.03121     0.02801
 PY  C  15   0.00021     0.00634    -0.00144    -0.01380     0.00989     0.00770
 PZ  C  15   0.01560     0.01929    -0.00106    -0.05977     0.02401    -0.00458
  
  S  C  16  -0.02433     0.08096    -0.02042    -0.09874     0.05639     0.00240
 PX  C  16  -0.01132     0.03387    -0.00883    -0.04152     0.02576     0.00499
 PY  C  16  -0.00437     0.00778    -0.00247    -0.00792     0.00746     0.00490
 PZ  C  16   0.04551    -0.03347     0.01649    -0.00644    -0.03084    -0.04025
  
  S  C  17   0.04652     0.04673     0.00226    -0.13429     0.01797    -0.06138
 PX  C  17  -0.00450     0.00572    -0.00196    -0.00475     0.00589     0.00566
 PY  C  17  -0.00505     0.00556    -0.00207    -0.00323     0.00531     0.00520
 PZ  C  17   0.07222    -0.06991     0.02960     0.02673    -0.06753    -0.06165
  
  S  C  18  -0.01817     0.08270    -0.01931    -0.11429     0.06248     0.00659
 PX  C  18   0.00517    -0.02799     0.00629     0.03931    -0.01945     0.00191
 PY  C  18  -0.00069    -0.00197     0.00021     0.00407    -0.00079     0.00223
 PZ  C  18   0.04356    -0.03985     0.01761     0.00937    -0.03934    -0.04232
  
  S  C  19  -0.08516     0.11223    -0.03991    -0.06985     0.09227     0.07212
 PX  C  19   0.03462    -0.04275     0.01561     0.02219    -0.03317    -0.02588
 PY  C  19   0.00628    -0.00691     0.00260     0.00234    -0.00441    -0.00282
 PZ  C  19   0.01363     0.00999     0.00082    -0.03939     0.01094    -0.01150
  
  S  C  20   0.21787    -0.12380     0.07139    -0.04468    -0.13388    -0.16442
 PX  C  20  -0.00423     0.00535    -0.00133    -0.00423     0.00324     0.00309
 PY  C  20  -0.00406     0.00556    -0.00105    -0.00437     0.00274     0.00381
 PZ  C  20   0.06643    -0.06734     0.02614     0.04423    -0.05323    -0.01904
  
  S  C  21   0.19285    -0.13299     0.06417     0.00327    -0.12312    -0.12950
 PX  C  21   0.03699    -0.02411     0.01269    -0.00110    -0.02369    -0.02246
 PY  C  21   0.06052    -0.03961     0.02058    -0.00137    -0.03815    -0.03605
 PZ  C  21   0.03214    -0.03635     0.01130     0.02892    -0.01980     0.00030
  
  S  C  22   0.14251    -0.12621     0.04188     0.05389    -0.06430    -0.04379
 PX  C  22   0.03722    -0.02970     0.01222     0.01174    -0.01771    -0.00402
 PY  C  22   0.05443    -0.04451     0.01719     0.01953    -0.02294    -0.00091
 PZ  C  22  -0.05639     0.02940    -0.02405     0.01413     0.05772     0.06016
  
  S  C  23   0.10739    -0.11953     0.02164     0.10728     0.02899     0.12506
 PX  C  23   0.01729    -0.00758     0.00903     0.00260    -0.00968     0.01574
 PY  C  23   0.01463    -0.00589     0.00761     0.00852     0.00154     0.04238
 PZ  C  23  -0.11165     0.06428    -0.04855     0.02113     0.12251     0.12938
  
  S  C  24   0.17016    -0.12563     0.06261     0.05310    -0.08047     0.02238
 PX  C  24  -0.02161     0.02328    -0.00409    -0.01710    -0.00124    -0.01226
 PY  C  24  -0.04266     0.04363    -0.00927    -0.02858     0.00359    -0.01529
 PZ  C  24  -0.06042     0.03983    -0.02148     0.01552     0.06570     0.09954
  
  S  C  25   0.19956    -0.12912     0.07121    -0.00245    -0.13255    -0.11264
 PX  C  25  -0.04052     0.02959    -0.01344    -0.00444     0.02462     0.02143
 PY  C  25  -0.06374     0.04566    -0.02083    -0.00491     0.03782     0.03458
 PZ  C  25   0.02215    -0.02534     0.01039     0.02777    -0.01457     0.02096
  
  S  C  26   0.03154     0.01764     0.03461    -0.03579    -0.06548    -0.02215
 PX  C  26  -0.00421     0.00628    -0.00032    -0.01575    -0.01631    -0.04357
 PY  C  26  -0.01450     0.03346     0.00573    -0.05211    -0.04894    -0.10121
 PZ  C  26  -0.03308     0.03998    -0.00452    -0.03185    -0.00552    -0.03120
  
  S  C  27   0.00122     0.05868     0.03170    -0.09658    -0.11244    -0.15756
 PX  C  27   0.00028    -0.00398    -0.00184     0.00439     0.00427     0.00263
 PY  C  27  -0.00304    -0.01161    -0.00859     0.01739     0.02186     0.01858
 PZ  C  27  -0.01074     0.02395     0.00406    -0.03033    -0.02484    -0.04818
  
  S  C  28  -0.01842     0.07509     0.02441    -0.10980    -0.10908    -0.18316
 PX  C  28   0.00373    -0.00882    -0.00151     0.01055     0.00827     0.01460
 PY  C  28   0.00703    -0.02143    -0.00557     0.02694     0.02351     0.03685
 PZ  C  28  -0.00105    -0.01160    -0.00709     0.01905     0.02312     0.02918
  
  S  C  29  -0.03832     0.07646     0.00899    -0.08784    -0.06309    -0.12559
 PX  C  29   0.00739    -0.00008     0.00616    -0.00723    -0.01516    -0.01569
 PY  C  29   0.00634     0.00818     0.00909    -0.02310    -0.03302    -0.04888
 PZ  C  29   0.00809    -0.02400    -0.00644     0.02729     0.02264     0.03094
  
  S  C  30  -0.04830     0.05271    -0.00943    -0.01455     0.03329     0.05009
 PX  C  30   0.01215     0.01351     0.01697    -0.03006    -0.04398    -0.04372
 PY  C  30   0.02035     0.02154     0.02582    -0.06582    -0.09533    -0.13594
 PZ  C  30  -0.02261     0.02298    -0.00686    -0.02964    -0.01511    -0.06730
  
  S  N  31  -0.10864     0.01263    -0.07152     0.10974     0.22149     0.25834
 PX  N  31   0.03833    -0.01056     0.02304    -0.01165    -0.04253    -0.01097
 PY  N  31   0.01510    -0.00234     0.00861     0.00635     0.00220     0.04871
 PZ  N  31  -0.03833     0.03217    -0.01343    -0.03153    -0.00575    -0.06607
  
  S  C  32  -0.21589     0.08879    -0.10521    -0.00615     0.11912    -0.07842
 PX  C  32   0.02022    -0.01852     0.00474     0.03875     0.04929     0.10140
 PY  C  32   0.01820    -0.01450    -0.00335     0.03075     0.04311     0.09600
 PZ  C  32  -0.02497     0.02413    -0.00534    -0.04249    -0.04750    -0.10293
  
  S  C  33  -0.17718     0.08440    -0.06047    -0.04280     0.03014    -0.17584
 PX  C  33   0.04269    -0.02634     0.00804     0.02687     0.02057     0.07334
 PY  C  33  -0.04268     0.01441    -0.02837     0.00397     0.03256    -0.00244
 PZ  C  33  -0.03498     0.02404    -0.00545    -0.02631    -0.02172    -0.06477
  
  S  C  34  -0.14635     0.08990     0.00752    -0.06692    -0.04403    -0.17761
 PX  C  34  -0.00351    -0.00515    -0.02847     0.00477     0.02165    -0.01972
 PY  C  34  -0.06808     0.03461    -0.03221    -0.03196    -0.01479    -0.08817
 PZ  C  34   0.00652     0.00240     0.02282    -0.00392    -0.02034     0.02224
  
  S  C  35  -0.10911     0.08305     0.05485    -0.08552    -0.14319    -0.05743
 PX  C  35  -0.05780     0.02362    -0.04765    -0.01369     0.03501    -0.12081
 PY  C  35  -0.03428     0.00705    -0.07743    -0.02824    -0.01963    -0.06992
 PZ  C  35   0.05009    -0.02088     0.03793     0.00973    -0.03585     0.10836
  
  S  C  36  -0.11465     0.05642    -0.09701    -0.08849    -0.09637    -0.15152
 PX  C  36  -0.06511     0.03843     0.00243    -0.01692     0.01355    -0.07840
 PY  C  36   0.01652    -0.01880    -0.03566     0.02126     0.05466    -0.01805
 PZ  C  36   0.05373    -0.03108    -0.00091     0.01182    -0.01713     0.06818
  
  S  C  37  -0.17238     0.08129    -0.10388    -0.05585     0.02086    -0.17208
 PX  C  37  -0.02567     0.01140    -0.00076     0.01182     0.03680     0.01993
 PY  C  37   0.06328    -0.03356     0.02191     0.03188     0.02053     0.08682
 PZ  C  37   0.01578    -0.00545    -0.00150    -0.01430    -0.03359    -0.02534
  
  S  C  38   0.07171    -0.08481    -0.22962     0.00162     0.01958    -0.05028
 PX  C  38  -0.05205     0.04790     0.07093    -0.03600    -0.07311     0.00582
 PY  C  38  -0.00051    -0.01032    -0.04171     0.01679     0.06327    -0.06013
 PZ  C  38   0.04325    -0.03925    -0.05743     0.02804     0.05472     0.00012
  
  S  C  39   0.09538    -0.11193    -0.26938     0.04490     0.13094    -0.10006
 PX  C  39  -0.02284     0.02231     0.03684    -0.01669    -0.03683     0.00890
 PY  C  39  -0.03702     0.04032     0.09080    -0.01396    -0.03532     0.02081
 PZ  C  39   0.02115    -0.02093    -0.03621     0.01449     0.03220    -0.00839
  
  S  C  40   0.11069    -0.12307    -0.26929     0.06309     0.16531    -0.09429
 PX  C  40   0.01807    -0.02055    -0.04788     0.00809     0.02228    -0.01562
 PY  C  40  -0.04076     0.04336     0.08981    -0.02216    -0.05372     0.02309
 PZ  C  40  -0.01221     0.01407     0.03344    -0.00527    -0.01499     0.01144
  
  S  C  41   0.11580    -0.12373    -0.25471     0.06813     0.16785    -0.07503
 PX  C  41   0.03648    -0.03860    -0.07989     0.01913     0.04600    -0.01954
 PY  C  41  -0.00127    -0.00146    -0.01149    -0.00087     0.00354    -0.01278
 PZ  C  41  -0.02975     0.03155     0.06548    -0.01575    -0.03816     0.01687
  
  S  C  42   0.11848    -0.11173    -0.18958     0.06558     0.13391    -0.01186
 PX  C  42   0.01811    -0.01272    -0.01084     0.00484    -0.00093     0.02095
 PY  C  42   0.03828    -0.04704    -0.11615     0.01993     0.05907    -0.04429
 PZ  C  42  -0.01761     0.01315     0.01348    -0.00631    -0.00512    -0.01392
  
  S  C  43   0.11327    -0.08804    -0.11206     0.02909     0.01020     0.08802
 PX  C  43  -0.02395     0.03146     0.06858    -0.03256    -0.09140     0.05297
 PY  C  43   0.02280    -0.04502    -0.15586     0.00839     0.05613    -0.08788
 PZ  C  43   0.01767    -0.02375    -0.05339     0.02326     0.06519    -0.03596
  
  S  N  44   0.04318     0.02361     0.22506    -0.00688    -0.13422     0.24156
 PX  N  44  -0.02602     0.01383    -0.01554    -0.02055    -0.02637    -0.03144
 PY  N  44   0.00053    -0.01065    -0.07010    -0.02939    -0.06200     0.00483
 PZ  N  44   0.01391    -0.01597    -0.03303     0.01074     0.02466    -0.00227
  
  S  C  45   0.03906     0.02693     0.27311     0.06469     0.07096     0.09777
 PX  C  45  -0.00824     0.00346    -0.01570    -0.01903    -0.04581     0.02402
 PY  C  45   0.01043     0.00267     0.03611    -0.01033    -0.05733     0.08423
 PZ  C  45   0.00038    -0.00856    -0.04722    -0.01293    -0.02808     0.01481
  
  S  C  46   0.03420     0.02753     0.28301     0.10646     0.21309    -0.06058
 PX  C  46   0.00063     0.00402     0.01905    -0.00539    -0.02574     0.03775
 PY  C  46  -0.00115    -0.00288    -0.02981    -0.02544    -0.07325     0.06651
 PZ  C  46   0.00719     0.00174     0.03162     0.00548    -0.00297     0.03157
  
  S  C  47   0.02850     0.02452     0.26203     0.12850     0.30497    -0.19186
 PX  C  47  -0.00046     0.00023    -0.00358    -0.00791    -0.02612     0.03184
 PY  C  47   0.00530     0.00394     0.04094     0.01299     0.02087     0.00791
 PZ  C  47  -0.00129    -0.00219    -0.02103    -0.01470    -0.04187     0.04127
  
  S  C  48   0.02094     0.01881     0.20452     0.11379     0.28925    -0.22430
 PX  C  48   0.00315     0.00298     0.03044     0.01433     0.03329    -0.01887
 PY  C  48   0.00058     0.00030     0.00232    -0.00237    -0.01085     0.01897
 PZ  C  48   0.00439     0.00364     0.03996     0.02043     0.04925    -0.03215
  
  S  C  49   0.01224     0.01122     0.12360     0.07392     0.19478    -0.16649
 PX  C  49   0.00187     0.00174     0.01865     0.01035     0.02629    -0.02023
 PY  C  49   0.00419     0.00378     0.04140     0.02368     0.06094    -0.04873
 PZ  C  49   0.00106     0.00089     0.00984     0.00528     0.01307    -0.00924
  
  S  S  50  -0.01344    -0.03612     0.00961    -0.05267     0.02811     0.06084
 PX  S  50  -0.00187     0.00910    -0.00329     0.01894    -0.00772    -0.01091
 PY  S  50  -0.00436     0.02217    -0.00795     0.04462    -0.01789    -0.02539
 PZ  S  50  -0.01504    -0.01050     0.00075     0.00605     0.00094     0.01347
  
  S  C  51   0.04920    -0.05979     0.02853    -0.21489     0.08962     0.08238
 PX  C  51  -0.01349    -0.00219    -0.00173     0.02489    -0.00989     0.00191
 PY  C  51  -0.02850     0.00086    -0.00540     0.05929    -0.02284     0.00231
 PZ  C  51  -0.00065    -0.02973     0.00896    -0.02411     0.00498     0.00873
  
  S  C  52   0.04623    -0.01090     0.01273    -0.15261     0.06925     0.04316
 PX  C  52  -0.00686    -0.00510     0.00041     0.00724    -0.00329     0.00706
 PY  C  52  -0.01452    -0.00767    -0.00015     0.02032    -0.00884     0.01235
 PZ  C  52   0.01917    -0.01246     0.00751    -0.06215     0.02545     0.02211
  
  S  C  53  -0.01201    -0.00113    -0.00137     0.01005    -0.00225     0.01485
 PX  C  53  -0.00446    -0.00320     0.00022     0.00520    -0.00223     0.01500
 PY  C  53  -0.01077    -0.00518    -0.00033     0.01810    -0.00801     0.02540
 PZ  C  53   0.01710    -0.00870     0.00620    -0.06520     0.03009     0.03821
  
  S  O  54  -0.02100    -0.00768    -0.00104     0.02520    -0.00929     0.04949
 PX  O  54   0.00385     0.00096     0.00034    -0.00547     0.00211    -0.00620
 PY  O  54   0.00723     0.00216     0.00050    -0.00913     0.00338    -0.01331
 PZ  O  54   0.00389    -0.00229     0.00152    -0.01587     0.00736     0.00966
  
  S  O  55  -0.02828     0.01470    -0.00996     0.09495    -0.04264    -0.06677
 PX  O  55  -0.00448     0.00112    -0.00120     0.01330    -0.00601    -0.00532
 PY  O  55  -0.00871     0.00199    -0.00228     0.02614    -0.01190    -0.00998
 PZ  O  55  -0.00097     0.00198    -0.00071     0.00132     0.00011    -0.00347
  
  S  C  56   0.06062     0.02066     0.00506    -0.13503     0.06425     0.00401
 PX  C  56  -0.00433    -0.00795     0.00180    -0.00235     0.00010     0.00510
 PY  C  56  -0.00595    -0.01159     0.00269    -0.00376     0.00015     0.00869
 PZ  C  56   0.01365    -0.00052     0.00261    -0.02887     0.01154     0.00766
  
  S  N  57   0.04615     0.02674     0.00027    -0.08655     0.04351    -0.00685
 PX  N  57   0.00673     0.00213     0.00065    -0.01697     0.00829    -0.00054
 PY  N  57   0.01624     0.00781     0.00065    -0.03453     0.01713    -0.00204
 PZ  N  57   0.01396     0.00779     0.00008    -0.02212     0.01052    -0.00070
  
  S  H  58  -0.03721     0.01579    -0.01009     0.01977     0.01120     0.03171
  
  S  H  59   0.03085     0.05599    -0.01307     0.03833    -0.01430     0.01603
  
  S  H  60   0.02491     0.04560    -0.01070     0.03218    -0.01216     0.01407
  
  S  H  61   0.03083     0.05596    -0.01307     0.03832    -0.01430     0.01602
  
  S  H  62   0.05157     0.09138    -0.02106     0.05712    -0.02050     0.02065
  
  S  H  63   0.05160     0.09142    -0.02106     0.05712    -0.02049     0.02066
  
  S  H  64   0.07033     0.12011    -0.02712     0.06480    -0.02172     0.01786
  
  S  H  65   0.07025     0.12002    -0.02710     0.06485    -0.02175     0.01784
  
  S  H  66   0.08153     0.13148    -0.02872     0.05449    -0.01574     0.00639
  
  S  H  67   0.08172     0.13165    -0.02873     0.05421    -0.01559     0.00647
  
  S  H  68   0.08552     0.12592    -0.02600     0.02912    -0.00440    -0.00752
  
  S  H  69   0.08490     0.12561    -0.02602     0.03050    -0.00511    -0.00779
  
  S  H  70   0.07971     0.10311    -0.01946    -0.00002     0.00639    -0.01917
  
  S  H  71   0.08186     0.10398    -0.01931    -0.00538     0.00908    -0.01802
  
  S  H  72   0.07075     0.06467    -0.00841    -0.04622     0.02293    -0.01697
  
  S  H  73   0.06249     0.06300    -0.00954    -0.02330     0.01191    -0.02242
  
  S  H  74   0.03554     0.01950    -0.00054    -0.02044     0.00469    -0.02354
  
  S  H  75   0.05411     0.02505     0.00148    -0.07126     0.02964    -0.00947
  
  S  H  76  -0.04231     0.02830    -0.01381     0.01749     0.01251     0.01920
  
  S  H  77   0.00557     0.01451    -0.00141    -0.02949     0.00674    -0.01193
  
  S  H  78   0.00825     0.01525    -0.00077    -0.03605     0.00888    -0.00994
  
  S  H  79  -0.02820     0.03219    -0.01223    -0.01473     0.02676     0.02550
  
  S  H  80   0.05435    -0.03343     0.01751    -0.00771    -0.03445    -0.04529
  
  S  H  81   0.02246    -0.02827     0.00395     0.01742    -0.00474    -0.01230
  
  S  H  82   0.05702    -0.03093     0.02084    -0.01183    -0.04010    -0.04075
  
  S  H  83   0.01244     0.00782     0.01414    -0.01593    -0.02796    -0.01242
  
  S  H  84   0.00269     0.01841     0.01173    -0.03374    -0.04176    -0.05919
  
  S  H  85   0.00253     0.02017     0.01247    -0.03530    -0.04302    -0.05896
  
  S  H  86  -0.00630     0.02687     0.00898    -0.04052    -0.04096    -0.07033
  
  S  H  87  -0.00711     0.02719     0.00840    -0.04046    -0.04013    -0.07036
  
  S  H  88  -0.01584     0.02864     0.00232    -0.03119    -0.02021    -0.04305
  
  S  H  89  -0.01806     0.02773    -0.00065    -0.03020    -0.01771    -0.04643
  
  S  H  90  -0.02122     0.02239    -0.00541    -0.00915     0.01026     0.00858
  
  S  H  91  -0.04976     0.01982    -0.01843    -0.00303     0.02142    -0.03798
  
  S  H  92  -0.03635     0.02637     0.02296    -0.01469    -0.01055    -0.04184
  
  S  H  93  -0.05069     0.02258    -0.04143    -0.01262     0.01893    -0.04227
  
  S  H  94   0.02099    -0.02822    -0.07821     0.00964     0.03571    -0.03737
  
  S  H  95   0.03018    -0.03418    -0.07585     0.01833     0.04939    -0.03023
  
  S  H  96   0.03203    -0.03443    -0.07054     0.02024     0.05050    -0.02305
  
  S  H  97   0.03502    -0.02863    -0.03248     0.02237     0.04016     0.00849
  
  S  H  98   0.00984     0.01450     0.11119     0.02505     0.03234     0.02598
  
  S  H  99   0.02039     0.00616     0.10271     0.03110     0.04079     0.03501
  
  S  H 100   0.01702     0.00921     0.11478     0.04512     0.08908    -0.02264
  
  S  H 101   0.01095     0.01396     0.11956     0.04177     0.08450    -0.02765
  
  S  H 102   0.01153     0.01064     0.11015     0.05330     0.12643    -0.07959
  
  S  H 103   0.01246     0.00988     0.10936     0.05386     0.12722    -0.07873
  
  S  H 104   0.00890     0.00775     0.08514     0.04710     0.11917    -0.09135
  
  S  H 105   0.00862     0.00797     0.08536     0.04692     0.11893    -0.09161
  
  S  H 106   0.00522     0.00482     0.05293     0.03157     0.08313    -0.07101
  
  S  H 107   0.00527     0.00478     0.05289     0.03160     0.08318    -0.07095
  
  S  H 108   0.00424     0.00392     0.04333     0.02653     0.07071    -0.06231
  
  S  H 109  -0.01405     0.00547    -0.00439     0.04555    -0.02069    -0.02636




    ROOT NO.   13          14          15          16          17          18

           -40.14683   -39.40060   -38.18612   -38.06675   -37.34099   -36.31155
  
  
  S  C   1   0.21844    -0.13756    -0.14870    -0.03344    -0.02986     0.25624
 PX  C   1   0.06821    -0.04046    -0.03883    -0.00861    -0.00702     0.05124
 PY  C   1   0.01475    -0.00785    -0.00578    -0.00124    -0.00076     0.00206
 PZ  C   1  -0.00001     0.00001     0.00001    -0.00001     0.00000    -0.00001
  
  S  C   2   0.29206    -0.17014    -0.15912    -0.03522    -0.02840     0.20592
 PX  C   2  -0.01869     0.01865     0.03191     0.00744     0.00798    -0.08405
 PY  C   2   0.05063    -0.02484    -0.01448    -0.00299    -0.00120    -0.00732
 PZ  C   2  -0.00002     0.00002     0.00003    -0.00004    -0.00000     0.00000
  
  S  C   3   0.24604    -0.11768    -0.06675    -0.01380    -0.00578    -0.02189
 PX  C   3  -0.02263     0.02770     0.04895     0.01135     0.01177    -0.11410
 PY  C   3  -0.06607     0.04343     0.04762     0.01065     0.00926    -0.07291
 PZ  C   3  -0.00001     0.00006     0.00009    -0.00017    -0.00002     0.00005
  
  S  C   4   0.08238     0.00325     0.07699     0.01877     0.02248    -0.23663
 PX  C   4  -0.08698     0.05285     0.04588     0.01018     0.00676    -0.02531
 PY  C   4  -0.04270     0.03706     0.04810     0.01082     0.00946    -0.06875
 PZ  C   4   0.00001     0.00020     0.00029    -0.00067    -0.00008     0.00029
  
  S  C   5  -0.11779     0.12190     0.16576     0.03695     0.03204    -0.22247
 PX  C   5  -0.08679     0.04974     0.03013     0.00623     0.00152     0.03741
 PY  C   5  -0.03500     0.00867    -0.01424    -0.00400    -0.00586     0.07397
 PZ  C   5   0.00008     0.00084     0.00123    -0.00236    -0.00023     0.00056
  
  S  C   6  -0.26405     0.17346     0.13629     0.02632     0.01475     0.00854
 PX  C   6  -0.01110    -0.01556    -0.05006    -0.01287    -0.01285     0.11268
 PY  C   6  -0.06137     0.02575    -0.00383    -0.00444    -0.00560     0.07777
 PZ  C   6   0.00094     0.00271     0.00411    -0.00883    -0.00090     0.00218
  
  S  C   7  -0.27510     0.12915     0.02297    -0.02656    -0.01654     0.22868
 PX  C   7  -0.00252    -0.02210    -0.05194    -0.03207    -0.01479     0.08303
 PY  C   7   0.06115    -0.04395    -0.03720    -0.01821    -0.00607    -0.00041
 PZ  C   7  -0.00222     0.00938     0.00942    -0.02402    -0.00253     0.00710
  
  S  C   8  -0.16503     0.03177    -0.08145    -0.10890    -0.04117     0.26971
 PX  C   8   0.07574    -0.04295    -0.01710    -0.01883    -0.00093    -0.05643
 PY  C   8   0.03658    -0.03119    -0.02262    -0.06307    -0.01205     0.00948
 PZ  C   8  -0.00823     0.01676     0.00644    -0.03996    -0.00382     0.00226
  
  S  N   9   0.12084    -0.08355     0.03888    -0.19892    -0.02705     0.02920
 PX  N   9   0.05370    -0.01255     0.04255     0.01153     0.01044    -0.06895
 PY  N   9   0.11032    -0.02255     0.10719     0.01886     0.02249    -0.13667
 PZ  N   9  -0.04381     0.02024    -0.01892    -0.05260    -0.00630     0.00786
  
  S  C  10   0.02699    -0.00508     0.00927    -0.02155     0.01134    -0.10629
 PX  C  10   0.03245    -0.00829     0.06306     0.04375     0.01231    -0.01388
 PY  C  10   0.06590    -0.01384     0.15099     0.11629     0.03007    -0.02203
 PZ  C  10  -0.14151     0.06151    -0.17089     0.07724    -0.00246     0.00116
  
  S  O  11  -0.15896     0.06998    -0.26825    -0.00110    -0.01013    -0.09216
 PX  O  11  -0.00447     0.00304    -0.00570     0.01325     0.00254    -0.01071
 PY  O  11  -0.01318     0.00883    -0.00875     0.03865     0.00668    -0.01985
 PZ  O  11   0.04292    -0.01674     0.07724     0.02501     0.00575     0.02401
  
  S  C  12   0.12906    -0.03208     0.30055     0.19541     0.06068    -0.05589
 PX  C  12  -0.00878     0.00159     0.01176     0.02522     0.00236     0.02553
 PY  C  12  -0.02639     0.00610     0.02518     0.06488     0.00533     0.06718
 PZ  C  12  -0.05118     0.01537    -0.00050     0.08431     0.00595     0.06479
  
  S  C  13   0.04072    -0.01109     0.27981     0.29139     0.05088     0.13015
 PX  C  13  -0.00445     0.00016    -0.02158    -0.02544    -0.00616     0.00457
 PY  C  13  -0.01273     0.00163    -0.04762    -0.04959    -0.01286     0.01237
 PZ  C  13  -0.02744     0.00765    -0.01873     0.01868    -0.01045     0.07119
  
  S  C  14  -0.01481    -0.00124     0.13787     0.17725     0.00267     0.18787
 PX  C  14   0.00344    -0.00214     0.00613    -0.00405    -0.00217     0.01477
 PY  C  14   0.00323    -0.00207     0.00569    -0.00340    -0.00122     0.01174
 PZ  C  14  -0.01510    -0.00028    -0.09222    -0.11196    -0.02791    -0.02434
  
  S  C  15  -0.02405     0.00210     0.01573     0.04142    -0.01172     0.07145
 PX  C  15  -0.00634    -0.00068     0.01725     0.02188    -0.00517     0.04256
 PY  C  15   0.00269    -0.00197     0.01038     0.00369    -0.00105     0.01386
 PZ  C  15  -0.00347    -0.00200    -0.06688    -0.09227    -0.01439    -0.05040
  
  S  C  16  -0.01283    -0.00072    -0.09615    -0.11894    -0.01262    -0.08835
 PX  C  16  -0.00474    -0.00095    -0.03402    -0.04582    -0.00816    -0.02394
 PY  C  16  -0.00103    -0.00048    -0.00247    -0.00485    -0.00311     0.00330
 PZ  C  16   0.01182    -0.00070    -0.02119    -0.03554     0.01237    -0.06867
  
  S  C  17   0.00434    -0.00232    -0.13862    -0.18803    -0.00139    -0.18686
 PX  C  17  -0.00100    -0.00052     0.00004    -0.00267    -0.00691     0.01249
 PY  C  17  -0.00132    -0.00023    -0.00055    -0.00139    -0.00483     0.00738
 PZ  C  17   0.01977     0.00081     0.01499     0.01572     0.02576    -0.04697
  
  S  C  18  -0.00978    -0.00316    -0.09160    -0.12801    -0.02527    -0.05964
 PX  C  18   0.00347     0.00061     0.03761     0.04906     0.00540     0.03734
 PY  C  18   0.00015    -0.00004     0.00651     0.00806    -0.00047     0.01019
 PZ  C  18   0.01093     0.00065    -0.01595    -0.02175     0.01281    -0.06773
  
  S  C  19  -0.01725    -0.00335     0.01985     0.01678    -0.02314     0.10693
 PX  C  19   0.00783     0.00042    -0.00440    -0.00740     0.00678    -0.03127
 PY  C  19   0.00189    -0.00024     0.00366     0.00271     0.00141     0.00054
 PZ  C  19  -0.00377    -0.00046    -0.06689    -0.08623    -0.01340    -0.05850
  
  S  C  20   0.04273     0.00046    -0.03028    -0.04669     0.04481    -0.12144
 PX  C  20  -0.00102    -0.00022    -0.00421    -0.00636    -0.00959     0.00168
 PY  C  20  -0.00124    -0.00019    -0.00403    -0.00582    -0.01349     0.00424
 PZ  C  20   0.01043     0.00129     0.06833     0.09237     0.00710     0.09765
  
  S  C  21   0.03722     0.00139     0.02751     0.03400     0.06818    -0.02718
 PX  C  21   0.00644     0.00017     0.00273     0.00282     0.00297    -0.00591
 PY  C  21   0.01029     0.00030     0.00438     0.00479     0.00542    -0.00990
 PZ  C  21   0.00304     0.00065     0.04180     0.05679     0.01013     0.06984
  
  S  C  22   0.01663     0.00136     0.05746     0.07655     0.06699     0.05730
 PX  C  22   0.00230     0.00026     0.01305     0.01757    -0.00192     0.01766
 PY  C  22   0.00205     0.00036     0.01841     0.02488    -0.00536     0.02419
 PZ  C  22  -0.01698    -0.00057    -0.01486    -0.01912    -0.00841    -0.00321
  
  S  C  23  -0.02842     0.00023     0.03613     0.05106    -0.03166     0.06984
 PX  C  23  -0.00363    -0.00000     0.00549     0.00824    -0.03565     0.02377
 PY  C  23  -0.01079    -0.00019     0.00120     0.00309    -0.06121     0.02298
 PZ  C  23  -0.03762    -0.00145    -0.05324    -0.07034    -0.02656    -0.06810
  
  S  C  24  -0.00004     0.00098     0.06462     0.08919    -0.08358     0.14164
 PX  C  24   0.00245    -0.00010    -0.00563    -0.00763    -0.00318    -0.00016
 PY  C  24   0.00251    -0.00022    -0.01257    -0.01697    -0.00436    -0.00827
 PZ  C  24  -0.02762    -0.00078    -0.01906    -0.02311    -0.04748     0.00024
  
  S  C  25   0.03337     0.00106     0.03296     0.04109    -0.00511     0.03098
 PX  C  25  -0.00654    -0.00030    -0.00812    -0.01039    -0.00843     0.00065
 PY  C  25  -0.01034    -0.00039    -0.00977    -0.01199    -0.01334     0.00538
 PZ  C  25  -0.00274     0.00059     0.04067     0.05694    -0.02422     0.08805
  
  S  C  26   0.00684     0.00034     0.02274     0.03237    -0.05621     0.08159
 PX  C  26   0.01127     0.00021     0.00195     0.00166     0.02919    -0.00510
 PY  C  26   0.02588     0.00043     0.00277     0.00185     0.05371    -0.01074
 PZ  C  26   0.00675    -0.00011    -0.01452    -0.02055     0.02815    -0.04232
  
  S  C  27   0.04113     0.00085     0.01961     0.02482     0.04669     0.03748
 PX  C  27  -0.00064    -0.00001    -0.00009    -0.00018     0.00326    -0.00072
 PY  C  27  -0.00491    -0.00011    -0.00441    -0.00611     0.00862    -0.01542
 PZ  C  27   0.01209     0.00016    -0.00192    -0.00362     0.02952    -0.01822
  
  S  C  28   0.04694     0.00081     0.00680     0.00598     0.09006    -0.02275
 PX  C  28  -0.00362    -0.00004     0.00113     0.00182    -0.00589     0.00707
 PY  C  28  -0.00924    -0.00012     0.00106     0.00205    -0.01316     0.01004
 PZ  C  28  -0.00767    -0.00017    -0.00516    -0.00685    -0.00433    -0.01571
  
  S  C  29   0.03099     0.00030    -0.01240    -0.01960     0.06862    -0.06894
 PX  C  29   0.00437     0.00014     0.00530     0.00706     0.00569     0.01194
 PY  C  29   0.01301     0.00031     0.00785     0.00990     0.02212     0.00868
 PZ  C  29  -0.00766    -0.00008     0.00114     0.00187    -0.00707     0.00367
  
  S  C  30  -0.01519    -0.00069    -0.02900    -0.03852    -0.02743    -0.05587
 PX  C  30   0.01173     0.00030     0.00944     0.01256     0.00300     0.02092
 PY  C  30   0.03617     0.00086     0.02193     0.02790     0.04139     0.02719
 PZ  C  30   0.01667     0.00017    -0.00819    -0.01314     0.05387    -0.04685
  
  S  N  31  -0.07092    -0.00205    -0.06738    -0.08892    -0.01691    -0.10968
 PX  N  31   0.00392     0.00026     0.01501     0.02105    -0.03391     0.03718
 PY  N  31  -0.01266    -0.00026    -0.00328    -0.00295    -0.06267     0.00153
 PZ  N  31   0.01592     0.00007    -0.01213    -0.01834     0.04627    -0.04329
  
  S  C  32   0.01647    -0.00030    -0.03137    -0.04526     0.12411    -0.05749
 PX  C  32  -0.02690    -0.00065    -0.02091    -0.02780     0.00831    -0.03734
 PY  C  32  -0.02568    -0.00067    -0.02166    -0.02819    -0.05572    -0.06147
 PZ  C  32   0.02699     0.00059     0.01627     0.02126    -0.00157     0.02780
  
  S  C  33   0.04389     0.00064     0.00507     0.00312     0.19368     0.05601
 PX  C  33  -0.01902    -0.00039    -0.01043    -0.01337    -0.02641    -0.03092
 PY  C  33  -0.00031    -0.00016    -0.00988    -0.01371     0.00539    -0.03090
 PZ  C  33   0.01677     0.00033     0.00845     0.01079     0.01925     0.02620
  
  S  C  34   0.04580     0.00090     0.01963     0.02329     0.17896     0.10311
 PX  C  34   0.00472     0.00004    -0.00053    -0.00107     0.01651     0.00030
 PY  C  34   0.02256     0.00042     0.01001     0.01280     0.01584     0.02169
 PZ  C  34  -0.00540    -0.00006    -0.00007     0.00031    -0.01979    -0.00247
  
  S  C  35   0.01646     0.00055     0.02228     0.03065    -0.04763     0.04332
 PX  C  35   0.03032     0.00048     0.00781     0.00861     0.09410     0.04252
 PY  C  35   0.01811     0.00038     0.01566     0.02267    -0.13410    -0.01365
 PZ  C  35  -0.02715    -0.00043    -0.00661    -0.00715    -0.08598    -0.03706
  
  S  C  36   0.03982     0.00090     0.03501     0.04973    -0.23241    -0.00419
 PX  C  36   0.01957     0.00028     0.00074    -0.00095     0.09661     0.02446
 PY  C  36   0.00383    -0.00004    -0.00520    -0.00755     0.01904    -0.01309
 PZ  C  36  -0.01696    -0.00023    -0.00024     0.00141    -0.08685    -0.02096
  
  S  C  37   0.04249     0.00051     0.00317     0.00302    -0.02497    -0.02921
 PX  C  37  -0.00611    -0.00029    -0.01572    -0.02227     0.06417    -0.01931
 PY  C  37  -0.02241    -0.00045    -0.01208    -0.01569    -0.01268    -0.02668
 PZ  C  37   0.00729     0.00027     0.01332     0.01876    -0.05365     0.01512
  
  S  C  38   0.01298     0.00031     0.01903     0.02886    -0.22788    -0.03028
 PX  C  38  -0.00062     0.00010     0.00822     0.01240    -0.09122    -0.01010
 PY  C  38   0.01454     0.00016    -0.00103    -0.00279     0.07454     0.01725
 PZ  C  38  -0.00067    -0.00010    -0.00658    -0.00981     0.06686     0.00648
  
  S  C  39   0.02423     0.00031     0.00671     0.00889    -0.01285     0.00800
 PX  C  39  -0.00183     0.00003     0.00410     0.00649    -0.06538    -0.01217
 PY  C  39  -0.00499    -0.00006    -0.00224    -0.00330     0.02273     0.00296
 PZ  C  39   0.00176    -0.00002    -0.00322    -0.00509     0.05172     0.00968
  
  S  C  40   0.02226     0.00019    -0.00304    -0.00622     0.12576     0.03183
 PX  C  40   0.00378     0.00005     0.00153     0.00220    -0.01280    -0.00123
 PY  C  40  -0.00530    -0.00002     0.00231     0.00383    -0.04421    -0.00778
 PZ  C  40  -0.00278    -0.00004    -0.00139    -0.00203     0.01309     0.00145
  
  S  C  41   0.01723     0.00007    -0.00936    -0.01556     0.18443     0.03474
 PX  C  41   0.00449     0.00002    -0.00146    -0.00243     0.02716     0.00430
 PY  C  41   0.00326     0.00006     0.00252     0.00355    -0.01180     0.00321
 PZ  C  41  -0.00389    -0.00002     0.00108     0.00183    -0.02211    -0.00383
  
  S  C  42   0.00143    -0.00019    -0.01599    -0.02416     0.17337     0.01425
 PX  C  42  -0.00532    -0.00009    -0.00196    -0.00235    -0.01420    -0.00909
 PY  C  42   0.01068     0.00013     0.00143     0.00142     0.02576     0.01092
 PZ  C  42   0.00360     0.00007     0.00178     0.00226     0.00608     0.00619
  
  S  C  43  -0.02243    -0.00040    -0.00816    -0.00986    -0.04948    -0.03237
 PX  C  43  -0.01235    -0.00006     0.00698     0.01169    -0.13649    -0.02260
 PY  C  43   0.02194     0.00037     0.01226     0.01719    -0.06489     0.00566
 PZ  C  43   0.00833     0.00003    -0.00568    -0.00936     0.10281     0.01604
  
  S  N  44  -0.06011    -0.00093    -0.02334    -0.03109     0.04870    -0.02484
 PX  N  44   0.00842     0.00022     0.00965     0.01369    -0.04882     0.01010
 PY  N  44  -0.00030     0.00015     0.01558     0.02422    -0.21137    -0.02869
 PZ  N  44   0.00023    -0.00005    -0.00309    -0.00439     0.00928    -0.00807
  
  S  C  45  -0.02592    -0.00065    -0.03319    -0.04898     0.31015     0.02315
 PX  C  45  -0.00563    -0.00004     0.00080     0.00142    -0.01352     0.00084
 PY  C  45  -0.02093    -0.00033    -0.00900    -0.01221     0.02936    -0.00756
 PZ  C  45  -0.00351    -0.00003     0.00075     0.00150    -0.03082    -0.00840
  
  S  C  46   0.01321    -0.00005    -0.01406    -0.02209     0.19480     0.02423
 PX  C  46  -0.00944    -0.00016    -0.00685    -0.01005     0.06460     0.00646
 PY  C  46  -0.01630    -0.00023    -0.00684    -0.00955     0.03943    -0.00050
 PZ  C  46  -0.00811    -0.00017    -0.00808    -0.01184     0.07090     0.00393
  
  S  C  47   0.04608     0.00054     0.01176     0.01591    -0.05090     0.00239
 PX  C  47  -0.00795    -0.00014    -0.00695    -0.01037     0.07497     0.00852
 PY  C  47  -0.00232    -0.00009    -0.00710    -0.01087     0.08787     0.01072
 PZ  C  47  -0.01021    -0.00017    -0.00709    -0.01045     0.06840     0.00625
  
  S  C  48   0.05474     0.00079     0.02830     0.04115    -0.25427    -0.02300
 PX  C  48   0.00448     0.00004     0.00002    -0.00024     0.01269     0.00310
 PY  C  48  -0.00481    -0.00010    -0.00581    -0.00881     0.06974     0.00883
 PZ  C  48   0.00774     0.00009     0.00207     0.00280    -0.00874     0.00054
  
  S  C  49   0.04091     0.00063     0.02636     0.03894    -0.26625    -0.02852
 PX  C  49   0.00493     0.00007     0.00240     0.00346    -0.02023    -0.00158
 PY  C  49   0.01192     0.00017     0.00650     0.00948    -0.05956    -0.00549
 PZ  C  49   0.00224     0.00003     0.00082     0.00115    -0.00536    -0.00020
  
  S  S  50   0.16219     0.02158     0.15341     0.07824     0.03358    -0.11257
 PX  S  50  -0.03313    -0.00227    -0.01716    -0.00169    -0.00345     0.02666
 PY  S  50  -0.07857    -0.00383    -0.04022    -0.00098    -0.00775     0.06348
 PZ  S  50   0.02560    -0.05930     0.11512     0.01737     0.01581    -0.01975
  
  S  C  51   0.20643    -0.01230     0.02794     0.05891     0.01558    -0.13589
 PX  C  51   0.01667     0.01686     0.02483     0.00210     0.00479    -0.02032
 PY  C  51   0.02663     0.04589     0.04973     0.01727     0.01174    -0.04183
 PZ  C  51   0.04692    -0.06732     0.12832    -0.11967    -0.00325     0.00254
  
  S  C  52   0.05440    -0.03817    -0.16057     0.22881     0.01946    -0.12510
 PX  C  52   0.03480     0.05010     0.01470    -0.01903    -0.00076    -0.00435
 PY  C  52   0.06445     0.10201     0.03370    -0.03837    -0.00102    -0.00854
 PZ  C  52   0.05853     0.03764     0.00821    -0.01662    -0.00278     0.00237
  
  S  C  53   0.05745     0.13088    -0.05270     0.04353     0.00192    -0.01502
 PX  C  53   0.06668     0.16837    -0.02842    -0.00321    -0.00405     0.03107
 PY  C  53   0.12099     0.31627    -0.04129    -0.02292    -0.00912     0.06775
 PZ  C  53   0.10127     0.16561    -0.11362     0.12851     0.00891    -0.04880
  
  S  O  54   0.21712     0.55858    -0.12273     0.02512    -0.01033     0.08268
 PX  O  54  -0.02850    -0.07267     0.01338    -0.00090     0.00137    -0.00986
 PY  O  54  -0.05914    -0.14804     0.02991    -0.00575     0.00242    -0.01777
[...]
  26    C       10.060473920     9.762083036    10.741867730
  27    C       10.214858910    11.256602670    10.933538130
  28    C       10.232869320    11.368063420    12.484453710
  29    C        9.687130095    10.038413030    13.076636130
  30    C        9.013527279     9.437125909    11.855247440
  31    N        8.815337662     7.977573580    11.625650500
  32    C        7.856487897     7.246156688    12.388694320
  33    C        7.994911187     5.843317407    12.380137260
  34    C        7.164318735     5.036347747    13.137975610
  35    C        6.197211432     5.657576825    13.923355370
  36    C        6.061399620     7.070180499    13.940681080
  37    C        6.891167281     7.872259930    13.175417130
  38    C        4.972964956     7.378438532    14.834046570
  39    C        4.396832090     8.573167824    15.233487710
  40    C        3.326871465     8.526286241    16.114403560
  41    C        2.838792775     7.305675245    16.591678070
  42    C        3.401097168     6.096721200    16.212615640
  43    C        4.478406636     6.142278240    15.331193600
  44    N        5.283376391     5.089604704    14.841532010
  45    C        4.869149964     3.689135289    14.805434370
  46    C        3.919732603     3.398968916    13.633792200
  47    C        3.519713062     1.926772167    13.636502470
  48    C        2.576513777     1.623612103    12.474868050
  49    C        2.176448621     0.157263809    12.476009830
  50    S        9.186426781     7.936393608    -0.813254491
  51    C        8.508411552     6.346924154    -1.179252391
  52    C        8.279054137     5.946112798    -2.461401925
  53    C        8.634939313     6.798335517    -3.594468299
  54    O        9.187618590     7.891789782    -3.573152179
  55    O        8.294634512     6.271280415    -4.790795632
  56    C        7.686584793     4.714084615    -2.821115494
  57    N        7.204230903     3.727503694    -3.188024204
  58    H        9.909180660     9.545001570     1.450671998
  59    H       -0.416904240     0.507107624    -0.882101582
  60    H       -0.409310417    -1.020633797    -0.001052876
  61    H       -0.417178876     0.505608704     0.882810649
  62    H        1.902334725    -0.561546611     0.878614200
  63    H        1.902286904    -0.561115053    -0.878928560
  64    H        1.674500416     1.984300816    -0.879631164
  65    H        1.672900689     1.985128331     0.878389651
  66    H        3.973634942     0.870685388     0.880522223
  67    H        3.974458034     0.869533676    -0.877982647
  68    H        3.745586307     3.411643437    -0.884275704
  69    H        3.737351261     3.417662579     0.875001428
  70    H        6.035927796     2.305940714     0.891013993
  71    H        6.042224151     2.292103586    -0.871061514
  72    H        5.830933272     4.828369757    -0.907103326
  73    H        5.780625603     4.863494535     0.849937953
  74    H        8.065054001     3.787776651     1.004526185
  75    H        8.179827839     3.627722908    -0.732910849
  76    H        7.191515974     8.140695918     3.189801668
  77    H        6.998128006     7.976148064     5.656463435
  78    H       11.256716660     8.549711985     6.029867852
  79    H       11.443685550     8.755690446     3.565847515
  80    H        7.864154912     6.313970342     7.354154227
  81    H        7.609683112     6.105474772     9.802509527
  82    H       10.144040760     9.959118228     7.815974780
  83    H       11.056765630     9.283300797    10.952273650
  84    H       11.130650430    11.666931070    10.469983270
  85    H        9.386065716    11.833617380    10.480957020
  86    H       11.254561460    11.570774760    12.856668310
  87    H        9.630550119    12.231759800    12.823293950
  88    H       10.491809330     9.396002862    13.482402290
  89    H        8.999018188    10.202073330    13.926375630
  90    H        8.048268989     9.995478774    11.678411590
  91    H        8.786370738     5.378294734    11.781224180
  92    H        7.278223106     3.950462712    13.120731290
  93    H        6.767813540     8.956636625    13.215292050
  94    H        4.782286405     9.524138000    14.857795280
  95    H        2.854446646     9.456038835    16.442787620
  96    H        1.989787064     7.306257614    17.282760750
  97    H        3.009508147     5.152871349    16.595457830
  98    H        5.781760970     3.051306721    14.748709980
  99    H        4.394442465     3.430538447    15.779989810
 100    H        3.022137926     4.050100108    13.695017690
 101    H        4.401891773     3.673501583    12.671515730
 102    H        4.420166485     1.279075264    13.578363340
 103    H        3.039613546     1.656324832    14.600900580
 104    H        1.672890929     2.267079856    12.529058520
 105    H        3.052478060     1.889826757    11.507335670
 106    H        3.042969880    -0.512055482    12.374868820
 107    H        1.657371881    -0.133208607    13.400810320
 108    H        1.496305742    -0.081078338    11.645401300
 109    H        8.551669396     6.861719332    -5.513609136


           Empirical Formula: C49 H52 N4 O3 S  =   109 atoms



      MOLECULAR POINT GROUP   :   C1  


                  EIGENVALUES  
 -49.22296 -48.41023 -47.64145 -46.67005 -44.98544 -43.44254 -43.07412 -42.76869
 -42.60612 -41.69827 -41.27470 -40.21566 -40.14683 -39.40060 -38.18612 -38.06675
 -37.34099 -36.31155 -35.61799 -34.89240 -34.58856 -34.28796 -33.50047 -32.83451
 -32.49475 -31.90436 -31.64799 -30.88271 -30.00807 -29.93673 -28.63828 -27.94730
 -27.42105 -27.13068 -27.08061 -26.58384 -26.07656 -25.88986 -25.78924 -25.33430
 -25.25425 -25.05997 -24.53751 -24.43613 -24.40071 -24.19175 -23.91269 -23.40743
 -23.17925 -23.10119 -22.77085 -22.43607 -21.82859 -21.40944 -21.28950 -21.14627
 -20.72241 -20.40610 -20.07094 -19.64047 -19.54299 -18.95677 -18.91923 -18.69835
 -18.52803 -18.28846 -18.17269 -17.97008 -17.90692 -17.72846 -17.51987 -17.50273
 -17.39582 -17.23583 -17.11015 -16.74346 -16.70502 -16.43344 -16.38643 -16.11526
 -16.08744 -15.94767 -15.87534 -15.83504 -15.76228 -15.51649 -15.38601 -15.31239
 -15.23736 -15.11182 -14.94214 -14.86236 -14.80339 -14.55414 -14.33203 -14.25822
 -14.23495 -14.13630 -14.08506 -14.02445 -13.91912 -13.83474 -13.74460 -13.69272
 -13.58470 -13.50762 -13.46521 -13.37721 -13.28308 -13.22601 -13.08625 -12.95717
 -12.84245 -12.73134 -12.70555 -12.66613 -12.62240 -12.49487 -12.45437 -12.40893
 -12.37725 -12.29692 -12.13912 -12.07081 -11.92188 -11.90967 -11.86263 -11.73448
 -11.56405 -11.52076 -11.14736 -11.03938 -10.96779 -10.77077 -10.43601 -10.35982
  -9.91373  -9.64220  -9.06796  -8.93020  -8.81717  -8.79030  -8.36227  -7.74400
  -7.63283  -7.27163  -0.93819  -0.20486   0.19146   0.52484   0.77097   0.78533
   0.80407   0.94612   1.12506   1.29199   1.34668   1.51387   1.66100   1.89708
   2.08455   2.46135   2.76668   2.86108   2.90034   2.91225   3.02876   3.06031
   3.15489   3.22010   3.27295   3.31114   3.35502   3.44521   3.46772   3.50173
   3.60196   3.72833   3.80789   3.82872   3.90901   4.01530   4.03966   4.10948
   4.13852   4.19993   4.23098   4.25091   4.46700   4.49945   4.63854   4.67374
   4.73831   4.74360   4.84338   4.87985   5.13427   5.15240   5.23661   5.34813
   5.40346   5.50027   5.63131   5.74096   5.82598   5.90851   6.11811   6.18429
   6.34952   6.39413   6.42365   6.48187   6.59292   6.64673   6.67307   6.76461
   6.77337   6.78262   6.79623   6.80714   6.81227   6.85661   6.88524   6.90256
   6.93949   7.00932   7.02976   7.03697   7.08677   7.10769   7.10841   7.39693
   7.46818   7.71282   8.00145   8.26007   8.32825   8.38201   8.49443   8.51708
   8.57661   8.62492   8.64333   8.67476   8.69476   8.75961   8.84397   8.89451
   8.97625   9.13307   9.18137   9.52146   9.72538   9.75781   9.87850  10.09130
  10.19119  10.58273  10.88337  10.97661  11.04322  11.22607  11.38173  11.57204
  11.62952  11.67495  12.00274  12.27464  12.45743  12.58522  12.67812  12.89991
  13.01752  13.30883  13.37840  13.53290  14.05488  14.32822  14.62925  15.25797


              NET ATOMIC CHARGES AND DIPOLE CONTRIBUTIONS

  ATOM NO.   TYPE          CHARGE      No. of ELECS.   s-Pop       p-Pop       
    1          C          -0.027946        4.0279     1.05495     2.97299
    2          C          -0.007109        4.0071     1.04482     2.96229
    3          C          -0.008557        4.0086     1.05051     2.95804
    4          C          -0.011611        4.0116     1.05217     2.95944
    5          C          -0.011280        4.0113     1.05200     2.95928
    6          C          -0.011029        4.0110     1.05117     2.95985
    7          C          -0.004545        4.0045     1.05251     2.95203
    8          C           0.073642        3.9264     1.05486     2.87150
    9          N          -0.090305        5.0903     1.24617     3.84413
   10          C           0.438331        3.5617     1.04978     2.51189
   11          O          -0.598181        6.5982     1.81330     4.78488
   12          C           0.001986        3.9980     1.05835     2.93966
   13          C           0.096873        3.9031     1.09724     2.80589
   14          C           0.019513        3.9805     1.03608     2.94441
   15          C          -0.007989        4.0080     1.08232     2.92567
   16          C          -0.036752        4.0368     1.08172     2.95503
   17          C           0.029250        3.9707     1.04882     2.92193
   18          C          -0.032114        4.0321     1.08161     2.95050
   19          C          -0.017742        4.0177     1.08173     2.93601
   20          C           0.009985        3.9900     1.04760     2.94242
   21          C          -0.045073        4.0451     1.08059     2.96448
   22          C          -0.046810        4.0468     1.08126     2.96555
   23          C           0.071814        3.9282     1.05535     2.87284
   24          C           0.001288        3.9987     1.06813     2.93058
   25          C          -0.041159        4.0412     1.07799     2.96317
   26          C           0.008110        3.9919     1.03844     2.95345
   27          C          -0.004681        4.0047     1.05442     2.95026
   28          C          -0.011171        4.0112     1.05945     2.95172
   29          C          -0.006346        4.0063     1.05751     2.94883
   30          C           0.068904        3.9311     1.05491     2.87619
   31          N          -0.211716        5.2117     1.37433     3.83739
   32          C           0.077377        3.9226     1.04775     2.87487
   33          C          -0.039170        4.0392     1.08176     2.95741
   34          C          -0.038723        4.0387     1.07789     2.96083
   35          C           0.062274        3.9377     1.04946     2.88826
   36          C          -0.015068        4.0151     1.05032     2.96474
   37          C          -0.043260        4.0433     1.07729     2.96597
   38          C          -0.017526        4.0175     1.04782     2.96970
   39          C          -0.021582        4.0216     1.07934     2.94224
   40          C          -0.046505        4.0465     1.07747     2.96903
   41          C          -0.025569        4.0256     1.08067     2.94490
   42          C          -0.044234        4.0442     1.07575     2.96848
   43          C           0.077938        3.9221     1.05250     2.86956
   44          N          -0.163499        5.1635     1.27234     3.89116
   45          C           0.072574        3.9274     1.04926     2.87817
   46          C          -0.004067        4.0041     1.05243     2.95163
   47          C          -0.008143        4.0081     1.04924     2.95890
   48          C          -0.006332        4.0063     1.04451     2.96182
   49          C          -0.027513        4.0275     1.05483     2.97268
   50          S          -0.035992        6.0360     1.78731     4.24868
   51          C           0.263357        3.7366     1.08745     2.64919
   52          C          -0.011107        4.0111     0.98887     3.02224
   53          C           0.500548        3.4995     1.04155     2.45790
   54          O          -0.615328        6.6153     1.81772     4.79761
   55          O          -0.312592        6.3126     1.68800     4.62459
   56          C           0.218544        3.7815     1.15047     2.63099
   57          N          -0.410471        5.4105     1.75408     3.65639
   58          H           0.059588        0.9404     0.94041
   59          H           0.007778        0.9922     0.99222
   60          H           0.000112        0.9999     0.99989
   61          H           0.007845        0.9922     0.99216
   62          H           0.006372        0.9936     0.99363
   63          H           0.006140        0.9939     0.99386
   64          H           0.006883        0.9931     0.99312
   65          H           0.007244        0.9928     0.99276
   66          H           0.007306        0.9927     0.99269
   67          H           0.006180        0.9938     0.99382
   68          H           0.006930        0.9931     0.99307
   69          H           0.008184        0.9918     0.99182
   70          H           0.010542        0.9895     0.98946
   71          H           0.008533        0.9915     0.99147
   72          H           0.016999        0.9830     0.98300
   73          H           0.014898        0.9851     0.98510
   74          H           0.028217        0.9718     0.97178
   75          H           0.038219        0.9618     0.96178
   76          H           0.027900        0.9721     0.97210
   77          H           0.022362        0.9776     0.97764
   78          H           0.023952        0.9760     0.97605
   79          H           0.027968        0.9720     0.97203
   80          H           0.017955        0.9820     0.98204
   81          H           0.025360        0.9746     0.97464
   82          H           0.025256        0.9747     0.97474
   83          H           0.017647        0.9824     0.98235
   84          H           0.002335        0.9977     0.99767
   85          H           0.012902        0.9871     0.98710
   86          H           0.007402        0.9926     0.99260
   87          H           0.008013        0.9920     0.99199
   88          H           0.012451        0.9875     0.98755
   89          H           0.002897        0.9971     0.99710
   90          H           0.022596        0.9774     0.97740
   91          H           0.022847        0.9772     0.97715
   92          H           0.026850        0.9732     0.97315
   93          H           0.028689        0.9713     0.97131
   94          H           0.024297        0.9757     0.97570
   95          H           0.016072        0.9839     0.98393
   96          H           0.018544        0.9815     0.98146
   97          H           0.026499        0.9735     0.97350
   98          H           0.019872        0.9801     0.98013
   99          H           0.019021        0.9810     0.98098
  100          H           0.011518        0.9885     0.98848
  101          H           0.011715        0.9883     0.98828
  102          H           0.009492        0.9905     0.99051
  103          H           0.009207        0.9908     0.99079
  104          H           0.006486        0.9935     0.99351
  105          H           0.006654        0.9933     0.99335
  106          H           0.008174        0.9918     0.99183
  107          H           0.008076        0.9919     0.99192
  108          H          -0.000103        1.0001     1.00010
  109          H           0.247611        0.7524     0.75239
 DIPOLE           X         Y         Z       TOTAL
 POINT-CHG.     1.149     2.462     3.930     4.777
 HYBRID        -1.074     0.116    -0.146     1.090
 SUM            0.075     2.578     3.784     4.579


          ATOMIC ORBITAL ELECTRON POPULATIONS

     Atom    s        px        py        pz   
    1  C   1.05495   0.99108   0.98871   0.99320
    2  C   1.04482   0.99067   0.98574   0.98588
    3  C   1.05051   0.99094   0.97992   0.98718
    4  C   1.05217   0.99044   0.98237   0.98664
    5  C   1.05200   0.98863   0.98319   0.98745
    6  C   1.05117   0.99291   0.97792   0.98902
    7  C   1.05251   0.96524   0.99132   0.99547
    8  C   1.05486   0.99386   0.86567   1.01196
    9  N   1.24617   1.60827   1.16338   1.07249
   10  C   1.04978   0.72616   0.91966   0.86607
   11  O   1.81330   1.58032   1.80270   1.40186
   12  C   1.05835   1.09555   0.95838   0.88574
   13  C   1.09724   0.85195   0.95774   0.99620
   14  C   1.03608   0.98856   1.00473   0.95112
   15  C   1.08232   0.95653   0.99063   0.97851
   16  C   1.08172   0.95046   1.02509   0.97948
   17  C   1.04882   0.99273   0.95657   0.97262
   18  C   1.08161   0.95656   1.01979   0.97415
   19  C   1.08173   0.95471   0.99969   0.98161
   20  C   1.04760   0.98839   0.98804   0.96599
   21  C   1.08059   1.01073   0.98233   0.97143
   22  C   1.08126   1.01382   0.97118   0.98054
   23  C   1.05535   1.00179   0.98376   0.88729
   24  C   1.06813   0.97339   0.99318   0.96401
   25  C   1.07799   1.01342   0.97873   0.97102
   26  C   1.03844   0.96235   0.98030   1.01081
   27  C   1.05442   0.98657   0.97852   0.98518
   28  C   1.05945   0.98949   0.97188   0.99035
   29  C   1.05751   0.99549   1.00088   0.95246
   30  C   1.05491   0.96877   0.88765   1.01977
   31  N   1.37433   1.54453   1.17576   1.11710
   32  C   1.04775   0.94544   0.96195   0.96748
   33  C   1.08176   0.98594   0.96964   1.00183
   34  C   1.07789   0.99982   0.94544   1.01557
   35  C   1.04946   0.95740   0.98321   0.94765
   36  C   1.05032   0.98486   0.98406   0.99582
   37  C   1.07729   1.00747   0.94371   1.01479
   38  C   1.04782   0.99387   0.96811   1.00772
   39  C   1.07934   0.99180   0.95546   0.99497
   40  C   1.07747   1.00111   0.95352   1.01440
   41  C   1.08067   0.96829   0.99751   0.97910
   42  C   1.07575   1.00329   0.95668   1.00851
   43  C   1.05250   0.94827   0.94373   0.97756
   44  N   1.27234   1.33852   1.07223   1.48041
   45  C   1.04926   0.99355   0.88584   0.99878
   46  C   1.05243   0.98452   0.99080   0.97632
   47  C   1.04924   0.98950   0.98545   0.98395
   48  C   1.04451   0.99012   0.98648   0.98522
   49  C   1.05483   0.99081   0.99160   0.99028
   50  S   1.78731   1.81134   1.26368   1.17366
   51  C   1.08745   0.81845   0.89872   0.93203
   52  C   0.98887   1.16753   0.95536   0.89934
   53  C   1.04155   0.71763   0.85666   0.88362
   54  O   1.81772   1.50428   1.32477   1.96856
   55  O   1.68800   1.81730   1.61063   1.19666
   56  C   1.15047   0.88829   0.92515   0.81755
   57  N   1.75408   1.19983   1.23001   1.22655
   58  H   0.94041
   59  H   0.99222
   60  H   0.99989
   61  H   0.99216
   62  H   0.99363
   63  H   0.99386
   64  H   0.99312
   65  H   0.99276
   66  H   0.99269
   67  H   0.99382
   68  H   0.99307
   69  H   0.99182
   70  H   0.98946
   71  H   0.99147
   72  H   0.98300
   73  H   0.98510
   74  H   0.97178
   75  H   0.96178
   76  H   0.97210
   77  H   0.97764
   78  H   0.97605
   79  H   0.97203
   80  H   0.98204
   81  H   0.97464
   82  H   0.97474
   83  H   0.98235
   84  H   0.99767
   85  H   0.98710
   86  H   0.99260
   87  H   0.99199
   88  H   0.98755
   89  H   0.99710
   90  H   0.97740
   91  H   0.97715
   92  H   0.97315
   93  H   0.97131
   94  H   0.97570
   95  H   0.98393
   96  H   0.98146
   97  H   0.97350
   98  H   0.98013
   99  H   0.98098
  100  H   0.98848
  101  H   0.98828
  102  H   0.99051
  103  H   0.99079
  104  H   0.99351
  105  H   0.99335
  106  H   0.99183
  107  H   0.99192
  108  H   1.00010
  109  H   0.75239

 **********************
 *                    *
 * JOB ENDED NORMALLY *
 *                    *
 **********************



 TOTAL JOB TIME:           781.73 SECONDS

 == MOPAC DONE ==
