 *******************************************************************************
 ** Site#: 4824         For non-commercial use only    Version 21.013L 64BITS **
 *******************************************************************************
 ** Cite this program as: MOPAC2016, Version: 21.013L, James J. P. Stewart,   **
 ** Stewart Computational Chemistry, web: HTTP://OpenMOPAC.net. Days left:  84**
 *******************************************************************************
 **                                                                           **
 **                                MOPAC2016                                  **
 **                                                                           **
 *******************************************************************************

                              INDO CALCULATION RESULTS

 *******************************************************************************
 *  CALCULATION DONE:                                Thu Oct 21 12:43:58 2021  *
 *  INDO       - The INDO Hamiltonian to be used
 *  CIS        - C.I. USES 1 ELECTRON EXCITATIONS ONLY
 *  EPS= 24.50 - USE ANDREAS KLAMT'S COSMO IMPLICIT SOLVATION MODEL
 *  n**2 =  1.360 for COSMO-CI
 *  T=         - A TIME OF 172800.0 SECONDS REQUESTED
 *  DUMP=N     - RESTART FILE WRITTEN EVERY 7200.0 SECONDS REQUESTED
 *******************************************************************************
INDO CIS EPS=24.5 N**2=1.36
 Dye85
 Calculo de Estados Excitados
   ATOM   CHEMICAL          X               Y               Z
  NUMBER   SYMBOL      (ANGSTROMS)     (ANGSTROMS)     (ANGSTROMS)
 
     1       N          0.00000000  *   0.00000000  *   0.00000000  *
     2       C          1.15650532  *   0.00000000  *   0.00000000  *
     3       C          2.57324696  *   0.02239395  *   0.00000000  *
     4       C          3.32672822  *  -1.08909191  *  -0.11634960  *
     5       C          2.77895182  *  -2.41068912  *  -0.19316960  *
     6       C          1.66979030  *  -2.88941846  *   0.45293458  *
     7       C          1.43408744  *  -4.26615554  *   0.15567158  *
     8       C          2.37343777  *  -4.78009550  *  -0.69985473  *
     9       S          3.54085382  *  -3.61359344  *  -1.14270117  *
    10       C          2.38470705  *  -6.13350198  *  -1.18933853  *
    11       C          3.44236233  *  -6.67227933  *  -1.81476305  *
    12       C          3.43688940  *  -8.02162114  *  -2.30822815  *
    13       C          2.35377279  *  -8.79537456  *  -2.61469581  *
    14       C          2.73494450  * -10.09270720  *  -3.08843042  *
    15       C          4.08990800  * -10.24936850  *  -3.12588200  *
    16       S          4.91613296  *  -8.84663027  *  -2.59011170  *
    17       C          4.79371922  * -11.43977012  *  -3.54038830  *
    18       C          4.32519472  * -12.68579948  *  -3.09431306  *
    19       C          4.94404193  * -13.86766875  *  -3.46565717  *
    20       C          6.04745352  * -13.77274974  *  -4.30970658  *
    21       C          6.53907746  * -12.51416486  *  -4.75360920  *
    22       C          5.90767450  * -11.34440855  *  -4.37016330  *
    23       C          7.69474848  * -12.77395457  *  -5.57482595  *
    24       C          8.56102428  * -11.94474756  *  -6.26864000  *
    25       C          9.59090311  * -12.52632464  *  -6.99307005  *
    26       C          9.75102210  * -13.91524092  *  -7.03531308  *
    27       C          8.89887009  * -14.76886302  *  -6.35186811  *
    28       C          7.87656786  * -14.18288161  *  -5.61113380  *
    29       N          6.86708632  * -14.78884788  *  -4.83529538  *
    30       C          6.70848331  * -16.17923971  *  -4.62077424  *
    31       C          5.46023206  * -16.76572441  *  -4.83083922  *
    32       C          5.28858812  * -18.13445156  *  -4.61514997  *
    33       C          6.37456366  * -18.87943555  *  -4.20871163  *
    34       C          7.63393092  * -18.27770150  *  -4.00587210  *
    35       C          7.82105315  * -16.93096581  *  -4.19966051  *
    36       C          8.64773451  * -19.30497669  *  -3.56344079  *
    37       C          9.18031086  * -18.97670466  *  -2.17662316  *
    38       C          9.77918562  * -19.41626861  *  -4.57446535  *
    39       C          7.82250952  * -20.56744181  *  -3.53786777  *
    40       C          6.49194484  * -20.29924180  *  -3.91877351  *
    41       C          5.55106147  * -21.30510994  *  -3.96882256  *
    42       C          5.95413445  * -22.59996030  *  -3.63078389  *
    43       C          7.26332910  * -22.86391842  *  -3.25585047  *
    44       C          8.21727805  * -21.84180596  *  -3.20545699  *
    45       C          3.22915926  *   1.33304510  *   0.10238828  *
    46       O          4.43295740  *   1.54760127  *   0.08169986  *
    47       O          2.37231462  *   2.36541725  *   0.23276139  *
    48       H          4.42458317  *  -1.01179942  *  -0.16286102  *
    49       H          1.46772261  *  -6.70545164  *  -1.00405394  *
    50       H          4.36977718  *  -6.10824731  *  -1.97417277  *
    51       H          1.04027103  *  -2.32433207  *   1.13815020  *
    52       H          0.59790038  *  -4.82366008  *   0.57169128  *
    53       H          1.31362986  *  -8.48882744  *  -2.53637165  *
    54       H          2.01010531  * -10.84464339  *  -3.39053883  *
    55       H          3.45619043  * -12.72511861  *  -2.42916771  *
    56       H          4.58677512  * -14.83175107  *  -3.09737693  *
    57       H          6.28017141  * -10.37862551  *  -4.72161031  *
    58       H          8.42649812  * -10.86060397  *  -6.24125034  *
    59       H         10.28872302  * -11.89137458  *  -7.54596659  *
    60       H         10.56927363  * -14.33878912  *  -7.62644529  *
    61       H          9.01882847  * -15.85272114  *  -6.40666496  *
    62       H          4.61266202  * -16.16573208  *  -5.17785125  *
    63       H          4.31340352  * -18.60198284  *  -4.77343750  *
    64       H          8.79262795  * -16.46218473  *  -4.01923854  *
    65       H          8.37285108  * -18.88901878  *  -1.43568208  *
    66       H          9.86708673  * -19.75296930  *  -1.80996104  *
    67       H          9.73066199  * -18.02508038  *  -2.16411284  *
    68       H         10.34873049  * -18.47937026  *  -4.65530823  *
    69       H         10.49281220  * -20.20676907  *  -4.30147677  *
    70       H          9.40929397  * -19.65446080  *  -5.58198364  *
    71       H          4.51976373  * -21.09884754  *  -4.26393190  *
    72       H          5.22389105  * -23.41397796  *  -3.66361387  *
    73       H          7.55825969  * -23.88468999  *  -2.99504652  *
    74       H          9.24746128  * -22.05448749  *  -2.90940883  *
    75       H          2.84774094  *   3.20671818  *   0.29446032  *
 


          CARTESIAN COORDINATES 

    NO.       ATOM           X           Y           Z

     1         N          0.0000      0.0000      0.0000
     2         C          1.1565      0.0000      0.0000
     3         C          2.5732      0.0224      0.0000
     4         C          3.3267     -1.0891     -0.1163
     5         C          2.7790     -2.4107     -0.1932
     6         C          1.6698     -2.8894      0.4529
     7         C          1.4341     -4.2662      0.1557
     8         C          2.3734     -4.7801     -0.6999
     9         S          3.5409     -3.6136     -1.1427
    10         C          2.3847     -6.1335     -1.1893
    11         C          3.4424     -6.6723     -1.8148
    12         C          3.4369     -8.0216     -2.3082
    13         C          2.3538     -8.7954     -2.6147
    14         C          2.7349    -10.0927     -3.0884
    15         C          4.0899    -10.2494     -3.1259
    16         S          4.9161     -8.8466     -2.5901
    17         C          4.7937    -11.4398     -3.5404
    18         C          4.3252    -12.6858     -3.0943
    19         C          4.9440    -13.8677     -3.4657
    20         C          6.0475    -13.7727     -4.3097
    21         C          6.5391    -12.5142     -4.7536
    22         C          5.9077    -11.3444     -4.3702
    23         C          7.6947    -12.7740     -5.5748
    24         C          8.5610    -11.9447     -6.2686
    25         C          9.5909    -12.5263     -6.9931
    26         C          9.7510    -13.9152     -7.0353
    27         C          8.8989    -14.7689     -6.3519
    28         C          7.8766    -14.1829     -5.6111
    29         N          6.8671    -14.7888     -4.8353
    30         C          6.7085    -16.1792     -4.6208
    31         C          5.4602    -16.7657     -4.8308
    32         C          5.2886    -18.1345     -4.6151
    33         C          6.3746    -18.8794     -4.2087
    34         C          7.6339    -18.2777     -4.0059
    35         C          7.8211    -16.9310     -4.1997
    36         C          8.6477    -19.3050     -3.5634
    37         C          9.1803    -18.9767     -2.1766
    38         C          9.7792    -19.4163     -4.5745
    39         C          7.8225    -20.5674     -3.5379
    40         C          6.4919    -20.2992     -3.9188
    41         C          5.5511    -21.3051     -3.9688
    42         C          5.9541    -22.6000     -3.6308
    43         C          7.2633    -22.8639     -3.2559
    44         C          8.2173    -21.8418     -3.2055
    45         C          3.2292      1.3330      0.1024
    46         O          4.4330      1.5476      0.0817
    47         O          2.3723      2.3654      0.2328
    48         H          4.4246     -1.0118     -0.1629
    49         H          1.4677     -6.7055     -1.0041
    50         H          4.3698     -6.1082     -1.9742
    51         H          1.0403     -2.3243      1.1382
    52         H          0.5979     -4.8237      0.5717
    53         H          1.3136     -8.4888     -2.5364
    54         H          2.0101    -10.8446     -3.3905
    55         H          3.4562    -12.7251     -2.4292
    56         H          4.5868    -14.8318     -3.0974
    57         H          6.2802    -10.3786     -4.7216
    58         H          8.4265    -10.8606     -6.2413
    59         H         10.2887    -11.8914     -7.5460
    60         H         10.5693    -14.3388     -7.6264
    61         H          9.0188    -15.8527     -6.4067
    62         H          4.6127    -16.1657     -5.1779
    63         H          4.3134    -18.6020     -4.7734
    64         H          8.7926    -16.4622     -4.0192
    65         H          8.3729    -18.8890     -1.4357
    66         H          9.8671    -19.7530     -1.8100
    67         H          9.7307    -18.0251     -2.1641
    68         H         10.3487    -18.4794     -4.6553
    69         H         10.4928    -20.2068     -4.3015
    70         H          9.4093    -19.6545     -5.5820
    71         H          4.5198    -21.0988     -4.2639
    72         H          5.2239    -23.4140     -3.6636
    73         H          7.5583    -23.8847     -2.9950
    74         H          9.2475    -22.0545     -2.9094
    75         H          2.8477      3.2067      0.2945

           Empirical Formula: C41 H28 N2 O2 S2  =    75 atoms



      MOLECULAR POINT GROUP   :   C1  


      RHF CALCULATION, NO. OF DOUBLY OCCUPIED LEVELS = 113

 WARNING: INDO only performs single-point calculations

 Summary of symmetry occupancy in each shell:

 SHELL     
    1  113
    v  103
 TOTAL 216




    ROOT NO.    1           2           3           4           5           6

           -48.71016   -47.47227   -46.81946   -43.77689   -43.23781   -43.17372
  
  
  S  N   1   0.00000    -0.00001     0.04021     0.00940     0.04731     0.04581
 PX  N   1   0.00000    -0.00000     0.02476     0.00497     0.02483     0.02402
 PY  N   1  -0.00000     0.00000     0.00386    -0.00147    -0.00654    -0.00624
 PZ  N   1   0.00000    -0.00000     0.00052     0.00014     0.00062     0.00059
  
  S  C   2   0.00001    -0.00002     0.11425     0.01650     0.08163     0.07884
 PX  C   2   0.00000    -0.00001     0.04945     0.00273     0.01286     0.01233
 PY  C   2  -0.00000     0.00000     0.02203    -0.00505    -0.02237    -0.02133
 PZ  C   2   0.00000    -0.00000     0.00220     0.00008     0.00032     0.00030
  
  S  C   3   0.00001    -0.00003     0.22872     0.01926     0.09613     0.09291
 PX  C   3   0.00000    -0.00000     0.03176    -0.00119    -0.00476    -0.00448
 PY  C   3  -0.00000     0.00000     0.07720    -0.01142    -0.05121    -0.04892
 PZ  C   3  -0.00000    -0.00000     0.00593    -0.00067    -0.00310    -0.00297
  
  S  C   4   0.00002    -0.00003     0.11604     0.03319     0.15326     0.14682
 PX  C   4  -0.00001     0.00001    -0.01822    -0.00960    -0.04373    -0.04182
 PY  C   4  -0.00001     0.00001     0.04682    -0.00881    -0.03454    -0.03238
 PZ  C   4   0.00000    -0.00000     0.00509     0.00032     0.00178     0.00174
  
  S  C   5   0.00006    -0.00007     0.05314     0.06783     0.28275     0.26742
 PX  C   5  -0.00001     0.00001    -0.00343    -0.01216    -0.04918    -0.04631
 PY  C   5  -0.00002     0.00003     0.01487    -0.01575    -0.05409    -0.04972
 PZ  C   5  -0.00000    -0.00000     0.00396     0.00275     0.01341     0.01292
  
  S  C   6   0.00007    -0.00008     0.03529     0.06862     0.27941     0.26343
 PX  C   6   0.00002    -0.00002     0.00951     0.01675     0.06873     0.06487
 PY  C   6  -0.00002     0.00002     0.00603    -0.01280    -0.04388    -0.04034
 PZ  C   6  -0.00002     0.00002    -0.00661    -0.01702    -0.06740    -0.06331
  
  S  C   7   0.00013    -0.00013     0.01899     0.07213     0.26364     0.24505
 PX  C   7   0.00004    -0.00004     0.00594     0.02263     0.08308     0.07726
 PY  C   7  -0.00002     0.00001     0.00629     0.00981     0.05312     0.05156
 PZ  C   7  -0.00003     0.00003    -0.00239    -0.01315    -0.04252    -0.03882
  
  S  C   8   0.00028    -0.00026     0.01621     0.08654     0.26443     0.23939
 PX  C   8   0.00001    -0.00001    -0.00112    -0.00309    -0.01858    -0.01816
 PY  C   8  -0.00010     0.00008     0.00634     0.00667     0.06500     0.06538
 PZ  C   8  -0.00004     0.00003     0.00290     0.00489     0.03586     0.03553
  
  S  S   9   0.00011    -0.00011     0.01877     0.05552     0.19787     0.18335
 PX  S   9  -0.00004     0.00004    -0.00774    -0.02715    -0.10103    -0.09413
 PY  S   9  -0.00005     0.00004     0.00493    -0.00526     0.00109     0.00358
 PZ  S   9   0.00001    -0.00002     0.00703     0.01800     0.07309     0.06886
  
  S  C  10   0.00084    -0.00069     0.00530     0.09085     0.13823     0.10570
 PX  C  10   0.00017    -0.00014     0.00010     0.01457     0.01001     0.00422
 PY  C  10  -0.00029     0.00022     0.00224    -0.00632     0.03482     0.03875
 PZ  C  10  -0.00019     0.00015     0.00080    -0.00873     0.00911     0.01312
  
  S  C  11   0.00169    -0.00130     0.00253     0.11507     0.09470     0.05116
 PX  C  11  -0.00018     0.00015    -0.00065    -0.01770    -0.02167    -0.01506
 PY  C  11  -0.00078     0.00057     0.00067    -0.02921     0.00784     0.01938
 PZ  C  11  -0.00024     0.00017     0.00050    -0.00483     0.01108     0.01313
  
  S  C  12   0.00588    -0.00413     0.00111     0.22365     0.07494    -0.00788
 PX  C  12  -0.00018     0.00018    -0.00017    -0.01972    -0.01023    -0.00236
 PY  C  12  -0.00256     0.00171     0.00024    -0.06235     0.00114     0.02275
 PZ  C  12  -0.00096     0.00064     0.00012    -0.02237     0.00164     0.00933
  
  S  C  13   0.00684    -0.00469     0.00073     0.22927     0.05994    -0.02399
 PX  C  13   0.00286    -0.00196     0.00020     0.08910     0.01953    -0.01255
 PY  C  13  -0.00166     0.00103     0.00016    -0.02514     0.00520     0.01307
 PZ  C  13  -0.00053     0.00033     0.00008    -0.00709     0.00289     0.00498
  
  S  C  14   0.01457    -0.00888     0.00040     0.26267     0.03762    -0.05041
 PX  C  14   0.00623    -0.00368     0.00009     0.08430     0.00711    -0.01886
 PY  C  14  -0.00180     0.00067     0.00015     0.04347     0.01770    -0.00140
 PZ  C  14  -0.00027     0.00003     0.00006     0.01946     0.00665    -0.00149
  
  S  C  15   0.03047    -0.01718     0.00035     0.32125     0.02040    -0.07322
 PX  C  15   0.00474    -0.00218    -0.00009    -0.02940    -0.01545     0.00147
 PY  C  15  -0.01104     0.00544     0.00010    -0.00299     0.02021     0.01114
 PZ  C  15  -0.00382     0.00190     0.00004     0.00088     0.00758     0.00300
  
  S  S  16   0.01004    -0.00616     0.00040     0.18560     0.03218    -0.02928
 PX  S  16  -0.00307     0.00214    -0.00024    -0.10250    -0.02308     0.01418
 PY  S  16  -0.00502     0.00287     0.00004    -0.04506     0.00340     0.01463
 PZ  S  16  -0.00221     0.00127     0.00001    -0.01965     0.00122     0.00591
  
  S  C  17   0.09159    -0.04533     0.00013     0.35243    -0.03940    -0.10490
 PX  C  17   0.01932    -0.00882    -0.00003     0.00736    -0.01372    -0.00250
 PY  C  17  -0.03032     0.01351     0.00003    -0.03195     0.01687     0.01678
 PZ  C  17  -0.01232     0.00568     0.00001    -0.00761     0.00846     0.00176
  
  S  C  18   0.09025    -0.04170     0.00007     0.27659    -0.03391    -0.09692
 PX  C  18   0.03478    -0.01560     0.00000     0.06612    -0.01407    -0.02407
 PY  C  18  -0.00173    -0.00140     0.00003     0.04646    -0.00399    -0.00715
 PZ  C  18  -0.02608     0.01180    -0.00001    -0.05511     0.01043     0.01927
  
  S  C  19   0.14325    -0.05297     0.00002     0.18862    -0.01352    -0.09510
 PX  C  19   0.05139    -0.01774    -0.00001     0.00892     0.00101    -0.01110
 PY  C  19   0.01884    -0.01476     0.00002     0.09940    -0.02722    -0.02114
 PZ  C  19  -0.04079     0.01424     0.00000    -0.01411    -0.00000     0.01127
  
  S  C  20   0.34872    -0.12551    -0.00003     0.11681    -0.01844    -0.06447
 PX  C  20   0.09820    -0.03406    -0.00003    -0.07195    -0.00055     0.03473
 PY  C  20  -0.02160    -0.00644     0.00002     0.10079    -0.05104     0.00665
 PZ  C  20  -0.06966     0.02478     0.00002     0.04736     0.00260    -0.02536
  
  S  C  21   0.28036    -0.11672    -0.00001     0.15794    -0.08474     0.00071
 PX  C  21   0.02066    -0.00654    -0.00002    -0.08886    -0.00487     0.05435
 PY  C  21  -0.10683     0.03828     0.00002     0.03454     0.00120    -0.01168
 PZ  C  21  -0.00737     0.00197     0.00001     0.06313     0.00321    -0.03900
  
  S  C  22   0.11749    -0.05550     0.00006     0.25518    -0.05861    -0.06037
 PX  C  22   0.00269    -0.00018    -0.00003    -0.06284    -0.00169     0.02818
 PY  C  22  -0.05643     0.02493     0.00001    -0.06188     0.02236     0.01553
 PZ  C  22   0.00207    -0.00166     0.00002     0.05056    -0.00044    -0.02183
  
  S  C  23   0.27877    -0.11423    -0.00005    -0.05019    -0.12134     0.17219
 PX  C  23  -0.04480     0.01648     0.00000    -0.04258    -0.01857     0.05595
 PY  C  23  -0.09244     0.03291     0.00002     0.03673     0.00740    -0.02572
 PZ  C  23   0.03847    -0.01392    -0.00000     0.02887     0.01362    -0.03997
  
  S  C  24   0.11303    -0.05104    -0.00002    -0.06273    -0.10970     0.17895
 PX  C  24  -0.01732     0.00723     0.00000    -0.01134     0.00013     0.00907
 PY  C  24  -0.05180     0.02235     0.00001     0.03570     0.04242    -0.07562
 PZ  C  24   0.01597    -0.00668    -0.00000     0.00612    -0.00267    -0.00206
  
  S  C  25   0.08158    -0.03717    -0.00002    -0.07852    -0.10118     0.18134
 PX  C  25  -0.02799     0.01257     0.00001     0.02026     0.02793    -0.04827
 PY  C  25  -0.02203     0.00933     0.00001     0.02279     0.02232    -0.04337
 PZ  C  25   0.02192    -0.00978    -0.00001    -0.01626    -0.02181     0.03800
  
  S  C  26   0.08553    -0.03593    -0.00002    -0.08746    -0.09302     0.17690
 PX  C  26  -0.03387     0.01388     0.00001     0.02840     0.02852    -0.05436
 PY  C  26   0.01110    -0.00677    -0.00000    -0.01012    -0.02025     0.03247
 PZ  C  26   0.02471    -0.00982    -0.00001    -0.02071    -0.01989     0.03848
  
  S  C  27   0.14198    -0.04697    -0.00003    -0.10826    -0.06696     0.15331
 PX  C  27  -0.04466     0.01325     0.00001     0.01611    -0.00594     0.00027
 PY  C  27   0.03989    -0.02156    -0.00001    -0.03110    -0.04750     0.07975
 PZ  C  27   0.03208    -0.00789    -0.00001    -0.01115     0.00835    -0.00559
  
  S  C  28   0.34756    -0.12101    -0.00007    -0.12897    -0.06345     0.14476
 PX  C  28  -0.09830     0.03238     0.00001    -0.00659    -0.02841     0.05011
 PY  C  28   0.02199    -0.02158    -0.00000     0.01128    -0.05705     0.06298
 PZ  C  28   0.06994    -0.02112    -0.00001     0.00410     0.02634    -0.04297
  
  S  N  29   0.46774    -0.13126    -0.00008    -0.12463     0.08263    -0.05211
 PX  N  29   0.00903    -0.00443    -0.00000    -0.02303    -0.01224     0.02935
 PY  N  29   0.07724    -0.05020    -0.00001     0.02715    -0.06225     0.05128
 PZ  N  29  -0.01158     0.00732     0.00000     0.01405     0.01311    -0.02419
  
  S  C  30   0.24507     0.05044    -0.00003    -0.13807     0.21927    -0.18193
 PX  C  30   0.00976    -0.00180    -0.00000    -0.01027    -0.00805     0.01559
 PY  C  30   0.07062    -0.08227    -0.00002    -0.00117    -0.04587     0.04434
 PZ  C  30  -0.01044     0.01441     0.00000     0.00410     0.00767    -0.01008
  
  S  C  31   0.12900     0.08034    -0.00001    -0.08820     0.18861    -0.16812
 PX  C  31   0.04934     0.02973    -0.00000    -0.03624     0.06475    -0.05434
 PY  C  31   0.02009    -0.04383    -0.00001     0.00657    -0.02713     0.02322
 PZ  C  31   0.01121     0.01496     0.00000    -0.00822     0.02228    -0.02061
  
  S  C  32   0.08083     0.13853     0.00001    -0.06347     0.15497    -0.13846
 PX  C  32   0.03360     0.06481     0.00000    -0.02524     0.05971    -0.05243
 PY  C  32   0.01487    -0.00846    -0.00000    -0.02051     0.04370    -0.03868
 PZ  C  32   0.00588     0.01747     0.00000    -0.00202     0.00674    -0.00618
  
  S  C  33   0.11410     0.30679     0.00002    -0.03685     0.11098    -0.10064
 PX  C  33   0.02487     0.08997     0.00001     0.00531    -0.00314     0.00228
 PY  C  33   0.01484    -0.02196    -0.00001    -0.04410     0.09545    -0.08289
 PZ  C  33   0.00349     0.02650     0.00000     0.00960    -0.01826     0.01561
  
  S  C  34   0.13158     0.33599     0.00002    -0.04852     0.13399    -0.11833
 PX  C  34  -0.01726    -0.01817     0.00000     0.02180    -0.04948     0.04404
 PY  C  34  -0.00190    -0.08678    -0.00001    -0.03756     0.06369    -0.05255
 PZ  C  34  -0.00418     0.01183     0.00000     0.01280    -0.02374     0.01999
  
  S  C  35   0.14372     0.14169    -0.00000    -0.09855     0.17845    -0.14689
 PX  C  35  -0.04139    -0.02695     0.00000     0.03485    -0.07125     0.06236
 PY  C  35   0.01520    -0.07943    -0.00001    -0.00932    -0.01572     0.01903
 PZ  C  35  -0.01572     0.00819     0.00000     0.01341    -0.01500     0.01027
  
  S  C  36   0.09798     0.35645     0.00004     0.02513    -0.01726     0.01184
 PX  C  36  -0.02299    -0.07872    -0.00001    -0.00265    -0.00164     0.00250
 PY  C  36   0.00238    -0.01223    -0.00000    -0.01773     0.03954    -0.03400
 PZ  C  36  -0.00627    -0.01732    -0.00000     0.00276    -0.00758     0.00665
  
  S  C  37   0.04687     0.17316     0.00002     0.01347    -0.00984     0.00711
 PX  C  37  -0.01104    -0.03983    -0.00000    -0.00229     0.00069    -0.00015
 PY  C  37  -0.00291    -0.01813    -0.00000    -0.00651     0.01245    -0.01051
 PZ  C  37  -0.01899    -0.06906    -0.00001    -0.00419     0.00142    -0.00068
  
  S  C  38   0.04714     0.17292     0.00002     0.01302    -0.01001     0.00762
 PX  C  38  -0.01872    -0.06822    -0.00001    -0.00440     0.00233    -0.00142
 PY  C  38   0.00284     0.00270    -0.00000    -0.00505     0.01120    -0.00947
 PZ  C  38   0.01152     0.04491     0.00000     0.00469    -0.00499     0.00390
  
  S  C  39   0.08691     0.35543     0.00004     0.07530    -0.14861     0.12696
 PX  C  39  -0.00879    -0.03673    -0.00000    -0.01359     0.03342    -0.02905
 PY  C  39   0.02241     0.06947     0.00001    -0.01779     0.05878    -0.05297
 PZ  C  39  -0.00631    -0.02186    -0.00000    -0.00008    -0.00244     0.00244
  
  S  C  40   0.08304     0.32184     0.00003     0.05958    -0.11789     0.10014
 PX  C  40   0.02162     0.08691     0.00001     0.01283    -0.02014     0.01670
 PY  C  40   0.01621     0.03264     0.00000    -0.03058     0.08424    -0.07498
 PZ  C  40   0.00241     0.01568     0.00000     0.00884    -0.02047     0.01789
  
  S  C  41   0.03586     0.15927     0.00002     0.06090    -0.14425     0.12574
 PX  C  41   0.01564     0.07138     0.00001     0.02701    -0.06272     0.05463
 PY  C  41   0.00667     0.01950     0.00000    -0.00692     0.02175    -0.01969
 PZ  C  41   0.00268     0.01422     0.00000     0.00801    -0.01964     0.01723
  
  S  C  42   0.02472     0.12227     0.00001     0.06474    -0.16026     0.14065
 PX  C  42   0.00765     0.03805     0.00000     0.01925    -0.04687     0.04109
 PY  C  42   0.01013     0.04768     0.00001     0.02041    -0.04849     0.04232
 PZ  C  42   0.00005     0.00074     0.00000     0.00106    -0.00279     0.00248
  
  S  C  43   0.02525     0.12588     0.00002     0.06659    -0.16403     0.14396
 PX  C  43  -0.00194    -0.01015    -0.00000    -0.00684     0.01779    -0.01567
 PY  C  43   0.01252     0.06016     0.00001     0.02687    -0.06390     0.05584
 PZ  C  43  -0.00278    -0.01357    -0.00000    -0.00664     0.01617    -0.01416
  
  S  C  44   0.03925     0.18164     0.00002     0.07057    -0.16320     0.14231
 PX  C  44  -0.01043    -0.05114    -0.00001    -0.02580     0.06322    -0.05539
 PY  C  44   0.01435     0.05865     0.00001     0.00896    -0.01357     0.01113
 PZ  C  44  -0.00524    -0.02352    -0.00000    -0.00807     0.01827    -0.01588
  
  S  C  45   0.00001    -0.00003     0.51340    -0.00742    -0.02542    -0.02347
 PX  C  45  -0.00000    -0.00000     0.01766    -0.00083    -0.00277    -0.00251
 PY  C  45   0.00000    -0.00001     0.13726    -0.01014    -0.04759    -0.04575
 PZ  C  45   0.00000    -0.00000     0.01273    -0.00091    -0.00431    -0.00415
  
  S  O  46   0.00001    -0.00002     0.41237    -0.00824    -0.03052    -0.02846
 PX  O  46  -0.00000     0.00001    -0.17588     0.00380     0.01460     0.01369
 PY  O  46  -0.00000     0.00000    -0.00608    -0.00158    -0.00822    -0.00800
 PZ  O  46   0.00000    -0.00000     0.00548    -0.00027    -0.00125    -0.00120
  
  S  O  47   0.00001    -0.00003     0.57159    -0.01841    -0.08030    -0.07661
 PX  O  47   0.00000    -0.00001     0.15847    -0.00537    -0.02344    -0.02236
 PY  O  47  -0.00000     0.00000    -0.06319     0.00043     0.00054     0.00037
 PZ  O  47  -0.00000     0.00000    -0.01203     0.00025     0.00095     0.00089
  
  S  H  48   0.00001    -0.00001     0.05107     0.01026     0.04793     0.04598
  
  S  H  49   0.00045    -0.00036     0.00197     0.04072     0.05422     0.03947
  
  S  H  50   0.00054    -0.00042     0.00117     0.04008     0.03843     0.02340
  
  S  H  51   0.00002    -0.00002     0.01584     0.02001     0.08445     0.08000
  
  S  H  52   0.00005    -0.00005     0.00486     0.02149     0.07424     0.06848
  
  S  H  53   0.00168    -0.00118     0.00033     0.06550     0.02190    -0.00254
  
  S  H  54   0.00617    -0.00357     0.00010     0.08354     0.00858    -0.01818
  
  S  H  55   0.02196    -0.01038     0.00004     0.09245    -0.00700    -0.03167
  
  S  H  56   0.04892    -0.01249     0.00000     0.04116     0.00965    -0.03667
  
  S  H  57   0.03251    -0.01584     0.00002     0.07806    -0.01903    -0.01306
  
  S  H  58   0.03068    -0.01435    -0.00000    -0.01014    -0.03222     0.04774
  
  S  H  59   0.01852    -0.00875    -0.00000    -0.02062    -0.02775     0.04962
  
  S  H  60   0.01976    -0.00814    -0.00001    -0.02382    -0.02471     0.04791
  
  S  H  61   0.04929    -0.00821    -0.00001    -0.03819    -0.00513     0.03122
  
  S  H  62   0.05073     0.01162    -0.00001    -0.02330     0.05464    -0.05153
  
  S  H  63   0.02064     0.03954     0.00000    -0.01434     0.03713    -0.03367
  
  S  H  64   0.05730     0.04105    -0.00000    -0.03477     0.04898    -0.03609
  
  S  H  65   0.02050     0.07463     0.00001     0.00552    -0.00385     0.00268
  
  S  H  66   0.01659     0.06486     0.00001     0.00791    -0.01022     0.00834
  
  S  H  67   0.01901     0.06387     0.00001     0.00189     0.00269    -0.00264
  
  S  H  68   0.01936     0.06374     0.00001     0.00147     0.00257    -0.00220
  
  S  H  69   0.01664     0.06476     0.00001     0.00777    -0.01023     0.00845
  
  S  H  70   0.02068     0.07447     0.00001     0.00524    -0.00401     0.00306
  
  S  H  71   0.01068     0.04414     0.00000     0.01450    -0.03419     0.02971
  
  S  H  72   0.00564     0.02868     0.00000     0.01714    -0.04337     0.03816
  
  S  H  73   0.00579     0.02982     0.00000     0.01779    -0.04472     0.03935
  
  S  H  74   0.01248     0.05691     0.00001     0.02018    -0.04540     0.03951
  
  S  H  75   0.00000    -0.00001     0.24056    -0.00830    -0.03659    -0.03496




    ROOT NO.    7           8           9          10          11          12

           -42.35907   -41.63674   -40.64064   -39.81585   -39.34261   -37.66452
  
  
  S  N   1  -0.02389    -0.01840    -0.02082    -0.10693    -0.35196     0.24836
 PX  N   1  -0.01235    -0.00936    -0.01031    -0.05121    -0.16639     0.10666
 PY  N   1   0.00265     0.00166     0.00137     0.01011     0.00070     0.00261
 PZ  N   1  -0.00023    -0.00012    -0.00006     0.00057    -0.00084    -0.00043
  
  S  C   2  -0.03966    -0.02932    -0.03102    -0.16369    -0.42358     0.22660
 PX  C   2  -0.00543    -0.00331    -0.00216    -0.01737     0.04730    -0.08927
 PY  C   2   0.00908     0.00573     0.00486     0.03997    -0.00057     0.00721
 PZ  C   2  -0.00008    -0.00001     0.00010     0.00324    -0.00186    -0.00079
  
  S  C   3  -0.04680    -0.03442    -0.03648    -0.28555    -0.24951     0.09430
 PX  C   3   0.00155     0.00066    -0.00065    -0.07495     0.12156    -0.03148
 PY  C   3   0.02138     0.01388     0.01218     0.08530     0.04061     0.01035
 PZ  C   3   0.00138     0.00096     0.00099     0.01012     0.00108    -0.00064
  
  S  C   4  -0.06638    -0.04434    -0.04085    -0.30293    -0.15922    -0.00433
 PX  C   4   0.01850     0.01205     0.01036     0.04851     0.08343    -0.00586
 PY  C   4   0.01028     0.00385    -0.00161    -0.08140     0.00173     0.05692
 PZ  C   4  -0.00099    -0.00081    -0.00098    -0.00961    -0.00489     0.00296
  
  S  C   5  -0.10083    -0.05488    -0.03252    -0.06996    -0.07344    -0.14324
 PX  C   5   0.01619     0.00780     0.00273    -0.02396     0.00275     0.02714
 PY  C   5   0.01056     0.00002    -0.00916    -0.12794    -0.09798     0.05732
 PZ  C   5  -0.00609    -0.00404    -0.00329    -0.01338    -0.01724    -0.00837
  
  S  C   6  -0.09443    -0.04778    -0.02212     0.03537    -0.01126    -0.15758
 PX  C   6  -0.02361    -0.01223    -0.00623    -0.00243    -0.00248    -0.04181
 PY  C   6   0.00869     0.00032    -0.00656    -0.08527    -0.08206     0.04026
 PZ  C   6   0.02141     0.00999     0.00340    -0.02011    -0.01349     0.03734
  
  S  C   7  -0.07036    -0.02556     0.00099     0.15264     0.11775    -0.08946
 PX  C   7  -0.02227    -0.00811     0.00024     0.04559     0.03729    -0.02663
 PY  C   7  -0.02524    -0.01595    -0.01010    -0.00260    -0.01631    -0.08090
 PZ  C   7   0.00776     0.00062    -0.00342    -0.03286    -0.03066    -0.00882
  
  S  C   8  -0.03956     0.00313     0.02526     0.19566     0.17804     0.08398
 PX  C   8   0.00916     0.00552     0.00260    -0.01275    -0.00777     0.02966
 PY  C   8  -0.04118    -0.02817    -0.01791     0.00502    -0.01112    -0.14993
 PZ  C   8  -0.02002    -0.01295    -0.00741     0.01200     0.00342    -0.06891
  
  S  S   9  -0.05059    -0.01789    -0.00028     0.07484     0.06706    -0.04137
 PX  S   9   0.02804     0.01087     0.00083    -0.04987    -0.03823     0.03608
 PY  S   9  -0.01339    -0.01296    -0.01255    -0.04945    -0.04529    -0.06565
 PZ  S   9  -0.02419    -0.01171    -0.00438     0.02059     0.01471    -0.04706
  
  S  C  10   0.06638     0.07597     0.06696     0.14754     0.16103     0.36170
 PX  C  10   0.02026     0.01868     0.01412     0.01365     0.01863     0.08209
 PY  C  10  -0.03522    -0.02305    -0.01051     0.03328     0.02702    -0.03679
 PZ  C  10  -0.02226    -0.01685    -0.01001     0.00739     0.00293    -0.04810
  
  S  C  11   0.13251     0.11943     0.08578     0.09063     0.11171     0.38745
 PX  C  11  -0.01731    -0.01793    -0.01490    -0.02587    -0.02987    -0.08341
 PY  C  11  -0.04806    -0.03322    -0.01518     0.02644     0.02401     0.00412
 PZ  C  11  -0.01232    -0.00630    -0.00039     0.02002     0.02060     0.03307
  
  S  C  12   0.27358     0.20256     0.10829    -0.00955     0.00706     0.16472
 PX  C  12  -0.02739    -0.02304    -0.01459    -0.00407    -0.00672    -0.03707
 PY  C  12  -0.06866    -0.03766    -0.00681     0.04426     0.04880     0.14358
 PZ  C  12  -0.02473    -0.01303    -0.00164     0.01830     0.02031     0.05983
  
  S  C  13   0.27378     0.19256     0.09227    -0.04288    -0.03363     0.00881
 PX  C  13   0.10338     0.06968     0.03064    -0.02147    -0.01903    -0.01944
 PY  C  13  -0.01984    -0.00470     0.00705     0.02409     0.02845     0.10482
 PZ  C  13  -0.00512    -0.00011     0.00348     0.00946     0.01126     0.04151
  
  S  C  14   0.24665     0.13953     0.03921    -0.06719    -0.06790    -0.17425
 PX  C  14   0.06257     0.02590    -0.00122    -0.01856    -0.01985    -0.06382
 PY  C  14   0.08111     0.06724     0.03893    -0.01664    -0.01360     0.00445
 PZ  C  14   0.03092     0.02451     0.01335    -0.00632    -0.00527    -0.00048
  
  S  C  15   0.20644     0.06851    -0.02038    -0.05909    -0.06409    -0.21502
 PX  C  15  -0.07154    -0.06190    -0.03369     0.02024     0.01906     0.03355
 PY  C  15   0.07927     0.08353     0.05649    -0.01860    -0.01492     0.00984
 PZ  C  15   0.02851     0.02998     0.01949    -0.00681    -0.00557     0.00056
  
  S  S  16   0.18168     0.10801     0.03842    -0.03648    -0.03333    -0.04880
 PX  S  16  -0.11978    -0.08131    -0.03596     0.02484     0.02207     0.02350
 PY  S  16  -0.01850     0.00487     0.01542     0.01385     0.01714     0.07479
 PZ  S  16  -0.00890     0.00134     0.00589     0.00562     0.00685     0.02851
  
  S  C  17  -0.03328    -0.16791    -0.15662     0.00788    -0.00177    -0.10239
 PX  C  17  -0.04701    -0.04429    -0.01670     0.01515     0.01567     0.05791
 PY  C  17   0.07483     0.06902     0.03616    -0.02187    -0.02166    -0.05684
 PZ  C  17   0.02574     0.02612     0.00991    -0.00829    -0.00852    -0.03277
  
  S  C  18  -0.08860    -0.16692    -0.14374     0.02338     0.01634    -0.03908
 PX  C  18  -0.04771    -0.05705    -0.03521     0.01297     0.01203     0.02682
 PY  C  18   0.02611    -0.00760    -0.01449    -0.00763    -0.00966    -0.04622
 PZ  C  18   0.03197     0.04234     0.02778    -0.00848    -0.00753    -0.01355
  
  S  C  19  -0.14204    -0.11472    -0.08689     0.02852     0.02572     0.02632
 PX  C  19  -0.03279     0.00511     0.01835     0.00141     0.00230     0.01626
 PY  C  19  -0.03663    -0.08319    -0.05135     0.01348     0.01149     0.01846
 PZ  C  19   0.02735     0.00134    -0.00834    -0.00205    -0.00251    -0.01262
  
  S  C  20  -0.18525    -0.01972     0.07007     0.01130     0.01428     0.07190
 PX  C  20   0.00573     0.07528     0.10196    -0.01607    -0.01265     0.00695
 PY  C  20  -0.01589    -0.11966    -0.06385     0.01918     0.01761     0.07008
 PZ  C  20  -0.00403    -0.04889    -0.06886     0.01057     0.00820    -0.00935
  
  S  C  21  -0.11306    -0.13386     0.00139     0.02411     0.02551     0.15136
 PX  C  21   0.05482     0.05198     0.05192    -0.01164    -0.00952     0.00609
 PY  C  21   0.03088    -0.05076    -0.08235     0.00825     0.00522    -0.01478
 PZ  C  21  -0.04270    -0.03516    -0.03217     0.00804     0.00670    -0.00311
  
  S  C  22  -0.07807    -0.18217    -0.12051     0.02591     0.02081     0.04066
 PX  C  22   0.00633     0.02309     0.03337     0.00012     0.00249     0.04355
 PY  C  22   0.05657     0.06162     0.02223    -0.01485    -0.01483    -0.05506
 PZ  C  22  -0.00901    -0.02168    -0.02620     0.00107    -0.00067    -0.02776
  
  S  C  23   0.12570    -0.08951    -0.01748     0.00710     0.00800     0.09825
 PX  C  23   0.10676    -0.03251    -0.07970     0.00256    -0.00030    -0.03898
 PY  C  23  -0.00568    -0.03554    -0.05158     0.00853     0.00710     0.01455
 PZ  C  23  -0.07839     0.02650     0.06228    -0.00251    -0.00031     0.02714
  
  S  C  24   0.21378    -0.12958    -0.14237     0.01460     0.01096     0.03675
 PX  C  24   0.02648    -0.00468    -0.02519     0.00042    -0.00064    -0.02471
 PY  C  24  -0.08985     0.04114     0.04760    -0.00323    -0.00185     0.00019
 PZ  C  24  -0.01398     0.00095     0.01573    -0.00013     0.00057     0.01814
  
  S  C  25   0.24213    -0.12548    -0.17207     0.01358     0.00834    -0.01786
 PX  C  25  -0.05890     0.03080     0.03558    -0.00300    -0.00203    -0.00552
 PY  C  25  -0.05871     0.02419     0.03655    -0.00176    -0.00044     0.01696
 PZ  C  25   0.04673    -0.02403    -0.02820     0.00229     0.00151     0.00305
  
  S  C  26   0.24361    -0.11136    -0.16554     0.01027     0.00467    -0.05353
 PX  C  26  -0.07022     0.02897     0.03968    -0.00198    -0.00065     0.01080
 PY  C  26   0.03991    -0.02542    -0.03053     0.00333     0.00258     0.00867
 PZ  C  26   0.05011    -0.02011    -0.02776     0.00126     0.00031    -0.00886
  
  S  C  27   0.21161    -0.05587    -0.10500     0.00010    -0.00415    -0.08353
 PX  C  27   0.00772    -0.02600    -0.02947     0.00496     0.00416     0.00790
 PY  C  27   0.09339    -0.04800    -0.05560     0.00439     0.00276     0.00075
 PZ  C  27  -0.01044     0.02228     0.02540    -0.00409    -0.00343    -0.00770
  
  S  C  28   0.11916     0.03190     0.05337    -0.01474    -0.01338    -0.03292
 PX  C  28   0.10695    -0.07784    -0.11857     0.01056     0.00657    -0.02283
 PY  C  28   0.04199    -0.06643    -0.02568     0.00873     0.00892     0.07120
 PZ  C  28  -0.08210     0.06190     0.08968    -0.00848    -0.00557     0.01048
  
  S  N  29  -0.11330     0.23961     0.21586    -0.03570    -0.02981    -0.09800
 PX  N  29   0.03362     0.00023     0.01151    -0.00424    -0.00422    -0.01262
 PY  N  29  -0.02924    -0.02986     0.07763     0.00038     0.00372     0.08478
 PZ  N  29  -0.02073     0.00038    -0.01049     0.00259     0.00236     0.00017
  
  S  C  30   0.00130     0.16394    -0.10876    -0.00625    -0.00984    -0.11545
 PX  C  30   0.01243    -0.00321     0.03771    -0.00557    -0.00506    -0.02576
 PY  C  30  -0.05939     0.06649     0.14755    -0.01789    -0.01437    -0.05230
 PZ  C  30   0.00473    -0.01429    -0.01748     0.00294     0.00254     0.00874
  
  S  C  31   0.02166     0.08939    -0.21774     0.01329     0.00803    -0.00994
 PX  C  31   0.01156     0.02996    -0.04939     0.00099    -0.00045    -0.02059
 PY  C  31  -0.03221     0.02452     0.08713    -0.01000    -0.00822    -0.04551
 PZ  C  31   0.00523     0.00295    -0.02899     0.00250     0.00183     0.00413
  
  S  C  32   0.04680     0.03808    -0.26612     0.02331     0.01775     0.08229
 PX  C  32   0.02387    -0.00018    -0.07842     0.00694     0.00520     0.02359
 PY  C  32   0.00781     0.01308    -0.03665     0.00155     0.00037    -0.02395
 PZ  C  32   0.00379    -0.00257    -0.01242     0.00148     0.00128     0.01038
  
  S  C  33   0.05624    -0.02774    -0.18737     0.02089     0.01761     0.13125
 PX  C  33   0.01606    -0.05717     0.06833    -0.00370    -0.00225    -0.00101
 PY  C  33   0.03497    -0.00186    -0.08616     0.00620     0.00379    -0.01421
 PZ  C  33  -0.00266    -0.01398     0.03290    -0.00203    -0.00122     0.00254
  
  S  C  34   0.09412    -0.13464    -0.01932     0.00684     0.00605     0.03392
 PX  C  34  -0.00532    -0.04983     0.14141    -0.01146    -0.00871    -0.05125
 PY  C  34   0.00781     0.05717    -0.09789     0.00376     0.00096    -0.03897
 PZ  C  34  -0.00336    -0.02324     0.05326    -0.00345    -0.00224    -0.00488
  
  S  C  35   0.06656     0.00975    -0.08945     0.00107    -0.00228    -0.06988
 PX  C  35  -0.00949    -0.04036     0.09284    -0.00543    -0.00322    -0.00081
 PY  C  35  -0.03015     0.07224     0.01658    -0.00676    -0.00653    -0.03962
 PZ  C  35  -0.00044    -0.02426     0.02081     0.00027     0.00086     0.01046
  
  S  C  36   0.05851    -0.22821     0.28666    -0.01628    -0.01052    -0.04138
 PX  C  36  -0.00210    -0.00389     0.04203    -0.00509    -0.00466    -0.05061
 PY  C  36   0.02279    -0.02547    -0.01035     0.00150     0.00110     0.00007
 PZ  C  36  -0.00497     0.00364     0.01247    -0.00152    -0.00133    -0.01227
  
  S  C  37   0.03710    -0.15127     0.21467    -0.01409    -0.01008    -0.06416
 PX  C  37  -0.00538     0.01851    -0.01670     0.00048     0.00007    -0.00551
 PY  C  37   0.00356     0.00553    -0.02063     0.00152     0.00106     0.00427
 PZ  C  37  -0.01500     0.05550    -0.07143     0.00432     0.00295     0.01548
  
  S  C  38   0.03782    -0.15115     0.21431    -0.01415    -0.01017    -0.06515
 PX  C  38  -0.01141     0.04211    -0.04909     0.00254     0.00152     0.00268
 PY  C  38   0.00815    -0.01180     0.00306     0.00000    -0.00001    -0.00187
 PZ  C  38   0.00857    -0.03920     0.05828    -0.00385    -0.00274    -0.01652
  
  S  C  39  -0.05857     0.02824     0.08275    -0.00692    -0.00476    -0.00795
 PX  C  39   0.03230    -0.08218     0.09425    -0.00629    -0.00475    -0.03930
 PY  C  39   0.06050    -0.13947     0.08940    -0.00128     0.00084     0.03805
 PZ  C  39  -0.00311     0.00508     0.00714    -0.00133    -0.00133    -0.01670
  
  S  C  40  -0.06595     0.10951    -0.09834     0.00800     0.00706     0.08473
 PX  C  40   0.00335    -0.03805     0.06365    -0.00390    -0.00252    -0.00574
 PY  C  40   0.06438    -0.11899     0.03333     0.00289     0.00381     0.04904
 PZ  C  40  -0.01103     0.01233     0.00978    -0.00150    -0.00132    -0.01039
  
  S  C  41  -0.10645     0.21306    -0.15246     0.00648     0.00383     0.02025
 PX  C  41  -0.04196     0.07465    -0.03748     0.00074     0.00011    -0.00135
 PY  C  41   0.01816    -0.03491     0.00385     0.00196     0.00231     0.03306
 PZ  C  41  -0.01381     0.02502    -0.01005    -0.00017    -0.00040    -0.00639
  
  S  C  42  -0.12055     0.23810    -0.13846     0.00268    -0.00020    -0.03548
 PX  C  42  -0.03307     0.06025    -0.02503    -0.00038    -0.00095    -0.01747
 PY  C  42  -0.03441     0.06513    -0.03900     0.00123     0.00057     0.00296
 PZ  C  42  -0.00194     0.00308     0.00091    -0.00032    -0.00034    -0.00490
  
  S  C  43  -0.11942     0.22567    -0.10740    -0.00019    -0.00264    -0.06089
 PX  C  43   0.01544    -0.03520     0.02961    -0.00136    -0.00079    -0.00266
 PY  C  43  -0.04338     0.07636    -0.03087    -0.00029    -0.00090    -0.01399
 PZ  C  43   0.01181    -0.02280     0.01306    -0.00029    -0.00003     0.00191
  
  S  C  44  -0.10051     0.15382    -0.01580    -0.00535    -0.00586    -0.06715
 PX  C  44   0.04726    -0.09314     0.05643    -0.00144    -0.00034     0.00694
 PY  C  44   0.00335    -0.03060     0.04841    -0.00276    -0.00165     0.00097
 PZ  C  44   0.01116    -0.01763     0.00521     0.00015     0.00022     0.00158
  
  S  C  45   0.00610     0.00159    -0.00266    -0.11354     0.08729     0.02074
 PX  C  45   0.00004    -0.00123    -0.00583    -0.26860     0.32121     0.00452
 PY  C  45   0.02220     0.01639     0.01876     0.21524     0.02618    -0.05260
 PZ  C  45   0.00207     0.00158     0.00199     0.02991    -0.00819    -0.00570
  
  S  O  46   0.00851     0.00257    -0.00590    -0.38052     0.46708     0.01712
 PX  O  46  -0.00462    -0.00208     0.00049     0.09795    -0.13558    -0.00172
 PY  O  46   0.00443     0.00365     0.00501     0.08413    -0.03231    -0.01354
 PZ  O  46   0.00057     0.00041     0.00046     0.00470     0.00162    -0.00134
  
  S  O  47   0.03441     0.02459     0.02949     0.48134    -0.21498    -0.07468
 PX  O  47   0.00993     0.00690     0.00744     0.08440     0.00684    -0.02208
 PY  O  47   0.00067     0.00093     0.00143     0.00131     0.04294    -0.01741
 PZ  O  47  -0.00031    -0.00017    -0.00014    -0.00313     0.00431    -0.00106
  
  S  H  48  -0.02118    -0.01444    -0.01398    -0.12609    -0.02392    -0.00280
  
  S  H  49   0.03374     0.03540     0.02915     0.05616     0.06178     0.14355
  
  S  H  50   0.04322     0.04048     0.03032     0.03845     0.04595     0.14642
  
  S  H  51  -0.03079    -0.01708    -0.01038    -0.01611    -0.04196    -0.03447
  
  S  H  52  -0.01722    -0.00473     0.00256     0.05095     0.04115    -0.01226
  
  S  H  53   0.08085     0.06007     0.03190    -0.00499    -0.00077     0.03505
  
  S  H  54   0.06571     0.03098     0.00281    -0.01952    -0.02070    -0.06526
  
  S  H  55  -0.01097    -0.04251    -0.04573     0.00253    -0.00021    -0.03627
  
  S  H  56  -0.04231    -0.01625    -0.02760     0.00732     0.00650    -0.00177
  
  S  H  57  -0.00699    -0.05295    -0.03893     0.00538     0.00359     0.00633
  
  S  H  58   0.05608    -0.04286    -0.04387     0.00557     0.00455     0.02008
  
  S  H  59   0.06866    -0.03726    -0.05334     0.00445     0.00283    -0.00616
  
  S  H  60   0.06930    -0.03223    -0.05096     0.00319     0.00141    -0.02078
  
  S  H  61   0.05766    -0.00427    -0.02586    -0.00197    -0.00333    -0.04317
  
  S  H  62  -0.00651     0.03704    -0.05622     0.00307     0.00172    -0.00957
  
  S  H  63   0.00915     0.01737    -0.08548     0.00774     0.00608     0.03381
  
  S  H  64   0.02443    -0.00217     0.00763    -0.00385    -0.00433    -0.04499
  
  S  H  65   0.01421    -0.05756     0.07927    -0.00504    -0.00354    -0.02115
  
  S  H  66   0.01102    -0.05680     0.09185    -0.00643    -0.00474    -0.03230
  
  S  H  67   0.01846    -0.06419     0.08729    -0.00588    -0.00434    -0.03112
  
  S  H  68   0.01915    -0.06417     0.08694    -0.00592    -0.00440    -0.03183
  
  S  H  69   0.01125    -0.05680     0.09174    -0.00645    -0.00477    -0.03262
  
  S  H  70   0.01467    -0.05745     0.07906    -0.00508    -0.00360    -0.02180
  
  S  H  71  -0.02756     0.06095    -0.05625     0.00320     0.00225     0.01556
  
  S  H  72  -0.03403     0.06979    -0.04338     0.00095     0.00001    -0.01219
  
  S  H  73  -0.03360     0.06513    -0.03149    -0.00017    -0.00095    -0.02270
  
  S  H  74  -0.02443     0.02823     0.01904    -0.00325    -0.00300    -0.03039
  
  S  H  75   0.01589     0.01140     0.01335     0.19225    -0.04914    -0.04003




    ROOT NO.   13          14          15          16          17          18

           -37.10286   -36.17169   -35.31194   -34.25202   -33.08575   -32.63250
  
  
  S  N   1  -0.15241     0.49706    -0.01990     0.03990     0.03014    -0.01944
 PX  N   1  -0.06267     0.18660    -0.00669     0.01119     0.00665    -0.00394
 PY  N   1  -0.00202     0.00308     0.00037    -0.00316    -0.00509     0.00383
 PZ  N   1   0.00021     0.00053    -0.00011     0.00055     0.00061    -0.00038
  
  S  C   2  -0.11698     0.24052    -0.00346    -0.01006    -0.02019     0.01503
 PX  C   2   0.07263    -0.35147     0.01909    -0.05197    -0.04899     0.03299
 PY  C   2  -0.00622     0.01373     0.00073    -0.00814    -0.01412     0.01088
 PZ  C   2   0.00029     0.00156    -0.00022     0.00093     0.00087    -0.00047
  
  S  C   3  -0.01139    -0.27139     0.02463    -0.08687    -0.09081     0.06137
 PX  C   3   0.01961    -0.07333     0.00349    -0.00819    -0.00544     0.00265
 PY  C   3  -0.01637     0.08135    -0.00234    -0.00561    -0.02144     0.01891
 PZ  C   3  -0.00062     0.00796    -0.00052     0.00124     0.00034     0.00014
  
  S  C   4   0.04411    -0.34342     0.01865    -0.03710    -0.00944    -0.00199
 PX  C   4  -0.00670     0.06501    -0.00337     0.00568     0.00097     0.00014
 PY  C   4  -0.02559    -0.03292     0.00893    -0.04534    -0.05965     0.04325
 PZ  C   4  -0.00064    -0.00529     0.00050    -0.00165    -0.00192     0.00153
  
  S  C   5   0.08742    -0.12158    -0.00836     0.06464     0.08912    -0.06379
 PX  C   5  -0.00905    -0.05035     0.00626    -0.02302    -0.01802     0.00869
 PY  C   5  -0.00849    -0.14723     0.01210    -0.03152    -0.01395     0.00337
 PZ  C   5   0.00642    -0.00707    -0.00139     0.00988     0.01270    -0.00820
  
  S  C   6   0.07382     0.06477    -0.02069     0.09291     0.09167    -0.05481
 PX  C   6   0.02363    -0.02987    -0.00203     0.01487     0.02063    -0.01523
 PY  C   6  -0.00610    -0.08731     0.00616    -0.00920     0.01021    -0.01301
 PZ  C   6  -0.01608    -0.01202     0.00346    -0.01301    -0.01040     0.00589
  
  S  C   7   0.01814     0.15389    -0.01106     0.01499    -0.02172     0.02605
 PX  C   7   0.00616     0.03101    -0.00195     0.00025    -0.00639     0.00522
 PY  C   7   0.04176     0.02523    -0.01223     0.05985     0.06388    -0.03984
 PZ  C   7   0.01003    -0.01485    -0.00271     0.02018     0.02670    -0.01768
  
  S  C   8  -0.07188     0.08513     0.01552    -0.10428    -0.12606     0.08141
 PX  C   8  -0.01073    -0.03468     0.00398    -0.00903     0.00528    -0.00898
 PY  C   8   0.07183     0.06252    -0.01961     0.08109     0.06815    -0.03717
 PZ  C   8   0.03049     0.04427    -0.00910     0.03268     0.01932    -0.00669
  
  S  S   9   0.01172     0.01029    -0.00019    -0.00518    -0.00275    -0.00220
 PX  S   9  -0.01038    -0.03596     0.00325    -0.00616     0.00018    -0.00134
 PY  S   9   0.04152    -0.03303    -0.00735     0.04445     0.05078    -0.03258
 PZ  S   9   0.02091     0.01417    -0.00469     0.01913     0.01743    -0.01059
  
  S  C  10  -0.18215    -0.08847     0.04126    -0.16261    -0.12238     0.06269
 PX  C  10  -0.03609    -0.04138     0.00778    -0.02001     0.00348    -0.01003
 PY  C  10   0.00153     0.05096     0.00292    -0.04362    -0.06758     0.04562
 PZ  C  10   0.01529     0.03724    -0.00202    -0.00927    -0.02819     0.02206
  
  S  C  11  -0.16359    -0.15968     0.02846    -0.06140     0.01988    -0.03445
 PX  C  11   0.04018     0.02670    -0.00935     0.03047     0.02087    -0.01151
 PY  C  11  -0.02199     0.02051     0.01199    -0.07569    -0.08259     0.04873
 PZ  C  11  -0.02392    -0.00209     0.00834    -0.04226    -0.04098     0.02343
  
  S  C  12  -0.01337    -0.09436    -0.01928     0.13736     0.15075    -0.08855
 PX  C  12   0.00896     0.01742    -0.00057    -0.02833    -0.02440     0.00653
 PY  C  12  -0.08126    -0.06261     0.02079    -0.06145    -0.00549    -0.01322
 PZ  C  12  -0.03377    -0.02555     0.00913    -0.02586    -0.00447    -0.00342
  
  S  C  13   0.05702    -0.01818    -0.02679     0.17915     0.12093    -0.03974
 PX  C  13   0.02914     0.00286    -0.01218     0.04613     0.02903    -0.01390
 PY  C  13  -0.04531    -0.05062     0.00343    -0.00367     0.03739    -0.03453
 PZ  C  13  -0.01830    -0.01984     0.00230    -0.00167     0.01322    -0.01200
  
  S  C  14   0.08567     0.07501     0.00127     0.02746    -0.05380     0.06081
 PX  C  14   0.01635     0.02859     0.00480    -0.05539    -0.05403     0.02300
 PY  C  14   0.03776    -0.00645    -0.02742     0.10293     0.07417    -0.03237
 PZ  C  14   0.01177    -0.00187    -0.00572     0.03787     0.02486    -0.00838
  
  S  C  15   0.04619     0.09665     0.01310    -0.20203    -0.17759     0.07454
 PX  C  15  -0.03565    -0.01332    -0.00446    -0.09367    -0.02145    -0.02125
 PY  C  15   0.05492    -0.00628    -0.03877     0.13381     0.08151    -0.03384
 PZ  C  15   0.01449    -0.00232    -0.00156     0.05703     0.02788    -0.00348
  
  S  S  16   0.04357     0.01430    -0.02584    -0.00426     0.00566    -0.02399
 PX  S  16  -0.03394    -0.00398     0.01292    -0.05640    -0.03434     0.01476
 PY  S  16  -0.01951    -0.03860     0.00329     0.07183     0.06612    -0.02717
 PZ  S  16  -0.00891    -0.01483     0.00472     0.03016     0.02458    -0.00741
  
  S  C  17  -0.08602     0.03782     0.04633    -0.29078    -0.12737     0.02455
 PX  C  17   0.00436    -0.02338    -0.05528     0.00758     0.06708    -0.06233
 PY  C  17   0.05106     0.03849    -0.04262    -0.12821    -0.09939     0.01657
 PZ  C  17  -0.00802     0.01155     0.04176     0.00578    -0.03579     0.03893
  
  S  C  18  -0.15676    -0.01858     0.17259     0.06358     0.01279     0.05026
 PX  C  18  -0.02929    -0.01919     0.01101     0.04503     0.05126    -0.02402
 PY  C  18   0.01784     0.03212    -0.02672    -0.18594    -0.08455     0.01573
 PZ  C  18   0.02020     0.01048    -0.00690    -0.01837    -0.02740     0.01381
  
  S  C  19  -0.16249    -0.06123     0.18926     0.34770     0.08724     0.01865
 PX  C  19   0.00833    -0.00640    -0.00500     0.04135     0.00756    -0.01191
 PY  C  19  -0.02423    -0.01130     0.01585    -0.00224     0.06195    -0.01029
 PZ  C  19  -0.00283     0.00580     0.00262    -0.03454    -0.00350     0.00708
  
  S  C  20   0.02031    -0.03003     0.05396     0.23855     0.04300     0.01774
 PX  C  20   0.11303     0.02986    -0.06896    -0.10947    -0.04295     0.01956
 PY  C  20   0.05853    -0.01134    -0.10636    -0.03111     0.10632    -0.03277
 PZ  C  20  -0.08667    -0.02115     0.05892     0.07765     0.03679    -0.01622
  
  S  C  21   0.18442    -0.01301    -0.25223    -0.00868     0.08726    -0.06008
 PX  C  21   0.08261     0.01864    -0.06559    -0.02517    -0.04837     0.02767
 PY  C  21  -0.05144    -0.00572    -0.04366    -0.07998    -0.00262    -0.05912
 PZ  C  21  -0.05687    -0.01335     0.05073     0.02263     0.03874    -0.01748
  
  S  C  22   0.02013    -0.00146    -0.15963    -0.21385     0.00947    -0.09964
 PX  C  22   0.05467    -0.00849    -0.06855     0.06288     0.03602    -0.01932
 PY  C  22  -0.01036     0.02161     0.03272    -0.06527    -0.07811     0.02674
 PZ  C  22  -0.03968     0.00448     0.04786    -0.04236    -0.01982     0.01115
  
  S  C  23   0.19721     0.01143    -0.24032    -0.01239    -0.03928     0.00864
 PX  C  23  -0.08209    -0.00628     0.05941     0.02859    -0.03344     0.00209
 PY  C  23  -0.01586    -0.01292    -0.07104     0.03774    -0.02866    -0.04312
 PZ  C  23   0.06042     0.00545    -0.03859    -0.02504     0.02918     0.00033
  
  S  C  24   0.02863    -0.01187    -0.14577     0.10259    -0.12965    -0.02301
 PX  C  24  -0.05695    -0.00549     0.06933     0.03810    -0.01377     0.00440
 PY  C  24   0.00540     0.00137    -0.00345    -0.01482     0.00561    -0.01121
 PZ  C  24   0.04158     0.00398    -0.05095    -0.02757     0.01045    -0.00271
  
  S  C  25  -0.09052    -0.02054     0.03850     0.14269    -0.09005    -0.00764
 PX  C  25  -0.00520     0.00146     0.02918    -0.01458     0.02646     0.00047
 PY  C  25   0.04005     0.00284    -0.06179     0.00361    -0.03898    -0.00726
 PZ  C  25   0.00153    -0.00121    -0.01809     0.01009    -0.01673    -0.00001
  
  S  C  26  -0.14898    -0.01760     0.16389     0.05104     0.05338    -0.00002
 PX  C  26   0.02316     0.00098    -0.02361     0.01109    -0.01524    -0.00312
 PY  C  26   0.00358    -0.00449    -0.02539     0.06116    -0.06239     0.00167
 PZ  C  26  -0.01805    -0.00051     0.01885    -0.01259     0.01625     0.00184
  
  S  C  27  -0.15227    -0.00135     0.19211    -0.11296     0.14526    -0.00697
 PX  C  27  -0.01368    -0.00847     0.00519     0.05170     0.00152    -0.00066
 PY  C  27  -0.00931    -0.00276     0.01751     0.02963    -0.01439     0.01397
 PZ  C  27   0.00746     0.00628    -0.00585    -0.04448     0.00625    -0.00233
  
  S  C  28   0.03077     0.02781     0.06200    -0.15637     0.05138     0.03150
 PX  C  28  -0.08910    -0.01440     0.04400     0.00875     0.04767    -0.01774
 PY  C  28   0.11360    -0.00111    -0.12623     0.07369    -0.03928     0.02882
 PZ  C  28   0.05494     0.01049    -0.02609    -0.01790    -0.02142     0.00657
  
  S  N  29  -0.06165     0.02443     0.17204    -0.05344    -0.09416     0.00914
 PX  N  29   0.01692     0.01422    -0.00920    -0.13865     0.07051    -0.01495
 PY  N  29   0.17729     0.01367    -0.06986     0.03255     0.01641     0.06796
 PZ  N  29  -0.02828    -0.01056     0.00998     0.07328    -0.01401    -0.00848
  
  S  C  30  -0.22148    -0.01836    -0.01566    -0.03234    -0.03475    -0.09122
 PX  C  30  -0.02188     0.00790     0.01587    -0.13892     0.16056    -0.06671
 PY  C  30  -0.04559     0.01144     0.17168     0.00025    -0.06840     0.01369
 PZ  C  30   0.00298    -0.00366    -0.02752     0.00290     0.04160    -0.01566
  
  S  C  31  -0.07756    -0.02571    -0.13143     0.16560    -0.24706     0.09263
 PX  C  31  -0.04399    -0.00450    -0.02660    -0.02946     0.02921    -0.05951
 PY  C  31  -0.07303    -0.00178     0.08565     0.00013     0.00960    -0.05235
 PZ  C  31  -0.00091    -0.00260    -0.01803     0.00924     0.00309    -0.00366
  
  S  C  32   0.11849    -0.00164    -0.10380     0.12074    -0.19661     0.19976
 PX  C  32   0.03771     0.00205    -0.02135    -0.01356     0.02346    -0.03256
 PY  C  32  -0.07366    -0.01622    -0.09674     0.04444    -0.05669    -0.01971
 PZ  C  32   0.02223     0.00316     0.01364    -0.00835     0.01623    -0.00453
  
  S  C  33   0.26838     0.03320     0.13340    -0.00383    -0.02227     0.01414
 PX  C  33   0.01206     0.00652     0.05886    -0.05080     0.08076    -0.15733
 PY  C  33  -0.06774    -0.01991    -0.18043     0.01664     0.00995    -0.01035
 PZ  C  33   0.01546     0.00516     0.04769    -0.01432     0.01795    -0.03720
  
  S  C  34   0.05877     0.00555    -0.02778    -0.09683     0.22560    -0.11600
 PX  C  34  -0.09798    -0.01055    -0.03438    -0.00959     0.05609     0.06266
 PY  C  34  -0.10926    -0.02061    -0.16752    -0.04096     0.11389     0.00729
 PZ  C  34  -0.00369     0.00090     0.02059     0.00832    -0.00824     0.01460
  
  S  C  35  -0.15424    -0.01725    -0.14034    -0.17089     0.29898    -0.12551
 PX  C  35   0.01014     0.00378     0.03395    -0.00616     0.03187     0.04855
 PY  C  35  -0.05441     0.00234     0.06891    -0.01208    -0.06767    -0.01024
 PZ  C  35   0.01606    -0.00036    -0.00878     0.01341     0.01358     0.01567
  
  S  C  36  -0.07570    -0.00903    -0.02471     0.02921    -0.01775     0.05865
 PX  C  36  -0.12215    -0.02161    -0.14033     0.03600    -0.01218     0.17448
 PY  C  36  -0.00658    -0.00237    -0.03991    -0.04188     0.14640     0.07380
 PZ  C  36  -0.02881    -0.00507    -0.02905     0.01905    -0.03194     0.03062
  
  S  C  37  -0.14131    -0.02294    -0.13172     0.05196    -0.01713     0.21735
 PX  C  37  -0.01559    -0.00325    -0.02454     0.00622    -0.00392     0.04053
 PY  C  37   0.00754     0.00096    -0.00296    -0.02032     0.05871     0.01918
 PZ  C  37   0.03175     0.00451     0.02232    -0.00536    -0.00866    -0.02771
  
  S  C  38  -0.14269    -0.02269    -0.12805     0.04573    -0.01113     0.21559
 PX  C  38   0.00141    -0.00080    -0.01214     0.00217    -0.00289     0.02496
 PY  C  38  -0.00518    -0.00084    -0.01180    -0.01733     0.05796     0.03060
 PZ  C  38  -0.03552    -0.00555    -0.02923     0.01498    -0.01520     0.03519
  
  S  C  39   0.00434     0.00607     0.09197     0.03727    -0.19373    -0.24819
 PX  C  39  -0.09381    -0.01691    -0.10716     0.04082    -0.06837     0.00147
 PY  C  39   0.09863     0.01807     0.12649    -0.01440     0.03866     0.05363
 PZ  C  39  -0.04140    -0.00757    -0.05028     0.01352    -0.02474    -0.00931
  
  S  C  40   0.21185     0.03881     0.26779    -0.03102     0.00111     0.05002
 PX  C  40  -0.00348     0.00191     0.03444     0.00483    -0.06907    -0.21140
 PY  C  40   0.11178     0.01664     0.09356     0.00298    -0.04086    -0.06812
 PZ  C  40  -0.02136    -0.00261    -0.00871     0.00106    -0.00995    -0.04016
  
  S  C  41   0.04900     0.00968     0.05912    -0.04266     0.17687     0.36665
 PX  C  41   0.00005     0.00129     0.01551    -0.00718    -0.00091    -0.03226
 PY  C  41   0.08132     0.01417     0.09837     0.00624    -0.06336    -0.02617
 PZ  C  41  -0.01491    -0.00229    -0.01421    -0.00283     0.01134    -0.00324
  
  S  C  42  -0.09145    -0.01629    -0.12854    -0.03576     0.20467     0.23490
 PX  C  42  -0.04332    -0.00770    -0.05351     0.00584    -0.02839    -0.10356
 PY  C  42   0.01005     0.00302     0.02711    -0.01054     0.02920     0.07558
 PZ  C  42  -0.01265    -0.00248    -0.01834     0.00342    -0.01246    -0.03972
  
  S  C  43  -0.15484    -0.02848    -0.20988     0.00607     0.01887    -0.11548
 PX  C  43  -0.00559    -0.00112    -0.00210     0.02214    -0.10274    -0.13760
 PY  C  43  -0.03150    -0.00454    -0.02270     0.00506    -0.03155    -0.05374
 PZ  C  43   0.00439     0.00055     0.00362     0.00463    -0.01988    -0.02446
  
  S  C  44  -0.15796    -0.02662    -0.16117     0.05791    -0.20442    -0.30566
 PX  C  44   0.01706     0.00248     0.01791     0.01238    -0.02741     0.02721
 PY  C  44   0.01154     0.00414     0.05085     0.01598    -0.06596    -0.01690
 PZ  C  44   0.00217    -0.00015    -0.00496     0.00036     0.00508     0.00996
  
  S  C  45  -0.01058    -0.01148     0.00397    -0.02225    -0.03263     0.02474
 PX  C  45  -0.02006     0.16608    -0.01113     0.03555     0.03751    -0.02589
 PY  C  45   0.01396     0.09475    -0.01092     0.04418     0.05178    -0.03642
 PZ  C  45   0.00232     0.00294    -0.00070     0.00328     0.00409    -0.00290
  
  S  O  46  -0.03495     0.23881    -0.01420     0.03939     0.03505    -0.02244
 PX  O  46   0.00803    -0.05942     0.00346    -0.00889    -0.00686     0.00405
 PY  O  46   0.00520     0.01336    -0.00229     0.01059     0.01343    -0.00965
 PZ  O  46   0.00028     0.00322    -0.00034     0.00137     0.00161    -0.00113
  
  S  O  47   0.04095    -0.07664    -0.00020     0.01150     0.01945    -0.01491
 PX  O  47   0.00832     0.01200    -0.00243     0.01088     0.01321    -0.00936
 PY  O  47   0.00602     0.02365    -0.00369     0.01831     0.02636    -0.02014
 PZ  O  47   0.00037     0.00174    -0.00028     0.00146     0.00220    -0.00170
  
  S  H  48   0.01581    -0.12542     0.00716    -0.01577    -0.00588     0.00056
  
  S  H  49  -0.06978    -0.03467     0.01485    -0.05413    -0.04130     0.02304
  
  S  H  50  -0.06455    -0.05808     0.01209    -0.03411    -0.00156    -0.00972
  
  S  H  51   0.01826     0.02205    -0.00688     0.03410     0.03771    -0.02366
  
  S  H  52  -0.00323     0.05282    -0.00178    -0.00520    -0.02029     0.01811
  
  S  H  53   0.00388    -0.01964    -0.00587     0.06184     0.04912    -0.01722
  
  S  H  54   0.01955     0.02931     0.01165    -0.00978    -0.03868     0.03600
  
  S  H  55  -0.05602     0.00323     0.07717     0.00885    -0.02511     0.04093
  
  S  H  56  -0.07304    -0.02308     0.08387     0.16114     0.00384     0.01921
  
  S  H  57   0.02244     0.00731    -0.08509    -0.11524    -0.02453    -0.04184
  
  S  H  58   0.02127    -0.00461    -0.07986     0.03658    -0.05886    -0.01902
  
  S  H  59  -0.03374    -0.00825     0.01447     0.06278    -0.04250    -0.00574
  
  S  H  60  -0.05833    -0.00707     0.06942     0.02026     0.02818    -0.00210
  
  S  H  61  -0.07587    -0.00038     0.08167    -0.07146     0.08595    -0.01342
  
  S  H  62  -0.04232    -0.01164    -0.02113     0.09905    -0.12982     0.05613
  
  S  H  63   0.05542     0.00180    -0.01841     0.05494    -0.09227     0.12401
  
  S  H  64  -0.08564    -0.00631    -0.03716    -0.09088     0.15081    -0.03216
  
  S  H  65  -0.04605    -0.00743    -0.04181     0.01850    -0.00703     0.07343
  
  S  H  66  -0.07227    -0.01205    -0.06876     0.03535    -0.03903     0.10118
  
  S  H  67  -0.07041    -0.01165    -0.07334     0.01383     0.02550     0.12435
  
  S  H  68  -0.07145    -0.01151    -0.07096     0.01041     0.02886     0.12334
  
  S  H  69  -0.07276    -0.01197    -0.06748     0.03301    -0.03648     0.10065
  
  S  H  70  -0.04694    -0.00728    -0.03961     0.01484    -0.00372     0.07234
  
  S  H  71   0.03539     0.00583     0.03205    -0.01451     0.07556     0.19671
  
  S  H  72  -0.03289    -0.00632    -0.05368    -0.01530     0.09826     0.12191
  
  S  H  73  -0.05955    -0.01160    -0.08999     0.00413     0.00760    -0.05247
  
  S  H  74  -0.07215    -0.01265    -0.07827     0.03431    -0.10737    -0.12622
  
  S  H  75   0.01874    -0.00758    -0.00276     0.01647     0.02369    -0.01786




    ROOT NO.   19          20          21          22          23          24

           -32.41763   -32.05336   -31.30004   -31.24190   -30.19428   -29.92383
  
  
  S  N   1  -0.00845     0.05611    -0.07766    -0.01341     0.04678    -0.07924
 PX  N   1  -0.00165     0.01048    -0.01376    -0.00237     0.00842    -0.01395
 PY  N   1   0.00175    -0.01197     0.01492     0.00253    -0.00242     0.00197
 PZ  N   1  -0.00015     0.00076     0.00014     0.00004    -0.00178     0.00354
  
  S  C   2   0.00684    -0.04663     0.06141     0.01051    -0.02599     0.04207
 PX  C   2   0.01452    -0.09656     0.12820     0.02201    -0.06529     0.10782
 PY  C   2   0.00505    -0.03539     0.04775     0.00816    -0.01427     0.01936
 PZ  C   2  -0.00017     0.00056     0.00165     0.00032    -0.00402     0.00774
  
  S  C   3   0.02691    -0.17523     0.21307     0.03623    -0.07905     0.11949
 PX  C   3   0.00091    -0.00243    -0.01020    -0.00197     0.02122    -0.04198
 PY  C   3   0.00926    -0.07123     0.11653     0.02023    -0.05984     0.09722
 PZ  C   3   0.00015    -0.00226     0.00721     0.00130    -0.00791     0.01451
  
  S  C   4  -0.00271     0.03986    -0.11429    -0.02043     0.09928    -0.17595
 PX  C   4   0.00018    -0.00138    -0.00324    -0.00069     0.01809    -0.03709
 PY  C   4   0.01955    -0.13392     0.17886     0.03062    -0.07621     0.11756
 PZ  C   4   0.00074    -0.00607     0.01280     0.00228    -0.01382     0.02524
  
  S  C   5  -0.02853     0.19123    -0.23948    -0.04076     0.08990    -0.13258
 PX  C   5   0.00294    -0.00571    -0.04114    -0.00781     0.07483    -0.13930
 PY  C   5   0.00011     0.01478    -0.06090    -0.01095     0.04523    -0.07820
 PZ  C   5  -0.00345     0.01829    -0.00305    -0.00015    -0.03228     0.06352
  
  S  C   6  -0.02217     0.11382    -0.02851    -0.00299    -0.12194     0.23848
 PX  C   6  -0.00691     0.04901    -0.07138    -0.01233     0.04359    -0.07034
 PY  C   6  -0.00697     0.06074    -0.11079    -0.01929     0.05703    -0.08487
 PZ  C   6   0.00233    -0.01289     0.01206     0.00204    -0.01171     0.02162
  
  S  C   7   0.01358    -0.11808     0.21096     0.03670    -0.12308     0.18201
 PX  C   7   0.00243    -0.01477     0.00813     0.00115     0.02140    -0.04132
 PY  C   7  -0.01638     0.09066    -0.04496    -0.00651    -0.05658     0.12232
 PZ  C   7  -0.00749     0.04293    -0.02297    -0.00335    -0.03443     0.07219
  
  S  C   8   0.03430    -0.19655     0.13220     0.02064     0.07315    -0.15711
 PX  C   8  -0.00482     0.04715    -0.08734    -0.01516     0.05039    -0.06190
 PY  C   8  -0.01410     0.06487     0.00065     0.00123    -0.04580     0.08400
 PZ  C   8  -0.00160    -0.00853     0.05798     0.01048    -0.05106     0.07620
  
  S  S   9  -0.00176     0.03140    -0.10049    -0.01811     0.12437    -0.20601
 PX  S   9  -0.00082     0.00591    -0.00382    -0.00054    -0.01477     0.02731
 PY  S   9  -0.01392     0.08111    -0.07307    -0.01207     0.00692    -0.01463
 PZ  S   9  -0.00438     0.02572    -0.02602    -0.00439     0.01468    -0.02576
  
  S  C  10   0.02270    -0.09549    -0.02667    -0.00641     0.07462    -0.13498
 PX  C  10  -0.00531     0.05316    -0.07757    -0.01304     0.01183     0.02430
 PY  C  10   0.01981    -0.11279     0.07261     0.01119     0.05940    -0.11064
 PZ  C  10   0.01002    -0.06595     0.06211     0.01010     0.01520    -0.04397
  
  S  C  11  -0.01702     0.15084    -0.16925    -0.02757    -0.02705     0.15128
 PX  C  11  -0.00327     0.02167     0.00886     0.00217    -0.01088     0.06098
 PY  C  11   0.01900    -0.09315     0.00308    -0.00115     0.07688    -0.13573
 PZ  C  11   0.00877    -0.04268    -0.00355    -0.00144     0.03420    -0.06592
  
  S  C  12  -0.03302     0.16753    -0.00331     0.00239    -0.09766     0.19140
 PX  C  12   0.00539     0.01721    -0.01606    -0.00196     0.02656     0.08260
 PY  C  12  -0.00852     0.08540    -0.11406    -0.01879    -0.03193     0.11303
 PZ  C  12  -0.00298     0.02943    -0.04580    -0.00765    -0.01135     0.04032
  
  S  C  13  -0.01814    -0.03472     0.11449     0.01855    -0.06118    -0.16027
 PX  C  13  -0.00300     0.01742     0.02742     0.00542     0.00054     0.04283
 PY  C  13  -0.01236     0.10204    -0.03591    -0.00428    -0.04608     0.12618
 PZ  C  13  -0.00472     0.03597    -0.01631    -0.00217    -0.01819     0.04764
  
  S  C  14   0.01428    -0.18672     0.00850    -0.00288     0.04337    -0.21942
 PX  C  14   0.00969    -0.00470    -0.03918    -0.00642     0.03581     0.06948
 PY  C  14  -0.00690     0.00814     0.11084     0.01975    -0.00772    -0.06175
 PZ  C  14  -0.00316    -0.00574     0.02797     0.00474    -0.00867    -0.01894
  
  S  C  15   0.03196    -0.03386    -0.08991    -0.01512     0.10370     0.07009
 PX  C  15   0.00274     0.12341    -0.00273     0.00296     0.01003     0.12706
 PY  C  15  -0.00251     0.00364     0.13007     0.02313     0.01583    -0.04599
 PZ  C  15  -0.00398    -0.02557     0.01487     0.00191    -0.01014    -0.00996
  
  S  S  16   0.00492     0.10161     0.03482     0.00950     0.03672     0.18192
 PX  S  16   0.00416    -0.01322    -0.03284    -0.00630     0.00110    -0.03803
 PY  S  16  -0.01652     0.02185    -0.01169    -0.00226    -0.05654     0.02805
 PZ  S  16  -0.00744    -0.00097    -0.01234    -0.00248    -0.02414     0.00951
  
  S  C  17  -0.00013     0.09580    -0.10720    -0.01546     0.00867     0.12067
 PX  C  17  -0.00626     0.12537     0.16062     0.03170     0.02443    -0.03196
 PY  C  17   0.03249     0.06829     0.01197     0.00450     0.09366     0.05098
 PZ  C  17   0.00170    -0.08297    -0.11072    -0.02176    -0.02570     0.03617
  
  S  C  18  -0.02146    -0.17500    -0.23820    -0.04825    -0.19330     0.03709
 PX  C  18  -0.01254     0.02318     0.05734     0.01119     0.00531    -0.01268
 PY  C  18  -0.00309     0.05804    -0.04552    -0.00537     0.04627     0.05529
 PZ  C  18   0.00928    -0.01698    -0.03615    -0.00720    -0.00874     0.01129
  
  S  C  19   0.03006    -0.15959    -0.04445    -0.01386    -0.07844    -0.03177
 PX  C  19   0.01537     0.03538     0.07777     0.01593     0.10103    -0.00035
 PY  C  19  -0.04549    -0.03903    -0.02829    -0.00555    -0.06049    -0.00842
 PZ  C  19  -0.00785    -0.02652    -0.05726    -0.01155    -0.07168     0.00296
  
  S  C  20   0.00220    -0.06960     0.06166     0.01268     0.19965     0.03012
 PX  C  20  -0.02736     0.00444    -0.03524    -0.00350     0.07322     0.05420
 PY  C  20  -0.09976    -0.01966     0.04682     0.00970    -0.03951    -0.05939
 PZ  C  20   0.02867    -0.00897     0.02059     0.00189    -0.05250    -0.03523
  
  S  C  21  -0.03619     0.05403     0.16108     0.02990     0.04487    -0.10633
 PX  C  21   0.02231    -0.05973    -0.09360    -0.01979    -0.05522     0.00961
 PY  C  21   0.07005     0.14198     0.10741     0.01765    -0.08957    -0.08196
 PZ  C  21  -0.02048     0.03305     0.06101     0.01335     0.04581    -0.00055
  
  S  C  22   0.02563     0.28679     0.24087     0.04814     0.03273    -0.06125
 PX  C  22   0.01837    -0.01367     0.05188     0.00682    -0.02624    -0.07450
 PY  C  22   0.03010     0.01467    -0.05972    -0.01045     0.01106     0.06214
 PZ  C  22  -0.01547     0.01199    -0.03240    -0.00388     0.01889     0.05517
  
  S  C  23   0.06148    -0.08212    -0.11346    -0.02785    -0.19281    -0.05555
 PX  C  23   0.07429    -0.00002    -0.04716    -0.01152    -0.08555     0.00605
 PY  C  23   0.17417     0.06704     0.05968     0.00315    -0.04281    -0.06189
 PZ  C  23  -0.06487    -0.00557     0.03018     0.00820     0.06464    -0.00038
  
  S  C  24   0.37983     0.00248    -0.09377    -0.03465    -0.14618    -0.00960
 PX  C  24   0.03751     0.01083     0.00994     0.00291     0.11232     0.06062
 PY  C  24   0.01942     0.02595     0.03021     0.00402     0.02323    -0.00562
 PZ  C  24  -0.02874    -0.01009    -0.00962    -0.00247    -0.08507    -0.04447
  
  S  C  25   0.25288     0.03755     0.01983     0.00000     0.23871     0.11273
 PX  C  25  -0.06575     0.01441     0.04838     0.01311     0.10661     0.01696
 PY  C  25   0.12831    -0.00675    -0.05427    -0.01817    -0.08855    -0.00161
 PZ  C  25   0.04089    -0.01057    -0.03287    -0.00870    -0.07461    -0.01274
  
  S  C  26  -0.14641     0.05794     0.15915     0.04259     0.29747     0.03451
 PX  C  26   0.05145     0.00748     0.01033     0.00061     0.07546     0.02515
 PY  C  26   0.15395    -0.00434    -0.03695    -0.01005     0.07274     0.06379
 PZ  C  26  -0.04644    -0.00572    -0.00567    -0.00001    -0.06123    -0.02279
  
  S  C  27  -0.33936     0.04149     0.11009     0.03027    -0.07424    -0.09136
 PX  C  27   0.00066     0.01335     0.05870     0.01325     0.13546     0.01241
 PY  C  27  -0.02751    -0.01579    -0.01525     0.00281     0.01802     0.01752
 PZ  C  27   0.00460    -0.01071    -0.04297    -0.01051    -0.10552    -0.01223
  
  S  C  28  -0.22468    -0.05480    -0.09793    -0.01269    -0.18212    -0.00557
 PX  C  28  -0.05667     0.02007     0.04755     0.01037    -0.07925    -0.06471
 PY  C  28   0.02571    -0.08432    -0.07311    -0.01375     0.01860     0.02400
 PZ  C  28   0.04741    -0.01309    -0.03073    -0.00686     0.05344     0.04374
  
  S  N  29   0.11032     0.08774    -0.00519    -0.00111     0.06320     0.06995
 PX  N  29  -0.08664    -0.02118    -0.04279    -0.00685    -0.12248    -0.01788
 PY  N  29  -0.14883    -0.13843    -0.08945    -0.01123     0.14323     0.09925
 PZ  N  29   0.08335     0.00802     0.03252     0.00617     0.06830     0.00162
  
  S  C  30   0.18205     0.11213     0.07585     0.00900    -0.09595    -0.08961
 PX  C  30   0.03564    -0.05341    -0.01556    -0.00441    -0.05849    -0.01967
 PY  C  30   0.09818     0.10469     0.03649     0.00637    -0.00046     0.01019
 PZ  C  30   0.01967    -0.04032    -0.00999     0.00561     0.01923     0.00236
  
  S  C  31  -0.08608     0.12183     0.04031     0.00653    -0.02614    -0.03471
 PX  C  31   0.06039    -0.00620     0.01188     0.00009    -0.00948    -0.01960
 PY  C  31   0.14480     0.03886     0.04051     0.00473    -0.00313    -0.02759
 PZ  C  31  -0.00259    -0.01337    -0.00506     0.00219     0.00640     0.00211
  
  S  C  32  -0.25923     0.06685    -0.02685    -0.00017    -0.01025     0.03604
 PX  C  32  -0.01302    -0.04088    -0.01632    -0.00422     0.02290     0.01718
 PY  C  32  -0.02063     0.00345     0.00748     0.00198    -0.00057    -0.01741
 PZ  C  32   0.00339    -0.01219    -0.00690     0.00600     0.00761     0.00790
  
  S  C  33  -0.07689    -0.02459    -0.03283    -0.00360     0.05275     0.06726
 PX  C  33   0.10211    -0.07792    -0.00411    -0.01025     0.06013     0.02000
 PY  C  33  -0.07864    -0.07287    -0.03806     0.00013     0.04263     0.03181
 PZ  C  33   0.04204    -0.00697    -0.00013     0.02930     0.00774    -0.00071
  
  S  C  34   0.08331    -0.18445    -0.05691    -0.01087     0.12999     0.07583
 PX  C  34   0.04822     0.01410     0.01392    -0.02175    -0.00609    -0.01299
 PY  C  34   0.00637    -0.06050    -0.01839     0.01444    -0.03238    -0.03335
 PZ  C  34   0.01721     0.01213    -0.01216     0.09067     0.00607     0.00345
  
  S  C  35   0.14109    -0.12973    -0.01272    -0.00342    -0.04501    -0.05198
 PX  C  35  -0.01108    -0.00191    -0.00302    -0.00755     0.01226     0.01296
 PY  C  35   0.02504     0.10140     0.04382     0.01239    -0.09879    -0.05856
 PZ  C  35   0.00800    -0.02272    -0.01728     0.02908     0.03327     0.01911
  
  S  C  36   0.01111     0.02385     0.00377    -0.00021     0.02596     0.01710
 PX  C  36  -0.05613     0.05578     0.01731    -0.07432    -0.04395    -0.02101
 PY  C  36   0.05211    -0.05946    -0.03568     0.05095     0.06576     0.04313
 PZ  C  36  -0.01403     0.02090    -0.05065     0.30513    -0.02802    -0.01587
  
  S  C  37  -0.02529     0.06465    -0.08573     0.49494    -0.03199    -0.01032
 PX  C  37  -0.01664     0.01554     0.01022    -0.04784    -0.01497    -0.00698
 PY  C  37   0.02521    -0.02305    -0.00931     0.00452     0.02254     0.01366
 PZ  C  37  -0.00313    -0.00255    -0.00802     0.05083    -0.01050    -0.00637
  
  S  C  38  -0.05251     0.07579     0.09645    -0.49195    -0.01586    -0.00183
 PX  C  38  -0.01226     0.00994    -0.00266     0.02002    -0.01594    -0.00795
 PY  C  38   0.02260    -0.01938    -0.01026     0.01367     0.02203     0.01348
 PZ  C  38  -0.00955     0.01536    -0.00998     0.06597    -0.00782    -0.00351
  
  S  C  39  -0.03211     0.03582     0.03756     0.00623    -0.09535    -0.08030
 PX  C  39  -0.07447     0.00064    -0.00597    -0.02326     0.00177     0.01096
 PY  C  39   0.06783     0.02072     0.00341     0.01633     0.04952     0.03517
 PZ  C  39  -0.02829    -0.00477    -0.02030     0.08995    -0.01016    -0.00457
  
  S  C  40   0.08555     0.10102     0.04920     0.00752    -0.09624    -0.07413
 PX  C  40  -0.00013    -0.04591     0.00072    -0.00797     0.02538     0.00788
 PY  C  40  -0.02979    -0.02589    -0.01945     0.00282     0.06302     0.06301
 PZ  C  40   0.00652    -0.00716    -0.00217     0.02941    -0.00553    -0.00980
  
  S  C  41   0.12749     0.11836     0.03945     0.00524    -0.08006    -0.07012
 PX  C  41   0.01532     0.00236     0.00872    -0.00052    -0.02204    -0.02246
 PY  C  41  -0.01552     0.04613     0.01965     0.00525    -0.06913    -0.04380
 PZ  C  41   0.00692    -0.00799    -0.00281     0.00636     0.00714     0.00239
  
  S  C  42   0.07392    -0.03677    -0.02993    -0.00638     0.12575     0.08889
 PX  C  42  -0.03996    -0.05259    -0.01962    -0.00351     0.03826     0.03297
 PY  C  42   0.04134     0.04978     0.02565     0.00438    -0.07389    -0.06583
 PZ  C  42  -0.01747    -0.02230    -0.01020     0.00152     0.02307     0.02029
  
  S  C  43  -0.08531    -0.14411    -0.06910    -0.01049     0.16119     0.13655
 PX  C  43  -0.06566    -0.01048     0.00070    -0.00049    -0.04234    -0.02503
 PY  C  43  -0.01413     0.00218     0.00847     0.00294    -0.04783    -0.04156
 PZ  C  43  -0.01361    -0.00310    -0.00275     0.00681    -0.00191     0.00132
  
  S  C  44  -0.16745    -0.06947    -0.02058    -0.00102    -0.03574    -0.01472
 PX  C  44  -0.01392     0.02564     0.00692    -0.00633    -0.01677    -0.00741
 PY  C  44   0.00780     0.06121     0.03281     0.01094    -0.08862    -0.07488
 PZ  C  44  -0.00404    -0.00520    -0.01038     0.02952     0.01154     0.01159
  
  S  C  45   0.01144    -0.08135     0.11798     0.02033    -0.05532     0.08836
 PX  C  45  -0.01150     0.07669    -0.09880    -0.01688     0.03890    -0.05975
[...]
    14       C          2.73494450  * -10.09270720  *  -3.08843042  *
    15       C          4.08990800  * -10.24936850  *  -3.12588200  *
    16       S          4.91613296  *  -8.84663027  *  -2.59011170  *
    17       C          4.79371922  * -11.43977012  *  -3.54038830  *
    18       C          4.32519472  * -12.68579948  *  -3.09431306  *
    19       C          4.94404193  * -13.86766875  *  -3.46565717  *
    20       C          6.04745352  * -13.77274974  *  -4.30970658  *
    21       C          6.53907746  * -12.51416486  *  -4.75360920  *
    22       C          5.90767450  * -11.34440855  *  -4.37016330  *
    23       C          7.69474848  * -12.77395457  *  -5.57482595  *
    24       C          8.56102428  * -11.94474756  *  -6.26864000  *
    25       C          9.59090311  * -12.52632464  *  -6.99307005  *
    26       C          9.75102210  * -13.91524092  *  -7.03531308  *
    27       C          8.89887009  * -14.76886302  *  -6.35186811  *
    28       C          7.87656786  * -14.18288161  *  -5.61113380  *
    29       N          6.86708632  * -14.78884788  *  -4.83529538  *
    30       C          6.70848331  * -16.17923971  *  -4.62077424  *
    31       C          5.46023206  * -16.76572441  *  -4.83083922  *
    32       C          5.28858812  * -18.13445156  *  -4.61514997  *
    33       C          6.37456366  * -18.87943555  *  -4.20871163  *
    34       C          7.63393092  * -18.27770150  *  -4.00587210  *
    35       C          7.82105315  * -16.93096581  *  -4.19966051  *
    36       C          8.64773451  * -19.30497669  *  -3.56344079  *
    37       C          9.18031086  * -18.97670466  *  -2.17662316  *
    38       C          9.77918562  * -19.41626861  *  -4.57446535  *
    39       C          7.82250952  * -20.56744181  *  -3.53786777  *
    40       C          6.49194484  * -20.29924180  *  -3.91877351  *
    41       C          5.55106147  * -21.30510994  *  -3.96882256  *
    42       C          5.95413445  * -22.59996030  *  -3.63078389  *
    43       C          7.26332910  * -22.86391842  *  -3.25585047  *
    44       C          8.21727805  * -21.84180596  *  -3.20545699  *
    45       C          3.22915926  *   1.33304510  *   0.10238828  *
    46       O          4.43295740  *   1.54760127  *   0.08169986  *
    47       O          2.37231462  *   2.36541725  *   0.23276139  *
    48       H          4.42458317  *  -1.01179942  *  -0.16286102  *
    49       H          1.46772261  *  -6.70545164  *  -1.00405394  *
    50       H          4.36977718  *  -6.10824731  *  -1.97417277  *
    51       H          1.04027103  *  -2.32433207  *   1.13815020  *
    52       H          0.59790038  *  -4.82366008  *   0.57169128  *
    53       H          1.31362986  *  -8.48882744  *  -2.53637165  *
    54       H          2.01010531  * -10.84464339  *  -3.39053883  *
    55       H          3.45619043  * -12.72511861  *  -2.42916771  *
    56       H          4.58677512  * -14.83175107  *  -3.09737693  *
    57       H          6.28017141  * -10.37862551  *  -4.72161031  *
    58       H          8.42649812  * -10.86060397  *  -6.24125034  *
    59       H         10.28872302  * -11.89137458  *  -7.54596659  *
    60       H         10.56927363  * -14.33878912  *  -7.62644529  *
    61       H          9.01882847  * -15.85272114  *  -6.40666496  *
    62       H          4.61266202  * -16.16573208  *  -5.17785125  *
    63       H          4.31340352  * -18.60198284  *  -4.77343750  *
    64       H          8.79262795  * -16.46218473  *  -4.01923854  *
    65       H          8.37285108  * -18.88901878  *  -1.43568208  *
    66       H          9.86708673  * -19.75296930  *  -1.80996104  *
    67       H          9.73066199  * -18.02508038  *  -2.16411284  *
    68       H         10.34873049  * -18.47937026  *  -4.65530823  *
    69       H         10.49281220  * -20.20676907  *  -4.30147677  *
    70       H          9.40929397  * -19.65446080  *  -5.58198364  *
    71       H          4.51976373  * -21.09884754  *  -4.26393190  *
    72       H          5.22389105  * -23.41397796  *  -3.66361387  *
    73       H          7.55825969  * -23.88468999  *  -2.99504652  *
    74       H          9.24746128  * -22.05448749  *  -2.90940883  *
    75       H          2.84774094  *   3.20671818  *   0.29446032  *

                             CARTESIAN COORDINATES

   1    N        0.000000000     0.000000000     0.000000000
   2    C        1.156505320     0.000000000     0.000000000
   3    C        2.573246959     0.022393945     0.000000000
   4    C        3.326728220    -1.089091914    -0.116349600
   5    C        2.778951817    -2.410689124    -0.193169602
   6    C        1.669790297    -2.889418458     0.452934578
   7    C        1.434087436    -4.266155544     0.155671578
   8    C        2.373437766    -4.780095504    -0.699854730
   9    S        3.540853817    -3.613593436    -1.142701167
  10    C        2.384707048    -6.133501976    -1.189338534
  11    C        3.442362331    -6.672279330    -1.814763051
  12    C        3.436889399    -8.021621140    -2.308228149
  13    C        2.353772793    -8.795374563    -2.614695809
  14    C        2.734944503   -10.092707200    -3.088430420
  15    C        4.089908001   -10.249368500    -3.125882005
  16    S        4.916132961    -8.846630268    -2.590111700
  17    C        4.793719222   -11.439770120    -3.540388296
  18    C        4.325194724   -12.685799480    -3.094313063
  19    C        4.944041925   -13.867668750    -3.465657166
  20    C        6.047453524   -13.772749740    -4.309706585
  21    C        6.539077456   -12.514164860    -4.753609204
  22    C        5.907674502   -11.344408550    -4.370163296
  23    C        7.694748484   -12.773954570    -5.574825955
  24    C        8.561024281   -11.944747560    -6.268640002
  25    C        9.590903112   -12.526324640    -6.993070046
  26    C        9.751022100   -13.915240920    -7.035313078
  27    C        8.898870091   -14.768863020    -6.351868105
  28    C        7.876567858   -14.182881610    -5.611133801
  29    N        6.867086318   -14.788847880    -4.835295379
  30    C        6.708483314   -16.179239710    -4.620774236
  31    C        5.460232062   -16.765724410    -4.830839220
  32    C        5.288588118   -18.134451560    -4.615149966
  33    C        6.374563664   -18.879435550    -4.208711634
  34    C        7.633930923   -18.277701500    -4.005872104
  35    C        7.821053150   -16.930965810    -4.199660513
  36    C        8.647734508   -19.304976690    -3.563440787
  37    C        9.180310864   -18.976704660    -2.176623157
  38    C        9.779185617   -19.416268610    -4.574465351
  39    C        7.822509521   -20.567441810    -3.537867770
  40    C        6.491944841   -20.299241800    -3.918773511
  41    C        5.551061470   -21.305109940    -3.968822561
  42    C        5.954134446   -22.599960300    -3.630783892
  43    C        7.263329096   -22.863918420    -3.255850472
  44    C        8.217278049   -21.841805960    -3.205456986
  45    C        3.229159260     1.333045099     0.102388279
  46    O        4.432957398     1.547601266     0.081699859
  47    O        2.372314615     2.365417245     0.232761389
  48    H        4.424583174    -1.011799425    -0.162861018
  49    H        1.467722607    -6.705451638    -1.004053944
  50    H        4.369777180    -6.108247311    -1.974172767
  51    H        1.040271034    -2.324332066     1.138150199
  52    H        0.597900379    -4.823660078     0.571691284
  53    H        1.313629858    -8.488827438    -2.536371655
  54    H        2.010105307   -10.844643390    -3.390538828
  55    H        3.456190433   -12.725118610    -2.429167706
  56    H        4.586775125   -14.831751070    -3.097376929
  57    H        6.280171413   -10.378625510    -4.721610314
  58    H        8.426498124   -10.860603970    -6.241250338
  59    H       10.288723020   -11.891374580    -7.545966593
  60    H       10.569273630   -14.338789120    -7.626445294
  61    H        9.018828470   -15.852721140    -6.406664962
  62    H        4.612662025   -16.165732080    -5.177851250
  63    H        4.313403518   -18.601982840    -4.773437500
  64    H        8.792627954   -16.462184730    -4.019238539
  65    H        8.372851079   -18.889018780    -1.435682084
  66    H        9.867086734   -19.752969300    -1.809961041
  67    H        9.730661988   -18.025080380    -2.164112843
  68    H       10.348730490   -18.479370260    -4.655308231
  69    H       10.492812200   -20.206769070    -4.301476771
  70    H        9.409293968   -19.654460800    -5.581983636
  71    H        4.519763728   -21.098847540    -4.263931904
  72    H        5.223891052   -23.413977960    -3.663613865
  73    H        7.558259691   -23.884689990    -2.995046523
  74    H        9.247461283   -22.054487490    -2.909408831
  75    H        2.847740945     3.206718177     0.294460324


           Empirical Formula: C41 H28 N2 O2 S2  =    75 atoms



      MOLECULAR POINT GROUP   :   C1  


                  EIGENVALUES  
 -48.71016 -47.47227 -46.81946 -43.77689 -43.23781 -43.17372 -42.35907 -41.63674
 -40.64064 -39.81585 -39.34261 -37.66452 -37.10286 -36.17169 -35.31194 -34.25202
 -33.08575 -32.63250 -32.41763 -32.05336 -31.30004 -31.24190 -30.19428 -29.92383
 -28.87074 -28.71041 -28.24578 -27.83206 -26.80061 -26.12174 -25.84876 -25.30020
 -24.94593 -24.86213 -24.01644 -23.89190 -23.60016 -23.25871 -22.91940 -22.37209
 -21.58958 -20.89221 -20.78958 -20.40319 -20.08303 -19.81491 -19.21969 -19.12651
 -18.44752 -18.24192 -18.17062 -17.96553 -17.82167 -17.65003 -17.16458 -16.69945
 -16.56996 -16.45323 -16.32252 -16.22486 -16.01764 -15.91140 -15.84853 -15.66439
 -15.58486 -15.42569 -15.21925 -14.89859 -14.78751 -14.65547 -14.52870 -14.37284
 -14.14280 -14.06920 -13.96762 -13.83228 -13.73489 -13.64214 -13.53992 -13.27369
 -13.25607 -13.15186 -13.02179 -13.01351 -12.77312 -12.64802 -12.61996 -12.49734
 -12.41657 -12.17667 -12.04102 -11.95163 -11.85592 -11.81688 -11.70730 -11.63507
 -11.55194 -11.17355 -10.98050 -10.83764 -10.24344 -10.03853  -9.94856  -9.81679
  -9.69028  -9.13490  -8.93164  -8.63482  -8.38659  -7.96553  -7.77454  -7.35778
  -6.85343  -1.23102  -0.28815   0.09905   0.21265   0.46022   0.75835   0.82457
   0.90957   0.92936   1.17961   1.47087   1.49706   1.60690   1.76503   2.04959
   2.25338   2.45513   2.54007   2.62612   2.63388   2.74426   2.84671   2.89916
   2.91983   2.98119   3.01545   3.10519   3.15154   3.43730   3.46519   3.49654
   3.74430   3.79218   3.82400   3.89704   4.11566   4.19393   4.22711   4.25258
   4.26530   4.43826   4.45421   4.49909   4.73226   4.96731   5.15997   5.36261
   5.36801   5.51282   5.53628   5.56047   5.82870   5.86590   5.97752   6.13643
   6.22700   6.37769   6.40156   6.51583   6.67445   6.72537   6.96379   7.00910
   7.20344   7.32847   7.70038   8.06903   8.37629   8.50346   8.61811   8.67249
   8.68635   8.98532   9.07827   9.14482   9.33299   9.45542   9.75607   9.83417
   9.99877  10.12895  10.20813  10.44668  10.85369  10.89449  10.99861  11.20857
  11.39220  11.62290  11.69025  12.01698  12.23010  12.58779  12.71781  12.74066
  12.89138  13.06895  13.24472  13.76577  13.94116  14.16907  14.99796  15.16520


              NET ATOMIC CHARGES AND DIPOLE CONTRIBUTIONS

  ATOM NO.   TYPE          CHARGE      No. of ELECS.   s-Pop       p-Pop       
    1          N          -0.406482        5.4065     1.75358     3.65290
    2          C           0.222603        3.7774     1.14895     2.62845
    3          C           0.015223        3.9848     0.99985     2.98492
    4          C           0.136592        3.8634     1.09448     2.76893
    5          C           0.013748        3.9863     1.06326     2.92299
    6          C           0.016005        3.9840     1.09514     2.88885
    7          C          -0.047187        4.0472     1.08550     2.96168
    8          C           0.058939        3.9411     1.08140     2.85966
    9          S          -0.039263        6.0393     1.77061     4.26865
   10          C          -0.024972        4.0250     1.07774     2.94723
   11          C           0.002132        3.9979     1.08298     2.91489
   12          C           0.015334        3.9847     1.07413     2.91054
   13          C          -0.031228        4.0312     1.08890     2.94233
   14          C          -0.059831        4.0598     1.08465     2.97518
   15          C           0.040552        3.9594     1.08442     2.87503
   16          S          -0.066780        6.0668     1.77450     4.29228
   17          C           0.010602        3.9894     1.03860     2.95080
   18          C          -0.028238        4.0282     1.08286     2.94538
   19          C          -0.039540        4.0395     1.07918     2.96036
   20          C           0.075018        3.9250     1.04957     2.87541
   21          C          -0.014668        4.0147     1.05035     2.96431
   22          C          -0.026714        4.0267     1.08001     2.94671
   23          C          -0.017295        4.0173     1.04759     2.96971
   24          C          -0.020141        4.0201     1.07937     2.94077
   25          C          -0.045103        4.0451     1.07757     2.96753
   26          C          -0.024064        4.0241     1.08083     2.94324
   27          C          -0.042106        4.0421     1.07671     2.96539
   28          C           0.078002        3.9220     1.05088     2.87111
   29          N          -0.131374        5.1314     1.22832     3.90305
   30          C           0.093967        3.9060     1.04322     2.86282
   31          C          -0.045247        4.0452     1.07940     2.96585
   32          C          -0.019962        4.0200     1.08234     2.93762
   33          C          -0.015129        4.0151     1.04862     2.96651
   34          C           0.017404        3.9826     1.07268     2.90991
   35          C          -0.046586        4.0466     1.07855     2.96804
   36          C           0.047354        3.9526     0.99668     2.95597
   37          C          -0.011736        4.0117     1.05624     2.95549
   38          C          -0.011755        4.0118     1.05622     2.95554
   39          C           0.012278        3.9877     1.06979     2.91793
   40          C          -0.004792        4.0048     1.05051     2.95429
   41          C          -0.027139        4.0271     1.08032     2.94682
   42          C          -0.036144        4.0361     1.07951     2.95663
   43          C          -0.028204        4.0282     1.08144     2.94677
   44          C          -0.037001        4.0370     1.07801     2.95899
   45          C           0.502327        3.4977     1.04528     2.45240
   46          O          -0.616847        6.6168     1.81674     4.80011
   47          O          -0.309939        6.3099     1.68692     4.62302
   48          H           0.065573        0.9344     0.93443
   49          H           0.036890        0.9631     0.96311
   50          H           0.038122        0.9619     0.96188
   51          H           0.046205        0.9538     0.95379
   52          H           0.036441        0.9636     0.96356
   53          H           0.034729        0.9653     0.96527
   54          H           0.029546        0.9705     0.97045
   55          H           0.023726        0.9763     0.97627
   56          H           0.029203        0.9708     0.97080
   57          H           0.026340        0.9737     0.97366
   58          H           0.024662        0.9753     0.97534
   59          H           0.016456        0.9835     0.98354
   60          H           0.019456        0.9805     0.98054
   61          H           0.028887        0.9711     0.97111
   62          H           0.025662        0.9743     0.97434
   63          H           0.026300        0.9737     0.97370
   64          H           0.030158        0.9698     0.96984
   65          H           0.007758        0.9922     0.99224
   66          H           0.007763        0.9922     0.99224
   67          H           0.007924        0.9921     0.99208
   68          H           0.008050        0.9920     0.99195
   69          H           0.007850        0.9922     0.99215
   70          H           0.007989        0.9920     0.99201
   71          H           0.024261        0.9757     0.97574
   72          H           0.017326        0.9827     0.98267
   73          H           0.018765        0.9812     0.98123
   74          H           0.022844        0.9772     0.97716
   75          H           0.248503        0.7515     0.75150
 DIPOLE           X         Y         Z       TOTAL
 POINT-CHG.     1.224    -7.226    -0.169     7.331
 HYBRID        -1.486     0.148     0.905     1.746
 SUM           -0.261    -7.078     0.735     7.121


          ATOMIC ORBITAL ELECTRON POPULATIONS

     Atom    s        px        py        pz   
    1  N   1.75358   1.23146   1.23529   1.18615
    2  C   1.14895   0.95127   0.80325   0.87392
    3  C   0.99985   0.90423   0.92314   1.15756
    4  C   1.09448   0.98643   0.99526   0.78724
    5  C   1.06326   0.99506   0.91544   1.01249
    6  C   1.09514   0.94590   0.99099   0.95197
    7  C   1.08550   0.96865   0.97542   1.01762
    8  C   1.08140   0.95298   0.93350   0.97318
    9  S   1.77061   1.44252   1.18335   1.64278
   10  C   1.07774   0.96833   0.95963   1.01928
   11  C   1.08298   0.97391   0.96700   0.97397
   12  C   1.07413   0.92290   0.95564   1.03200
   13  C   1.08890   0.93647   0.99524   1.01062
   14  C   1.08465   0.95873   0.97206   1.04439
   15  C   1.08442   0.97947   0.91469   0.98087
   16  S   1.77450   1.24379   1.24094   1.80755
   17  C   1.03860   0.99078   0.96166   0.99836
   18  C   1.08286   0.96818   0.98195   0.99525
   19  C   1.07918   0.99488   0.95803   1.00746
   20  C   1.04957   0.95276   0.94114   0.98151
   21  C   1.05035   0.98442   0.97131   1.00858
   22  C   1.08001   0.98438   0.95322   1.00911
   23  C   1.04759   0.98271   0.97928   1.00772
   24  C   1.07937   0.99721   0.94532   0.99824
   25  C   1.07757   0.98678   0.97311   1.00765
   26  C   1.08083   0.97115   0.98923   0.98285
   27  C   1.07671   1.00263   0.94294   1.01982
   28  C   1.05088   0.93035   0.98159   0.95918
   29  N   1.22832   1.32431   1.06842   1.51033
   30  C   1.04322   1.00188   0.87792   0.98301
   31  C   1.07940   0.95249   0.97364   1.03972
   32  C   1.08234   0.95567   0.98724   0.99470
   33  C   1.04862   0.98018   0.96724   1.01909
   34  C   1.07268   0.99279   0.97042   0.94670
   35  C   1.07855   0.94760   0.97104   1.04939
   36  C   0.99668   0.98063   0.99069   0.98465
   37  C   1.05624   0.98838   0.99258   0.97454
   38  C   1.05622   0.97667   0.99377   0.98510
   39  C   1.06979   0.99539   0.96128   0.96126
   40  C   1.05051   0.98711   0.96191   1.00527
   41  C   1.08032   0.94938   0.99264   1.00480
   42  C   1.07951   0.97244   0.96661   1.01758
   43  C   1.08144   0.99368   0.95133   1.00176
   44  C   1.07801   0.94950   0.98742   1.02207
   45  C   1.04528   0.87864   0.90618   0.66758
   46  O   1.81674   1.28133   1.95159   1.56719
   47  O   1.68692   1.52789   1.21453   1.88060
   48  H   0.93443
   49  H   0.96311
   50  H   0.96188
   51  H   0.95379
   52  H   0.96356
   53  H   0.96527
   54  H   0.97045
   55  H   0.97627
   56  H   0.97080
   57  H   0.97366
   58  H   0.97534
   59  H   0.98354
   60  H   0.98054
   61  H   0.97111
   62  H   0.97434
   63  H   0.97370
   64  H   0.96984
   65  H   0.99224
   66  H   0.99224
   67  H   0.99208
   68  H   0.99195
   69  H   0.99215
   70  H   0.99201
   71  H   0.97574
   72  H   0.98267
   73  H   0.98123
   74  H   0.97716
   75  H   0.75150

 **********************
 *                    *
 * JOB ENDED NORMALLY *
 *                    *
 **********************



 TOTAL JOB TIME:           348.51 SECONDS

 == MOPAC DONE ==
