 *******************************************************************************
 ** Site#: 4824         For non-commercial use only    Version 21.013L 64BITS **
 *******************************************************************************
 ** Cite this program as: MOPAC2016, Version: 21.013L, James J. P. Stewart,   **
 ** Stewart Computational Chemistry, web: HTTP://OpenMOPAC.net. Days left:  84**
 *******************************************************************************
 **                                                                           **
 **                                MOPAC2016                                  **
 **                                                                           **
 *******************************************************************************

                              INDO CALCULATION RESULTS

 *******************************************************************************
 *  CALCULATION DONE:                                Thu Oct 21 13:43:28 2021  *
 *  INDO       - The INDO Hamiltonian to be used
 *  CIS        - C.I. USES 1 ELECTRON EXCITATIONS ONLY
 *  EPS= 24.50 - USE ANDREAS KLAMT'S COSMO IMPLICIT SOLVATION MODEL
 *  n**2 =  1.360 for COSMO-CI
 *  T=         - A TIME OF 172800.0 SECONDS REQUESTED
 *  DUMP=N     - RESTART FILE WRITTEN EVERY 7200.0 SECONDS REQUESTED
 *******************************************************************************
INDO CIS EPS=24.5 N**2=1.36
 Dye84
 Calculo de Estados Excitados
   ATOM   CHEMICAL          X               Y               Z
  NUMBER   SYMBOL      (ANGSTROMS)     (ANGSTROMS)     (ANGSTROMS)
 
     1       N          0.00000000  *   0.00000000  *   0.00000000  *
     2       C          1.15654163  *   0.00000000  *   0.00000000  *
     3       C          2.57316404  *   0.02220119  *   0.00000000  *
     4       C          3.32655126  *  -1.08759420  *  -0.13491740  *
     5       C          2.77972491  *  -2.40771165  *  -0.23233417  *
     6       C          1.66926410  *  -2.89667734  *   0.40295218  *
     7       C          1.43702118  *  -4.27174157  *   0.08794360  *
     8       C          2.37881385  *  -4.76862853  *  -0.76996538  *
     9       S          3.54646588  *  -3.59754625  *  -1.19737823  *
    10       C          2.41220585  *  -6.11133008  *  -1.29902861  *
    11       C          1.20806341  *  -6.69395000  *  -1.72654895  *
    12       C          1.16694565  *  -7.98246537  *  -2.23101980  *
    13       C          2.36847398  *  -8.68497911  *  -2.28851617  *
    14       C          3.59552154  *  -8.09685986  *  -1.87237860  *
    15       C          3.61622976  *  -6.80703944  *  -1.37351130  *
    16       C          4.63188856  *  -9.07372192  *  -2.09302386  *
    17       C          5.99987564  *  -9.05999966  *  -1.87305287  *
    18       C          6.72893758  * -10.19661901  *  -2.18886510  *
    19       C          6.10451718  * -11.33581922  *  -2.70794466  *
    20       C          4.73806971  * -11.37783378  *  -2.93742117  *
    21       C          4.01019818  * -10.23051385  *  -2.63553851  *
    22       N          2.62624680  *  -9.98637922  *  -2.75356443  *
    23       C          1.66238446  * -10.89738137  *  -3.24996492  *
    24       C          0.50516579  * -11.14866786  *  -2.50822663  *
    25       C         -0.43561873  * -12.04118018  *  -3.00274890  *
    26       C         -0.22118336  * -12.68581016  *  -4.21944411  *
    27       C          0.93496907  * -12.42427133  *  -4.95362454  *
    28       C          1.88178509  * -11.52971594  *  -4.47681825  *
    29       C         -1.21466094  * -13.60860072  *  -4.75123008  *
    30       C         -1.78433044  * -14.57350615  *  -4.01868277  *
    31       C         -1.41496409  * -14.84566655  *  -2.63144052  *
    32       C         -2.41246588  * -15.00408623  *  -1.67170141  *
    33       C         -2.06518545  * -15.26654070  *  -0.35281156  *
    34       C         -0.72749780  * -15.38057929  *   0.00721558  *
    35       C          0.26565441  * -15.23310378  *  -0.95368727  *
    36       C         -0.07413113  * -14.96434004  *  -2.27379400  *
    37       C         -2.81527043  * -15.44317658  *  -4.58398506  *
    38       C         -3.84730043  * -14.90254449  *  -5.34726564  *
    39       C         -4.81781600  * -15.73765945  *  -5.88698431  *
    40       C         -4.75989816  * -17.10834733  *  -5.66763826  *
    41       C         -3.73167149  * -17.64626886  *  -4.90202939  *
    42       C         -2.76082645  * -16.81700953  *  -4.35633470  *
    43       C          3.22918950  *   1.33054247  *   0.12356741  *
    44       O          4.43317654  *   1.54523631  *   0.11123227  *
    45       O          2.37251253  *   2.36183797  *   0.26479558  *
    46       H          4.42430755  *  -1.00902931  *  -0.18157883  *
    47       H          1.03672014  *  -2.34275050  *   1.09433565  *
    48       H          0.60680940  *  -4.83908282  *   0.50223220  *
    49       H          0.28096859  *  -6.11338906  *  -1.67117498  *
    50       H          0.23050308  *  -8.42177340  *  -2.58187972  *
    51       H          4.55856584  *  -6.36179581  *  -1.04349340  *
    52       H          6.48270188  *  -8.17145238  *  -1.45885153  *
    53       H          7.81037072  * -10.20782433  *  -2.02668542  *
    54       H          6.71146910  * -12.21777362  *  -2.93639069  *
    55       H          4.25576398  * -12.27708080  *  -3.32577924  *
    56       H          0.34170757  * -10.66295108  *  -1.54076229  *
    57       H         -1.34950498  * -12.23500587  *  -2.43107003  *
    58       H          1.09776346  * -12.92449341  *  -5.91358846  *
    59       H          2.77937917  * -11.31584587  *  -5.06600791  *
    60       H         -1.47477940  * -13.46509366  *  -5.80640835  *
    61       H         -3.46587648  * -14.92074651  *  -1.95620848  *
    62       H         -2.84677850  * -15.38597127  *   0.40311909  *
    63       H         -0.45659938  * -15.58868905  *   1.04632291  *
    64       H          1.31808915  * -15.32768992  *  -0.67069259  *
    65       H          0.71004563  * -14.85612236  *  -3.02937766  *
    66       H         -3.90476761  * -13.82291023  *  -5.51502835  *
    67       H         -5.62941035  * -15.31378276  *  -6.48556556  *
    68       H         -5.52372624  * -17.76393724  *  -6.09562036  *
    69       H         -3.68710132  * -18.72538547  *  -4.72824668  *
    70       H         -1.95305567  * -17.24199008  *  -3.75235658  *
    71       H          2.84850085  *   3.20161482  *   0.34047010  *
 


          CARTESIAN COORDINATES 

    NO.       ATOM           X           Y           Z

     1         N          0.0000      0.0000      0.0000
     2         C          1.1565      0.0000      0.0000
     3         C          2.5732      0.0222      0.0000
     4         C          3.3266     -1.0876     -0.1349
     5         C          2.7797     -2.4077     -0.2323
     6         C          1.6693     -2.8967      0.4030
     7         C          1.4370     -4.2717      0.0879
     8         C          2.3788     -4.7686     -0.7700
     9         S          3.5465     -3.5975     -1.1974
    10         C          2.4122     -6.1113     -1.2990
    11         C          1.2081     -6.6939     -1.7265
    12         C          1.1669     -7.9825     -2.2310
    13         C          2.3685     -8.6850     -2.2885
    14         C          3.5955     -8.0969     -1.8724
    15         C          3.6162     -6.8070     -1.3735
    16         C          4.6319     -9.0737     -2.0930
    17         C          5.9999     -9.0600     -1.8731
    18         C          6.7289    -10.1966     -2.1889
    19         C          6.1045    -11.3358     -2.7079
    20         C          4.7381    -11.3778     -2.9374
    21         C          4.0102    -10.2305     -2.6355
    22         N          2.6262     -9.9864     -2.7536
    23         C          1.6624    -10.8974     -3.2500
    24         C          0.5052    -11.1487     -2.5082
    25         C         -0.4356    -12.0412     -3.0027
    26         C         -0.2212    -12.6858     -4.2194
    27         C          0.9350    -12.4243     -4.9536
    28         C          1.8818    -11.5297     -4.4768
    29         C         -1.2147    -13.6086     -4.7512
    30         C         -1.7843    -14.5735     -4.0187
    31         C         -1.4150    -14.8457     -2.6314
    32         C         -2.4125    -15.0041     -1.6717
    33         C         -2.0652    -15.2665     -0.3528
    34         C         -0.7275    -15.3806      0.0072
    35         C          0.2657    -15.2331     -0.9537
    36         C         -0.0741    -14.9643     -2.2738
    37         C         -2.8153    -15.4432     -4.5840
    38         C         -3.8473    -14.9025     -5.3473
    39         C         -4.8178    -15.7377     -5.8870
    40         C         -4.7599    -17.1083     -5.6676
    41         C         -3.7317    -17.6463     -4.9020
    42         C         -2.7608    -16.8170     -4.3563
    43         C          3.2292      1.3305      0.1236
    44         O          4.4332      1.5452      0.1112
    45         O          2.3725      2.3618      0.2648
    46         H          4.4243     -1.0090     -0.1816
    47         H          1.0367     -2.3428      1.0943
    48         H          0.6068     -4.8391      0.5022
    49         H          0.2810     -6.1134     -1.6712
    50         H          0.2305     -8.4218     -2.5819
    51         H          4.5586     -6.3618     -1.0435
    52         H          6.4827     -8.1715     -1.4589
    53         H          7.8104    -10.2078     -2.0267
    54         H          6.7115    -12.2178     -2.9364
    55         H          4.2558    -12.2771     -3.3258
    56         H          0.3417    -10.6630     -1.5408
    57         H         -1.3495    -12.2350     -2.4311
    58         H          1.0978    -12.9245     -5.9136
    59         H          2.7794    -11.3158     -5.0660
    60         H         -1.4748    -13.4651     -5.8064
    61         H         -3.4659    -14.9207     -1.9562
    62         H         -2.8468    -15.3860      0.4031
    63         H         -0.4566    -15.5887      1.0463
    64         H          1.3181    -15.3277     -0.6707
    65         H          0.7100    -14.8561     -3.0294
    66         H         -3.9048    -13.8229     -5.5150
    67         H         -5.6294    -15.3138     -6.4856
    68         H         -5.5237    -17.7639     -6.0956
    69         H         -3.6871    -18.7254     -4.7282
    70         H         -1.9531    -17.2420     -3.7524
    71         H          2.8485      3.2016      0.3405

           Empirical Formula: C40 H26 N2 O2 S  =    71 atoms



      MOLECULAR POINT GROUP   :   C1  


      RHF CALCULATION, NO. OF DOUBLY OCCUPIED LEVELS = 107

 WARNING: INDO only performs single-point calculations

 Summary of symmetry occupancy in each shell:

 SHELL     
    1  107
    v   99
 TOTAL 206




    ROOT NO.    1           2           3           4           5           6

           -48.64815   -46.82046   -45.82449   -44.13609   -43.77070   -43.40342
  
  
  S  N   1   0.00045     0.04022    -0.00039    -0.01368     0.03234    -0.01154
 PX  N   1   0.00026     0.02476    -0.00020    -0.00725     0.01707    -0.00607
 PY  N   1  -0.00008     0.00385     0.00012     0.00233    -0.00506     0.00166
 PZ  N   1   0.00001     0.00057    -0.00001    -0.00019     0.00041    -0.00013
  
  S  C   2   0.00102     0.11425    -0.00063    -0.02417     0.05667    -0.02001
 PX  C   2   0.00030     0.04944    -0.00005    -0.00403     0.00930    -0.00319
 PY  C   2  -0.00025     0.02198     0.00042     0.00799    -0.01731     0.00567
 PZ  C   2   0.00001     0.00251     0.00000    -0.00000    -0.00001     0.00001
  
  S  C   3   0.00147     0.22863    -0.00047    -0.02781     0.06601    -0.02349
 PX  C   3   0.00001     0.03174     0.00018     0.00204    -0.00411     0.00125
 PY  C   3  -0.00040     0.07708     0.00098     0.01790    -0.03902     0.01289
 PZ  C   3  -0.00002     0.00713     0.00007     0.00133    -0.00293     0.00098
  
  S  C   4   0.00230     0.11602    -0.00196    -0.05083     0.11368    -0.03833
 PX  C   4  -0.00064    -0.01820     0.00063     0.01484    -0.03287     0.01098
 PY  C   4  -0.00074     0.04666     0.00096     0.01489    -0.03021     0.00914
 PZ  C   4   0.00001     0.00586     0.00002    -0.00020     0.00064    -0.00028
  
  S  C   5   0.00693     0.05334    -0.00598    -0.11068     0.23198    -0.07304
 PX  C   5  -0.00134    -0.00349     0.00117     0.02042    -0.04199     0.01293
 PY  C   5  -0.00275     0.01467     0.00209     0.02837    -0.05390     0.01501
 PZ  C   5  -0.00001     0.00418    -0.00010    -0.00375     0.00885    -0.00312
  
  S  C   6   0.00793     0.03561    -0.00658    -0.11466     0.23659    -0.07319
 PX  C   6   0.00169     0.00960    -0.00152    -0.02754     0.05731    -0.01788
 PY  C   6  -0.00260     0.00601     0.00180     0.02348    -0.04413     0.01216
 PZ  C   6  -0.00220    -0.00655     0.00177     0.02907    -0.05899     0.01790
  
  S  C   7   0.01612     0.01960    -0.00997    -0.13252     0.25462    -0.07279
 PX  C   7   0.00419     0.00608    -0.00284    -0.03969     0.07710    -0.02227
 PY  C   7  -0.00329     0.00619     0.00066    -0.01021     0.03032    -0.01220
 PZ  C   7  -0.00463    -0.00249     0.00247     0.02665    -0.04766     0.01244
  
  S  C   8   0.03322     0.01727    -0.01641    -0.16756     0.29535    -0.07578
 PX  C   8  -0.00115    -0.00132     0.00074     0.01165    -0.02346     0.00713
 PY  C   8  -0.01267     0.00605     0.00368     0.00126     0.02192    -0.01401
 PZ  C   8  -0.00405     0.00294     0.00089    -0.00636     0.02143    -0.00905
  
  S  S   9   0.01122     0.01906    -0.00702    -0.09421     0.18175    -0.05218
 PX  S   9  -0.00469    -0.00793     0.00326     0.04720    -0.09267     0.02712
 PY  S   9  -0.00470     0.00471     0.00201     0.01140    -0.01289     0.00059
 PZ  S   9   0.00207     0.00718    -0.00179    -0.03069     0.06285    -0.01925
  
  S  C  10   0.09761     0.00688    -0.03309    -0.20007     0.27739    -0.04694
 PX  C  10   0.00276    -0.00040    -0.00093     0.00187    -0.01070     0.00567
 PY  C  10  -0.03753     0.00194     0.00930     0.02460    -0.00976    -0.00760
 PZ  C  10  -0.01382     0.00085     0.00331     0.00796    -0.00196    -0.00302
  
  S  C  11   0.09566     0.00376    -0.02760    -0.15537     0.21357    -0.03739
 PX  C  11   0.03729     0.00114    -0.01159    -0.05757     0.07072    -0.00861
 PY  C  11  -0.02670     0.00090     0.00434     0.00902    -0.00495    -0.00075
 PZ  C  11  -0.00383     0.00062    -0.00027    -0.00695     0.01180    -0.00236
  
  S  C  12   0.15009     0.00118    -0.02391    -0.10073     0.14686    -0.03589
 PX  C  12   0.06789     0.00027    -0.01416    -0.04422     0.04452    -0.00371
 PY  C  12  -0.02267     0.00093    -0.00593    -0.04361     0.04459     0.00237
 PZ  C  12   0.00355     0.00041    -0.00418    -0.02326     0.02538    -0.00072
  
  S  C  13   0.36559    -0.00075    -0.05034    -0.08927     0.07147    -0.00954
 PX  C  13   0.09343    -0.00063    -0.02068    -0.02175    -0.03747     0.03328
 PY  C  13  -0.08536     0.00158    -0.00404    -0.07489     0.08642     0.00095
 PZ  C  13  -0.01891     0.00051    -0.00413    -0.03063     0.02714     0.00488
  
  S  C  14   0.29555     0.00014    -0.06163    -0.14861     0.07041     0.04018
 PX  C  14  -0.04229    -0.00044     0.00695     0.03299    -0.06045     0.02205
 PY  C  14  -0.09655     0.00143     0.01094    -0.02776     0.08089    -0.02782
 PZ  C  14  -0.04417     0.00049     0.00544    -0.00518     0.02160    -0.00739
  
  S  C  15   0.12468     0.00307    -0.03674    -0.16372     0.17876    -0.00937
 PX  C  15  -0.03153    -0.00124     0.00967     0.05543    -0.07778     0.01479
 PY  C  15  -0.04551     0.00094     0.00965     0.01388     0.01165    -0.01428
 PZ  C  15  -0.02258     0.00018     0.00527     0.01415    -0.00776    -0.00321
  
  S  C  16   0.29337    -0.00167    -0.05922    -0.07470    -0.12196     0.12749
 PX  C  16  -0.10373     0.00043     0.01311     0.01190    -0.01973     0.01755
 PY  C  16  -0.03909     0.00058     0.00533    -0.01225     0.05767    -0.03189
 PZ  C  16  -0.03064     0.00029     0.00394    -0.00311     0.01875    -0.00911
  
  S  C  17   0.11921    -0.00083    -0.03177    -0.04484    -0.11465     0.11690
 PX  C  17  -0.04998     0.00029     0.01109     0.01521     0.02316    -0.02517
 PY  C  17  -0.02764     0.00032     0.00717     0.00439     0.04534    -0.03736
 PZ  C  17  -0.01819     0.00017     0.00441     0.00397     0.02073    -0.01799
  
  S  C  18   0.08599    -0.00077    -0.02420    -0.02859    -0.12044     0.11263
 PX  C  18  -0.04358     0.00038     0.01124     0.01204     0.05150    -0.04684
 PY  C  18   0.00317     0.00000    -0.00121    -0.00338     0.00066     0.00170
 PZ  C  18  -0.00548     0.00006     0.00125     0.00053     0.00809    -0.00647
  
  S  C  19   0.08972    -0.00085    -0.02210    -0.01925    -0.12322     0.10759
 PX  C  19  -0.02993     0.00027     0.00534     0.00141     0.02990    -0.02264
 PY  C  19   0.03345    -0.00029    -0.00913    -0.01034    -0.04197     0.03874
 PZ  C  19   0.00767    -0.00007    -0.00263    -0.00382    -0.01093     0.01099
  
  S  C  20   0.14735    -0.00131    -0.02088     0.00385    -0.12818     0.08980
 PX  C  20  -0.02392     0.00017    -0.00508    -0.01959    -0.01799     0.03067
 PY  C  20   0.06413    -0.00052    -0.01222    -0.00725    -0.04776     0.03744
 PZ  C  20   0.01930    -0.00016    -0.00574    -0.00701    -0.02057     0.01953
  
  S  C  21   0.36288    -0.00264    -0.04796    -0.00372    -0.15622     0.09569
 PX  C  21  -0.09108     0.00057    -0.00257    -0.03217    -0.02980     0.05584
 PY  C  21   0.08824    -0.00040    -0.01944    -0.02976    -0.00822     0.01821
 PZ  C  21   0.02039    -0.00007    -0.00839    -0.01755    -0.00867     0.01705
  
  S  N  22   0.48496    -0.00339    -0.02279     0.08542    -0.07335    -0.03893
 PX  N  22   0.05780    -0.00035    -0.02474    -0.03906    -0.04079     0.04869
 PY  N  22   0.05540    -0.00007    -0.02373    -0.05130     0.00091     0.02733
 PZ  N  22   0.03066    -0.00008    -0.01278    -0.02596    -0.00520     0.01788
  
  S  C  23   0.23590    -0.00217     0.10079     0.25447     0.03633    -0.17759
 PX  C  23   0.05707    -0.00035    -0.04023    -0.04358    -0.04256     0.03911
 PY  C  23   0.05417    -0.00025    -0.03778    -0.04596    -0.02707     0.03124
 PZ  C  23   0.02960    -0.00013    -0.01879    -0.02568    -0.01280     0.01826
  
  S  C  24   0.11729    -0.00124     0.12253     0.22426     0.07143    -0.15792
 PX  C  24   0.04336    -0.00035    -0.00419     0.02270    -0.00553    -0.01981
 PY  C  24   0.01348     0.00002    -0.03593    -0.03981    -0.01842     0.02069
 PZ  C  24  -0.02580     0.00036    -0.04661    -0.08366    -0.02623     0.05945
  
  S  C  25   0.06242    -0.00095     0.19233     0.22318     0.09480    -0.13176
 PX  C  25   0.02431    -0.00030     0.02829     0.07676     0.02301    -0.05963
 PY  C  25   0.00752    -0.00002    -0.02969     0.01216    -0.00382    -0.02547
 PZ  C  25  -0.01075     0.00020    -0.04481    -0.05339    -0.02043     0.03891
  
  S  C  26   0.05818    -0.00100     0.23762     0.23621     0.10202    -0.14641
 PX  C  26   0.01413    -0.00017    -0.00203     0.05690     0.01436    -0.04500
 PY  C  26   0.01307    -0.00014    -0.00693     0.05305     0.01286    -0.04573
 PZ  C  26   0.00884    -0.00013     0.02862     0.02890     0.01492    -0.00717
  
  S  C  27   0.06041    -0.00091     0.15090     0.22568     0.07902    -0.15851
 PX  C  27   0.00074     0.00005    -0.03129    -0.01878    -0.01366     0.01089
 PY  C  27   0.01495    -0.00017     0.00882     0.04004     0.00901    -0.03146
 PZ  C  27   0.02412    -0.00034     0.05260     0.08293     0.02906    -0.05548
  
  S  C  28   0.11669    -0.00132     0.11054     0.23046     0.05152    -0.16122
 PX  C  28  -0.00348     0.00016    -0.04731    -0.07353    -0.03392     0.05572
 PY  C  28   0.02395    -0.00015    -0.01590    -0.01134    -0.01362     0.00874
 PZ  C  28   0.04658    -0.00046     0.02336     0.05736     0.00756    -0.03826
  
  S  C  29   0.02257    -0.00054     0.22388     0.04860     0.02955    -0.05321
 PX  C  29   0.00550    -0.00008     0.00193     0.04891     0.02483    -0.00848
 PY  C  29   0.00363    -0.00003    -0.02373     0.04595     0.01941    -0.01542
 PZ  C  29   0.00620    -0.00015     0.06461     0.01732     0.01672     0.00775
  
  S  C  30   0.01692    -0.00054     0.30610    -0.06462    -0.01367     0.00162
 PX  C  30   0.00341    -0.00006     0.00795     0.04835     0.03571     0.02622
 PY  C  30   0.00300    -0.00004    -0.00579     0.04665     0.02587    -0.00329
 PZ  C  30   0.00162    -0.00005     0.02959     0.01268     0.02608     0.06202
  
  S  C  31   0.01709    -0.00057     0.34656    -0.03384     0.06780     0.23182
 PX  C  31   0.00206    -0.00004     0.00739     0.02605     0.02280     0.02791
 PY  C  31   0.00230    -0.00004     0.00185     0.01900     0.00503    -0.02285
 PZ  C  31  -0.00146     0.00002     0.00811     0.00298     0.03086     0.10916
  
  S  C  32   0.00906    -0.00036     0.24462    -0.04179     0.05810     0.24271
 PX  C  32   0.00362    -0.00013     0.08808    -0.00404     0.03209     0.10544
 PY  C  32   0.00059    -0.00001     0.00031     0.00488     0.00062    -0.00864
 PZ  C  32  -0.00158     0.00005    -0.02578     0.01241     0.01440     0.03559
  
  S  C  33   0.00585    -0.00025     0.18065    -0.02182     0.06806     0.25625
 PX  C  33   0.00182    -0.00007     0.05217    -0.00259     0.02330     0.07968
 PY  C  33   0.00050    -0.00002     0.01054    -0.00016     0.00370     0.01137
 PZ  C  33  -0.00235     0.00009    -0.06492     0.00888    -0.01902    -0.07313
  
  S  C  34   0.00561    -0.00024     0.16995    -0.01472     0.07191     0.25867
 PX  C  34  -0.00050     0.00002    -0.01930     0.00375    -0.00647    -0.02739
 PY  C  34   0.00068    -0.00002     0.01560    -0.00041     0.00629     0.02046
 PZ  C  34  -0.00279     0.00011    -0.07641     0.00574    -0.02959    -0.10345
  
  S  C  35   0.00749    -0.00028     0.18482    -0.00707     0.07616     0.25378
 PX  C  35  -0.00262     0.00011    -0.07698     0.00695    -0.02955    -0.10568
 PY  C  35   0.00105    -0.00003     0.01126     0.00289     0.00444     0.00769
 PZ  C  35  -0.00218     0.00006    -0.03387    -0.00272    -0.01050    -0.02430
  
  S  C  36   0.01423    -0.00045     0.25654     0.00508     0.08453     0.23854
 PX  C  36  -0.00341     0.00013    -0.08772     0.01001    -0.02148    -0.07713
 PY  C  36   0.00271    -0.00005     0.00876     0.01348     0.00348    -0.01730
 PZ  C  36  -0.00144     0.00001     0.01782    -0.00980     0.01715     0.08142
  
  S  C  37   0.00815    -0.00036     0.27503    -0.23083    -0.15618    -0.15390
 PX  C  37   0.00138    -0.00003     0.00326     0.04785     0.04463     0.05808
 PY  C  37   0.00108    -0.00002    -0.00433     0.04336     0.03579     0.03712
 PZ  C  37   0.00098    -0.00003     0.01209     0.02284     0.02678     0.04517
  
  S  C  38   0.00441    -0.00022     0.18385    -0.20605    -0.15530    -0.17675
 PX  C  38   0.00134    -0.00005     0.03285    -0.01217    -0.00522    -0.00336
 PY  C  38  -0.00068     0.00005    -0.05418     0.08238     0.06415     0.07165
 PZ  C  38   0.00094    -0.00004     0.02973    -0.01976    -0.01170    -0.00921
  
  S  C  39   0.00232    -0.00014     0.13554    -0.19415    -0.15310    -0.17844
 PX  C  39   0.00094    -0.00005     0.04897    -0.06344    -0.04884    -0.05564
 PY  C  39  -0.00014     0.00001    -0.01727     0.03123     0.02516     0.02895
 PZ  C  39   0.00065    -0.00004     0.03536    -0.04685    -0.03604    -0.04067
  
  S  C  40   0.00198    -0.00013     0.12785    -0.19235    -0.15243    -0.17702
 PX  C  40   0.00071    -0.00004     0.04219    -0.05883    -0.04562    -0.05157
 PY  C  40   0.00061    -0.00004     0.03573    -0.05027    -0.03936    -0.04548
 PZ  C  40   0.00040    -0.00002     0.02395    -0.03315    -0.02555    -0.02853
  
  S  C  41   0.00235    -0.00014     0.13939    -0.19583    -0.15182    -0.17078
 PX  C  41   0.00022    -0.00001     0.00541     0.00125     0.00303     0.00659
 PY  C  41   0.00115    -0.00007     0.06368    -0.08436    -0.06452    -0.07173
 PZ  C  41   0.00002     0.00000    -0.00384     0.01178     0.01079     0.01494
  
  S  C  42   0.00461    -0.00023     0.19953    -0.21198    -0.15066    -0.15020
 PX  C  42  -0.00004     0.00002    -0.02653     0.05741     0.04857     0.06071
 PY  C  42   0.00185    -0.00008     0.06154    -0.04424    -0.02675    -0.02072
 PZ  C  42  -0.00009     0.00002    -0.02015     0.04319     0.03747     0.04946
  
  S  C  43   0.00105     0.51328     0.00198     0.01383    -0.02528     0.00697
 PX  C  43  -0.00001     0.01770     0.00012     0.00149    -0.00287     0.00079
 PY  C  43   0.00002     0.13714     0.00095     0.01560    -0.03468     0.01179
 PZ  C  43   0.00001     0.01475     0.00010     0.00162    -0.00362     0.00124
  
  S  O  44   0.00074     0.41232     0.00174     0.01467    -0.02816     0.00818
 PX  O  44  -0.00031    -0.17589    -0.00076    -0.00666     0.01300    -0.00386
 PY  O  44  -0.00006    -0.00609     0.00005     0.00222    -0.00539     0.00197
 PZ  O  44   0.00000     0.00462     0.00003     0.00043    -0.00096     0.00033
  
  S  O  45   0.00088     0.57156     0.00270     0.03002    -0.06294     0.02033
 PX  O  45   0.00023     0.15850     0.00077     0.00874    -0.01838     0.00594
 PY  O  45  -0.00013    -0.06312    -0.00023    -0.00103     0.00145    -0.00024
 PZ  O  45  -0.00002    -0.01222    -0.00005    -0.00041     0.00079    -0.00023
  
  S  H  46   0.00074     0.05108    -0.00055    -0.01557     0.03513    -0.01194
  
  S  H  47   0.00198     0.01592    -0.00173    -0.03275     0.06903    -0.02187
  
  S  H  48   0.00676     0.00512    -0.00363    -0.04247     0.07859    -0.02152
  
  S  H  49   0.02331     0.00180    -0.00734    -0.04975     0.07490    -0.01551
  
  S  H  50   0.05049     0.00017    -0.00134    -0.01228     0.04004    -0.01966
  
  S  H  51   0.03451     0.00129    -0.01101    -0.05108     0.05461    -0.00124
  
  S  H  52   0.03240    -0.00016    -0.00933    -0.01672    -0.02665     0.03210
  
  S  H  53   0.01954    -0.00018    -0.00602    -0.00774    -0.03191     0.03053
  
  S  H  54   0.02067    -0.00021    -0.00520    -0.00430    -0.03283     0.02861
  
  S  H  55   0.04979    -0.00046    -0.00068     0.01549    -0.03374     0.01423
  
  S  H  56   0.04887    -0.00041     0.03052     0.05925     0.02066    -0.04381
  
  S  H  57   0.01689    -0.00029     0.08187     0.05906     0.03299    -0.01883
  
  S  H  58   0.01521    -0.00024     0.04612     0.06150     0.02211    -0.04410
  
  S  H  59   0.04858    -0.00049     0.02566     0.06446     0.00537    -0.04223
  
  S  H  60   0.00742    -0.00018     0.07592     0.00953     0.00235    -0.03155
  
  S  H  61   0.00298    -0.00012     0.08334    -0.02377     0.00770     0.05790
  
  S  H  62   0.00135    -0.00006     0.04560    -0.00649     0.01764     0.06882
  
  S  H  63   0.00128    -0.00006     0.04197    -0.00383     0.01918     0.06996
  
  S  H  64   0.00212    -0.00007     0.04741    -0.00035     0.02093     0.06761
  
  S  H  65   0.00805    -0.00020     0.09329     0.01651     0.02978     0.05361
  
  S  H  66   0.00193    -0.00008     0.06145    -0.05622    -0.04174    -0.04957
  
  S  H  67   0.00056    -0.00003     0.03419    -0.05106    -0.04081    -0.04842
  
  S  H  68   0.00045    -0.00003     0.03161    -0.05056    -0.04065    -0.04793
  
  S  H  69   0.00058    -0.00004     0.03566    -0.05169    -0.04028    -0.04535
  
  S  H  70   0.00211    -0.00010     0.07533    -0.06098    -0.03745    -0.02665
  
  S  H  71   0.00036     0.24061     0.00116     0.01344    -0.02840     0.00924




    ROOT NO.    7           8           9          10          11          12

           -42.57246   -41.49489   -39.71875   -39.42325   -39.10351   -36.73587
  
  
  S  N   1   0.06225     0.06103    -0.03544     0.15287     0.37076    -0.22428
 PX  N   1   0.03231     0.03095    -0.01669     0.07257     0.17324    -0.08918
 PY  N   1  -0.00732    -0.00528     0.00870     0.00047    -0.00198    -0.00269
 PZ  N   1   0.00053     0.00029     0.00092     0.00051     0.00029     0.00008
  
  S  C   2   0.10443     0.09646    -0.07056     0.18277     0.44068    -0.14796
 PX  C   2   0.01491     0.01039    -0.02124    -0.02202    -0.05268     0.12656
 PY  C   2  -0.02499    -0.01823     0.03562     0.00377    -0.00634    -0.00905
 PZ  C   2  -0.00015    -0.00032     0.00407     0.00133     0.00017    -0.00014
  
  S  C   3   0.12332     0.11316    -0.21534     0.08850     0.30405     0.03580
 PX  C   3  -0.00455    -0.00175    -0.09545    -0.06681    -0.08564     0.03017
 PY  C   3  -0.05833    -0.04442     0.06728    -0.01206    -0.04985    -0.03135
 PZ  C   3  -0.00464    -0.00385     0.01001     0.00024    -0.00459    -0.00258
  
  S  C   4   0.18011     0.14321    -0.24067     0.04812     0.20249     0.10463
 PX  C   4  -0.05039    -0.03857     0.02500    -0.03628    -0.07974    -0.01855
 PY  C   4  -0.03129    -0.01041    -0.08357    -0.01350     0.04159    -0.02162
 PZ  C   4   0.00207     0.00256    -0.00953     0.00100     0.00811    -0.00010
  
  S  C   5   0.28839     0.16938    -0.02133     0.04211     0.01079     0.11175
 PX  C   5  -0.04712    -0.02272    -0.02856    -0.00648     0.01822     0.00064
 PY  C   5  -0.03793     0.00366    -0.10626     0.02939     0.13952     0.01698
 PZ  C   5   0.01558     0.01257    -0.00867     0.00803     0.01602     0.00753
  
  S  C   6   0.27337     0.14273     0.06571     0.02320    -0.07578     0.05956
 PX  C   6   0.06902     0.03793     0.00573     0.00487    -0.01636     0.03096
 PY  C   6  -0.02883     0.00399    -0.06732     0.02859     0.10682     0.01432
 PZ  C   6  -0.06327    -0.02901    -0.02377     0.00160     0.03580    -0.01294
  
  S  C   7   0.21301     0.06145     0.13592    -0.03580    -0.18316    -0.03031
 PX  C   7   0.06933     0.02263     0.03999    -0.00994    -0.05744     0.00236
 PY  C   7   0.07148     0.05441     0.01453     0.01572    -0.02251     0.04559
 PZ  C   7  -0.02468     0.00406    -0.02378     0.01313     0.03174     0.01939
  
  S  C   8   0.15043    -0.02289     0.13426    -0.06825    -0.17202    -0.08805
 PX  C   8  -0.01729    -0.00436    -0.01677     0.00637     0.02129     0.02178
 PY  C   8   0.10983     0.09091     0.03393     0.01802    -0.06186     0.06004
 PZ  C   8   0.05190     0.03639     0.02300     0.00343    -0.03723     0.01661
  
  S  S   9   0.16444     0.05811     0.06440    -0.01547    -0.10075     0.02552
 PX  S   9  -0.08671    -0.03153    -0.04577     0.00900     0.06424    -0.00515
 PY  S   9   0.02428     0.03629    -0.02643     0.01842     0.02634     0.03700
 PZ  S   9   0.07021     0.03375     0.02404    -0.00096    -0.03878     0.01876
  
  S  C  10  -0.12073    -0.22957     0.02129    -0.08118     0.01676    -0.13464
 PX  C  10  -0.00190    -0.00201    -0.00808     0.00930     0.00564     0.05735
 PY  C  10   0.09614     0.06518     0.04863    -0.00791    -0.07540    -0.02484
 PZ  C  10   0.03903     0.02483     0.01999    -0.00277    -0.03159    -0.00315
  
  S  C  11  -0.15971    -0.20127    -0.01390    -0.06519     0.06948    -0.17365
 PX  C  11  -0.05798    -0.07222    -0.00915    -0.01425     0.02328    -0.01343
 PY  C  11   0.05521     0.02167     0.02802    -0.00621    -0.04408    -0.00222
 PZ  C  11   0.01261    -0.00377     0.01058    -0.00556    -0.01472    -0.00465
  
  S  C  12  -0.18915    -0.11001    -0.03768    -0.03277     0.08965    -0.14393
 PX  C  12  -0.06947    -0.03169    -0.01890     0.00663     0.02438     0.01148
 PY  C  12  -0.02251    -0.08120    -0.00901    -0.01468     0.02459    -0.01424
 PZ  C  12  -0.02053    -0.03620    -0.00612    -0.00563     0.01371    -0.00546
  
  S  C  13  -0.20007     0.05331    -0.04456     0.05798     0.02346     0.04017
 PX  C  13   0.00925     0.03607    -0.01269     0.05820    -0.03102     0.16740
 PY  C  13  -0.05308    -0.17630    -0.03082    -0.02860     0.07312     0.01850
 PZ  C  13  -0.01799    -0.06141    -0.01323    -0.00280     0.02313     0.03218
  
  S  C  14  -0.14089    -0.10125    -0.06889     0.07246     0.04717     0.28296
 PX  C  14   0.09050     0.00870     0.01260     0.00278    -0.02224     0.05896
 PY  C  14  -0.04445    -0.10501    -0.00382    -0.05149     0.04899    -0.07774
 PZ  C  14  -0.00256    -0.03880     0.00071    -0.01959     0.01521    -0.02126
  
  S  C  15  -0.14159    -0.20891    -0.03372    -0.02331     0.06566     0.07573
 PX  C  15   0.06489     0.06825     0.00633     0.02074    -0.02426     0.05552
 PY  C  15   0.03581     0.01346     0.02962    -0.02678    -0.02857    -0.09291
 PZ  C  15   0.02439     0.01618     0.01259    -0.00707    -0.01512    -0.02715
  
  S  C  16   0.14394    -0.11839    -0.02879     0.05199     0.00060     0.25537
 PX  C  16   0.10129    -0.11892     0.01340    -0.06289     0.03267    -0.09053
 PY  C  16  -0.08951     0.01956    -0.01467     0.01642     0.01054     0.07539
 PZ  C  16  -0.01815    -0.01142    -0.00364    -0.00332     0.00913     0.01536
  
  S  C  17   0.22112    -0.22498    -0.00682    -0.03464     0.04051     0.07396
 PX  C  17  -0.02754     0.02359     0.00699    -0.01396     0.00104    -0.07175
 PY  C  17  -0.08887     0.07040    -0.00621     0.02452    -0.01054     0.05256
 PZ  C  17  -0.03786     0.03019    -0.00129     0.00712    -0.00381     0.00879
  
  S  C  18   0.24941    -0.23822     0.00796    -0.06937     0.04611    -0.08561
 PX  C  18  -0.09866     0.08592    -0.00253     0.02019    -0.01267     0.01558
 PY  C  18  -0.00314    -0.00163    -0.00369     0.00692     0.00031     0.04745
 PZ  C  18  -0.01619     0.01241    -0.00178     0.00567    -0.00179     0.02014
  
  S  C  19   0.25255    -0.22199     0.01656    -0.07925     0.03978    -0.17359
 PX  C  19  -0.05366     0.03438    -0.00528     0.01305    -0.00195     0.03547
 PY  C  19   0.08161    -0.07329     0.00169    -0.01730     0.01181    -0.01059
 PZ  C  19   0.02187    -0.02191    -0.00029    -0.00418     0.00404     0.00195
  
  S  C  20   0.22833    -0.13748     0.02763    -0.06798     0.01159    -0.19698
 PX  C  20   0.05769    -0.08976    -0.00455    -0.01758     0.02217    -0.01154
 PY  C  20   0.07205    -0.03843     0.00344    -0.00504    -0.00203    -0.00586
 PZ  C  20   0.03539    -0.02868     0.00003    -0.00344     0.00250    -0.00219
  
  S  C  21   0.15737     0.02850     0.01546     0.02539    -0.04911    -0.01211
 PX  C  21   0.12470    -0.19668    -0.00698    -0.04329     0.04764     0.00280
 PY  C  21  -0.03714     0.03826    -0.02145     0.06031    -0.01711     0.16863
 PZ  C  21   0.00610    -0.01688    -0.00971     0.01732     0.00063     0.06596
  
  S  N  22  -0.06765     0.34260     0.04064     0.03809    -0.09577    -0.15754
 PX  N  22   0.02665     0.00249    -0.01446     0.05544    -0.02726     0.12479
 PY  N  22  -0.04274     0.00791    -0.02827     0.06095    -0.00740     0.13421
 PZ  N  22  -0.01381     0.00384    -0.01360     0.03266    -0.00673     0.07127
  
  S  C  23   0.00310     0.11043     0.07089    -0.15593     0.03108    -0.21880
 PX  C  23  -0.01007     0.09526     0.00746     0.03499    -0.04527    -0.08640
 PY  C  23  -0.03279     0.09202     0.00114     0.03783    -0.03644    -0.07599
 PZ  C  23  -0.02075     0.05034    -0.00098     0.02364    -0.01980    -0.04088
  
  S  C  24   0.01145    -0.02266     0.03567    -0.12717     0.06205    -0.04848
 PX  C  24  -0.00807     0.04932     0.01706    -0.02740    -0.00205    -0.07899
 PY  C  24  -0.01951     0.05013     0.00388     0.00876    -0.01427    -0.06353
 PZ  C  24  -0.01493     0.02956    -0.00998     0.04346    -0.02443    -0.01654
  
  S  C  25   0.03862    -0.13277    -0.01348    -0.01368     0.03396     0.12092
 PX  C  25   0.01087    -0.02071     0.01705    -0.06688     0.03554     0.01038
 PY  C  25  -0.00276     0.01729     0.02037    -0.06346     0.02739    -0.02671
 PZ  C  25  -0.01424     0.04535     0.01129    -0.02010     0.00119    -0.05196
  
  S  C  26   0.05365    -0.18881    -0.05025     0.09198    -0.00746     0.19526
 PX  C  26   0.00903    -0.00752     0.02670    -0.09631     0.04826     0.02120
 PY  C  26   0.00716    -0.00628     0.02534    -0.09218     0.04670     0.01812
 PZ  C  26   0.00269    -0.00886     0.00318    -0.01519     0.00918    -0.00166
  
  S  C  27   0.04969    -0.12974     0.00192    -0.05888     0.05131     0.13741
 PX  C  27  -0.00447     0.03443     0.01838    -0.04429     0.01197    -0.05537
 PY  C  27   0.00602    -0.00118     0.01625    -0.05351     0.02403    -0.01471
 PZ  C  27   0.01537    -0.03711     0.00596    -0.03459     0.02263     0.02793
  
  S  C  28   0.04158    -0.02462     0.04758    -0.14690     0.05941    -0.05076
 PX  C  28  -0.01096     0.05276    -0.00139     0.03429    -0.03029    -0.06328
 PY  C  28  -0.00943     0.04772     0.00876    -0.00154    -0.01293    -0.06914
 PZ  C  28   0.00396     0.02326     0.01722    -0.03755     0.00695    -0.05780
  
  S  C  29   0.02636    -0.13050    -0.09846     0.29517    -0.12369     0.03218
 PX  C  29   0.00710    -0.02249     0.00340    -0.02589     0.01969     0.06928
 PY  C  29   0.00585    -0.01367     0.01306    -0.05710     0.03404     0.07520
 PZ  C  29   0.00476    -0.02867    -0.02382     0.07249    -0.03096     0.00019
  
  S  C  30   0.00859    -0.07747    -0.10566     0.35329    -0.16891    -0.14870
 PX  C  30   0.00422    -0.02257    -0.01064     0.02503    -0.00634     0.04795
 PY  C  30   0.00712    -0.03099    -0.01405     0.03383    -0.00926     0.05444
 PZ  C  30  -0.00498     0.01203     0.00467    -0.01254     0.00456    -0.00801
  
  S  C  31  -0.01700     0.01339    -0.03488     0.12963    -0.06776    -0.08838
 PX  C  31   0.00014    -0.00205     0.00604    -0.02636     0.01607     0.05432
 PY  C  31   0.00584    -0.02391    -0.01396     0.03934    -0.01512     0.01364
 PZ  C  31  -0.01475     0.05794     0.04826    -0.15344     0.06979     0.04431
  
  S  C  32  -0.02603     0.06730     0.01944    -0.04393     0.01102    -0.05940
 PX  C  32  -0.01024     0.02670     0.01162    -0.03324     0.01349     0.00518
 PY  C  32   0.00195    -0.00848    -0.00640     0.01959    -0.00848    -0.00169
 PZ  C  32  -0.00494     0.02432     0.02788    -0.09328     0.04487     0.04856
  
  S  C  33  -0.02914     0.09121     0.05564    -0.16877     0.07294     0.02532
 PX  C  33  -0.00867     0.02723     0.01843    -0.05788     0.02620     0.02460
 PY  C  33  -0.00102     0.00233     0.00062    -0.00144     0.00041    -0.00153
 PZ  C  33   0.00777    -0.02086    -0.00752     0.01920    -0.00638     0.01270
  
  S  C  34  -0.02917     0.09357     0.06316    -0.19705     0.08830     0.06687
 PX  C  34   0.00331    -0.01045    -0.00564     0.01618    -0.00642     0.00634
 PY  C  34  -0.00209     0.00604     0.00361    -0.01109     0.00490     0.00342
 PZ  C  34   0.01102    -0.03260    -0.01873     0.05668    -0.02456    -0.01471
  
  S  C  35  -0.02643     0.07970     0.05150    -0.16114     0.07277     0.07210
 PX  C  35   0.01148    -0.03428    -0.01980     0.05986    -0.02587    -0.01331
 PY  C  35  -0.00016    -0.00082    -0.00063     0.00154    -0.00041     0.00256
 PZ  C  35   0.00102     0.00153     0.00461    -0.01544     0.00729     0.00233
  
  S  C  36  -0.01827     0.03497     0.00800    -0.02161     0.00889     0.03081
 PX  C  36   0.00688    -0.01200     0.00387    -0.01819     0.01108     0.02251
 PY  C  36   0.00435    -0.01712    -0.00939     0.02631    -0.01011     0.00539
 PZ  C  36  -0.01189     0.04489     0.03370    -0.10525     0.04696     0.02778
  
  S  C  37   0.00012    -0.00279    -0.03161     0.12063    -0.06561    -0.13269
 PX  C  37   0.00103    -0.02004    -0.02995     0.10175    -0.04958    -0.05511
 PY  C  37   0.00261    -0.02309    -0.02841     0.09412    -0.04459    -0.03426
 PZ  C  37  -0.00124    -0.00542    -0.01458     0.05190    -0.02652    -0.04211
  
  S  C  38   0.00073     0.01283     0.00763    -0.02030     0.00710    -0.00906
 PX  C  38   0.00098    -0.01028    -0.01872     0.06589    -0.03337    -0.05084
 PY  C  38   0.00120    -0.01692    -0.01999     0.06590    -0.03114    -0.02810
 PZ  C  38   0.00004    -0.00283    -0.00870     0.03196    -0.01685    -0.03213
  
  S  C  39  -0.00104     0.03222     0.04324    -0.14613     0.07115     0.09448
 PX  C  39  -0.00022     0.00789     0.00799    -0.02531     0.01141     0.00516
 PY  C  39   0.00059    -0.00879    -0.01304     0.04492    -0.02231    -0.03221
 PZ  C  39  -0.00031     0.00678     0.00728    -0.02350     0.01083     0.00731
  
  S  C  40  -0.00168     0.03753     0.05252    -0.17898     0.08792     0.12112
 PX  C  40  -0.00054     0.01001     0.01173    -0.03855     0.01815     0.01509
 PY  C  40  -0.00027     0.00782     0.00959    -0.03181     0.01515     0.01668
 PZ  C  40  -0.00037     0.00585     0.00671    -0.02196     0.01029     0.00776
  
  S  C  41  -0.00220     0.03656     0.04566    -0.15252     0.07324     0.07915
 PX  C  41  -0.00017    -0.00201    -0.00613     0.02273    -0.01215    -0.02807
 PY  C  41  -0.00080     0.01329     0.01424    -0.04601     0.02125     0.01451
 PZ  C  41  -0.00013    -0.00281    -0.00601     0.02155    -0.01115    -0.02180
  
  S  C  42  -0.00306     0.02590     0.01390    -0.03633     0.01210    -0.03935
 PX  C  42   0.00026    -0.01304    -0.01998     0.06834    -0.03360    -0.04224
 PY  C  42  -0.00038    -0.00245    -0.01320     0.04952    -0.02660    -0.05266
 PZ  C  42  -0.00044    -0.00684    -0.01171     0.04030    -0.01993    -0.02619
  
  S  C  43  -0.01950    -0.00343    -0.12862    -0.05667    -0.03233    -0.00978
 PX  C  43  -0.00110     0.00518    -0.32206    -0.18664    -0.19136    -0.04753
 PY  C  43  -0.05873    -0.05412     0.19759     0.01222    -0.09240    -0.00218
 PZ  C  43  -0.00628    -0.00604     0.03152     0.00685    -0.00484     0.00151
  
  S  O  44  -0.02622    -0.00579    -0.46108    -0.27129    -0.27581    -0.07508
 PX  O  44   0.01361     0.00594     0.12220     0.07739     0.08367     0.01832
 PY  O  44  -0.01133    -0.01231     0.08658     0.02551     0.00019     0.00310
 PZ  O  44  -0.00163    -0.00152     0.00591     0.00048    -0.00256    -0.00015
  
  S  O  45  -0.09263    -0.08112     0.49955     0.15941     0.03226     0.05219
 PX  O  45  -0.02686    -0.02256     0.07809     0.00636    -0.03302     0.00585
 PY  O  45  -0.00122    -0.00330    -0.00671    -0.02001    -0.04075     0.00234
 PZ  O  45   0.00077     0.00038    -0.00347    -0.00261    -0.00376     0.00016
  
  S  H  46   0.05723     0.04693    -0.11044    -0.00106     0.05074     0.03769
  
  S  H  47   0.08718     0.05226     0.00249     0.02247     0.01949     0.01417
  
  S  H  48   0.05222     0.00605     0.04211    -0.01573    -0.05399    -0.02618
  
  S  H  49  -0.03422    -0.05947     0.00717    -0.02763     0.00815    -0.07916
  
  S  H  50  -0.05363    -0.01633    -0.00602    -0.01800     0.02659    -0.07422
  
  S  H  51  -0.02631    -0.06694    -0.00469    -0.00923     0.01185     0.03875
  
  S  H  52   0.05620    -0.07007    -0.00477    -0.00849     0.01514     0.04433
  
  S  H  53   0.06986    -0.07082     0.00245    -0.02281     0.01564    -0.03204
  
  S  H  54   0.07106    -0.06501     0.00578    -0.02684     0.01331    -0.06896
  
  S  H  55   0.06218    -0.02462     0.01434    -0.02975     0.00202    -0.09335
  
  S  H  56  -0.00796     0.01009     0.01172    -0.03746     0.01661    -0.04146
  
  S  H  57   0.00998    -0.04438    -0.01375     0.02660    -0.00321     0.03930
  
  S  H  58   0.01553    -0.04370    -0.00459    -0.00233     0.00925     0.05270
  
  S  H  59   0.01630     0.00824     0.01902    -0.04671     0.01220    -0.04538
  
  S  H  60   0.00987    -0.04649    -0.03490     0.10484    -0.04409     0.01149
  
  S  H  61  -0.00685     0.01596    -0.00067     0.00987    -0.00852    -0.04016
  
  S  H  62  -0.00815     0.02666     0.01742    -0.05339     0.02333     0.00780
  
  S  H  63  -0.00817     0.02751     0.02029    -0.06430     0.02932     0.02549
  
  S  H  64  -0.00699     0.02188     0.01575    -0.05043     0.02337     0.02837
  
  S  H  65  -0.00036    -0.00937    -0.00869     0.02481    -0.00948     0.01824
  
  S  H  66   0.00125    -0.00349    -0.00665     0.02361    -0.01200    -0.01467
  
  S  H  67  -0.00022     0.00897     0.01321    -0.04540     0.02252     0.03504
  
  S  H  68  -0.00047     0.01103     0.01686    -0.05836     0.02917     0.04618
  
  S  H  69  -0.00068     0.01074     0.01424    -0.04813     0.02343     0.02836
  
  S  H  70  -0.00189     0.00697    -0.00183     0.01126    -0.00807    -0.03378
  
  S  H  71  -0.04268    -0.03758     0.19212     0.04609    -0.02008     0.01948




    ROOT NO.   13          14          15          16          17          18

           -36.27961   -34.47987   -34.33201   -33.63331   -33.33974   -32.75389
  
  
  S  N   1   0.49752     0.01874     0.07336     0.03245     0.03235     0.02277
 PX  N   1   0.18908     0.00531     0.02094     0.00800     0.00739     0.00493
 PY  N   1   0.00402    -0.00158    -0.00530    -0.00419    -0.00522    -0.00373
 PZ  N   1   0.00038     0.00029     0.00086     0.00054     0.00063     0.00027
  
  S  C   2   0.25901    -0.00453    -0.01567    -0.01622    -0.02039    -0.01521
 PX  C   2  -0.33693    -0.02437    -0.09327    -0.04862    -0.05178    -0.03669
 PY  C   2   0.01593    -0.00383    -0.01357    -0.01124    -0.01410    -0.01079
 PZ  C   2   0.00145     0.00049     0.00139     0.00078     0.00085     0.00023
  
  S  C   3  -0.23095    -0.04108    -0.15334    -0.08758    -0.09615    -0.06638
 PX  C   3  -0.07178    -0.00418    -0.01483    -0.00671    -0.00663    -0.00292
 PY  C   3   0.08019    -0.00167    -0.00813    -0.01355    -0.01922    -0.01883
 PZ  C   3   0.00866     0.00072     0.00213     0.00063     0.00042    -0.00048
  
  S  C   4  -0.32213    -0.02083    -0.06867    -0.02266    -0.01758     0.00091
 PX  C   4   0.06099     0.00257     0.01088     0.00279     0.00142     0.00092
 PY  C   4  -0.01444    -0.01976    -0.07850    -0.05212    -0.06011    -0.04653
 PZ  C   4  -0.00470    -0.00081    -0.00430    -0.00248    -0.00263    -0.00279
  
  S  C   5  -0.15135     0.02667     0.11103     0.07760     0.08963     0.06946
 PX  C   5  -0.03736    -0.01429    -0.03985    -0.02161    -0.02359    -0.00683
 PY  C   5  -0.12581    -0.01498    -0.05812    -0.02279    -0.01906    -0.00679
 PZ  C   5  -0.01293     0.00604     0.01506     0.01149     0.01443     0.00641
  
  S  C   6   0.01407     0.05205     0.15987     0.09541     0.10696     0.05203
 PX  C   6  -0.03676     0.00351     0.02652     0.01748     0.01897     0.01919
 PY  C   6  -0.07392    -0.00925    -0.01646     0.00016     0.00405     0.01539
 PZ  C   6  -0.00401    -0.00631    -0.02311    -0.01156    -0.01144    -0.00681
  
  S  C   7   0.12270     0.02759     0.02216    -0.00192    -0.00411    -0.03995
 PX  C   7   0.02743    -0.00446     0.00203    -0.00420    -0.00837    -0.00051
 PY  C   7   0.00023     0.02487     0.10644     0.06333     0.06824     0.04462
 PZ  C   7  -0.01956     0.00759     0.03791     0.02575     0.02913     0.02049
  
  S  C   8   0.12561    -0.05822    -0.17435    -0.11893    -0.13881    -0.07635
 PX  C   8  -0.01526    -0.03061    -0.00631    -0.00385    -0.01076     0.02849
 PY  C   8   0.01545     0.04378     0.14297     0.07650     0.07951     0.03815
 PZ  C   8   0.01971     0.02129     0.05371     0.02702     0.02842     0.00462
  
  S  S   9   0.01539    -0.02234     0.00148    -0.00659    -0.01623     0.01975
 PX  S   9  -0.02903    -0.00089    -0.01385    -0.00294     0.00004    -0.00228
 PY  S   9  -0.05809     0.03219     0.07027     0.04915     0.06012     0.02583
 PZ  S   9   0.00169     0.00684     0.03281     0.01783     0.01812     0.01392
  
  S  C  10   0.01631    -0.08643    -0.25502    -0.12738    -0.12795    -0.04949
 PX  C  10   0.01982    -0.08907    -0.02432    -0.02129    -0.04214     0.05167
 PY  C  10   0.05849    -0.02487    -0.08411    -0.06891    -0.08573    -0.05185
 PZ  C  10   0.02907    -0.02244    -0.03845    -0.03196    -0.04178    -0.01608
  
  S  C  11  -0.08983     0.13665    -0.00438     0.03121     0.07193    -0.05793
 PX  C  11  -0.00511    -0.02879    -0.04999    -0.01703    -0.01258     0.00627
 PY  C  11   0.05710    -0.07411    -0.13207    -0.08094    -0.09141    -0.03519
 PZ  C  11   0.02270    -0.03310    -0.05998    -0.03572    -0.03964    -0.01464
  
  S  C  12  -0.14944     0.23991     0.24297     0.13201     0.14660     0.00060
 PX  C  12  -0.01777     0.01822     0.03277     0.02744     0.03488     0.01611
 PY  C  12  -0.01026     0.00363    -0.04296     0.01208     0.04350    -0.00907
 PZ  C  12  -0.00772     0.00511    -0.00650     0.00678     0.01728    -0.00222
  
  S  C  13  -0.04106     0.13751     0.17998     0.08172     0.08481    -0.00734
 PX  C  13   0.09429    -0.10354    -0.09052    -0.03084    -0.00882    -0.01771
 PY  C  13  -0.03548    -0.00683     0.04541     0.05805     0.08372     0.03950
 PZ  C  13   0.00076    -0.01840     0.00974     0.01243     0.02101     0.00938
  
  S  C  14   0.07836    -0.15477     0.05973     0.02872     0.01617     0.07072
 PX  C  14   0.04870    -0.09338    -0.02362    -0.03787    -0.07289     0.01829
 PY  C  14  -0.04876    -0.03943    -0.02276    -0.00222    -0.01479     0.06338
 PZ  C  14  -0.01125    -0.02921    -0.01104    -0.00793    -0.01923     0.02622
  
  S  C  15   0.03005    -0.21135    -0.11664    -0.06236    -0.09629     0.09510
 PX  C  15   0.02576    -0.02417     0.04248     0.00503    -0.01464     0.01675
 PY  C  15   0.00096     0.01174    -0.09631    -0.05637    -0.05741    -0.04327
 PZ  C  15   0.00474     0.00118    -0.02984    -0.02109    -0.02475    -0.01481
  
  S  C  16   0.10806    -0.14600     0.06082    -0.01334    -0.06091     0.01943
 PX  C  16  -0.04748    -0.00650     0.06657    -0.00031    -0.05951     0.05213
 PY  C  16   0.02056    -0.06991     0.04279     0.00612    -0.02818     0.05338
 PZ  C  16   0.00063    -0.02728     0.02836     0.00131    -0.02187     0.02750
  
  S  C  17   0.01460    -0.10189     0.17294    -0.00447    -0.14349     0.09840
 PX  C  17  -0.03322     0.04833     0.00950     0.00671     0.00247     0.00407
 PY  C  17   0.02598    -0.04355    -0.01984    -0.00486    -0.00372     0.01233
 PZ  C  17   0.00465    -0.00884    -0.00564    -0.00101    -0.00147     0.00511
  
  S  C  18  -0.05823     0.04077     0.14193     0.01386    -0.06861     0.04774
 PX  C  18   0.00933    -0.00515    -0.01295    -0.00007     0.00295     0.00349
 PY  C  18   0.02028    -0.05047     0.04147    -0.00628    -0.05291     0.03379
 PZ  C  18   0.00898    -0.01953     0.01396    -0.00248    -0.01971     0.01311
  
  S  C  19  -0.08819     0.12260    -0.00621     0.02120     0.06978    -0.03351
 PX  C  19   0.01041    -0.01813     0.06175     0.00087    -0.04571     0.02686
 PY  C  19  -0.00886     0.00283     0.04159     0.00029    -0.02683     0.01008
 PZ  C  19  -0.00158    -0.00130     0.02587    -0.00019    -0.01787     0.00733
  
  S  C  20  -0.07147     0.09888    -0.17882     0.00573     0.13572    -0.06134
 PX  C  20  -0.02042     0.03606     0.06230     0.01140     0.00300    -0.00959
 PY  C  20   0.00318     0.00376    -0.01823    -0.00818    -0.00149    -0.01567
 PZ  C  20  -0.00156     0.00965     0.00673    -0.00342    -0.00366    -0.01048
  
  S  C  21   0.03391     0.02161    -0.18504    -0.02952     0.06341    -0.08042
 PX  C  21  -0.01983    -0.00131     0.05952     0.01753     0.01503     0.00134
 PY  C  21   0.07011    -0.04566     0.07100    -0.00321    -0.03831    -0.01119
 PZ  C  21   0.02380    -0.01335     0.04234    -0.00257    -0.01880    -0.00959
  
  S  N  22  -0.02278     0.07839    -0.08699    -0.04717    -0.06041    -0.01535
 PX  N  22   0.07285    -0.02289    -0.12376    -0.00439     0.07357    -0.06073
 PY  N  22   0.04131     0.04485     0.08513     0.02291     0.02763    -0.04902
 PZ  N  22   0.02547     0.02354     0.03936    -0.00516    -0.00434    -0.04108
  
  S  C  23  -0.08401    -0.11695     0.03881    -0.01895    -0.10334     0.11086
 PX  C  23  -0.01286     0.03302    -0.14443     0.01687     0.05909     0.03345
 PY  C  23  -0.02589     0.08236     0.00896    -0.02006    -0.04303    -0.01016
 PZ  C  23  -0.01856     0.07692     0.08370    -0.06582    -0.11673    -0.05189
  
  S  C  24  -0.04284    -0.04911     0.27413    -0.12974    -0.26558    -0.05605
 PX  C  24  -0.02872    -0.02978    -0.02297     0.02836     0.01019     0.06632
 PY  C  24  -0.02564     0.01855    -0.00360     0.02399     0.00613     0.03028
 PZ  C  24  -0.00408     0.04847    -0.01171    -0.00680    -0.00319    -0.00898
  
  S  C  25   0.03463     0.07732     0.16827    -0.15693    -0.18120    -0.16958
 PX  C  25  -0.00261    -0.06484     0.05174     0.00072    -0.02340     0.01747
 PY  C  25  -0.01798    -0.07211     0.07429     0.00361    -0.05226     0.00476
 PZ  C  25  -0.02377    -0.03164     0.05881    -0.03349    -0.06235     0.01838
  
  S  C  26   0.08112     0.17871    -0.09179     0.01784     0.07242    -0.12970
 PX  C  26   0.00387    -0.11037    -0.00167     0.04968     0.07527     0.05455
 PY  C  26  -0.00013    -0.08876     0.06016     0.00307    -0.01464    -0.01174
 PZ  C  26  -0.00597    -0.00403     0.09420    -0.10339    -0.09952    -0.03010
  
  S  C  27   0.05659    -0.07183    -0.16580     0.18128     0.26821     0.05361
 PX  C  27  -0.02254    -0.09748    -0.00262     0.02005     0.02711     0.07699
 PY  C  27  -0.00875    -0.08410     0.01324     0.01828     0.01457     0.03782
 PZ  C  27   0.00804    -0.02905     0.01768    -0.00845    -0.00294    -0.00266
  
  S  C  28  -0.01435    -0.21516    -0.14633     0.14221     0.19599     0.17225
 PX  C  28  -0.01787     0.03995    -0.03109    -0.02683    -0.02403     0.00149
 PY  C  28  -0.02450     0.00899     0.01481    -0.03519    -0.06265     0.00752
 PZ  C  28  -0.02199    -0.02421     0.02668    -0.03698    -0.06698     0.01149
  
  S  C  29   0.02693     0.21429    -0.13744     0.10374    -0.01926    -0.05630
 PX  C  29   0.02867     0.06781    -0.03414    -0.04288     0.06518    -0.03391
 PY  C  29   0.02940     0.05808    -0.02138    -0.01545     0.03491    -0.06507
 PZ  C  29   0.00215     0.04908     0.00753    -0.07320    -0.01153    -0.01900
  
  S  C  30  -0.05052    -0.05025     0.00667     0.02475    -0.02878     0.04387
 PX  C  30   0.02270     0.12689    -0.03849    -0.09361     0.02194    -0.00726
 PY  C  30   0.02584     0.14253    -0.05782     0.01533    -0.04242    -0.05371
 PZ  C  30  -0.00480    -0.02605     0.04665    -0.15026     0.05763    -0.03236
  
  S  C  31  -0.03283    -0.05495     0.05984    -0.19990     0.06046    -0.00006
 PX  C  31   0.02410     0.14410    -0.05019    -0.06800    -0.03575     0.16091
 PY  C  31   0.00707     0.05201    -0.01040    -0.01199    -0.02399    -0.02368
 PZ  C  31   0.01393    -0.00858    -0.00023     0.03129     0.00203    -0.05617
  
  S  C  32  -0.02813    -0.19900     0.08325     0.02465     0.08772    -0.33809
 PX  C  32   0.00186     0.01310    -0.00141    -0.02903     0.00115     0.02507
 PY  C  32  -0.00016     0.01335     0.00162    -0.01986    -0.00786     0.00746
 PZ  C  32   0.01811     0.02395    -0.02830     0.10153    -0.01567    -0.09628
  
  S  C  33   0.00550    -0.10332     0.00663     0.20626     0.02451    -0.34402
 PX  C  33   0.00974     0.03999    -0.02658     0.03466    -0.02687     0.07182
 PY  C  33  -0.00080    -0.00538     0.00495    -0.00722     0.00310    -0.01686
 PZ  C  33   0.00632     0.04335    -0.02392     0.02806    -0.02702     0.06266
  
  S  C  34   0.02458     0.04197    -0.06194     0.20042    -0.05724     0.01358
 PX  C  34   0.00393     0.05977    -0.01954    -0.04890    -0.02785     0.18527
 PY  C  34   0.00120     0.00333    -0.00086    -0.00055    -0.00205     0.00125
 PZ  C  34  -0.00528    -0.01844     0.00946     0.00686     0.00739    -0.04771
  
  S  C  35   0.02928     0.15418    -0.08091     0.01558    -0.08457     0.35699
 PX  C  35  -0.00435     0.00215     0.00602    -0.03081     0.00192     0.02878
 PY  C  35   0.00112     0.01057     0.00122    -0.01996    -0.00240     0.01080
 PZ  C  35   0.00012    -0.03050    -0.00392     0.09673    -0.00702    -0.07978
  
  S  C  36   0.01569     0.16349    -0.04055    -0.19901    -0.02817     0.33031
 PX  C  36   0.00898     0.03089    -0.02327     0.04427    -0.02688     0.06988
 PY  C  36   0.00265     0.01684     0.00401    -0.02034    -0.00414    -0.03141
 PZ  C  36   0.00921     0.01478    -0.01920     0.05660    -0.03112     0.07221
  
  S  C  37  -0.05404    -0.20843     0.05178     0.16177    -0.04062     0.10926
 PX  C  37  -0.02028    -0.05207     0.02181    -0.05038     0.05664     0.01704
 PY  C  37  -0.01046     0.02222    -0.03120     0.13993    -0.12332    -0.00522
 PZ  C  37  -0.01703    -0.06805     0.03813    -0.07599     0.07024    -0.00984
  
  S  C  38  -0.00365     0.01385    -0.04739     0.31808    -0.26387     0.03822
 PX  C  38  -0.02011    -0.07800     0.02022     0.03086     0.02508     0.04208
 PY  C  38  -0.00981    -0.01815     0.00098     0.02005    -0.00372     0.00366
 PZ  C  38  -0.01324    -0.05829     0.01938     0.01033     0.02155     0.02176
  
  S  C  39   0.03781     0.17600    -0.07623     0.12776    -0.20638    -0.06459
 PX  C  39   0.00129    -0.00508    -0.00361     0.04570    -0.02988     0.01648
 PY  C  39  -0.01267    -0.04215     0.00048     0.11094    -0.07148     0.03274
 PZ  C  39   0.00231     0.00029    -0.00119     0.01430    -0.00954     0.00518
  
  S  C  40   0.04799     0.18662    -0.04597    -0.15044     0.03323    -0.09949
 PX  C  40   0.00497    -0.00359     0.00841    -0.05140     0.05308     0.00610
 PY  C  40   0.00650     0.03320    -0.02082     0.08312    -0.09294    -0.00533
 PZ  C  40   0.00238    -0.00763     0.00897    -0.04641     0.04864     0.00383
  
  S  C  41   0.02890     0.04821     0.02149    -0.29310     0.24202    -0.03311
 PX  C  41  -0.01220    -0.06979     0.02622    -0.00627     0.04306     0.03854
 PY  C  41   0.00452    -0.00213     0.00329    -0.00579     0.00667     0.00705
 PZ  C  41  -0.00927    -0.04945     0.01873    -0.00488     0.02956     0.02250
  
  S  C  42  -0.02019    -0.16435     0.08534    -0.17894     0.23016     0.06950
 PX  C  42  -0.01606    -0.04464     0.01025     0.03766    -0.02147     0.01929
 PY  C  42  -0.02143    -0.07666     0.01569     0.10009    -0.06140     0.03546
 PZ  C  42  -0.01013    -0.03202     0.01157     0.00561    -0.00024    -0.00270
  
  S  C  43  -0.00364    -0.00978    -0.03829    -0.02717    -0.03238    -0.02595
 PX  C  43   0.15324     0.01709     0.06294     0.03571     0.03952     0.02763
 PY  C  43   0.07516     0.02050     0.07718     0.04741     0.05361     0.03874
 PZ  C  43   0.00327     0.00189     0.00709     0.00451     0.00515     0.00372
  
  S  O  44   0.22404     0.01952     0.07044     0.03623     0.03843     0.02432
 PX  O  44  -0.05568    -0.00452    -0.01602    -0.00766    -0.00783    -0.00448
 PY  O  44   0.00879     0.00483     0.01834     0.01190     0.01372     0.01017
 PZ  O  44   0.00256     0.00070     0.00260     0.00162     0.00184     0.00132
  
  S  O  45  -0.08529     0.00474     0.01923     0.01564     0.01906     0.01562
 PX  O  45   0.00662     0.00505     0.01896     0.01198     0.01367     0.00992
 PY  O  45   0.01699     0.00821     0.03151     0.02190     0.02610     0.02094
 PZ  O  45   0.00157     0.00079     0.00303     0.00215     0.00259     0.00209
  
  S  H  46  -0.11700    -0.00907    -0.02880    -0.01085    -0.00953    -0.00054
  
  S  H  47   0.00662     0.01981     0.05801     0.03733     0.04355     0.02129
  
  S  H  48   0.04448     0.01158    -0.01195    -0.01143    -0.01104    -0.02880
  
  S  H  49  -0.02223     0.05756    -0.01898    -0.00178     0.01277    -0.04305
  
  S  H  50  -0.06289     0.10538     0.12054     0.04457     0.03506    -0.00531
  
  S  H  51   0.02801    -0.11279    -0.06079    -0.04401    -0.07257     0.04377
  
  S  H  52   0.01185    -0.06150     0.07525    -0.00365    -0.07244     0.05683
  
  S  H  53  -0.02272     0.01593     0.06292     0.00652    -0.03307     0.02586
  
  S  H  54  -0.03554     0.05281    -0.00534     0.01051     0.03393    -0.01344
  
  S  H  55  -0.03208     0.03082    -0.09934     0.00727     0.07079    -0.01294
  
  S  H  56  -0.02859     0.01119     0.13403    -0.06041    -0.12761    -0.03011
  
  S  H  57   0.01196     0.06256     0.06928    -0.08917    -0.08934    -0.08917
  
  S  H  58   0.02400    -0.00761    -0.09291     0.09074     0.12993     0.02438
  
  S  H  59  -0.01151    -0.07735    -0.09628     0.06386     0.10064     0.08031
  
  S  H  60   0.01020     0.07275    -0.06976     0.10128    -0.01234    -0.01498
  
  S  H  61  -0.01794    -0.10996     0.04616     0.01549     0.04275    -0.16186
  
  S  H  62   0.00138    -0.04894     0.00429     0.09743     0.01202    -0.17065
  
  S  H  63   0.00964     0.01856    -0.02765     0.09423    -0.02755     0.00674
  
  S  H  64   0.01193     0.07104    -0.03663     0.00586    -0.04088     0.17677
  
  S  H  65   0.00984     0.09112    -0.02572    -0.09935    -0.00905     0.15716
  
  S  H  66  -0.00492     0.00750    -0.02692     0.16633    -0.13384     0.01621
  
  S  H  67   0.01453     0.07838    -0.03502     0.06267    -0.10029    -0.03270
  
  S  H  68   0.01883     0.08268    -0.02061    -0.07072     0.01594    -0.04984
  
  S  H  69   0.01060     0.01872     0.01084    -0.13955     0.11736    -0.01709
  
  S  H  70  -0.01516    -0.09208     0.04668    -0.09578     0.11800     0.03408
  
  S  H  71  -0.01550     0.00732     0.02828     0.01990     0.02362     0.01869




    ROOT NO.   19          20          21          22          23          24

           -32.27496   -32.09649   -31.65390   -30.38373   -30.03935   -28.62097
  
  
  S  N   1   0.04284    -0.01261     0.05047    -0.09382     0.06185     0.02905
 PX  N   1   0.00864    -0.00250     0.01009    -0.01477     0.01143     0.00868
 PY  N   1  -0.00772     0.00226    -0.00717     0.01626    -0.00038     0.02815
 PZ  N   1   0.00034    -0.00007    -0.00036     0.00195    -0.00284    -0.00444
  
  S  C   2  -0.03149     0.00931    -0.03325     0.07283    -0.03017     0.01774
 PX  C   2  -0.07064     0.02072    -0.07853     0.14918    -0.08234    -0.01078
 PY  C   2  -0.02310     0.00689    -0.02408     0.05645    -0.01213     0.06416
 PZ  C   2  -0.00003     0.00009    -0.00152     0.00602    -0.00628    -0.00682
  
  S  C   3  -0.12618     0.03652    -0.12805     0.21718    -0.09006     0.04574
 PX  C   3  -0.00266     0.00037     0.00407    -0.03499     0.03107     0.02231
 PY  C   3  -0.04576     0.01434    -0.05944     0.16466    -0.06898     0.10147
 PZ  C   3  -0.00211     0.00078    -0.00482     0.01696    -0.01213    -0.00366
  
  S  C   4   0.02160    -0.00865     0.05647    -0.21064     0.13075    -0.01194
 PX  C   4   0.00095    -0.00034     0.00535    -0.01399     0.03008     0.07228
 PY  C   4  -0.09479     0.02814    -0.10616     0.19416    -0.08975     0.01741
 PZ  C   4  -0.00634     0.00202    -0.01046     0.02309    -0.02167    -0.02956
  
  S  C   5   0.13821    -0.04057     0.14922    -0.22839     0.10504     0.01449
 PX  C   5  -0.00259    -0.00089     0.02882    -0.10188     0.11074     0.12403
 PY  C   5   0.00130    -0.00197     0.01862    -0.13164     0.05294    -0.11498
 PZ  C   5   0.00991    -0.00227    -0.00486     0.01524    -0.05274    -0.12188
  
  S  C   6   0.07634    -0.01830     0.00390     0.09913    -0.19509    -0.28132
 PX  C   6   0.03967    -0.01205     0.05358    -0.06838     0.05997     0.08204
 PY  C   6   0.04267    -0.01399     0.06771    -0.13465     0.06810    -0.04640
 PZ  C   6  -0.01059     0.00287    -0.01081     0.00370    -0.01889    -0.07328
  
  S  C   7  -0.09898     0.03169    -0.16532     0.19634    -0.16202    -0.13185
 PX  C   7  -0.00088    -0.00041     0.01365     0.01245     0.03964     0.11042
 PY  C   7   0.07138    -0.01849     0.04228     0.07203    -0.08841    -0.04803
 PZ  C   7   0.03433    -0.00894     0.01886     0.02863    -0.05912    -0.09332
  
  S  C   8  -0.12600     0.03145    -0.05615     0.01652     0.13411     0.16490
 PX  C   8   0.06302    -0.01993     0.11477    -0.01802     0.07163     0.10406
 PY  C   8   0.04743    -0.00933     0.00539     0.08999    -0.06100     0.11574
 PZ  C   8  -0.00561     0.00397    -0.04000     0.07520    -0.07080    -0.02753
  
  S  S   9   0.04774    -0.01608     0.11714    -0.09142     0.18950     0.34516
 PX  S   9  -0.00294     0.00131    -0.01153    -0.01609    -0.02907    -0.10114
 PY  S   9   0.04567    -0.01241     0.01784    -0.08455    -0.00050    -0.02247
 PZ  S   9   0.02445    -0.00690     0.02695    -0.01497     0.02301     0.06661
  
  S  C  10  -0.03935    -0.00178     0.03805    -0.10905     0.10484    -0.08931
 PX  C  10   0.10699    -0.03597     0.18609     0.11438     0.02432     0.03108
 PY  C  10  -0.09724     0.03033    -0.05160    -0.03038     0.09823     0.08348
 PZ  C  10  -0.02960     0.00852    -0.00467     0.01433     0.03061     0.01602
  
  S  C  11  -0.11355     0.04662    -0.21108    -0.24357    -0.06959    -0.06539
 PX  C  11   0.03547    -0.02123     0.05178     0.02223     0.02857    -0.04723
 PY  C  11  -0.04434     0.00320    -0.00885    -0.03460     0.06298    -0.06495
 PZ  C  11  -0.01513    -0.00175    -0.00002    -0.00616     0.02545    -0.03987
  
  S  C  12  -0.06723     0.06300    -0.10899    -0.04481    -0.06436     0.13446
 PX  C  12   0.03472    -0.01271     0.03846     0.08019     0.03421    -0.00091
 PY  C  12   0.00451    -0.01166    -0.07769    -0.11020    -0.06806    -0.05908
 PZ  C  12   0.00654    -0.00903    -0.02292    -0.02751    -0.02180    -0.02301
  
  S  C  13  -0.02974     0.01119    -0.01100     0.16734     0.15041     0.10113
 PX  C  13   0.04007    -0.07074    -0.03831     0.02361     0.05472    -0.04607
 PY  C  13   0.08670    -0.04334    -0.01733     0.00368    -0.11497     0.02279
 PZ  C  13   0.03838    -0.03324    -0.01048     0.00582    -0.03576     0.00214
  
  S  C  14   0.13194    -0.06837     0.06012     0.14552    -0.06693     0.01814
 PX  C  14  -0.02293     0.03905     0.00004    -0.07643    -0.09711     0.00586
 PY  C  14   0.09995    -0.00371     0.17000     0.05668    -0.09159    -0.07317
 PZ  C  14   0.03422     0.00333     0.06537     0.01069    -0.05082    -0.02870
  
  S  C  15   0.18757    -0.05507     0.29513     0.12255    -0.06045    -0.08369
 PX  C  15  -0.00840     0.02208     0.00120     0.01651    -0.04897     0.03518
 PY  C  15  -0.05764     0.01541     0.00301    -0.06586     0.10140     0.01201
 PZ  C  15  -0.02515     0.00960    -0.00181    -0.02086     0.02758     0.00315
  
  S  C  16  -0.05875     0.04795    -0.12435    -0.15452    -0.15079     0.08183
 PX  C  16  -0.06043     0.13414     0.06929    -0.07342    -0.09944    -0.01620
 PY  C  16   0.02124     0.04225     0.07358     0.07417    -0.03111    -0.01024
 PZ  C  16  -0.00158     0.03529     0.03912     0.01752    -0.02695    -0.00648
  
  S  C  17  -0.18096     0.30151     0.05708    -0.13014    -0.10015    -0.04819
 PX  C  17  -0.02367     0.04534     0.06382     0.07905     0.12284    -0.07553
 PY  C  17   0.02824    -0.01532     0.00149    -0.01737    -0.07634     0.01143
 PZ  C  17   0.00697     0.00091     0.01080     0.00619    -0.00943    -0.00759
  
  S  C  18  -0.12844     0.20173     0.12628     0.13617     0.23288    -0.10920
 PX  C  18   0.00421     0.00558     0.02217     0.04423     0.04851    -0.03688
 PY  C  18  -0.07524     0.11886    -0.00585    -0.12118    -0.09608    -0.02429
 PZ  C  18  -0.02776     0.04542     0.00155    -0.03811    -0.02791    -0.01502
  
  S  C  19   0.09763    -0.13500     0.07873     0.25950     0.20528     0.01970
 PX  C  19  -0.07754     0.11490     0.04593     0.05896     0.12411    -0.06028
 PY  C  19  -0.05356     0.06697     0.00538    -0.02475     0.02581    -0.02001
 PZ  C  19  -0.03235     0.04211     0.00925     0.00029     0.02970    -0.01699
  
  S  C  20   0.21315    -0.27642    -0.01484     0.02006    -0.12677     0.04533
 PX  C  20   0.00237    -0.02616     0.01801     0.12076     0.11365     0.04961
 PY  C  20  -0.01239    -0.00772    -0.04066    -0.08335    -0.04507    -0.00069
 PZ  C  20  -0.00566    -0.01082    -0.01223    -0.01107     0.00413     0.00710
  
  S  C  21   0.06042    -0.15163    -0.13135    -0.17487    -0.10961    -0.01820
 PX  C  21   0.02841    -0.04949    -0.04898    -0.02465    -0.08029     0.10641
 PY  C  21  -0.09443     0.05903    -0.08145    -0.00748     0.10278     0.03626
 PZ  C  21  -0.03308     0.00673    -0.03888    -0.00616     0.02980     0.03099
  
  S  N  22  -0.07187     0.09702     0.12901     0.00823     0.08187    -0.12974
 PX  N  22   0.03225    -0.10738    -0.14501    -0.08227     0.02127    -0.03675
 PY  N  22  -0.06131    -0.02164    -0.09335     0.08745     0.19222     0.09267
 PZ  N  22  -0.02523    -0.04354    -0.05407     0.02455     0.08514     0.03487
  
  S  C  23   0.03075     0.09653     0.12587    -0.00615    -0.13883     0.00283
 PX  C  23   0.00537     0.09388     0.08744    -0.02323    -0.05013    -0.10003
 PY  C  23  -0.04545     0.05715     0.10211     0.02067     0.01483    -0.04554
 PZ  C  23  -0.03273    -0.04551     0.06748     0.00868     0.01374    -0.02642
  
  S  C  24   0.02611    -0.18402    -0.01325    -0.01180    -0.04558     0.07402
 PX  C  24  -0.01043     0.09492     0.06552     0.01943    -0.03381     0.01553
 PY  C  24  -0.02621     0.07199     0.05989     0.01995    -0.01448     0.02223
 PZ  C  24  -0.01013     0.00914     0.02745     0.00083    -0.00376    -0.00524
  
  S  C  25   0.03054    -0.23549    -0.05164    -0.04369     0.01604    -0.07520
 PX  C  25   0.00674    -0.04200    -0.05127     0.00376     0.01666     0.03975
 PY  C  25   0.00444    -0.05648    -0.03543    -0.00050    -0.00463     0.05772
 PZ  C  25   0.03075    -0.03288    -0.01908    -0.00653    -0.02836     0.04556
  
  S  C  26  -0.09239    -0.01005     0.06774     0.00453     0.07695    -0.13816
 PX  C  26   0.00781     0.01860    -0.10253     0.02136     0.08035     0.03626
 PY  C  26   0.01813    -0.06403    -0.08448    -0.00256     0.04385     0.00792
 PZ  C  26   0.06266    -0.09227    -0.04758    -0.02668    -0.02538    -0.00966
  
  S  C  27  -0.06221     0.13762    -0.08391     0.05159     0.14833     0.02906
 PX  C  27   0.05296     0.03753    -0.05508    -0.00024    -0.03441     0.08521
 PY  C  27   0.03152     0.00589    -0.05207    -0.00167    -0.01217     0.05169
 PZ  C  27   0.01337    -0.02620    -0.03412    -0.00537     0.00659    -0.00358
  
  S  C  28   0.06081     0.16754    -0.06808     0.00513    -0.05541     0.09110
 PX  C  28   0.02135     0.00363     0.05843    -0.02061    -0.07035    -0.03479
 PY  C  28   0.01352     0.00450     0.06306    -0.01818    -0.07174    -0.02991
 PZ  C  28   0.02430    -0.01751     0.03951    -0.02172    -0.07019    -0.02753
  
  S  C  29  -0.13076     0.03425     0.23351    -0.00763    -0.12470     0.02218
 PX  C  29  -0.01342     0.03620     0.01324     0.00921     0.05407    -0.08695
 PY  C  29  -0.01853     0.00439     0.01189     0.00388     0.05837    -0.11081
 PZ  C  29   0.03646     0.01595     0.01411    -0.00972    -0.03081     0.00266
  
  S  C  30  -0.00158     0.01789     0.05314    -0.00848    -0.11844     0.18250
 PX  C  30   0.02550     0.06753     0.05331    -0.00182    -0.03487    -0.01849
 PY  C  30  -0.00663     0.03381     0.09536    -0.00932    -0.06444    -0.01303
 PZ  C  30   0.12370     0.08768    -0.07740     0.00612     0.04451    -0.02185
  
  S  C  31   0.22086     0.17790    -0.11809     0.01356     0.03580     0.01334
 PX  C  31  -0.00038    -0.00756    -0.01307     0.00038     0.00049    -0.04048
 PY  C  31   0.00861     0.00552     0.02895    -0.00705    -0.02927     0.00352
 PZ  C  31   0.02475     0.01782    -0.02930     0.00710     0.05835    -0.08827
  
  S  C  32   0.13725     0.14642    -0.02341     0.01047     0.05298    -0.05682
 PX  C  32   0.03268     0.02464    -0.02504     0.00337     0.01301    -0.01098
 PY  C  32   0.02108     0.01049    -0.00912    -0.00073    -0.00191     0.00384
 PZ  C  32  -0.07436    -0.03464     0.08325    -0.00669    -0.02624    -0.03568
  
  S  C  33  -0.08963    -0.01236     0.15188    -0.01172    -0.05451    -0.01193
 PX  C  33  -0.06464    -0.05794     0.02436    -0.00478    -0.02533     0.03683
 PY  C  33   0.01912     0.01540    -0.00850     0.00134     0.00858    -0.01288
 PZ  C  33  -0.07800    -0.06742     0.04635    -0.00917    -0.04855     0.05517
  
  S  C  34  -0.22927    -0.17286     0.14681    -0.01998    -0.09987     0.10829
 PX  C  34  -0.01226    -0.03959    -0.04867     0.00256     0.01267     0.02706
 PY  C  34   0.00346     0.00150    -0.00333     0.00043     0.00394    -0.00754
 PZ  C  34  -0.01047    -0.00257     0.02782    -0.00471    -0.02587     0.02963
  
  S  C  35  -0.12259    -0.14324    -0.03070    -0.00042     0.00139     0.03678
 PX  C  35   0.01525     0.00453    -0.01817     0.00117     0.00634     0.00223
 PY  C  35   0.01870     0.00990    -0.01408     0.00111     0.00937    -0.01624
 PZ  C  35  -0.09230    -0.06214     0.08216    -0.01120    -0.05644     0.07088
  
  S  C  36   0.10788     0.05107    -0.13889     0.01467     0.06339    -0.06274
 PX  C  36  -0.07240    -0.07048     0.01544    -0.00287    -0.00468     0.00535
 PY  C  36   0.01785     0.01071     0.00751    -0.00335    -0.00734    -0.00901
 PZ  C  36  -0.05693    -0.06362    -0.00759     0.00065     0.01505    -0.00683
  
  S  C  37  -0.11255    -0.17088    -0.07030     0.00064     0.05700    -0.01412
 PX  C  37  -0.03401    -0.00181     0.03402    -0.00186    -0.05273     0.10992
 PY  C  37   0.05895     0.03445     0.00058    -0.00310    -0.05617     0.09860
 PZ  C  37   0.00120     0.01226    -0.00487     0.00149    -0.00755     0.05366
  
  S  C  38   0.09924    -0.02675    -0.12603     0.00428     0.08414    -0.11559
 PX  C  38  -0.10045    -0.08814     0.02367    -0.00361    -0.01224     0.02296
 PY  C  38  -0.01645    -0.00704     0.01860    -0.00185    -0.02709     0.04140
 PZ  C  38  -0.05509    -0.05351     0.00369    -0.00151     0.00287     0.00606
  
  S  C  39   0.25308     0.17605    -0.08476     0.00667     0.01100     0.01669
 PX  C  39  -0.01202    -0.03335    -0.02262     0.00061     0.03623    -0.07395
 PY  C  39  -0.00017    -0.04906    -0.05714     0.00256     0.06168    -0.10292
 PZ  C  39  -0.00580    -0.01475    -0.00971     0.00023     0.01788    -0.03693
  
  S  C  40   0.11802     0.18215     0.08553    -0.00344    -0.12830     0.20731
 PX  C  40  -0.05626    -0.03412     0.02620    -0.00183     0.00608    -0.04621
 PY  C  40   0.08516     0.03497    -0.06218     0.00439     0.04272    -0.04868
 PZ  C  40  -0.04809    -0.02685     0.02514    -0.00174    -0.00096    -0.02484
  
  S  C  41  -0.14476    -0.01254     0.15613    -0.00862    -0.08239     0.03660
 PX  C  41  -0.08155    -0.08410    -0.01231     0.00079     0.05321    -0.10473
 PY  C  41  -0.01009    -0.01826    -0.01526     0.00131     0.03156    -0.05383
 PZ  C  41  -0.05099    -0.05239    -0.00822     0.00059     0.03327    -0.06386
  
  S  C  42  -0.22595    -0.17143     0.03094    -0.00041     0.06326    -0.11791
 PX  C  42   0.01443    -0.00439    -0.02927     0.00215     0.00666     0.03078
 PY  C  42   0.02008    -0.03396    -0.07273     0.00397     0.04422    -0.00018
 PZ  C  42   0.01939     0.01039    -0.01883     0.00195     0.00514     0.01964
  
  S  C  43  -0.05547     0.01675    -0.06491     0.14969    -0.06431     0.07113
 PX  C  43   0.05397    -0.01579     0.05643    -0.11198     0.04340    -0.05691
 PY  C  43   0.07659    -0.02246     0.08054    -0.14989     0.05709    -0.06229
 PZ  C  43   0.00736    -0.00215     0.00754    -0.01362     0.00425    -0.00827
  
  S  O  44   0.04348    -0.01226     0.03904    -0.05378     0.01217    -0.03728
 PX  O  44  -0.00722     0.00194    -0.00526     0.00263     0.00103     0.00090
 PY  O  44   0.02047    -0.00603     0.02168    -0.04085     0.01389    -0.02366
 PZ  O  44   0.00260    -0.00076     0.00263    -0.00471     0.00133    -0.00345
  
  S  O  45   0.03363    -0.01018     0.03987    -0.09237     0.04290    -0.03059
 PX  O  45   0.01975    -0.00580     0.02080    -0.03952     0.01483    -0.01720
 PY  O  45   0.04539    -0.01379     0.05440    -0.13730     0.06112    -0.07209
 PZ  O  45   0.00457    -0.00139     0.00549    -0.01415     0.00613    -0.00835
  
  S  H  46   0.00772    -0.00339     0.02661    -0.10210     0.07748     0.03943
  
  S  H  47   0.03286    -0.00798    -0.00024     0.03458    -0.10353    -0.20827
  
  S  H  48  -0.06357     0.01997    -0.09910     0.07343    -0.08549    -0.12199
  
  S  H  49  -0.08799     0.03411    -0.13473    -0.13676    -0.03136    -0.03319
  
  S  H  50  -0.05072     0.03780    -0.04744    -0.03021    -0.03128     0.08685
  
  S  H  51   0.06862    -0.00743     0.14719     0.04751    -0.02619    -0.01544
  
  S  H  52  -0.07723     0.15064     0.05052    -0.04898    -0.05776    -0.03996
  
  S  H  53  -0.06243     0.10456     0.07379     0.08889     0.14036    -0.07648
  
  S  H  54   0.05128    -0.06530     0.04865     0.15687     0.12456     0.00228
  
  S  H  55   0.11233    -0.11748     0.00955     0.01969    -0.07530     0.00981
  
  S  H  56  -0.00035    -0.07374     0.01421    -0.00071    -0.02276     0.04283
  
  S  H  57   0.02689    -0.09352    -0.00512    -0.02501    -0.00925    -0.04633
  
  S  H  58  -0.04164     0.08096    -0.01430     0.02842     0.06873     0.01095
  
  S  H  59   0.03821     0.08289    -0.01307    -0.00408    -0.05004     0.03259
  
  S  H  60  -0.08227     0.00390     0.10282     0.00125    -0.04472     0.01165
  
  S  H  61   0.05889     0.06002    -0.01202     0.00423     0.02403    -0.01681
  
  S  H  62  -0.04889    -0.00978     0.08255    -0.00746    -0.03582     0.00131
  
  S  H  63  -0.11920    -0.09124     0.07999    -0.01204    -0.06169     0.07475
  
  S  H  64  -0.06544    -0.07671    -0.01239    -0.00123    -0.00436     0.03053
  
  S  H  65   0.04305     0.02301    -0.05517     0.00602     0.02380    -0.02838
  
  S  H  66   0.04420    -0.00966    -0.04741     0.00102     0.02289    -0.03324
  
  S  H  67   0.12970     0.09321    -0.04147     0.00352    -0.00154     0.02810
  
  S  H  68   0.06137     0.09614     0.04681    -0.00207    -0.07977     0.14410
  
  S  H  69  -0.07130    -0.00276     0.08336    -0.00487    -0.05360     0.03999
  
  S  H  70  -0.09758    -0.07046     0.00984     0.00095     0.02712    -0.03852
  
  S  H  71   0.03985    -0.01203     0.04670    -0.11127     0.04925    -0.05229




    ROOT NO.   25          26          27          28          29          30

           -28.51808   -27.26556   -26.75669   -26.47289   -25.82009   -25.63297
  
  
  S  N   1  -0.00740    -0.02133     0.03333     0.06973    -0.05133    -0.08230
 PX  N   1   0.00278     0.00159     0.00229     0.00045     0.00107     0.00600
 PY  N   1   0.02062     0.01794     0.01395     0.00730    -0.01652     0.00191
 PZ  N   1  -0.00156    -0.00014    -0.00272    -0.00394     0.00273     0.00277
  
  S  C   2   0.03038     0.03221    -0.01928    -0.05923     0.04559     0.08727
 PX  C   2   0.03060     0.04153    -0.04039    -0.09705     0.07094     0.12198
[...]




   ATOM   CHEMICAL          X               Y               Z
  NUMBER   SYMBOL      (ANGSTROMS)     (ANGSTROMS)     (ANGSTROMS)
 
     1       N          0.00000000  *   0.00000000  *   0.00000000  *
     2       C          1.15654163  *   0.00000000  *   0.00000000  *
     3       C          2.57316404  *   0.02220119  *   0.00000000  *
     4       C          3.32655126  *  -1.08759420  *  -0.13491740  *
     5       C          2.77972491  *  -2.40771165  *  -0.23233417  *
     6       C          1.66926410  *  -2.89667734  *   0.40295218  *
     7       C          1.43702118  *  -4.27174157  *   0.08794360  *
     8       C          2.37881385  *  -4.76862853  *  -0.76996538  *
     9       S          3.54646588  *  -3.59754625  *  -1.19737823  *
    10       C          2.41220585  *  -6.11133008  *  -1.29902861  *
    11       C          1.20806341  *  -6.69395000  *  -1.72654895  *
    12       C          1.16694565  *  -7.98246537  *  -2.23101980  *
    13       C          2.36847398  *  -8.68497911  *  -2.28851617  *
    14       C          3.59552154  *  -8.09685986  *  -1.87237860  *
    15       C          3.61622976  *  -6.80703944  *  -1.37351130  *
    16       C          4.63188856  *  -9.07372192  *  -2.09302386  *
    17       C          5.99987564  *  -9.05999966  *  -1.87305287  *
    18       C          6.72893758  * -10.19661901  *  -2.18886510  *
    19       C          6.10451718  * -11.33581922  *  -2.70794466  *
    20       C          4.73806971  * -11.37783378  *  -2.93742117  *
    21       C          4.01019818  * -10.23051385  *  -2.63553851  *
    22       N          2.62624680  *  -9.98637922  *  -2.75356443  *
    23       C          1.66238446  * -10.89738137  *  -3.24996492  *
    24       C          0.50516579  * -11.14866786  *  -2.50822663  *
    25       C         -0.43561873  * -12.04118018  *  -3.00274890  *
    26       C         -0.22118336  * -12.68581016  *  -4.21944411  *
    27       C          0.93496907  * -12.42427133  *  -4.95362454  *
    28       C          1.88178509  * -11.52971594  *  -4.47681825  *
    29       C         -1.21466094  * -13.60860072  *  -4.75123008  *
    30       C         -1.78433044  * -14.57350615  *  -4.01868277  *
    31       C         -1.41496409  * -14.84566655  *  -2.63144052  *
    32       C         -2.41246588  * -15.00408623  *  -1.67170141  *
    33       C         -2.06518545  * -15.26654070  *  -0.35281156  *
    34       C         -0.72749780  * -15.38057929  *   0.00721558  *
    35       C          0.26565441  * -15.23310378  *  -0.95368727  *
    36       C         -0.07413113  * -14.96434004  *  -2.27379400  *
    37       C         -2.81527043  * -15.44317658  *  -4.58398506  *
    38       C         -3.84730043  * -14.90254449  *  -5.34726564  *
    39       C         -4.81781600  * -15.73765945  *  -5.88698431  *
    40       C         -4.75989816  * -17.10834733  *  -5.66763826  *
    41       C         -3.73167149  * -17.64626886  *  -4.90202939  *
    42       C         -2.76082645  * -16.81700953  *  -4.35633470  *
    43       C          3.22918950  *   1.33054247  *   0.12356741  *
    44       O          4.43317654  *   1.54523631  *   0.11123227  *
    45       O          2.37251253  *   2.36183797  *   0.26479558  *
    46       H          4.42430755  *  -1.00902931  *  -0.18157883  *
    47       H          1.03672014  *  -2.34275050  *   1.09433565  *
    48       H          0.60680940  *  -4.83908282  *   0.50223220  *
    49       H          0.28096859  *  -6.11338906  *  -1.67117498  *
    50       H          0.23050308  *  -8.42177340  *  -2.58187972  *
    51       H          4.55856584  *  -6.36179581  *  -1.04349340  *
    52       H          6.48270188  *  -8.17145238  *  -1.45885153  *
    53       H          7.81037072  * -10.20782433  *  -2.02668542  *
    54       H          6.71146910  * -12.21777362  *  -2.93639069  *
    55       H          4.25576398  * -12.27708080  *  -3.32577924  *
    56       H          0.34170757  * -10.66295108  *  -1.54076229  *
    57       H         -1.34950498  * -12.23500587  *  -2.43107003  *
    58       H          1.09776346  * -12.92449341  *  -5.91358846  *
    59       H          2.77937917  * -11.31584587  *  -5.06600791  *
    60       H         -1.47477940  * -13.46509366  *  -5.80640835  *
    61       H         -3.46587648  * -14.92074651  *  -1.95620848  *
    62       H         -2.84677850  * -15.38597127  *   0.40311909  *
    63       H         -0.45659938  * -15.58868905  *   1.04632291  *
    64       H          1.31808915  * -15.32768992  *  -0.67069259  *
    65       H          0.71004563  * -14.85612236  *  -3.02937766  *
    66       H         -3.90476761  * -13.82291023  *  -5.51502835  *
    67       H         -5.62941035  * -15.31378276  *  -6.48556556  *
    68       H         -5.52372624  * -17.76393724  *  -6.09562036  *
    69       H         -3.68710132  * -18.72538547  *  -4.72824668  *
    70       H         -1.95305567  * -17.24199008  *  -3.75235658  *
    71       H          2.84850085  *   3.20161482  *   0.34047010  *

                             CARTESIAN COORDINATES

   1    N        0.000000000     0.000000000     0.000000000
   2    C        1.156541625     0.000000000     0.000000000
   3    C        2.573164045     0.022201193     0.000000000
   4    C        3.326551261    -1.087594198    -0.134917395
   5    C        2.779724912    -2.407711650    -0.232334174
   6    C        1.669264096    -2.896677341     0.402952178
   7    C        1.437021178    -4.271741571     0.087943601
   8    C        2.378813848    -4.768628529    -0.769965376
   9    S        3.546465880    -3.597546251    -1.197378229
  10    C        2.412205852    -6.111330084    -1.299028614
  11    C        1.208063412    -6.693949999    -1.726548945
  12    C        1.166945646    -7.982465371    -2.231019802
  13    C        2.368473978    -8.684979113    -2.288516167
  14    C        3.595521535    -8.096859856    -1.872378600
  15    C        3.616229756    -6.807039442    -1.373511300
  16    C        4.631888565    -9.073721919    -2.093023857
  17    C        5.999875635    -9.059999655    -1.873052865
  18    C        6.728937583   -10.196619010    -2.188865101
  19    C        6.104517179   -11.335819220    -2.707944663
  20    C        4.738069706   -11.377833780    -2.937421172
  21    C        4.010198181   -10.230513850    -2.635538508
  22    N        2.626246800    -9.986379224    -2.753564430
  23    C        1.662384460   -10.897381370    -3.249964923
  24    C        0.505165788   -11.148667860    -2.508226631
  25    C       -0.435618729   -12.041180180    -3.002748900
  26    C       -0.221183360   -12.685810160    -4.219444105
  27    C        0.934969073   -12.424271330    -4.953624542
  28    C        1.881785089   -11.529715940    -4.476818246
  29    C       -1.214660938   -13.608600720    -4.751230082
  30    C       -1.784330441   -14.573506150    -4.018682774
  31    C       -1.414964087   -14.845666550    -2.631440516
  32    C       -2.412465875   -15.004086230    -1.671701410
  33    C       -2.065185452   -15.266540700    -0.352811562
  34    C       -0.727497799   -15.380579290     0.007215582
  35    C        0.265654409   -15.233103780    -0.953687265
  36    C       -0.074131130   -14.964340040    -2.273793998
  37    C       -2.815270431   -15.443176580    -4.583985064
  38    C       -3.847300434   -14.902544490    -5.347265640
  39    C       -4.817816002   -15.737659450    -5.886984309
  40    C       -4.759898160   -17.108347330    -5.667638257
  41    C       -3.731671486   -17.646268860    -4.902029392
  42    C       -2.760826446   -16.817009530    -4.356334699
  43    C        3.229189499     1.330542465     0.123567415
  44    O        4.433176538     1.545236310     0.111232265
  45    O        2.372512529     2.361837969     0.264795578
  46    H        4.424307547    -1.009029313    -0.181578834
  47    H        1.036720142    -2.342750502     1.094335647
  48    H        0.606809398    -4.839082820     0.502232204
  49    H        0.280968590    -6.113389064    -1.671174984
  50    H        0.230503076    -8.421773400    -2.581879723
  51    H        4.558565844    -6.361795808    -1.043493399
  52    H        6.482701884    -8.171452378    -1.458851529
  53    H        7.810370716   -10.207824330    -2.026685419
  54    H        6.711469100   -12.217773620    -2.936390691
  55    H        4.255763978   -12.277080800    -3.325779240
  56    H        0.341707571   -10.662951080    -1.540762291
  57    H       -1.349504982   -12.235005870    -2.431070026
  58    H        1.097763459   -12.924493410    -5.913588456
  59    H        2.779379166   -11.315845870    -5.066007913
  60    H       -1.474779395   -13.465093660    -5.806408351
  61    H       -3.465876479   -14.920746510    -1.956208476
  62    H       -2.846778500   -15.385971270     0.403119094
  63    H       -0.456599382   -15.588689050     1.046322910
  64    H        1.318089152   -15.327689920    -0.670692590
  65    H        0.710045633   -14.856122360    -3.029377663
  66    H       -3.904767609   -13.822910230    -5.515028350
  67    H       -5.629410352   -15.313782760    -6.485565558
  68    H       -5.523726245   -17.763937240    -6.095620357
  69    H       -3.687101322   -18.725385470    -4.728246675
  70    H       -1.953055671   -17.241990080    -3.752356581
  71    H        2.848500848     3.201614816     0.340470098


           Empirical Formula: C40 H26 N2 O2 S  =    71 atoms



      MOLECULAR POINT GROUP   :   C1  


                  EIGENVALUES  
 -48.64815 -46.82046 -45.82449 -44.13609 -43.77070 -43.40342 -42.57246 -41.49489
 -39.71875 -39.42325 -39.10351 -36.73587 -36.27961 -34.47987 -34.33201 -33.63331
 -33.33974 -32.75389 -32.27496 -32.09649 -31.65390 -30.38373 -30.03935 -28.62097
 -28.51808 -27.26556 -26.75669 -26.47289 -25.82009 -25.63297 -25.13394 -24.81513
 -24.66812 -24.43540 -24.03224 -23.83052 -23.68871 -23.33160 -22.64958 -22.45941
 -20.99579 -20.61914 -20.10856 -19.58304 -19.08377 -18.82891 -18.35779 -18.08688
 -17.95517 -17.65226 -17.44114 -17.09975 -17.05383 -16.70356 -16.50968 -16.47251
 -16.35972 -15.97189 -15.79497 -15.60996 -15.53827 -15.41346 -15.32274 -15.19635
 -15.02452 -14.99674 -14.76552 -14.56983 -14.40094 -14.24445 -14.03927 -13.73558
 -13.67131 -13.34958 -13.31498 -13.10389 -13.05953 -12.89590 -12.84434 -12.79364
 -12.73759 -12.66683 -12.53712 -12.47662 -12.30886 -12.17774 -12.02917 -11.93435
 -11.82392 -11.59521 -11.46002 -11.22244 -10.86673 -10.31123 -10.02710  -9.87445
  -9.79369  -9.49411  -9.22069  -9.11638  -8.97602  -8.81463  -8.53888  -8.11289
  -7.79262  -7.41739  -7.05933  -1.10013   0.08891   0.19912   0.28978   0.64546
   0.72833   0.74866   0.82653   0.88693   1.00900   1.04637   1.31648   1.51616
   1.60894   2.00174   2.05434   2.14670   2.46112   2.65654   2.68438   2.78891
   2.82382   2.99947   3.06635   3.11124   3.18428   3.22086   3.24063   3.35230
   3.45012   3.54785   3.77545   3.83551   3.88089   4.03162   4.04188   4.10101
   4.15046   4.22666   4.23704   4.29928   4.42451   4.52828   4.97182   5.06233
   5.21958   5.40076   5.44004   5.55207   5.63625   5.76614   5.82132   5.82350
   5.87842   6.17293   6.34843   6.38981   6.40199   6.62964   6.72704   7.33687
   7.72752   7.79347   8.56348   8.57578   8.58943   8.67933   8.69960   9.00235
   9.04952   9.09531   9.13922   9.20875   9.31730   9.73841  10.12847  10.27074
  10.59645  10.85860  10.91653  11.19372  11.55183  11.61588  11.65030  11.76491
  11.80690  11.98113  12.41389  12.49894  12.57351  12.60243  12.75437  12.99641
  13.20508  13.39624  13.75668  14.16600  14.80583  15.10649


              NET ATOMIC CHARGES AND DIPOLE CONTRIBUTIONS

  ATOM NO.   TYPE          CHARGE      No. of ELECS.   s-Pop       p-Pop       
    1          N          -0.407662        5.4077     1.75361     3.65405
    2          C           0.222865        3.7771     1.14904     2.62810
    3          C           0.013239        3.9868     0.99961     2.98715
    4          C           0.137299        3.8627     1.09475     2.76795
    5          C           0.007682        3.9923     1.06206     2.93025
    6          C           0.018653        3.9813     1.09647     2.88488
    7          C          -0.059611        4.0596     1.08209     2.97752
    8          C           0.072869        3.9271     1.08801     2.83912
    9          S          -0.040395        6.0404     1.77182     4.26857
   10          C           0.008353        3.9916     1.03729     2.95436
   11          C          -0.023060        4.0231     1.08327     2.93979
   12          C          -0.039312        4.0393     1.07893     2.96039
   13          C           0.077371        3.9226     1.05028     2.87235
   14          C          -0.015527        4.0155     1.05006     2.96546
   15          C          -0.019792        4.0198     1.08059     2.93920
   16          C          -0.017331        4.0173     1.04763     2.96970
   17          C          -0.019448        4.0194     1.07941     2.94003
   18          C          -0.044608        4.0446     1.07774     2.96686
   19          C          -0.024087        4.0241     1.08085     2.94324
   20          C          -0.042192        4.0422     1.07673     2.96546
   21          C           0.076361        3.9236     1.05108     2.87256
   22          N          -0.131238        5.1312     1.22815     3.90309
   23          C           0.086248        3.9138     1.03735     2.87640
   24          C          -0.034814        4.0348     1.08167     2.95314
   25          C          -0.020472        4.0205     1.08434     2.93613
   26          C           0.023117        3.9769     1.04465     2.93223
   27          C          -0.032806        4.0328     1.08083     2.95198
   28          C          -0.033090        4.0331     1.08161     2.95148
   29          C          -0.047613        4.0476     1.08370     2.96391
   30          C           0.016236        3.9838     1.05469     2.92907
   31          C           0.041358        3.9586     1.04591     2.91273
   32          C          -0.034595        4.0346     1.07941     2.95518
   33          C          -0.023310        4.0233     1.08144     2.94187
   34          C          -0.032721        4.0327     1.07760     2.95512
   35          C          -0.025548        4.0255     1.08149     2.94406
   36          C          -0.026427        4.0264     1.08260     2.94382
   37          C           0.030204        3.9698     1.04725     2.92255
   38          C          -0.032221        4.0322     1.08104     2.95118
   39          C          -0.021066        4.0211     1.08198     2.93908
   40          C          -0.030624        4.0306     1.07765     2.95297
   41          C          -0.021892        4.0219     1.08176     2.94013
   42          C          -0.030765        4.0308     1.08091     2.94985
   43          C           0.501921        3.4981     1.04542     2.45266
   44          O          -0.617606        6.6176     1.81678     4.80082
   45          O          -0.310194        6.3102     1.68699     4.62320
   46          H           0.065127        0.9349     0.93487
   47          H           0.046260        0.9537     0.95374
   48          H           0.035116        0.9649     0.96488
   49          H           0.025987        0.9740     0.97401
   50          H           0.030458        0.9695     0.96954
   51          H           0.030187        0.9698     0.96981
   52          H           0.025373        0.9746     0.97463
   53          H           0.017120        0.9829     0.98288
   54          H           0.019639        0.9804     0.98036
   55          H           0.028959        0.9710     0.97104
   56          H           0.028053        0.9719     0.97195
   57          H           0.027149        0.9729     0.97285
   58          H           0.022609        0.9774     0.97739
   59          H           0.026470        0.9735     0.97353
   60          H           0.026603        0.9734     0.97340
   61          H           0.023900        0.9761     0.97610
   62          H           0.020588        0.9794     0.97941
   63          H           0.019885        0.9801     0.98012
   64          H           0.020687        0.9793     0.97931
   65          H           0.026857        0.9731     0.97314
   66          H           0.024269        0.9757     0.97573
   67          H           0.021038        0.9790     0.97896
   68          H           0.020469        0.9795     0.97953
   69          H           0.021054        0.9789     0.97895
   70          H           0.023978        0.9760     0.97602
   71          H           0.248413        0.7516     0.75159
 DIPOLE           X         Y         Z       TOTAL
 POINT-CHG.    -0.625    -6.876    -1.007     6.977
 HYBRID        -0.023     0.518     1.028     1.151
 SUM           -0.647    -6.357     0.021     6.390


          ATOMIC ORBITAL ELECTRON POPULATIONS

     Atom    s        px        py        pz   
    1  N   1.75361   1.23152   1.23591   1.18661
    2  C   1.14904   0.95138   0.80301   0.87371
    3  C   0.99961   0.90388   0.92369   1.15958
    4  C   1.09475   0.98657   0.99528   0.78610
    5  C   1.06206   0.99708   0.91654   1.01663
    6  C   1.09647   0.94414   0.99221   0.94852
    7  C   1.08209   0.96880   0.97289   1.03583
    8  C   1.08801   0.94462   0.93100   0.96350
    9  S   1.77182   1.43890   1.18936   1.64031
   10  C   1.03729   0.98715   0.95770   1.00951
   11  C   1.08327   0.95185   0.97689   1.01106
   12  C   1.07893   0.94675   0.98535   1.02829
   13  C   1.05028   0.99230   0.89662   0.98343
   14  C   1.05006   0.98182   0.96587   1.01777
   15  C   1.08059   0.95255   0.98405   1.00261
   16  C   1.04763   0.95517   0.98778   1.02675
   17  C   1.07941   0.98338   0.96393   0.99273
   18  C   1.07774   0.94330   0.99604   1.02753
   19  C   1.08085   0.98253   0.96411   0.99660
   20  C   1.07673   0.97848   0.95246   1.03452
   21  C   1.05108   0.88261   0.99354   0.99641
   22  N   1.22815   1.09853   1.16526   1.63930
   23  C   1.03735   0.94294   0.94912   0.98435
   24  C   1.08167   0.99171   1.00017   0.96126
   25  C   1.08434   0.96822   0.99126   0.97665
   26  C   1.04465   0.97891   0.96811   0.98521
   27  C   1.08083   0.99808   0.99501   0.95890
   28  C   1.08161   0.97035   1.00849   0.97265
   29  C   1.08370   1.00826   1.00309   0.95256
   30  C   1.05469   0.97003   0.98747   0.97157
   31  C   1.04591   0.99323   0.95254   0.96696
   32  C   1.07941   0.94304   1.02638   0.98576
   33  C   1.08144   0.97177   0.99565   0.97446
   34  C   1.07760   0.99336   1.01401   0.94775
   35  C   1.08149   0.94860   0.99768   0.99778
   36  C   1.08260   0.95931   1.01389   0.97062
   37  C   1.04725   0.97045   0.98500   0.96710
   38  C   1.08104   1.00277   0.94561   1.00281
   39  C   1.08198   0.96811   0.99258   0.97840
   40  C   1.07765   0.97573   0.97735   0.99990
   41  C   1.08176   0.99858   0.94701   0.99455
   42  C   1.08091   0.97457   0.97976   0.99551
   43  C   1.04542   0.87874   0.90560   0.66832
   44  O   1.81678   1.28131   1.95043   1.56909
   45  O   1.68699   1.52780   1.21643   1.87897
   46  H   0.93487
   47  H   0.95374
   48  H   0.96488
   49  H   0.97401
   50  H   0.96954
   51  H   0.96981
   52  H   0.97463
   53  H   0.98288
   54  H   0.98036
   55  H   0.97104
   56  H   0.97195
   57  H   0.97285
   58  H   0.97739
   59  H   0.97353
   60  H   0.97340
   61  H   0.97610
   62  H   0.97941
   63  H   0.98012
   64  H   0.97931
   65  H   0.97314
   66  H   0.97573
   67  H   0.97896
   68  H   0.97953
   69  H   0.97895
   70  H   0.97602
   71  H   0.75159

 **********************
 *                    *
 * JOB ENDED NORMALLY *
 *                    *
 **********************



 TOTAL JOB TIME:           399.42 SECONDS

 == MOPAC DONE ==
