 *******************************************************************************
 ** Site#: 4824         For non-commercial use only    Version 21.013L 64BITS **
 *******************************************************************************
 ** Cite this program as: MOPAC2016, Version: 21.013L, James J. P. Stewart,   **
 ** Stewart Computational Chemistry, web: HTTP://OpenMOPAC.net. Days left:  84**
 *******************************************************************************
 **                                                                           **
 **                                MOPAC2016                                  **
 **                                                                           **
 *******************************************************************************

                              INDO CALCULATION RESULTS

 *******************************************************************************
 *  CALCULATION DONE:                                Thu Oct 21 09:30:28 2021  *
 *  INDO       - The INDO Hamiltonian to be used
 *  CIS        - C.I. USES 1 ELECTRON EXCITATIONS ONLY
 *  EPS= 37.50 - USE ANDREAS KLAMT'S COSMO IMPLICIT SOLVATION MODEL
 *  n**2 =  1.340 for COSMO-CI
 *  T=         - A TIME OF 172800.0 SECONDS REQUESTED
 *  DUMP=N     - RESTART FILE WRITTEN EVERY 7200.0 SECONDS REQUESTED
 *******************************************************************************
INDO CIS EPS=37.5 N**2=1.34
 Dye6
 Calculo de Estados Excitados
   ATOM   CHEMICAL          X               Y               Z
  NUMBER   SYMBOL      (ANGSTROMS)     (ANGSTROMS)     (ANGSTROMS)
 
     1       N          0.00000000  *   0.00000000  *   0.00000000  *
     2       C          1.15637783  *   0.00000000  *   0.00000000  *
     3       C          2.57419701  *   0.01603884  *   0.00000000  *
     4       C          3.31536449  *  -1.10492276  *  -0.07666719  *
     5       C          2.73899618  *  -2.43675051  *  -0.10933814  *
     6       C          1.72043324  *  -2.78809864  *   0.78938257  *
     7       C          1.14852322  *  -4.04846187  *   0.77458313  *
     8       C          1.61687952  *  -4.95300600  *  -0.17653611  *
     9       C          2.67308891  *  -4.61466749  *  -1.07078053  *
    10       C          3.23931914  *  -3.35544989  *  -1.03111784  *
    11       C          2.93234648  *  -5.77796390  *  -1.88136846  *
    12       C          3.83123964  *  -6.02980274  *  -2.90528521  *
    13       C          3.81315554  *  -7.28099706  *  -3.50345669  *
    14       C          2.90683113  *  -8.26539612  *  -3.09567755  *
    15       C          1.99627474  *  -8.04038028  *  -2.07453132  *
    16       C          2.02744117  *  -6.79042834  *  -1.46420014  *
    17       N          1.22975027  *  -6.27985012  *  -0.41711526  *
    18       C          0.19081924  *  -6.97511851  *   0.25042481  *
    19       C          0.44257866  *  -8.24467686  *   0.77636686  *
    20       C         -0.58365183  *  -8.91897326  *   1.42468872  *
    21       C         -1.83717309  *  -8.33379648  *   1.55896193  *
    22       C         -2.07424430  *  -7.06748502  *   1.03712797  *
    23       C         -1.06708296  *  -6.37946393  *   0.37355163  *
    24       C          3.23822434  *   1.32521553  *   0.05312240  *
    25       O          4.44295032  *   1.53205818  *   0.01506541  *
    26       O          2.38891467  *   2.36707603  *   0.15652008  *
    27       H          4.41329404  *  -1.04593834  *  -0.12880050  *
    28       H          1.38253450  *  -2.06359797  *   1.53853679  *
    29       H          0.36735879  *  -4.32196698  *   1.48775395  *
    30       H          4.05010522  *  -3.09287229  *  -1.71668133  *
    31       H          4.53127099  *  -5.25519763  *  -3.22800988  *
    32       H          4.51518575  *  -7.50383150  *  -4.31198925  *
    33       H          2.91528173  *  -9.23787569  *  -3.59845687  *
    34       H          1.27946310  *  -8.80766374  *  -1.77482847  *
    35       H          1.43405071  *  -8.70125544  *   0.69370727  *
    36       H         -0.39928816  *  -9.91565975  *   1.83763302  *
    37       H         -2.63812986  *  -8.87041234  *   2.07589276  *
    38       H         -3.06260161  *  -6.60910223  *   1.14292623  *
    39       H         -1.26697973  *  -5.39172895  *  -0.05473419  *
    40       H          2.86998676  *   3.20683968  *   0.18508399  *
 


          CARTESIAN COORDINATES 

    NO.       ATOM           X           Y           Z

     1         N          0.0000      0.0000      0.0000
     2         C          1.1564      0.0000      0.0000
     3         C          2.5742      0.0160      0.0000
     4         C          3.3154     -1.1049     -0.0767
     5         C          2.7390     -2.4368     -0.1093
     6         C          1.7204     -2.7881      0.7894
     7         C          1.1485     -4.0485      0.7746
     8         C          1.6169     -4.9530     -0.1765
     9         C          2.6731     -4.6147     -1.0708
    10         C          3.2393     -3.3554     -1.0311
    11         C          2.9323     -5.7780     -1.8814
    12         C          3.8312     -6.0298     -2.9053
    13         C          3.8132     -7.2810     -3.5035
    14         C          2.9068     -8.2654     -3.0957
    15         C          1.9963     -8.0404     -2.0745
    16         C          2.0274     -6.7904     -1.4642
    17         N          1.2298     -6.2799     -0.4171
    18         C          0.1908     -6.9751      0.2504
    19         C          0.4426     -8.2447      0.7764
    20         C         -0.5837     -8.9190      1.4247
    21         C         -1.8372     -8.3338      1.5590
    22         C         -2.0742     -7.0675      1.0371
    23         C         -1.0671     -6.3795      0.3736
    24         C          3.2382      1.3252      0.0531
    25         O          4.4430      1.5321      0.0151
    26         O          2.3889      2.3671      0.1565
    27         H          4.4133     -1.0459     -0.1288
    28         H          1.3825     -2.0636      1.5385
    29         H          0.3674     -4.3220      1.4878
    30         H          4.0501     -3.0929     -1.7167
    31         H          4.5313     -5.2552     -3.2280
    32         H          4.5152     -7.5038     -4.3120
    33         H          2.9153     -9.2379     -3.5985
    34         H          1.2795     -8.8077     -1.7748
    35         H          1.4341     -8.7013      0.6937
    36         H         -0.3993     -9.9157      1.8376
    37         H         -2.6381     -8.8704      2.0759
    38         H         -3.0626     -6.6091      1.1429
    39         H         -1.2670     -5.3917     -0.0547
    40         H          2.8700      3.2068      0.1851

           Empirical Formula: C22 H14 N2 O2  =    40 atoms



      MOLECULAR POINT GROUP   :   C1  


      RHF CALCULATION, NO. OF DOUBLY OCCUPIED LEVELS = 62

 WARNING: INDO only performs single-point calculations

 Summary of symmetry occupancy in each shell:

 SHELL     
    1   62
    v   56
 TOTAL 118




    ROOT NO.    1           2           3           4           5           6

           -48.66098   -46.83836   -43.97730   -43.40699   -41.68462   -39.67030
  
  
  S  N   1   0.00675     0.04032    -0.03102     0.05337    -0.06583    -0.01244
 PX  N   1   0.00394     0.02487    -0.01680     0.02853    -0.03395    -0.00642
 PY  N   1  -0.00118     0.00365     0.00503    -0.00755     0.00585    -0.00811
 PZ  N   1   0.00024     0.00044    -0.00068     0.00110    -0.00069    -0.00060
  
  S  C   2   0.01585     0.11494    -0.05731     0.09562    -0.10848     0.00820
 PX  C   2   0.00505     0.04995    -0.01135     0.01739    -0.01490     0.02366
 PY  C   2  -0.00388     0.02097     0.01849    -0.02724     0.02155    -0.03404
 PZ  C   2   0.00046     0.00162    -0.00114     0.00187    -0.00103    -0.00252
  
  S  C   3   0.02387     0.23008    -0.07062     0.11698    -0.13353     0.16916
 PX  C   3   0.00052     0.03216     0.00338    -0.00485     0.00066     0.10966
 PY  C   3  -0.00652     0.07541     0.04431    -0.06490     0.05500    -0.05745
 PZ  C   3  -0.00005     0.00307     0.00121    -0.00157     0.00204    -0.00697
  
  S  C   4   0.03792     0.12010    -0.12918     0.19349    -0.17773     0.19951
 PX  C   4  -0.00954    -0.01877     0.03379    -0.05162     0.04417    -0.00987
 PY  C   4  -0.01202     0.04534     0.03564    -0.04472     0.01616     0.08593
 PZ  C   4  -0.00029     0.00317     0.00030     0.00110    -0.00135     0.00476
  
  S  C   5   0.10294     0.05803    -0.23904     0.32235    -0.19260    -0.00854
 PX  C   5  -0.01446    -0.00097     0.02150    -0.03148     0.00386     0.02576
 PY  C   5  -0.03705     0.01573     0.04172    -0.03968    -0.01947     0.08859
 PZ  C   5  -0.00329     0.00252     0.00185     0.00598    -0.00351     0.00575
  
  S  C   6   0.09973     0.03646    -0.19563     0.27904    -0.12614    -0.06501
 PX  C   6   0.01334     0.00886    -0.03919     0.04702    -0.03353     0.00346
 PY  C   6  -0.03283     0.00777     0.02787    -0.03697    -0.02017     0.05335
 PZ  C   6  -0.03057    -0.00854     0.05713    -0.07250     0.03141     0.01828
  
  S  C   7   0.15264     0.01144    -0.12936     0.21937    -0.00516    -0.08827
 PX  C   7   0.03436     0.00526    -0.06192     0.06384    -0.01816    -0.03105
 PY  C   7  -0.03381     0.00866    -0.04479     0.04010    -0.06313    -0.02010
 PZ  C   7  -0.05398    -0.00160     0.04077    -0.04956    -0.01117     0.02184
  
  S  C   8   0.36871    -0.00763    -0.11575     0.12986     0.16435    -0.04540
 PX  C   8   0.02473     0.00229    -0.06361     0.00816    -0.02397    -0.02634
 PY  C   8  -0.10196     0.01590    -0.08987     0.11397    -0.12994    -0.07623
 PZ  C   8  -0.07290     0.00535     0.01721     0.04695    -0.03782    -0.01137
  
  S  C   9   0.29755    -0.00010    -0.19656     0.09238     0.01773    -0.08601
 PX  C   9  -0.06944     0.00285     0.01265    -0.01622    -0.05772    -0.00087
 PY  C   9  -0.08585     0.01382    -0.04123     0.12408    -0.07384    -0.04125
 PZ  C   9   0.02877     0.00362    -0.03298     0.07580     0.02295    -0.01951
  
  S  C  10   0.12789     0.02492    -0.20682     0.22085    -0.11463    -0.07698
 PX  C  10  -0.04124    -0.00458     0.05640    -0.06663     0.01391     0.03173
 PY  C  10  -0.03824     0.00937     0.00936     0.02477    -0.03161     0.03476
 PZ  C  10   0.02260     0.00815    -0.05066     0.07651    -0.02684    -0.01645
  
  S  C  11   0.29293    -0.01653    -0.10584    -0.21303    -0.12913    -0.02648
 PX  C  11  -0.08497     0.00511     0.00346     0.00775    -0.07838    -0.01648
 PY  C  11  -0.01718     0.00442    -0.01679     0.10174     0.08892    -0.01413
 PZ  C  11   0.07587    -0.00294    -0.01106     0.04233     0.12227     0.00978
  
  S  C  12   0.11851    -0.00829    -0.06618    -0.21789    -0.27731    -0.03759
 PX  C  12  -0.04449     0.00320     0.01767     0.06285     0.05969     0.00548
 PY  C  12  -0.01695     0.00239     0.00376     0.07271     0.09273     0.00277
 PZ  C  12   0.03598    -0.00202    -0.01567    -0.02688    -0.01378    -0.00405
  
  S  C  13   0.08527    -0.00747    -0.04468    -0.22822    -0.31117    -0.02985
 PX  C  13  -0.02692     0.00238     0.01032     0.06277     0.07601     0.00439
 PY  C  13   0.01161    -0.00074    -0.00817    -0.01824    -0.02055    -0.00477
 PZ  C  13   0.03243    -0.00273    -0.01418    -0.07114    -0.08532    -0.00666
  
  S  C  14   0.08888    -0.00812    -0.03205    -0.22966    -0.30307    -0.01890
 PX  C  14  -0.00482     0.00044    -0.00478     0.00025    -0.00726    -0.00469
 PY  C  14   0.03799    -0.00327    -0.01637    -0.08637    -0.10437    -0.00787
 PZ  C  14   0.02395    -0.00209    -0.00309    -0.04346    -0.04516     0.00080
  
  S  C  15   0.14613    -0.01242    -0.00055    -0.22233    -0.22422     0.00963
 PX  C  15   0.01262    -0.00120    -0.02263    -0.06466    -0.09181    -0.01193
 PY  C  15   0.06621    -0.00507    -0.00701    -0.07112    -0.04011     0.00627
 PZ  C  15   0.02160    -0.00145     0.02124     0.02918     0.07102     0.01544
  
  S  C  16   0.36159    -0.02522    -0.01046    -0.23902    -0.03069     0.04355
 PX  C  16  -0.02151     0.00174    -0.04698    -0.05672    -0.11507    -0.02931
 PY  C  16   0.10497    -0.00506    -0.03114     0.00714     0.10976     0.00360
 PZ  C  16   0.07150    -0.00415     0.03376     0.06240     0.16962     0.03135
  
  S  N  17   0.48534    -0.03210     0.11598    -0.04384     0.31868     0.10475
 PX  N  17   0.06036    -0.00268    -0.06603    -0.04689     0.02623    -0.00421
 PY  N  17   0.04525    -0.00032    -0.05667     0.01376     0.04806    -0.01750
 PZ  N  17  -0.04226     0.00273     0.03712     0.05165    -0.00673    -0.00440
  
  S  C  18   0.23342    -0.01901     0.34120     0.11562     0.01802     0.03955
 PX  C  18   0.06214    -0.00383    -0.06308    -0.05647     0.11168     0.03859
 PY  C  18   0.04278    -0.00194    -0.04756    -0.01798     0.08844     0.01806
 PZ  C  18  -0.04048     0.00257     0.04038     0.03822    -0.07156    -0.02508
  
  S  C  19   0.11312    -0.01086     0.30496     0.11418    -0.10640    -0.00209
 PX  C  19  -0.00481     0.00116    -0.10550    -0.05832     0.07486     0.02114
 PY  C  19   0.04632    -0.00386     0.06440     0.01960     0.01386     0.01258
 PZ  C  19  -0.02318     0.00176     0.00185     0.01380    -0.02838    -0.01441
  
  S  C  20   0.05476    -0.00631     0.28665     0.13269    -0.17134    -0.03795
 PX  C  20   0.00250    -0.00010    -0.01792    -0.01318     0.02045     0.00922
 PY  C  20   0.02418    -0.00267     0.11263     0.05217    -0.05901    -0.01172
 PZ  C  20  -0.01257     0.00134    -0.04735    -0.01944     0.02148     0.00219
  
  S  C  21   0.04665    -0.00557     0.28262     0.13829    -0.18098    -0.04721
 PX  C  21   0.01731    -0.00199     0.08978     0.04183    -0.05060    -0.01039
 PY  C  21   0.01163    -0.00129     0.05975     0.02964    -0.03264    -0.00796
 PZ  C  21  -0.01118     0.00128    -0.05784    -0.02749     0.03224     0.00708
  
  S  C  22   0.05501    -0.00606     0.28446     0.14129    -0.16501    -0.04253
 PX  C  22   0.02638    -0.00275     0.11150     0.05331    -0.05348    -0.01070
 PY  C  22  -0.00479     0.00083    -0.05047    -0.02321     0.03830     0.00973
 PZ  C  22  -0.00606     0.00053    -0.01318    -0.00589     0.00012    -0.00132
  
  S  C  23   0.11436    -0.00998     0.29777     0.14137    -0.08779    -0.01359
 PX  C  23   0.04960    -0.00361     0.03498     0.00896     0.04068     0.01776
 PY  C  23  -0.01634     0.00240    -0.11288    -0.04814     0.06614     0.01184
 PZ  C  23  -0.00555     0.00006     0.04197     0.02453    -0.04214    -0.01287
  
  S  C  24   0.01724     0.51208     0.03093    -0.03414     0.00588     0.14054
 PX  C  24   0.00002     0.01898     0.00271    -0.00318    -0.00629     0.36442
 PY  C  24   0.00028     0.13666     0.03915    -0.05958     0.06478    -0.19170
 PZ  C  24   0.00006     0.00797     0.00221    -0.00337     0.00421    -0.02729
  
  S  O  25   0.01220     0.41172     0.03267    -0.03918     0.00777     0.52627
 PX  O  25  -0.00507    -0.17551    -0.01508     0.01867    -0.00737    -0.14192
 PY  O  25  -0.00095    -0.00495     0.00619    -0.01041     0.01477    -0.08890
 PZ  O  25   0.00016     0.00718     0.00100    -0.00139     0.00120     0.00052
  
  S  O  26   0.01428     0.56899     0.07309    -0.10235     0.09789    -0.52178
 PX  O  26   0.00377     0.15735     0.02111    -0.02967     0.02710    -0.07493
 PY  O  26  -0.00221    -0.06429    -0.00245     0.00160     0.00300     0.01328
 PZ  O  26  -0.00031    -0.01133    -0.00115     0.00150    -0.00106     0.00460
  
  S  H  27   0.01293     0.05218    -0.04237     0.06293    -0.06054     0.09898
  
  S  H  28   0.02503     0.01880    -0.06076     0.09238    -0.05468    -0.00532
  
  S  H  29   0.05109     0.00181    -0.01486     0.06478     0.00747    -0.02139
  
  S  H  30   0.03526     0.00945    -0.06224     0.05961    -0.04767    -0.01452
  
  S  H  31   0.03223    -0.00168    -0.02384    -0.05376    -0.08016    -0.01527
  
  S  H  32   0.01936    -0.00176    -0.01211    -0.06151    -0.09128    -0.00992
  
  S  H  33   0.02045    -0.00198    -0.00745    -0.06190    -0.08850    -0.00577
  
  S  H  34   0.04924    -0.00431     0.01928    -0.05489    -0.05527     0.00904
  
  S  H  35   0.04738    -0.00426     0.08562     0.02052    -0.02019     0.00735
  
  S  H  36   0.01319    -0.00158     0.07600     0.03518    -0.04956    -0.01164
  
  S  H  37   0.01064    -0.00134     0.07479     0.03742    -0.05273    -0.01518
  
  S  H  38   0.01328    -0.00148     0.07511     0.03866    -0.04697    -0.01357
  
  S  H  39   0.04835    -0.00342     0.07938     0.04322    -0.00575    -0.00110
  
  S  H  40   0.00579     0.23949     0.03269    -0.04634     0.04502    -0.19550




    ROOT NO.    7           8           9          10          11          12

           -39.14149   -36.67997   -36.15950   -33.82209   -33.06078   -32.47378
  
  
  S  N   1   0.39946     0.41132     0.35039     0.10962     0.10061     0.07157
 PX  N   1   0.18685     0.16284     0.12990     0.03239     0.02834     0.01761
 PY  N   1  -0.00245     0.00551    -0.00018    -0.00156     0.00161    -0.00359
 PZ  N   1   0.00074    -0.00093     0.00135    -0.00068    -0.00235    -0.00086
  
  S  C   2   0.47606     0.26690     0.15467    -0.00800    -0.00911    -0.02566
 PX  C   2  -0.05589    -0.23538    -0.26087    -0.12396    -0.11229    -0.09513
 PY  C   2  -0.00855     0.01794     0.00507    -0.00765    -0.00144    -0.01489
 PZ  C   2   0.00157    -0.00189     0.00312    -0.00169    -0.00560    -0.00217
  
  S  C   3   0.32866    -0.07339    -0.23024    -0.17422    -0.14049    -0.14235
 PX  C   3  -0.09350    -0.05425    -0.05475    -0.01015     0.00371     0.00136
 PY  C   3  -0.05480     0.05857     0.06054    -0.01554    -0.02354    -0.04279
 PZ  C   3  -0.00075     0.00050     0.00689    -0.00255    -0.00878    -0.00410
  
  S  C   4   0.21636    -0.18873    -0.28381    -0.02962     0.03562     0.03818
 PX  C   4  -0.08874     0.03672     0.04356     0.02672     0.03949     0.01723
 PY  C   4   0.04762     0.03145    -0.02798    -0.11381    -0.11571    -0.11581
 PZ  C   4   0.00992    -0.00439     0.00589    -0.01655    -0.03199    -0.01579
  
  S  C   5   0.00741    -0.16395    -0.07562     0.14474     0.13215     0.14781
 PX  C   5   0.01120    -0.00234    -0.08459     0.04057     0.11103     0.05517
 PY  C   5   0.15168    -0.06020    -0.11904    -0.05034    -0.01802     0.00017
 PZ  C   5   0.02571    -0.02780     0.04140    -0.04998    -0.10790    -0.04419
  
  S  C   6  -0.04861    -0.12708     0.18898    -0.02781    -0.17918    -0.05372
 PX  C   6   0.00330    -0.02662    -0.05744     0.05850     0.05989     0.05910
 PY  C   6   0.11017    -0.01035    -0.11761     0.03629     0.06558     0.05720
 PZ  C   6   0.02611     0.01414     0.00006    -0.03861    -0.02920    -0.03247
  
  S  C   7  -0.12677    -0.08917     0.31491    -0.18349    -0.22645    -0.16912
 PX  C   7  -0.05017     0.00706     0.03091     0.02792    -0.03653    -0.00349
 PY  C   7  -0.01841    -0.00821     0.01805     0.05129    -0.04823     0.00940
 PZ  C   7   0.03883    -0.01062    -0.02767     0.00615     0.00892     0.00405
  
  S  C   8  -0.08865     0.05645     0.10179    -0.15006    -0.14973    -0.08542
 PX  C   8  -0.05218     0.10750    -0.08818     0.07828    -0.01657     0.03910
 PY  C   8  -0.11920     0.00337     0.10401     0.02302    -0.03385    -0.02908
 PZ  C   8  -0.00769    -0.10488     0.13799    -0.05354    -0.01077    -0.06485
  
  S  C   9  -0.17279     0.26556    -0.14452     0.05075     0.08846     0.00031
 PX  C   9  -0.00177    -0.00063    -0.03031     0.04116     0.12899    -0.00219
 PY  C   9  -0.06269    -0.07964     0.09526     0.07984     0.11223     0.03342
 PZ  C   9  -0.03014    -0.03694     0.07625     0.00072    -0.07712     0.01551
  
  S  C  10  -0.14758     0.04641    -0.09165     0.19937     0.31526     0.12913
 PX  C  10   0.04765    -0.01031    -0.03304    -0.01579     0.02505    -0.00360
 PY  C  10   0.06384    -0.11321    -0.00781     0.02605     0.01454     0.06483
 PZ  C  10  -0.02299    -0.04407     0.03207     0.03074    -0.01748     0.03552
  
  S  C  11  -0.05781     0.23521    -0.19694    -0.05491     0.07203    -0.08802
 PX  C  11  -0.02306    -0.02117     0.03756    -0.03960     0.12478    -0.10213
 PY  C  11  -0.03696     0.08451    -0.05571     0.00482     0.07495    -0.03216
 PZ  C  11   0.00532     0.06137    -0.06428     0.04544    -0.08954     0.08360
  
  S  C  12  -0.05659     0.07563    -0.02758    -0.16822     0.24593    -0.29419
 PX  C  12   0.00786    -0.02281     0.01880     0.00255     0.01106    -0.01230
 PY  C  12  -0.00501     0.05700    -0.06071     0.03451     0.02656     0.01498
 PZ  C  12  -0.01024     0.05069    -0.04865     0.01523     0.00157     0.01904
  
  S  C  13  -0.03057    -0.06888     0.10996    -0.15067     0.10669    -0.18119
 PX  C  13   0.00159     0.02716    -0.02808    -0.01102     0.04057    -0.04895
 PY  C  13  -0.00981     0.04041    -0.03360    -0.04691     0.08575    -0.10810
 PZ  C  13  -0.00636    -0.00693     0.01106    -0.01147     0.00184    -0.00498
  
  S  C  14  -0.00645    -0.15321     0.16402     0.01901    -0.10630     0.12788
 PX  C  14  -0.00902     0.01884    -0.00403    -0.06728     0.05792    -0.09639
 PY  C  14  -0.00689    -0.01325     0.02016    -0.03509     0.01737    -0.03785
 PZ  C  14   0.00569    -0.02586     0.01424     0.05129    -0.04900     0.07577
  
  S  C  15   0.04076    -0.18417     0.12625     0.20235    -0.17743     0.27793
 PX  C  15  -0.01507    -0.00647     0.02474    -0.03384    -0.02362     0.00998
 PY  C  15   0.01344    -0.00407    -0.01419     0.01304    -0.01244     0.01655
 PZ  C  15   0.02261     0.00208    -0.03120     0.04921     0.01797    -0.00855
  
  S  C  16   0.07702    -0.02292    -0.06495     0.14415    -0.14655     0.17955
 PX  C  16  -0.04890     0.07462    -0.02797    -0.05701    -0.01375    -0.03323
 PY  C  16  -0.01072     0.15084    -0.12697    -0.09477     0.00211    -0.07425
 PZ  C  16   0.04413    -0.00239    -0.03459     0.02547     0.01449    -0.01673
  
  S  N  17   0.17018    -0.16140     0.03802     0.00113     0.05485     0.00274
 PX  N  17  -0.01683     0.12708    -0.11461     0.03760    -0.15892     0.04892
 PY  N  17  -0.04002     0.10543    -0.03133    -0.15324    -0.09031    -0.02405
 PZ  N  17  -0.00264    -0.07547     0.09296    -0.05757     0.09801    -0.09442
  
  S  C  18   0.07758    -0.20224     0.12612     0.02219     0.28068    -0.09351
 PX  C  18   0.06625    -0.09482     0.03341     0.12800    -0.00495    -0.07762
 PY  C  18   0.02916    -0.04969     0.05613    -0.17942     0.05800     0.07376
 PZ  C  18  -0.04294     0.05956    -0.02486     0.00281    -0.02552    -0.04282
  
  S  C  19   0.00427    -0.05074     0.00217     0.33022     0.02867    -0.29356
 PX  C  19   0.03637    -0.06161     0.03567     0.00040     0.03844     0.02835
 PY  C  19   0.02421    -0.06166     0.04014    -0.04021     0.11256     0.03242
 PZ  C  19  -0.02656     0.05529    -0.03062     0.00293    -0.06210    -0.03937
  
  S  C  20  -0.06356     0.11663    -0.09662     0.25477    -0.21197    -0.24028
 PX  C  20   0.01755    -0.04771     0.02701     0.08474     0.06290    -0.10054
 PY  C  20  -0.01880     0.02380    -0.01549     0.00497     0.00625    -0.00203
 PZ  C  20   0.00246     0.00564    -0.00156    -0.03286    -0.02311     0.02975
  
  S  C  21  -0.08223     0.17248    -0.11735    -0.01921    -0.23515     0.08720
 PX  C  21  -0.01680     0.02299    -0.01919     0.08262    -0.02814    -0.10087
 PY  C  21  -0.01334     0.01861    -0.00404    -0.10447     0.03746     0.11849
 PZ  C  21   0.01164    -0.01621     0.00858     0.02132    -0.00865    -0.02469
  
  S  C  22  -0.07286     0.12928    -0.06288    -0.27635    -0.03405     0.32431
 PX  C  22  -0.01676     0.01261    -0.00104    -0.02895     0.03934    -0.00030
 PY  C  22   0.01737    -0.04484     0.03941    -0.06165     0.09278     0.02896
 PZ  C  22  -0.00309     0.01663    -0.01638     0.03607    -0.05797    -0.01727
  
  S  C  23  -0.01830    -0.02698     0.06178    -0.31234     0.21079     0.20072
 PX  C  23   0.03318    -0.08427     0.05793     0.04845     0.08388    -0.12245
 PY  C  23   0.01936    -0.03299     0.03048    -0.01729    -0.00355    -0.01607
 PZ  C  23  -0.02240     0.04136    -0.02384    -0.02327    -0.02996     0.03543
  
  S  C  24  -0.03407     0.01521    -0.01294    -0.05084    -0.04995    -0.05910
 PX  C  24  -0.20471     0.08577     0.13584     0.06701     0.04960     0.05688
 PY  C  24  -0.09844     0.00768     0.08349     0.08877     0.07302     0.08180
 PZ  C  24   0.00213    -0.00414    -0.00041     0.00232     0.00108     0.00244
  
  S  O  25  -0.29398     0.13452     0.19227     0.06727     0.03986     0.04429
 PX  O  25   0.08920    -0.03274    -0.04812    -0.01394    -0.00690    -0.00715
 PY  O  25  -0.00049    -0.00422     0.01333     0.02152     0.01755     0.02114
 PZ  O  25  -0.00386     0.00090     0.00286     0.00183     0.00109     0.00156
  
  S  O  26   0.03322    -0.08984    -0.05260     0.02873     0.03260     0.03706
 PX  O  26  -0.03571    -0.00931     0.01333     0.02164     0.01788     0.02087
 PY  O  26  -0.04346    -0.00311     0.02274     0.03929     0.03803     0.04722
 PZ  O  26  -0.00156    -0.00007     0.00087     0.00148     0.00133     0.00204
  
  S  H  27   0.05190    -0.06627    -0.11018    -0.00067     0.03883     0.02572
  
  S  H  28   0.03602    -0.04899     0.06176    -0.02572    -0.08554    -0.02876
  
  S  H  29  -0.02710    -0.05083     0.13218    -0.11245    -0.07832    -0.07700
  
  S  H  30  -0.03786     0.01900    -0.07032     0.08105     0.17435     0.05366
  
  S  H  31  -0.02619     0.04293    -0.02333    -0.06783     0.13771    -0.14342
  
  S  H  32  -0.01075    -0.02583     0.04304    -0.06748     0.05563    -0.09149
  
  S  H  33  -0.00143    -0.06123     0.06619     0.01292    -0.04770     0.06104
  
  S  H  34   0.02419    -0.08863     0.05469     0.12183    -0.06743     0.11650
  
  S  H  35   0.01626    -0.04529     0.01137     0.17481     0.00558    -0.12796
  
  S  H  36  -0.01991     0.04192    -0.03713     0.12183    -0.10493    -0.11871
  
  S  H  37  -0.02719     0.06576    -0.04616    -0.00888    -0.11530     0.04467
  
  S  H  38  -0.02383     0.04751    -0.02200    -0.13165    -0.01788     0.16327
  
  S  H  39   0.00013    -0.02998     0.04869    -0.16526     0.09384     0.09064
  
  S  H  40  -0.02191    -0.03276    -0.00028     0.03601     0.03526     0.04213




    ROOT NO.   13          14          15          16          17          18

           -30.96741   -30.41086   -28.54652   -27.54187   -26.05117   -25.59690
  
  
  S  N   1  -0.05935     0.04675    -0.02051    -0.07788    -0.06265     0.08496
 PX  N   1  -0.00611     0.01024    -0.00023    -0.00381    -0.00110    -0.00770
 PY  N   1   0.02822     0.00565     0.01802    -0.00070    -0.03043    -0.01238
 PZ  N   1  -0.00455    -0.00404    -0.00144     0.00519     0.00909    -0.00200
  
  S  C   2   0.08495    -0.00949     0.03288     0.06236     0.04392    -0.09558
 PX  C   2   0.12981    -0.05128     0.04456     0.11043     0.07816    -0.12950
 PY  C   2   0.08162     0.00785     0.05229     0.00851    -0.06779    -0.03734
 PZ  C   2  -0.00889    -0.00877    -0.00274     0.01196     0.01751    -0.00550
  
  S  C   3   0.25851    -0.03734     0.07368     0.05425     0.00926    -0.00953
 PX  C   3   0.00052     0.02397    -0.01494    -0.10705    -0.08992     0.18446
 PY  C   3   0.17228    -0.01984     0.12930     0.09390    -0.09810    -0.14946
 PZ  C   3  -0.00666    -0.01179    -0.00191     0.02129     0.01948    -0.01452
  
  S  C   4  -0.12026     0.08363    -0.11613    -0.22494    -0.06288     0.23568
 PX  C   4   0.03589     0.03556     0.03312    -0.08826    -0.12123     0.09223
 PY  C   4   0.20404    -0.05144     0.05290     0.02036     0.01669     0.12831
 PZ  C   4  -0.01967    -0.02844    -0.01920     0.03677     0.04724    -0.00188
  
  S  C   5  -0.22634     0.05710    -0.04385     0.04498    -0.06398    -0.17248
 PX  C   5   0.02642     0.10253     0.01561    -0.15432    -0.10710     0.05434
 PY  C   5  -0.14892     0.00941    -0.11927    -0.11045     0.09235     0.09134
 PZ  C   5  -0.11058    -0.09249    -0.06783     0.09085     0.11748    -0.00217
  
  S  C   6  -0.25034    -0.22405    -0.02844     0.21045     0.19998    -0.04738
 PX  C   6  -0.03845     0.04952    -0.02866     0.05731    -0.04051    -0.10807
 PY  C   6  -0.11055     0.02410    -0.07934     0.05299     0.13255    -0.08492
 PZ  C   6  -0.01568    -0.03834    -0.00359    -0.03634     0.09076     0.07977
  
  S  C   7  -0.00010    -0.10183     0.06650    -0.19436    -0.04964     0.16555
 PX  C   7   0.02082    -0.00484     0.00411     0.08864    -0.05721    -0.01677
 PY  C   7  -0.08236    -0.14258     0.00715     0.19486     0.09788    -0.00923
 PZ  C   7  -0.06453    -0.06282     0.00393     0.01114     0.10108     0.03230
  
  S  C   8   0.09831     0.18674    -0.09106    -0.15906    -0.14261     0.05085
 PX  C   8   0.06051    -0.03554    -0.07022     0.15676    -0.01193     0.02931
 PY  C   8   0.11936    -0.11429     0.05404     0.01213    -0.08985     0.06281
 PZ  C   8  -0.00491    -0.01714     0.10255    -0.13873    -0.04502     0.04403
  
  S  C   9   0.25411    -0.00276    -0.06022     0.05664     0.17468     0.09129
 PX  C   9   0.02652    -0.05956     0.10287    -0.02968     0.14915     0.02525
 PY  C   9   0.13019     0.05371     0.17176     0.02279    -0.06015    -0.03761
 PZ  C   9   0.03508     0.08557    -0.01930     0.04367    -0.18358    -0.02838
  
  S  C  10   0.19333     0.11255     0.17238    -0.03230    -0.00789    -0.05330
 PX  C  10  -0.04205     0.00313     0.00710    -0.08123     0.04569     0.04504
 PY  C  10  -0.16531     0.06246    -0.02269    -0.06640    -0.16582    -0.08957
 PZ  C  10  -0.04055     0.02772    -0.01742     0.04631    -0.13503    -0.07961
  
  S  C  11  -0.07077    -0.25935    -0.04124    -0.11666     0.14537    -0.00580
 PX  C  11   0.00033    -0.02047     0.11731    -0.06005     0.08686     0.05303
 PY  C  11   0.10222     0.04549    -0.02277     0.04011     0.24201     0.13151
 PZ  C  11   0.04843     0.04237    -0.12756     0.08418     0.02539     0.02359
  
  S  C  12  -0.16908    -0.06854     0.18462    -0.02130    -0.02422     0.06012
 PX  C  12   0.00555     0.08536     0.02050     0.08807    -0.01432     0.06531
 PY  C  12   0.03629    -0.10349     0.03650    -0.07431     0.18101     0.07402
 PZ  C  12   0.01186    -0.13683    -0.00230    -0.12366     0.10121    -0.02558
  
  S  C  13  -0.06683     0.32804    -0.05385     0.25823    -0.11348     0.02379
 PX  C  13  -0.03887    -0.00078     0.04754     0.06379    -0.03439     0.05566
 PY  C  13  -0.10719    -0.11746     0.14037    -0.04620    -0.13385    -0.00487
 PZ  C  13  -0.01456    -0.05865     0.02260    -0.08630    -0.03356    -0.05602
  
  S  C  14   0.19036     0.28146    -0.19902     0.03372     0.23808     0.03208
 PX  C  14  -0.06133     0.11157    -0.03647     0.13287    -0.05692    -0.00919
 PY  C  14  -0.05072    -0.00854     0.02465    -0.00097    -0.15146    -0.08231
 PZ  C  14   0.03584    -0.11639     0.04880    -0.13121    -0.02168    -0.02756
  
  S  C  15   0.18267    -0.12000     0.08198    -0.13664     0.04070     0.05138
 PX  C  15   0.02032     0.04691    -0.07486    -0.05063     0.02064    -0.06261
 PY  C  15  -0.07204    -0.10719     0.06965    -0.00472    -0.18162    -0.10045
 PZ  C  15  -0.05552    -0.10396     0.10988     0.05545    -0.11918     0.02992
  
  S  C  16  -0.08584    -0.21701     0.08134     0.04172    -0.20103    -0.06820
 PX  C  16   0.00164    -0.06612    -0.09821    -0.11973    -0.01289    -0.05922
 PY  C  16  -0.09559     0.05642    -0.15989     0.05767     0.04201    -0.03764
 PZ  C  16  -0.04809     0.09217     0.02129     0.16559     0.02347     0.08184
  
  S  N  17  -0.12215     0.17903     0.16341     0.06517     0.05317    -0.03211
 PX  N  17  -0.05301     0.00298    -0.11995     0.10257    -0.14124     0.06884
 PY  N  17  -0.00172     0.15301    -0.19107    -0.18216    -0.02398    -0.07721
 PZ  N  17   0.05093     0.06541     0.03901    -0.13698     0.09748     0.01611
  
  S  C  18   0.08400    -0.09491    -0.01223     0.02521     0.11987    -0.04226
 PX  C  18  -0.04874     0.07411     0.20874     0.06047     0.03772     0.15476
 PY  C  18  -0.02542     0.08917     0.08224    -0.15029     0.10137    -0.18058
 PZ  C  18   0.02947    -0.02898    -0.13506    -0.01423    -0.05130     0.03493
  
  S  C  19   0.07534    -0.09764    -0.17359     0.08124    -0.11007     0.19726
 PX  C  19   0.00319    -0.01620     0.08713     0.05121     0.00030     0.12788
 PY  C  19   0.02726    -0.05760     0.02860     0.07737     0.05681     0.03798
 PZ  C  19  -0.01806     0.04668    -0.05632    -0.06943    -0.02481    -0.06623
  
  S  C  20  -0.05985     0.14035    -0.01526    -0.16273     0.00889    -0.18391
 PX  C  20   0.06525    -0.09226    -0.18336     0.03602    -0.11934     0.10100
 PY  C  20   0.01441    -0.03162    -0.05357     0.04893    -0.02051     0.04637
 PZ  C  20  -0.02921     0.04848     0.08146    -0.03958     0.04885    -0.05672
  
  S  C  21  -0.14510     0.21009     0.33150    -0.03620     0.13587    -0.01083
 PX  C  21   0.01187     0.00256    -0.11105    -0.06725    -0.01177    -0.14495
 PY  C  21   0.01511    -0.05838    -0.02420     0.11168    -0.06846     0.16151
 PZ  C  21  -0.01134     0.02800     0.04685    -0.03382     0.03648    -0.02887
  
  S  C  22  -0.04042    -0.01547     0.09506     0.14793    -0.09186     0.22086
 PX  C  22   0.03543    -0.05138    -0.13045    -0.02338    -0.01288    -0.11541
 PY  C  22   0.05519    -0.08963    -0.14109    -0.00195    -0.07827    -0.02455
 PZ  C  22  -0.03797     0.06177     0.10888     0.00017     0.04221     0.05134
  
  S  C  23   0.08994    -0.14382    -0.19313    -0.05042    -0.02620    -0.17049
 PX  C  23   0.02838     0.01336    -0.00762    -0.09971     0.12146    -0.13926
 PY  C  23  -0.00859     0.03143     0.03861    -0.08142     0.01602    -0.03591
 PZ  C  23  -0.00490    -0.01028    -0.02025     0.03945    -0.04620     0.06995
  
  S  C  24   0.15890    -0.02238     0.09639     0.07251    -0.07312    -0.10804
 PX  C  24  -0.13536     0.01159    -0.06999    -0.04136     0.05533     0.07560
 PY  C  24  -0.18249     0.01749    -0.07191    -0.01509     0.05424    -0.04107
 PZ  C  24  -0.00924    -0.00132    -0.00400     0.00301     0.00623    -0.00446
  
  S  O  25  -0.08932    -0.00359    -0.02784     0.02748     0.05547    -0.05159
 PX  O  25   0.00964     0.00171    -0.00198    -0.00598     0.00571     0.00673
 PY  O  25  -0.05292     0.00252    -0.02293     0.00636     0.03270    -0.03353
 PZ  O  25  -0.00456    -0.00036    -0.00201     0.00111     0.00328    -0.00175
  
  S  O  26  -0.09141     0.01869    -0.05198    -0.06250     0.01116     0.09709
 PX  O  26  -0.04913     0.00441    -0.02003    -0.00585     0.01243    -0.00985
 PY  O  26  -0.13947     0.02104    -0.10293    -0.10456     0.07252     0.22102
 PZ  O  26  -0.00766     0.00064    -0.00631    -0.00574     0.00570     0.01482
  
  S  H  27  -0.02967     0.06029    -0.03280    -0.16300    -0.10471     0.17684
  
  S  H  28  -0.16000    -0.12502    -0.04208     0.10158     0.20365    -0.00308
  
  S  H  29  -0.01693    -0.05391     0.02827    -0.16282     0.02712     0.09725
  
  S  H  30   0.06755     0.05386     0.09465    -0.08350     0.04288     0.01934
  
  S  H  31  -0.06484    -0.02076     0.11786     0.01072     0.04485     0.09405
  
  S  H  32  -0.02892     0.19899    -0.03554     0.19678    -0.04000     0.05977
  
  S  H  33   0.10891     0.17260    -0.12527     0.05311     0.20815     0.06908
  
  S  H  34   0.10398    -0.05418     0.05703    -0.03346     0.06773     0.10890
  
  S  H  35   0.03494    -0.04861    -0.03991     0.05329    -0.07070     0.16932
  
  S  H  36  -0.03628     0.08601     0.01977    -0.11282     0.01461    -0.12213
  
  S  H  37  -0.08299     0.12558     0.23129    -0.03073     0.10518     0.00249
  
  S  H  38  -0.02650     0.00032     0.08635     0.08573    -0.05719     0.17332
  
  S  H  39   0.03768    -0.05189    -0.06997    -0.07727    -0.00863    -0.10485
  
  S  H  40  -0.11459     0.01784    -0.07535    -0.07488     0.04676     0.14334




    ROOT NO.   19          20          21          22          23          24

           -24.66901   -24.44192   -24.00909   -23.25678   -22.94656   -21.02957
  
  
  S  N   1   0.00652     0.10132     0.04245    -0.07475     0.13557     0.01794
 PX  N   1   0.00165    -0.01863    -0.00813     0.01768    -0.03448    -0.01127
 PY  N   1  -0.00616     0.02571    -0.01979    -0.02302     0.01527     0.00333
 PZ  N   1  -0.00454     0.00365    -0.00178    -0.00398     0.00325     0.00656
  
  S  C   2   0.00639    -0.14564    -0.04423     0.11935    -0.19590    -0.02701
 PX  C   2   0.00079    -0.17015    -0.05539     0.12825    -0.21086    -0.02283
 PY  C   2  -0.02362     0.07075    -0.05208    -0.05764     0.03582     0.01433
 PZ  C   2  -0.00774     0.00573    -0.00384    -0.00920     0.00909     0.01034
  
  S  C   3   0.02192    -0.05676     0.06647     0.09782    -0.04807     0.09044
 PX  C   3   0.01086     0.21558     0.13456    -0.12525     0.29043     0.10553
 PY  C   3  -0.07852     0.15313    -0.14392    -0.14132     0.09196     0.10295
 PZ  C   3  -0.00447    -0.00043    -0.00679    -0.01831     0.02411     0.00671
  
  S  C   4   0.03885     0.08437     0.08572    -0.05201     0.07571    -0.15358
 PX  C   4  -0.04054     0.22352     0.00391    -0.11650     0.12952     0.02456
 PY  C   4   0.04578     0.02559     0.22328     0.09947     0.09439     0.16857
 PZ  C   4   0.01560    -0.02852     0.02523    -0.01555     0.05695     0.00281
  
  S  C   5   0.02029    -0.07003    -0.13387    -0.08963     0.05984    -0.00813
 PX  C   5  -0.05515     0.11249    -0.08289    -0.01454    -0.11242    -0.07100
 PY  C   5  -0.00920    -0.04214    -0.04591    -0.01639    -0.09437    -0.20354
 PZ  C   5   0.03382    -0.05279     0.03448    -0.07005     0.14383    -0.01764
  
  S  C   6  -0.07941     0.10957     0.00863    -0.06187     0.10045     0.14366
 PX  C   6   0.09000    -0.14687    -0.01760    -0.05722     0.13573     0.00351
 PY  C   6  -0.00338    -0.11332    -0.04450    -0.02570     0.01905     0.02709
 PZ  C   6  -0.10274     0.14165    -0.02024     0.00998    -0.09938     0.02226
  
  S  C   7  -0.07580     0.14614    -0.04818     0.05466    -0.18661    -0.10534
 PX  C   7   0.09882    -0.06585     0.05033    -0.03859     0.12390     0.04164
 PY  C   7  -0.07444     0.16483     0.07660    -0.01264     0.06158     0.10406
 PZ  C   7  -0.12772     0.16578    -0.03647     0.02107    -0.10053     0.02173
  
  S  C   8   0.12589    -0.20615    -0.05168    -0.07662    -0.02222    -0.02202
 PX  C   8   0.05848     0.00299     0.09649    -0.01519     0.07085    -0.08046
 PY  C   8   0.09123    -0.01722     0.13353     0.06498     0.05120    -0.22233
 PZ  C   8   0.00693    -0.00874    -0.07636     0.04488    -0.05559    -0.01384
  
  S  C   9   0.03424    -0.03380     0.12398     0.04025     0.05821    -0.15232
 PX  C   9  -0.09056     0.08075    -0.02488     0.06590    -0.03922     0.03917
 PY  C   9   0.00046    -0.03459     0.09325     0.09963    -0.01287     0.12030
 PZ  C   9   0.09550    -0.09055     0.05334    -0.02460     0.03824     0.02209
  
  S  C  10  -0.12488     0.11335    -0.03577     0.12379    -0.16927     0.15878
 PX  C  10  -0.09563     0.10036    -0.08021    -0.00200    -0.12559     0.03111
 PY  C  10  -0.02979     0.05362    -0.16480    -0.06556    -0.07877     0.04650
 PZ  C  10   0.07838    -0.05048    -0.00913    -0.05332     0.11167    -0.00652
  
  S  C  11   0.03280     0.06905    -0.12764     0.05803     0.09782    -0.08088
 PX  C  11  -0.00489    -0.09046    -0.03660    -0.06172     0.04241     0.05793
 PY  C  11  -0.07651    -0.02968     0.04583    -0.11058    -0.00896    -0.09731
 PZ  C  11  -0.02888     0.07568     0.04389     0.00997    -0.04471    -0.10417
  
  S  C  12  -0.02486    -0.17509     0.02516    -0.22544    -0.00901     0.09293
 PX  C  12  -0.06959    -0.05693     0.10589    -0.15840    -0.09281    -0.01665
 PY  C  12  -0.05565    -0.04135    -0.03723    -0.13642     0.00483     0.00563
 PZ  C  12   0.04346     0.03626    -0.12890     0.09239     0.09616     0.01938
  
  S  C  13  -0.04406     0.07440     0.12146     0.07141    -0.06663    -0.10594
 PX  C  13  -0.06061    -0.04824     0.10488    -0.13439    -0.08656    -0.07883
 PY  C  13   0.01446    -0.14842     0.06276    -0.15078    -0.04181     0.07097
 PZ  C  13   0.06803    -0.02611    -0.07602     0.06057     0.06624     0.11284
  
  S  C  14  -0.01594     0.07094    -0.11713     0.01360     0.06939     0.07108
 PX  C  14  -0.00934     0.11783     0.01959     0.16009     0.00574    -0.07958
 PY  C  14   0.06845     0.03802     0.01443     0.18182     0.01498    -0.00530
 PZ  C  14   0.04364    -0.09965    -0.01760    -0.06389     0.00390     0.07403
  
  S  C  15  -0.03069    -0.16199     0.08952    -0.20674    -0.08109    -0.02082
 PX  C  15   0.06330     0.04173    -0.10591     0.10584     0.06962     0.09796
 PY  C  15   0.05404     0.09008     0.05229     0.21290    -0.00932    -0.03729
 PZ  C  15  -0.03722    -0.00194     0.11346     0.01429    -0.06686    -0.12342
  
  S  C  16  -0.03584     0.11723     0.11840     0.09165    -0.09920    -0.05941
 PX  C  16   0.10024     0.01233    -0.13286     0.09702     0.07037    -0.01311
 PY  C  16  -0.00646     0.10553    -0.09927     0.01516     0.03747     0.05191
 PZ  C  16  -0.09557     0.03237     0.04222    -0.07595    -0.04646     0.03566
  
  S  N  17  -0.06789    -0.00005    -0.02893    -0.00964     0.02131     0.20889
 PX  N  17  -0.06511     0.03077    -0.01935    -0.08528    -0.15277     0.06073
 PY  N  17   0.00528    -0.11299    -0.13810    -0.11470    -0.06643     0.16421
 PZ  N  17   0.11120    -0.09900    -0.16417     0.05438     0.11135     0.02864
  
  S  C  18   0.22875     0.08621     0.01400     0.02694     0.06500    -0.09693
 PX  C  18  -0.02084    -0.06305    -0.13814     0.11824     0.11510     0.01414
 PY  C  18  -0.09400    -0.02944     0.08017     0.03203     0.09163     0.03311
 PZ  C  18   0.07675     0.01357    -0.08689    -0.03543    -0.08199     0.02304
  
  S  C  19  -0.04301    -0.07930    -0.19521     0.07448     0.03982    -0.02141
 PX  C  19  -0.06998    -0.08099    -0.08761     0.10341     0.12778    -0.12218
 PY  C  19   0.27071     0.11362    -0.01247    -0.03371    -0.05796    -0.06462
 PZ  C  19  -0.09344    -0.02470    -0.00491     0.00617    -0.00388     0.09303
  
  S  C  20  -0.22516    -0.03696     0.12576     0.01530     0.04415     0.05813
 PX  C  20  -0.15540    -0.10056    -0.12816     0.05679     0.04070     0.07890
 PY  C  20   0.19271     0.07618    -0.05153    -0.08944    -0.15037     0.07349
 PZ  C  20  -0.03760    -0.00232     0.05412     0.03160     0.06038    -0.05243
  
  S  C  21   0.15699     0.05507     0.01482     0.00447     0.01008    -0.09525
 PX  C  21  -0.01248     0.05838     0.12712    -0.09524    -0.10891     0.10508
 PY  C  21   0.08986    -0.01131    -0.14851    -0.02559    -0.07830     0.12254
 PZ  C  21  -0.03750    -0.01323     0.02253     0.04659     0.07187    -0.08938
  
  S  C  22  -0.09115    -0.10325    -0.16030     0.05613     0.03888     0.08963
 PX  C  22   0.07425     0.08602     0.11648    -0.12151    -0.13951     0.05215
 PY  C  22  -0.24384    -0.08130     0.04348     0.05053     0.08165    -0.00596
 PZ  C  22   0.09254     0.01108    -0.07019     0.01953     0.00124    -0.01136
  
  S  C  23  -0.18829    -0.02043     0.17288    -0.00359     0.05623    -0.07513
 PX  C  23   0.20637     0.09839     0.05709    -0.03662    -0.02348    -0.06671
 PY  C  23  -0.19219    -0.07156     0.01942     0.09720     0.11737    -0.10180
 PZ  C  23   0.02585     0.00188    -0.06397    -0.02506    -0.06776     0.07817
  
  S  C  24  -0.06099     0.13479    -0.12281    -0.16434     0.12694    -0.01726
 PX  C  24   0.04466    -0.08707     0.10133     0.10993    -0.05495     0.06503
 PY  C  24  -0.00352    -0.08983    -0.09745    -0.01664    -0.10586    -0.26951
 PZ  C  24  -0.00177    -0.00157    -0.00771    -0.01051     0.00591    -0.01831
  
  S  O  25   0.00981    -0.11545    -0.02960     0.07878    -0.13646    -0.04193
 PX  O  25   0.00657    -0.02538     0.01026     0.03821    -0.04778     0.00340
 PY  O  25   0.00125    -0.06925    -0.04687     0.01994    -0.08683    -0.13288
 PZ  O  25  -0.00012    -0.00284    -0.00234    -0.00227     0.00064    -0.00781
  
  S  O  26   0.03012    -0.00518     0.09491     0.05016     0.01491     0.07731
 PX  O  26  -0.00437    -0.01248    -0.03625    -0.02906    -0.01008    -0.12933
 PY  O  26   0.10436    -0.12359     0.30395     0.26771    -0.06511     0.31330
 PZ  O  26   0.00673    -0.00679     0.02158     0.01600     0.00057     0.02598
  
  S  H  27  -0.00802     0.18693     0.05096    -0.09502     0.11912    -0.04817
  
  S  H  28  -0.10121     0.09086    -0.01482    -0.01955    -0.01802     0.09386
  
  S  H  29  -0.13184     0.14543    -0.06973     0.06155    -0.20229    -0.08790
  
  S  H  30  -0.14473     0.13361    -0.07573     0.06407    -0.20441     0.10842
  
  S  H  31  -0.07778    -0.13467     0.06369    -0.26029    -0.06681     0.04340
  
  S  H  32  -0.08070     0.05058     0.13361    -0.02828    -0.09857    -0.16025
  
  S  H  33  -0.05882     0.04463    -0.06395    -0.07821     0.02656     0.01504
  
  S  H  34  -0.07425    -0.14544     0.07936    -0.24271    -0.07303    -0.06537
  
  S  H  35  -0.13285    -0.11999    -0.14152     0.09961     0.10622    -0.07567
  
  S  H  36  -0.25088    -0.07401     0.09473     0.07449     0.13225    -0.02206
  
  S  H  37   0.04831     0.00122     0.00158     0.07038     0.10553    -0.17631
  
  S  H  38  -0.14705    -0.12270    -0.14300     0.11579     0.12517     0.01075
  
  S  H  39  -0.23950    -0.06186     0.10519     0.06663     0.10904    -0.11639
  
  S  H  40   0.06466    -0.07594     0.18345     0.15788    -0.03993     0.16379




    ROOT NO.   25          26          27          28          29          30

           -20.38146   -19.48883   -18.46371   -18.18101   -17.89524   -17.31156
  
  
  S  N   1  -0.04402    -0.04317     0.08028    -0.06956    -0.02032     0.04279
 PX  N   1   0.02588     0.01947    -0.04822     0.04413     0.01506    -0.03298
 PY  N   1   0.03989     0.03778    -0.00456     0.08184    -0.00758    -0.00507
 PZ  N   1  -0.02579     0.00303     0.00159     0.01757    -0.01751     0.02524
  
  S  C   2   0.09447     0.05590    -0.10130     0.07597     0.03170    -0.05957
 PX  C   2   0.07640     0.04549    -0.07071     0.04720     0.02035    -0.03407
 PY  C   2   0.06234     0.07596    -0.00817     0.13915    -0.01611    -0.00541
 PZ  C   2  -0.04325     0.00316     0.00586     0.03075    -0.02871     0.03961
  
  S  C   3   0.04489     0.02910     0.03361    -0.06391     0.00045    -0.01484
 PX  C   3  -0.10230    -0.05280     0.14112    -0.12155    -0.03590     0.05877
 PY  C   3   0.05362     0.18739     0.09432     0.17722    -0.08838    -0.06306
 PZ  C   3  -0.04920    -0.00608     0.02707     0.04884    -0.04506     0.05397
  
  S  C   4  -0.03215    -0.10788    -0.12623     0.03881     0.05768     0.03535
 PX  C   4   0.02248     0.09142    -0.16447     0.23368     0.03701     0.00468
 PY  C   4  -0.04482    -0.06457    -0.00588    -0.16744     0.05800     0.07915
 PZ  C   4  -0.06922    -0.04071     0.04673     0.04754    -0.05056     0.06493
  
  S  C   5   0.11774     0.06025     0.16079     0.01335    -0.04724    -0.06648
 PX  C   5   0.04830     0.08025    -0.11739     0.05754     0.00633    -0.08146
 PY  C   5  -0.09321    -0.09115    -0.01262     0.03787    -0.02833     0.00868
 PZ  C   5  -0.10572    -0.07808     0.08654     0.13209    -0.08815     0.09523
  
  S  C   6  -0.11838     0.05126    -0.03037     0.03433     0.00180     0.02664
 PX  C   6   0.03429    -0.04369     0.18528     0.06166    -0.09763     0.04708
 PY  C   6  -0.22856    -0.01031     0.13244     0.02198    -0.12316     0.09719
 PZ  C   6  -0.15536     0.06405    -0.14438     0.03678    -0.02027    -0.01164
  
  S  C   7   0.12357    -0.03835     0.02610    -0.02156     0.01039    -0.03814
 PX  C   7   0.05484    -0.04546    -0.07376     0.04977     0.00339     0.01450
 PY  C   7   0.02898     0.09370    -0.21618    -0.04075     0.15587    -0.07971
 PZ  C   7  -0.04727     0.08696    -0.05161    -0.02476    -0.02015    -0.08995
  
  S  C   8  -0.08861    -0.01887     0.00701     0.02685    -0.07329     0.07106
 PX  C   8   0.00752     0.05918    -0.19069    -0.00526    -0.03737    -0.08024
 PY  C   8   0.16598    -0.09448    -0.01309     0.01816     0.07226     0.00469
 PZ  C   8   0.07300    -0.12581     0.14503     0.04380    -0.13918     0.03590
  
  S  C   9  -0.16576    -0.02874    -0.06965     0.07832     0.00371    -0.06020
 PX  C   9  -0.04221    -0.09533     0.11140     0.05262    -0.08085     0.01693
 PY  C   9  -0.10063    -0.13933    -0.03641    -0.05816     0.03758     0.15193
 PZ  C   9  -0.00672     0.02749    -0.15428    -0.04211    -0.02870     0.03673
  
  S  C  10  -0.08759     0.02754     0.00379    -0.09373    -0.00964     0.04837
 PX  C  10  -0.06567     0.03170     0.00974     0.02125    -0.07283     0.04539
 PY  C  10   0.20157     0.18779     0.02632    -0.06936     0.02431    -0.11458
 PZ  C  10   0.15744     0.07232    -0.01816     0.02336     0.01565    -0.10249
  
  S  C  11   0.15870     0.01200     0.13793     0.06108    -0.00469    -0.11339
 PX  C  11   0.06079    -0.12705     0.00144     0.04116    -0.07976     0.06037
 PY  C  11  -0.03187    -0.03577     0.05357     0.10436    -0.00187    -0.05757
 PZ  C  11  -0.07365     0.11189     0.00268     0.01547    -0.04364    -0.09887
  
  S  C  12   0.09788    -0.00661    -0.09870    -0.07261     0.02135     0.07548
 PX  C  12  -0.02231     0.06218    -0.03783    -0.04003     0.00217     0.03043
 PY  C  12   0.20272    -0.09381     0.13301     0.02230     0.01633     0.11521
 PZ  C  12   0.12282    -0.10650     0.09442     0.05268    -0.04913     0.02151
  
  S  C  13  -0.13550     0.04013     0.05893     0.06466    -0.02208    -0.08130
 PX  C  13  -0.02271     0.09993     0.09699     0.02973    -0.00034    -0.11233
 PY  C  13  -0.10069     0.12727    -0.18775    -0.09449     0.03951    -0.06805
 PZ  C  13  -0.02802    -0.03422    -0.19430    -0.07662    -0.01503     0.07664
  
  S  C  14   0.15566    -0.07021    -0.07735    -0.06345     0.01515     0.09033
 PX  C  14   0.02362    -0.09022     0.12068     0.06272    -0.04846     0.06913
 PY  C  14  -0.22641    -0.02701    -0.04336     0.06649    -0.03503    -0.01627
 PZ  C  14  -0.13875     0.08027    -0.14765    -0.03226    -0.01324    -0.07374
  
  S  C  15  -0.13727     0.07156     0.03447     0.05868    -0.01338    -0.08512
 PX  C  15  -0.01912    -0.02087    -0.15617    -0.07103    -0.01987     0.04872
 PY  C  15  -0.08516    -0.12706     0.07319     0.05253     0.00894     0.12426
 PZ  C  15  -0.02532    -0.03233     0.17919     0.08605    -0.06426     0.02533
  
  S  C  16   0.05687    -0.05207     0.11259    -0.01954     0.02511     0.09845
 PX  C  16  -0.06108     0.11779     0.00824     0.00261    -0.08949    -0.10977
 PY  C  16   0.15830     0.10503    -0.07369    -0.11640     0.08559    -0.05186
 PZ  C  16   0.14277    -0.05906    -0.08423    -0.07365    -0.07464     0.07431
  
  S  N  17   0.01468    -0.14485    -0.06866     0.01078     0.02309     0.00241
 PX  N  17   0.05078     0.02535    -0.03252    -0.12205    -0.21974     0.14393
 PY  N  17  -0.22547     0.14842     0.10010    -0.01090     0.02738     0.06470
 PZ  N  17  -0.15535     0.02638    -0.01248     0.09872    -0.20978    -0.17547
  
  S  C  18   0.00514     0.08760    -0.05813     0.01083     0.03439    -0.12618
 PX  C  18   0.01315    -0.11268    -0.08482     0.05373    -0.20338    -0.12642
 PY  C  18  -0.05438    -0.02026     0.07507     0.08362     0.22243    -0.05017
 PZ  C  18  -0.04724     0.07518     0.01174    -0.05696    -0.15768     0.03314
  
  S  C  19  -0.03644     0.11666     0.02871    -0.07422     0.00608     0.12128
 PX  C  19  -0.00407     0.16199    -0.01473    -0.08053    -0.12782     0.09527
 PY  C  19   0.04077     0.02865    -0.11310    -0.04206    -0.27738    -0.08974
 PZ  C  19  -0.03878    -0.05795     0.05059     0.03500     0.12884     0.00943
  
  S  C  20   0.02334    -0.13995    -0.02949     0.07906     0.01300    -0.12118
 PX  C  20  -0.06211     0.00364     0.08870     0.03469     0.31828     0.01759
 PY  C  20  -0.02400    -0.03431     0.06053    -0.02465    -0.01323     0.12511
 PZ  C  20   0.02339     0.01784    -0.05904    -0.00416    -0.11799    -0.06636
  
  S  C  21  -0.00188     0.12294     0.02578    -0.07035    -0.02957     0.12330
 PX  C  21   0.04311    -0.22359    -0.05430     0.07975    -0.19752    -0.11703
 PY  C  21  -0.06105    -0.09323     0.10502     0.08576     0.25876    -0.02714
 PZ  C  21   0.00949     0.11950    -0.02897    -0.06895    -0.07290     0.04824
  
  S  C  22  -0.01987    -0.12140    -0.00749     0.08434     0.04225    -0.12312
 PX  C  22   0.03020    -0.07427    -0.00349    -0.02025    -0.15254     0.09596
 PY  C  22   0.04880    -0.05299    -0.11940    -0.00491    -0.25238    -0.09688
 PZ  C  22  -0.04256     0.05312     0.06821     0.00750     0.14576     0.00690
  
  S  C  23   0.03716     0.08901    -0.01485    -0.06875    -0.04961     0.11341
 PX  C  23  -0.05717     0.15740     0.10280    -0.00388     0.30105     0.00907
 PY  C  23   0.00496     0.11712     0.02239    -0.07694    -0.04887     0.12177
 PZ  C  23  -0.00821    -0.10069    -0.01801     0.03628    -0.13139    -0.07816
  
  S  C  24  -0.07110    -0.03329     0.12009    -0.15392    -0.03918    -0.10728
 PX  C  24   0.02649     0.02010     0.05512    -0.11481    -0.01385    -0.12140
 PY  C  24  -0.08119    -0.22269    -0.16401    -0.14588     0.10978     0.01150
 PZ  C  24  -0.02868    -0.02465     0.00078     0.01197    -0.01580     0.04910
  
  S  O  25   0.06903     0.05415    -0.14430     0.30398     0.02550     0.21454
 PX  O  25   0.06233     0.07678    -0.14675     0.37877     0.01936     0.29030
 PY  O  25  -0.01752    -0.10546    -0.11478    -0.05637     0.07333     0.02370
 PZ  O  25  -0.01440    -0.01492     0.00657    -0.00983    -0.01067     0.01848
  
  S  O  26   0.03338     0.07190    -0.00126     0.16574    -0.02648     0.10940
 PX  O  26  -0.08111    -0.17744    -0.03153    -0.33360     0.07671    -0.15394
 PY  O  26   0.14501     0.21132     0.12145     0.00057    -0.06163    -0.14102
 PZ  O  26   0.00031     0.01502     0.01823     0.02484    -0.02464     0.03453
  
  S  H  27  -0.00072     0.01615    -0.19110     0.19683     0.05884     0.02888
  
  S  H  28  -0.25749     0.06010    -0.07381     0.03057    -0.04889     0.05074
  
  S  H  29   0.00852     0.03714     0.06972    -0.04949    -0.03817    -0.05475
  
  S  H  30  -0.10543     0.02907     0.01490    -0.05840    -0.04573     0.08725
  
  S  H  31   0.10781    -0.00056    -0.02053    -0.05937     0.03091     0.12108
  
  S  H  32  -0.05163     0.06845     0.22174     0.10832    -0.00918    -0.13524
  
  S  H  33   0.27323    -0.04572     0.04392    -0.06736     0.03689     0.08569
  
  S  H  34  -0.02399     0.11557     0.09174     0.05167    -0.01610    -0.13012
  
  S  H  35  -0.03248     0.16134     0.04393    -0.08017    -0.01086     0.16090
  
  S  H  36   0.02692    -0.04381    -0.06332     0.06190     0.02277    -0.17261
  
  S  H  37   0.00109     0.26301    -0.00654    -0.14118    -0.02854     0.16236
  
  S  H  38  -0.01859    -0.02548    -0.03406     0.05663     0.05852    -0.16564
  
  S  H  39   0.03159     0.12856     0.00703    -0.10133    -0.06190     0.17354
  
  S  H  40   0.07361     0.09551     0.05874    -0.04609    -0.02098    -0.10201




    ROOT NO.   31          32          33          34          35          36

           -16.75898   -16.48608   -16.41292   -15.93857   -15.81249   -15.48615
  
  
  S  N   1   0.17881    -0.09311    -0.01473    -0.01082    -0.06168    -0.06020
 PX  N   1  -0.14132     0.07868     0.01375     0.01073     0.06121     0.06119
 PY  N   1  -0.01034     0.04293     0.00027    -0.01241     0.01893     0.00799
 PZ  N   1  -0.02447     0.03970    -0.03949     0.11522    -0.02464    -0.00559
  
  S  C   2  -0.18521     0.09078     0.02122     0.01646     0.06819     0.05066
 PX  C   2  -0.08171     0.03286     0.00984     0.00699     0.01947     0.00464
 PY  C   2  -0.02233     0.06433    -0.00318    -0.02032     0.01533     0.00889
 PZ  C   2  -0.03345     0.06054    -0.05786     0.16775    -0.03030    -0.00512
  
  S  C   3   0.04358    -0.04842     0.00955     0.02254     0.01541    -0.01438
 PX  C   3   0.19458    -0.10807    -0.01429    -0.00289    -0.04511    -0.03499
 PY  C   3  -0.09607     0.16632    -0.05376    -0.06280    -0.07802    -0.00107
 PZ  C   3  -0.03254     0.10065    -0.08329     0.26340    -0.02220     0.00482
  
  S  C   4  -0.01013     0.00295     0.02523     0.00316     0.03440     0.00928
 PX  C   4  -0.28005     0.10563     0.04187     0.03230     0.14594     0.10753
 PY  C   4   0.08994    -0.22189     0.07635     0.07025     0.14641     0.03863
 PZ  C   4  -0.01007     0.08587    -0.06295     0.12899     0.02444     0.00653
  
  S  C   5   0.12347     0.09411     0.00108    -0.02761    -0.00067    -0.01665
 PX  C   5  -0.06612     0.11107    -0.00991     0.01291    -0.01770    -0.08646
 PY  C   5   0.00600     0.06183    -0.07847    -0.07813    -0.19400    -0.03902
 PZ  C   5  -0.07557     0.07135    -0.07668     0.01181     0.06517     0.04713
  
  S  C   6  -0.10258    -0.10041     0.01998    -0.02304     0.01498     0.03896
 PX  C   6   0.05069     0.07810    -0.04970     0.02026     0.10758     0.01938
 PY  C   6   0.01278     0.10728    -0.09707    -0.01875    -0.08258    -0.03025
 PZ  C   6  -0.10591     0.04765    -0.02944    -0.01096    -0.03403    -0.10133
  
  S  C   7   0.08312     0.03647    -0.01163     0.01554    -0.01623    -0.01096
 PX  C   7  -0.21490    -0.20340     0.00071     0.02021     0.02765     0.00658
 PY  C   7  -0.04274    -0.12445     0.13065    -0.01973     0.02593     0.04463
 PZ  C   7   0.18491     0.18351     0.02817    -0.00922     0.14540    -0.10556
  
  S  C   8  -0.15388    -0.06780    -0.04930    -0.02431    -0.12966    -0.03679
 PX  C   8   0.01076     0.07455    -0.04244    -0.01466     0.06324    -0.13131
 PY  C   8  -0.03357     0.02420    -0.09670     0.00964    -0.18805     0.03901
 PZ  C   8  -0.03896    -0.06466    -0.04909     0.04913     0.13046    -0.01932
  
  S  C   9   0.06814     0.17080    -0.00109    -0.05431    -0.00997    -0.02462
 PX  C   9   0.04432     0.03399     0.02343     0.03101     0.21742    -0.00847
 PY  C   9   0.03841     0.06564     0.02123     0.03126     0.05143     0.00671
 PZ  C   9  -0.06486     0.02378    -0.04805     0.01994     0.06380    -0.12788
  
  S  C  10   0.01074    -0.08469    -0.00330     0.05210     0.01756    -0.00017
 PX  C  10  -0.16889    -0.15524    -0.09778     0.02030    -0.06623     0.01076
 PY  C  10  -0.03439    -0.16174     0.01575     0.00047    -0.12000     0.00524
 PZ  C  10   0.07495     0.14860     0.07197     0.02187     0.17278    -0.07217
  
  S  C  11   0.00459    -0.09878     0.10591     0.06443     0.02046     0.04469
 PX  C  11  -0.08295     0.05165     0.13000    -0.00836     0.01510    -0.15024
 PY  C  11   0.00672     0.10374     0.04835    -0.09824    -0.12487     0.01475
 PZ  C  11   0.07073    -0.00273    -0.12653    -0.01397     0.17606     0.01483
  
  S  C  12  -0.00767     0.05202    -0.02729    -0.00939    -0.03142    -0.05154
 PX  C  12   0.01827     0.03382    -0.24583    -0.07875     0.16060     0.00850
 PY  C  12  -0.13392    -0.02641    -0.16331    -0.11749     0.06664     0.01078
 PZ  C  12  -0.09129    -0.04934     0.15680     0.03488     0.01517    -0.08761
  
  S  C  13   0.02056    -0.01424     0.10294     0.01998    -0.03964     0.00156
 PX  C  13   0.04115    -0.12153    -0.05790     0.05961     0.19195     0.09601
 PY  C  13   0.14918     0.02790    -0.00673     0.08735    -0.02415     0.06525
 PZ  C  13   0.02848     0.13201     0.05013    -0.00814    -0.10082    -0.12551
  
  S  C  14  -0.00285     0.06694    -0.08409    -0.03738    -0.01118    -0.01719
 PX  C  14  -0.11289     0.00551     0.09590    -0.02535    -0.04498    -0.14547
 PY  C  14  -0.01515     0.09369     0.09703    -0.09245    -0.13724    -0.03784
 PZ  C  14   0.09929     0.03865    -0.04920    -0.01654     0.08399     0.05812
  
  S  C  15   0.00758    -0.02312     0.04209    -0.01328     0.00574     0.01606
 PX  C  15   0.05392     0.07661    -0.19525    -0.06746     0.15785     0.04120
 PY  C  15  -0.10011     0.05370    -0.22597    -0.13774     0.06278     0.02985
 PZ  C  15  -0.11306    -0.05438     0.07840     0.00302     0.03739    -0.12556
  
  S  C  16  -0.02906    -0.02434    -0.16842    -0.00756     0.10376     0.01977
 PX  C  16   0.02072    -0.13421    -0.04548     0.05045     0.23556     0.01509
 PY  C  16   0.11536    -0.06238     0.04566     0.12276    -0.05968     0.08375
 PZ  C  16   0.03355     0.08522     0.05518     0.02863     0.02294    -0.13031
  
  S  N  17   0.02452     0.03740     0.10188     0.00435     0.03457     0.02191
 PX  N  17   0.00027     0.00465    -0.02096     0.01165     0.11667    -0.14125
 PY  N  17  -0.06942    -0.10316     0.06755    -0.02296     0.01705     0.01750
 PZ  N  17  -0.00627    -0.10723     0.01288    -0.00895     0.25540     0.00721
  
  S  C  18   0.01785    -0.08184    -0.15996     0.01145    -0.04501    -0.05484
 PX  C  18   0.06245     0.01865     0.04847    -0.01958     0.03354     0.21354
 PY  C  18  -0.00079     0.02310     0.04501     0.01416     0.16950    -0.09982
 PZ  C  18   0.02415    -0.04467    -0.08043    -0.00889     0.11786    -0.01503
  
  S  C  19  -0.01361     0.02919     0.02767    -0.01801    -0.00672     0.09105
 PX  C  19  -0.04940    -0.02277     0.11533     0.00742     0.10553    -0.20186
 PY  C  19   0.04171    -0.08803    -0.15571    -0.00824    -0.06034     0.04368
 PZ  C  19   0.02424     0.04819    -0.01521    -0.01352     0.12318     0.06251
  
  S  C  20   0.03117    -0.00855    -0.04818     0.00250    -0.01966     0.04637
 PX  C  20   0.00183     0.02984    -0.09606     0.00285     0.04232    -0.06855
 PY  C  20   0.01713     0.11363     0.13333    -0.03552     0.02425     0.34173
 PZ  C  20   0.00832    -0.06144    -0.06029     0.00723     0.05259    -0.13003
  
  S  C  21  -0.02170     0.04530     0.09397    -0.00868     0.03204     0.04298
 PX  C  21   0.04444     0.01644     0.08725    -0.00843    -0.00472     0.17396
 PY  C  21   0.01952     0.07027     0.03929     0.01055     0.09674    -0.08790
 PZ  C  21  -0.00695    -0.03368    -0.06635    -0.00737     0.01595    -0.01246
  
  S  C  22   0.02062    -0.02776    -0.03235     0.00979    -0.00407    -0.05564
 PX  C  22  -0.04051     0.03590     0.19717     0.00492     0.12376    -0.18414
 PY  C  22   0.01668    -0.09524    -0.09717    -0.00598    -0.06199     0.04577
 PZ  C  22   0.03284     0.04289    -0.03880    -0.00263     0.06059     0.03673
  
  S  C  23  -0.04830     0.00666     0.05634    -0.00028     0.04248    -0.06039
 PX  C  23   0.00161    -0.01145    -0.13518     0.01642     0.02761    -0.11715
 PY  C  23   0.03288     0.10449     0.05512    -0.03260     0.02854     0.31868
 PZ  C  23   0.03642    -0.02935    -0.01356     0.00590     0.09188    -0.12221
  
  S  C  24  -0.06099     0.08235    -0.03174    -0.02662    -0.05640    -0.01387
 PX  C  24  -0.12517     0.10549    -0.02032     0.00255    -0.03297    -0.00155
 PY  C  24  -0.04002    -0.09118     0.06909     0.01798     0.11326     0.02980
 PZ  C  24  -0.01188     0.07538    -0.08199     0.46762    -0.03218     0.01779
  
  S  O  25   0.18645    -0.14067     0.02302     0.02137     0.03364    -0.00025
 PX  O  25   0.26724    -0.19996     0.02704     0.04698     0.04896     0.00283
 PY  O  25  -0.00136    -0.09143     0.05958     0.02767     0.11372     0.02203
 PZ  O  25  -0.02257     0.06811    -0.06504     0.39264    -0.02971     0.01577
  
  S  O  26   0.13013    -0.03971    -0.02388    -0.02592    -0.07252    -0.02651
 PX  O  26  -0.19752     0.00101     0.06548     0.09523     0.17677     0.06048
 PY  O  26  -0.13387     0.12831    -0.02029    -0.04569    -0.01042     0.00330
 PZ  O  26  -0.01289     0.09390    -0.09542     0.55293    -0.06152     0.01860
  
  S  H  27  -0.23023     0.06877     0.04834     0.02687     0.14075     0.09768
  
  S  H  28  -0.12178     0.01941    -0.05021    -0.01815    -0.08448    -0.06307
  
  S  H  29   0.28324     0.27138    -0.01676    -0.00431     0.06227    -0.07176
  
  S  H  30  -0.15466    -0.25247    -0.10069     0.02494    -0.14256     0.05069
  
  S  H  31  -0.05440     0.03680    -0.28842    -0.12952     0.10642     0.00934
  
  S  H  32  -0.01097    -0.16205    -0.01081     0.03322     0.15780     0.12640
  
  S  H  33  -0.02925    -0.05250    -0.09460     0.05964     0.06623    -0.00341
  
  S  H  34   0.00458    -0.09737     0.29184     0.11630    -0.12318    -0.06933
  
  S  H  35  -0.06199     0.02388     0.16822     0.00331     0.09745    -0.14421
  
  S  H  36   0.00525    -0.10707    -0.15896     0.03233    -0.00504    -0.30753
  
  S  H  37  -0.04893    -0.03021    -0.05036    -0.00644    -0.01605    -0.05889
  
  S  H  38   0.05030    -0.07069    -0.20474    -0.00152    -0.11753     0.14121
  
  S  H  39  -0.00428     0.10273     0.09793    -0.03093     0.00122     0.28788
  
  S  H  40  -0.11207     0.07328     0.00006     0.00828     0.03164     0.01605




    ROOT NO.   37          38          39          40          41          42

           -15.38554   -15.25828   -14.94201   -14.71294   -14.42335   -13.62622
  
  
  S  N   1  -0.03715     0.07748     0.01211     0.14620     0.22578    -0.36081
 PX  N   1   0.04248    -0.07765    -0.00427    -0.16734    -0.27212     0.49730
 PY  N   1   0.04636     0.01020     0.07463     0.00027     0.03860    -0.12821
 PZ  N   1  -0.02201    -0.02227    -0.07614     0.00336     0.05608     0.05058
  
  S  C   2   0.03301    -0.05301     0.01324    -0.08443    -0.10995     0.07724
 PX  C   2   0.00032     0.00362     0.01179     0.03644     0.08501    -0.25772
 PY  C   2   0.05146     0.00909     0.07258    -0.00072     0.04887    -0.12341
 PZ  C   2  -0.02319    -0.02562    -0.08340     0.00196     0.06488     0.04846
  
  S  C   3  -0.03531     0.01486     0.02530     0.04853     0.10229    -0.01857
 PX  C   3  -0.03765     0.02768    -0.01154     0.02580     0.00709     0.19478
 PY  C   3   0.04831     0.00943    -0.00739    -0.00453     0.16839    -0.00373
 PZ  C   3   0.00026    -0.00589    -0.02160    -0.00663     0.05849     0.00957
  
  S  C   4   0.00908    -0.00813     0.00893    -0.01464    -0.04682    -0.04951
 PX  C   4   0.03062    -0.14213     0.02132    -0.14907     0.04195    -0.01278
 PY  C   4  -0.08371    -0.07645     0.03163    -0.04842    -0.06182     0.14210
 PZ  C   4   0.07826    -0.06126     0.00826    -0.01651     0.05277    -0.01810
  
  S  C   5  -0.02017     0.02611     0.06319    -0.01973     0.02221     0.03227
 PX  C   5  -0.08673     0.01414    -0.09154     0.15215     0.05013    -0.10217
 PY  C   5   0.10886     0.11761    -0.03610     0.05011    -0.01740    -0.09926
 PZ  C   5   0.27849    -0.08405     0.12626    -0.02604     0.05985    -0.06285
  
  S  C   6   0.00936     0.01048     0.02777    -0.00413    -0.00552    -0.00973
 PX  C   6   0.18372    -0.10149     0.12432    -0.03732     0.05889     0.01330
 PY  C   6  -0.02003    -0.15567    -0.23065    -0.05568     0.07913     0.14661
 PZ  C   6  -0.11234    -0.04737    -0.19819     0.15470     0.05391    -0.06637
  
  S  C   7   0.07327     0.02656     0.06271    -0.02345    -0.00254    -0.00918
 PX  C   7   0.10734     0.07964     0.05216     0.15473    -0.02678    -0.10010
 PY  C   7  -0.13318     0.15877     0.13933     0.00959    -0.09559    -0.10609
 PZ  C   7  -0.10258    -0.06787     0.06334     0.03274    -0.00542    -0.02680
  
  S  C   8  -0.04018    -0.00563    -0.07690     0.04597     0.02721     0.02082
 PX  C   8  -0.03352     0.03271    -0.05002     0.24369    -0.00935     0.03046
 PY  C   8   0.14481     0.07162    -0.16188     0.02002     0.07401     0.08075
 PZ  C   8   0.20354    -0.06118     0.03685     0.10074    -0.01309    -0.01529
  
  S  C   9  -0.02015     0.03381    -0.01545     0.00899     0.01098    -0.02457
 PX  C   9   0.14544    -0.08568     0.13299     0.06317    -0.04839    -0.06991
 PY  C   9  -0.03930    -0.18709    -0.11414    -0.16089    -0.03781    -0.14261
 PZ  C   9  -0.04426    -0.07711    -0.12149     0.23930    -0.01842     0.00220
  
  S  C  10   0.00110    -0.05746    -0.04326    -0.00671    -0.00763     0.00991
 PX  C  10   0.23333     0.06319     0.07433     0.15294     0.04336     0.03443
 PY  C  10  -0.13147     0.15120    -0.01029     0.05480     0.02984     0.16613
 PZ  C  10  -0.18238    -0.07844    -0.02606     0.08515     0.00395    -0.01441
  
  S  C  11   0.01956    -0.01311    -0.03955     0.00026    -0.00139     0.00272
 PX  C  11  -0.05311    -0.07612     0.09242     0.22575    -0.06816     0.01057
 PY  C  11  -0.03537     0.14706     0.21789    -0.06621     0.03666     0.03035
 PZ  C  11   0.12986     0.11135     0.05783     0.15147    -0.01843     0.10599
  
  S  C  12  -0.03121    -0.03854    -0.02757     0.01930     0.00165     0.00148
 PX  C  12   0.00178     0.13271     0.04537     0.08933    -0.01275     0.10646
 PY  C  12  -0.26856     0.11259     0.07264    -0.06481     0.00111     0.02095
 PZ  C  12  -0.07919    -0.09492     0.01445     0.15067    -0.06387     0.00135
  
  S  C  13   0.04219    -0.00302     0.06561     0.00842    -0.00274     0.01381
 PX  C  13   0.06053    -0.00279    -0.12759     0.04240    -0.04028    -0.04849
 PY  C  13   0.22843    -0.06873    -0.15466    -0.06871     0.03465    -0.08558
 PZ  C  13   0.09047    -0.03550     0.06606     0.12975    -0.00731     0.10274
  
  S  C  14   0.00859     0.03674     0.01797    -0.00362     0.01311     0.02335
 PX  C  14  -0.12242    -0.05318     0.06349     0.14091    -0.03503     0.10177
 PY  C  14  -0.06085     0.12838     0.31009    -0.01792     0.01320     0.09312
 PZ  C  14   0.12558     0.12558     0.10600     0.04588    -0.02374     0.04849
  
  S  C  15  -0.04203     0.02424     0.08215     0.01096    -0.01426     0.00366
 PX  C  15   0.08371     0.16312     0.04061     0.04419    -0.01943     0.02888
 PY  C  15  -0.18319     0.10684    -0.02904    -0.07756     0.02373    -0.07226
 PZ  C  15  -0.12935    -0.08738    -0.04463     0.14947    -0.04700     0.04635
  
  S  C  16   0.00062    -0.03685    -0.08888    -0.02693    -0.00213    -0.02718
 PX  C  16   0.02630     0.02494    -0.11500     0.13389    -0.05250     0.04535
 PY  C  16   0.19295    -0.07372    -0.07523    -0.10743     0.03369     0.00563
 PZ  C  16   0.14751    -0.06495     0.10989     0.18615    -0.05223     0.07954
  
  S  N  17   0.01369     0.02231     0.05271    -0.01118    -0.02684    -0.05941
 PX  N  17   0.04104    -0.15164     0.16539     0.09042    -0.08011     0.00773
 PY  N  17  -0.20225    -0.07756     0.11876    -0.15318    -0.03360    -0.08517
 PZ  N  17  -0.10006     0.09395    -0.06558     0.12879    -0.05714    -0.00498
  
  S  C  18  -0.01506    -0.07074     0.02494    -0.00402     0.00053     0.02418
 PX  C  18  -0.03966     0.12283    -0.12186     0.00923     0.02014     0.00256
 PY  C  18   0.05731     0.13932    -0.09036     0.03856    -0.00637    -0.01256
 PZ  C  18  -0.06944    -0.10248     0.08165    -0.07273    -0.05119    -0.04267
  
  S  C  19  -0.02128    -0.00234     0.01937    -0.02007    -0.00164    -0.03264
 PX  C  19   0.04955     0.21556    -0.11978    -0.20457     0.05355     0.03807
 PY  C  19  -0.08123    -0.13492     0.06841    -0.07812    -0.01145     0.01240
 PZ  C  19   0.00074     0.02710    -0.00322     0.04310    -0.03628    -0.06971
  
  S  C  20  -0.01124    -0.02592    -0.01101     0.05968    -0.00352     0.02306
 PX  C  20   0.03639    -0.08475     0.08985     0.08045    -0.04662    -0.07125
 PY  C  20  -0.05396     0.02100    -0.02240     0.12308    -0.02586    -0.06389
 PZ  C  20  -0.00228     0.03350    -0.02429    -0.12824     0.00821     0.00946
  
  S  C  21   0.01294     0.06405    -0.03185     0.01074     0.00517    -0.00013
 PX  C  21  -0.04389     0.09497    -0.12653     0.00696     0.03195     0.07298
 PY  C  21   0.07297     0.11210    -0.09830     0.05208     0.01394     0.08601
 PZ  C  21  -0.03542    -0.08087     0.08419    -0.06638    -0.03408    -0.10111
  
  S  C  22   0.00563     0.02812    -0.03548    -0.04376     0.01750     0.01841
 PX  C  22   0.07749     0.22398    -0.09175    -0.16056     0.02929    -0.05334
 PY  C  22  -0.08691    -0.11409     0.08571    -0.11430    -0.01866    -0.10753
 PZ  C  22  -0.00502    -0.02678    -0.01437     0.06026    -0.01891     0.03814
  
  S  C  23   0.03434     0.03801     0.01174     0.01014    -0.00958    -0.01933
 PX  C  23   0.01208    -0.12464     0.06693     0.06604    -0.02975     0.04278
 PY  C  23  -0.04328    -0.01590    -0.03300     0.17928    -0.02299     0.05380
 PZ  C  23  -0.01619     0.02988    -0.01137    -0.17505    -0.00171    -0.06692
  
  S  C  24   0.02043     0.02269    -0.01634     0.01177     0.02719     0.01946
 PX  C  24   0.03719     0.02461    -0.03063    -0.01277    -0.23927    -0.12426
 PY  C  24  -0.01769    -0.05006     0.01886    -0.02771    -0.08550    -0.03259
 PZ  C  24  -0.10160     0.12110     0.06736     0.00474    -0.02974    -0.00444
  
  S  O  25  -0.04023    -0.01381     0.02522     0.01217     0.14005     0.06374
 PX  O  25  -0.07347    -0.02556     0.04753     0.01557     0.31336     0.18586
 PY  O  25  -0.03867    -0.04335     0.06505     0.01465     0.17392    -0.02774
 PZ  O  25  -0.09176     0.11777     0.06776     0.00693    -0.04088    -0.01909
  
  S  O  26   0.01416     0.03602    -0.06239    -0.00227    -0.27162    -0.04666
 PX  O  26  -0.06220    -0.08249     0.13065    -0.00731     0.53023     0.16624
 PY  O  26   0.02753    -0.01039     0.02592     0.01466     0.20917    -0.00487
 PZ  O  26  -0.14301     0.19623     0.10477     0.01525    -0.09522    -0.03426
  
  S  H  27   0.03152    -0.12684     0.02121    -0.13661     0.00548    -0.02636
  
  S  H  28  -0.12921    -0.09217    -0.28767     0.07042     0.06233     0.04613
  
  S  H  29  -0.06185    -0.11275     0.00265    -0.08981     0.03126     0.07235
  
  S  H  30   0.21808     0.08747     0.04373     0.05858     0.02743     0.07767
  
  S  H  31  -0.15420     0.15368     0.05766    -0.02031     0.01174     0.07979
  
  S  H  32  -0.04474     0.03283    -0.05858    -0.04653    -0.02695    -0.08040
  
  S  H  33   0.00061    -0.13536    -0.28626    -0.00596     0.00580    -0.08884
  
  S  H  34   0.01522    -0.16378     0.02179     0.06215    -0.01894     0.04787
  
  S  H  35   0.05921     0.21470    -0.11055    -0.14194     0.04668     0.02022
  
  S  H  36   0.04319    -0.03133     0.01856    -0.10446     0.01542     0.05890
  
  S  H  37  -0.01185    -0.11462     0.14868    -0.05175    -0.04061    -0.13809
  
  S  H  38  -0.09276    -0.21248     0.08887     0.07183    -0.02476     0.01524
  
  S  H  39  -0.01680     0.01158    -0.02847     0.19210    -0.01618     0.05719
  
  S  H  40  -0.00127    -0.02000     0.04846     0.00698     0.24471     0.03187




    ROOT NO.   43          44          45          46          47          48

           -13.39701   -13.27330   -13.21861   -13.00512   -12.84340   -12.57031
  
  
  S  N   1   0.02890     0.05857    -0.09360    -0.18898    -0.02110    -0.00256
 PX  N   1  -0.04216    -0.08692     0.13529     0.30248     0.03756     0.00145
 PY  N   1  -0.02760    -0.02602    -0.09860     0.19317     0.02196    -0.05817
 PZ  N   1   0.45000     0.21578    -0.06857     0.09557     0.20372    -0.08784
  
  S  C   2   0.00028    -0.00484    -0.00467     0.00484    -0.00611    -0.00044
 PX  C   2   0.02655     0.05196    -0.08908    -0.19118    -0.02746    -0.00165
 PY  C   2  -0.02855    -0.02318    -0.08130     0.16101     0.02423    -0.04886
 PZ  C   2   0.45726     0.21537    -0.07586     0.09825     0.19221    -0.08122
  
  S  C   3   0.02402     0.00462    -0.01738     0.02274    -0.02750     0.01204
 PX  C   3  -0.00864    -0.03888     0.07221     0.16557     0.01020     0.00845
 PY  C   3  -0.09938    -0.02225     0.09640    -0.02928     0.09606    -0.02525
 PZ  C   3   0.25851     0.11148    -0.08017     0.09096     0.08682    -0.03749
  
  S  C   4  -0.00441    -0.00720    -0.00135     0.04541     0.03831    -0.01873
 PX  C   4  -0.00555     0.04144    -0.05403    -0.24311    -0.02802    -0.00435
 PY  C   4   0.08060     0.02111    -0.09225    -0.06124    -0.15754     0.04772
 PZ  C   4   0.13522     0.03702    -0.09938     0.09741    -0.00650     0.00156
  
  S  C   5  -0.00066    -0.01570     0.00066     0.01786     0.02156    -0.01169
 PX  C   5   0.08479    -0.04148     0.04561     0.16979    -0.09131     0.08457
 PY  C   5  -0.11719    -0.02110     0.10298     0.10074     0.20705    -0.08088
 PZ  C   5  -0.05092    -0.02649    -0.15486     0.09941    -0.08346     0.01736
  
  S  C   6  -0.05189     0.00323    -0.01043    -0.01755    -0.00097    -0.01403
 PX  C   6  -0.00699    -0.03410    -0.14786     0.06987    -0.18316     0.05390
 PY  C   6  -0.01853    -0.01038     0.09023    -0.22089    -0.08592     0.06212
 PZ  C   6   0.03223    -0.06478     0.08691     0.11107    -0.18828     0.11917
  
  S  C   7   0.02759    -0.01698    -0.00748     0.02033     0.03125     0.00140
 PX  C   7   0.02674    -0.00190     0.04160     0.16006    -0.10341     0.05366
 PY  C   7  -0.02837     0.03525    -0.05318     0.10208     0.20791    -0.12675
 PZ  C   7  -0.00560    -0.07081    -0.13565     0.15426    -0.12735     0.00349
  
  S  C   8  -0.00945    -0.01394     0.02905    -0.00993    -0.02325    -0.00435
 PX  C   8  -0.02235     0.02680    -0.03635     0.14731    -0.16587     0.01588
 PY  C   8   0.01387     0.07449     0.10725    -0.08445    -0.02169     0.09706
 PZ  C   8   0.05134    -0.03092     0.08588     0.01100    -0.13978     0.06345
  
  S  C   9  -0.04992    -0.01127     0.01058     0.03521     0.05053    -0.02157
 PX  C   9   0.04099    -0.09084     0.01227     0.01988    -0.01251     0.05086
 PY  C   9  -0.03761    -0.05148     0.03687    -0.02878     0.09021    -0.04867
 PZ  C   9  -0.00389    -0.02761    -0.04623     0.09593    -0.11712     0.06290
  
  S  C  10   0.02989    -0.00686    -0.01804    -0.00686    -0.03405     0.01583
 PX  C  10  -0.01348     0.01897    -0.11308     0.12007    -0.12139     0.05190
 PY  C  10   0.06045     0.08407     0.01345    -0.05781    -0.05936     0.01377
 PZ  C  10   0.11833    -0.05221     0.00715     0.03420    -0.14936     0.10662
  
  S  C  11   0.04847    -0.00510     0.05094    -0.02605    -0.02909     0.01992
 PX  C  11   0.02688    -0.02563     0.12248    -0.06753     0.10921     0.02653
 PY  C  11   0.01404     0.06042     0.05221     0.01695    -0.01817    -0.02458
 PZ  C  11  -0.00288    -0.03619    -0.08200    -0.06357     0.10388     0.04350
  
  S  C  12  -0.04015     0.01325    -0.03059     0.02229     0.01642    -0.01269
 PX  C  12   0.00342    -0.03833    -0.10309    -0.09352     0.12722     0.05465
[...]
    Config     630   0.04410283  0.00194506
    Config     634  -0.04628027  0.00214186
    Config     641   0.07538686  0.00568318
    Config     644  -0.06568623  0.00431468
    Config     662   0.07544862  0.00569249
    Config     667  -0.06193655  0.00383614
    Config     668   0.04861705  0.00236362
    Config     676  -0.04397317  0.00193364
    Config     688  -0.04932532  0.00243299
    Config     692   0.04359512  0.00190053
    Config     701  -0.04903037  0.00240398
    Config     707  -0.05280337  0.00278820
    Config     714  -0.04899482  0.00240049
    Config     720   0.04580482  0.00209808
    Config     723   0.04071997  0.00165812
    Config     729  -0.04847805  0.00235012
    Config     731  -0.05297108  0.00280594
    Config     746  -0.04128747  0.00170466
    Config     748  -0.04423286  0.00195655
    Config     750  -0.04031359  0.00162519
    Config     805  -0.04653501  0.00216551
    Config     837  -0.04516804  0.00204015
    Config     871   0.04300994  0.00184985
    Config     966   0.05469766  0.00299183
 Total coeff printed             0.80503028
  
State  500 12.7375     CI coeff  CI percent
    Config     236  -0.04266450  0.00182026
    Config     247   0.04071012  0.00165731
    Config     258  -0.05864124  0.00343879
    Config     293  -0.06262755  0.00392221
    Config     303  -0.04557680  0.00207724
    Config     306   0.05242884  0.00274878
    Config     323   0.06919380  0.00478778
    Config     337  -0.04042995  0.00163458
    Config     354  -0.11625610  0.01351548
    Config     357  -0.04500773  0.00202570
    Config     358  -0.05710159  0.00326059
    Config     359   0.11526869  0.01328687
    Config     360  -0.04223437  0.00178374
    Config     364   0.09967523  0.00993515
    Config     368  -0.06718834  0.00451427
    Config     370   0.04592446  0.00210906
    Config     372  -0.07795564  0.00607708
    Config     378  -0.06738050  0.00454013
    Config     382  -0.04496414  0.00202177
    Config     384   0.11308904  0.01278913
    Config     385   0.04862978  0.00236486
    Config     390   0.09454248  0.00893828
    Config     393   0.06718038  0.00451320
    Config     400  -0.04567298  0.00208602
    Config     405   0.04362836  0.00190343
    Config     407   0.07242412  0.00524525
    Config     408   0.08508601  0.00723963
    Config     410  -0.10390563  0.01079638
    Config     412   0.05262011  0.00276888
    Config     413  -0.08350491  0.00697307
    Config     414   0.05379579  0.00289399
    Config     415   0.05985521  0.00358265
    Config     417  -0.06021029  0.00362528
    Config     421  -0.05782396  0.00334361
    Config     423   0.04618104  0.00213269
    Config     429   0.11964103  0.01431398
    Config     431  -0.04294593  0.00184435
    Config     434   0.17499932  0.03062476
    Config     436  -0.04412189  0.00194674
    Config     437   0.09700176  0.00940934
    Config     438  -0.06850676  0.00469318
    Config     442   0.05958920  0.00355087
    Config     443   0.07697118  0.00592456
    Config     446  -0.08153734  0.00664834
    Config     452  -0.07906155  0.00625073
    Config     454   0.18595145  0.03457794
    Config     456  -0.18973721  0.03600021
    Config     458  -0.10374284  0.01076258
    Config     459  -0.12862952  0.01654555
    Config     461  -0.09045704  0.00818248
    Config     462  -0.18719912  0.03504351
    Config     463   0.04167466  0.00173678
    Config     467   0.04813178  0.00231667
    Config     471  -0.05106536  0.00260767
    Config     472  -0.06137039  0.00376633
    Config     473   0.05228953  0.00273419
    Config     475   0.04773398  0.00227853
    Config     476   0.04571014  0.00208942
    Config     477   0.11067713  0.01224943
    Config     479  -0.09077891  0.00824081
    Config     485  -0.04718001  0.00222595
    Config     487  -0.04267491  0.00182115
    Config     488  -0.06180846  0.00382029
    Config     493  -0.23203365  0.05383961
    Config     494   0.04199028  0.00176318
    Config     495   0.06049370  0.00365949
    Config     496  -0.05470902  0.00299308
    Config     497  -0.05401129  0.00291722
    Config     499  -0.08553395  0.00731606
    Config     501   0.20411020  0.04166098
    Config     504   0.08550220  0.00731063
    Config     507  -0.05978883  0.00357470
    Config     513  -0.04808092  0.00231177
    Config     514   0.10480987  0.01098511
    Config     516  -0.10287572  0.01058341
    Config     517   0.06907325  0.00477111
    Config     523   0.06121561  0.00374735
    Config     532   0.04416409  0.00195047
    Config     535   0.06575946  0.00432431
    Config     536  -0.05561827  0.00309339
    Config     537   0.06929829  0.00480225
    Config     540   0.06830827  0.00466602
    Config     546   0.04160053  0.00173060
    Config     550  -0.04184996  0.00175142
    Config     552   0.05495281  0.00301981
    Config     558   0.11852450  0.01404806
    Config     559   0.04398308  0.00193451
    Config     563  -0.07903191  0.00624604
    Config     564   0.11352886  0.01288880
    Config     566   0.04350947  0.00189307
    Config     567  -0.07490523  0.00561079
    Config     569  -0.07823650  0.00612095
    Config     572   0.11045565  0.01220045
    Config     573  -0.07435929  0.00552930
    Config     577   0.04848399  0.00235070
    Config     580  -0.09907220  0.00981530
    Config     593  -0.04654401  0.00216634
    Config     597   0.04632081  0.00214562
    Config     599   0.07504089  0.00563113
    Config     608  -0.04587080  0.00210413
    Config     614   0.04956532  0.00245672
    Config     616   0.05491267  0.00301540
    Config     617  -0.04150171  0.00172239
    Config     619   0.14439284  0.02084929
    Config     626  -0.05005089  0.00250509
    Config     633   0.04099662  0.00168072
    Config     634   0.06891394  0.00474913
    Config     645  -0.10410073  0.01083696
    Config     647   0.06029125  0.00363503
    Config     649   0.04384648  0.00192251
    Config     653   0.06666151  0.00444376
    Config     657  -0.06027191  0.00363270
    Config     667   0.05381537  0.00289609
    Config     680   0.06830343  0.00466536
    Config     710   0.04392762  0.00192964
    Config     760   0.07381385  0.00544848
    Config     773  -0.04246934  0.00180364
    Config     883   0.04712822  0.00222107
    Config     923  -0.05294720  0.00280341
    Config     945  -0.04299455  0.00184853
    Config     985  -0.04544464  0.00206521
 Total coeff printed             0.79914784
  

 -------------------------------------------------------------------------------
 INDO CIS EPS=37.5 N**2=1.34
 Dye6
 Calculo de Estados Excitados


     1SCF WAS SPECIFIED, SO BFGS WAS NOT USED                 
     SCF FIELD WAS ACHIEVED                                   


                              INDO CALCULATION
                                                       MOPAC2016 (Version: 21.013L)
                                                       Thu Oct 21 09:34:38 2021
                                                       No. of days remaining =  84




          FINAL HEAT OF FORMATION =    -103828.24674 KCAL/MOL = -434417.38437 KJ/MOL
          VAN DER WAALS AREA      =        352.07 SQUARE ANGSTROMS


          TOTAL ENERGY            =      -4712.05031 EV
          ELECTRONIC ENERGY       =      -4082.89215 EV  POINT GROUP:     C1  
          CORE-CORE REPULSION     =       -629.15816 EV

          DIELECTRIC ENERGY       =         -0.47686 EV
          COSMO AREA              =        352.07 SQUARE ANGSTROMS
          COSMO VOLUME            =        392.29 CUBIC ANGSTROMS

          IONIZATION POTENTIAL    =          7.431524 EV
          HOMO LUMO ENERGIES (EV) =         -7.432 -0.816
          NO. OF FILLED LEVELS    =         62
          MOLECULAR WEIGHT        =        338.3648

          MOLECULAR DIMENSIONS (Angstroms)

            Atom       Atom       Distance
            H    40    H    36    13.62421
            H    32    H    38     9.23909
            O    25    H    33     3.37088


          SCF CALCULATIONS        =          2
 
          WALL-CLOCK TIME         =  4 MINUTES AND  9.488 SECONDS
          COMPUTATION TIME        =  4 MINUTES AND 15.747 SECONDS




   ATOM   CHEMICAL          X               Y               Z
  NUMBER   SYMBOL      (ANGSTROMS)     (ANGSTROMS)     (ANGSTROMS)
 
     1       N          0.00000000  *   0.00000000  *   0.00000000  *
     2       C          1.15637783  *   0.00000000  *   0.00000000  *
     3       C          2.57419701  *   0.01603884  *   0.00000000  *
     4       C          3.31536449  *  -1.10492276  *  -0.07666719  *
     5       C          2.73899618  *  -2.43675051  *  -0.10933814  *
     6       C          1.72043324  *  -2.78809864  *   0.78938257  *
     7       C          1.14852322  *  -4.04846187  *   0.77458313  *
     8       C          1.61687952  *  -4.95300600  *  -0.17653611  *
     9       C          2.67308891  *  -4.61466749  *  -1.07078053  *
    10       C          3.23931914  *  -3.35544989  *  -1.03111784  *
    11       C          2.93234648  *  -5.77796390  *  -1.88136846  *
    12       C          3.83123964  *  -6.02980274  *  -2.90528521  *
    13       C          3.81315554  *  -7.28099706  *  -3.50345669  *
    14       C          2.90683113  *  -8.26539612  *  -3.09567755  *
    15       C          1.99627474  *  -8.04038028  *  -2.07453132  *
    16       C          2.02744117  *  -6.79042834  *  -1.46420014  *
    17       N          1.22975027  *  -6.27985012  *  -0.41711526  *
    18       C          0.19081924  *  -6.97511851  *   0.25042481  *
    19       C          0.44257866  *  -8.24467686  *   0.77636686  *
    20       C         -0.58365183  *  -8.91897326  *   1.42468872  *
    21       C         -1.83717309  *  -8.33379648  *   1.55896193  *
    22       C         -2.07424430  *  -7.06748502  *   1.03712797  *
    23       C         -1.06708296  *  -6.37946393  *   0.37355163  *
    24       C          3.23822434  *   1.32521553  *   0.05312240  *
    25       O          4.44295032  *   1.53205818  *   0.01506541  *
    26       O          2.38891467  *   2.36707603  *   0.15652008  *
    27       H          4.41329404  *  -1.04593834  *  -0.12880050  *
    28       H          1.38253450  *  -2.06359797  *   1.53853679  *
    29       H          0.36735879  *  -4.32196698  *   1.48775395  *
    30       H          4.05010522  *  -3.09287229  *  -1.71668133  *
    31       H          4.53127099  *  -5.25519763  *  -3.22800988  *
    32       H          4.51518575  *  -7.50383150  *  -4.31198925  *
    33       H          2.91528173  *  -9.23787569  *  -3.59845687  *
    34       H          1.27946310  *  -8.80766374  *  -1.77482847  *
    35       H          1.43405071  *  -8.70125544  *   0.69370727  *
    36       H         -0.39928816  *  -9.91565975  *   1.83763302  *
    37       H         -2.63812986  *  -8.87041234  *   2.07589276  *
    38       H         -3.06260161  *  -6.60910223  *   1.14292623  *
    39       H         -1.26697973  *  -5.39172895  *  -0.05473419  *
    40       H          2.86998676  *   3.20683968  *   0.18508399  *

                             CARTESIAN COORDINATES

   1    N        0.000000000     0.000000000     0.000000000
   2    C        1.156377833     0.000000000     0.000000000
   3    C        2.574197008     0.016038841     0.000000000
   4    C        3.315364494    -1.104922765    -0.076667194
   5    C        2.738996178    -2.436750515    -0.109338138
   6    C        1.720433235    -2.788098641     0.789382573
   7    C        1.148523220    -4.048461866     0.774583130
   8    C        1.616879521    -4.953005998    -0.176536112
   9    C        2.673088914    -4.614667490    -1.070780528
  10    C        3.239319143    -3.355449888    -1.031117844
  11    C        2.932346481    -5.777963902    -1.881368463
  12    C        3.831239640    -6.029802744    -2.905285214
  13    C        3.813155536    -7.280997059    -3.503456687
  14    C        2.906831134    -8.265396116    -3.095677545
  15    C        1.996274743    -8.040380275    -2.074531317
  16    C        2.027441166    -6.790428343    -1.464200140
  17    N        1.229750268    -6.279850115    -0.417115263
  18    C        0.190819237    -6.975118514     0.250424808
  19    C        0.442578655    -8.244676861     0.776366865
  20    C       -0.583651825    -8.918973265     1.424688717
  21    C       -1.837173086    -8.333796478     1.558961933
  22    C       -2.074244300    -7.067485022     1.037127965
  23    C       -1.067082959    -6.379463930     0.373551628
  24    C        3.238224337     1.325215526     0.053122403
  25    O        4.442950325     1.532058184     0.015065410
  26    O        2.388914665     2.367076026     0.156520083
  27    H        4.413294040    -1.045938341    -0.128800497
  28    H        1.382534500    -2.063597971     1.538536786
  29    H        0.367358788    -4.321966984     1.487753945
  30    H        4.050105221    -3.092872292    -1.716681328
  31    H        4.531270987    -5.255197633    -3.228009883
  32    H        4.515185753    -7.503831505    -4.311989250
  33    H        2.915281732    -9.237875691    -3.598456868
  34    H        1.279463101    -8.807663739    -1.774828469
  35    H        1.434050709    -8.701255440     0.693707274
  36    H       -0.399288161    -9.915659746     1.837633017
  37    H       -2.638129864    -8.870412343     2.075892760
  38    H       -3.062601607    -6.609102226     1.142926231
  39    H       -1.266979733    -5.391728948    -0.054734191
  40    H        2.869986764     3.206839682     0.185083994


           Empirical Formula: C22 H14 N2 O2  =    40 atoms



      MOLECULAR POINT GROUP   :   C1  


                  EIGENVALUES  
 -48.66098 -46.83836 -43.97730 -43.40699 -41.68462 -39.67030 -39.14149 -36.67997
 -36.15950 -33.82209 -33.06078 -32.47378 -30.96741 -30.41086 -28.54652 -27.54187
 -26.05117 -25.59690 -24.66901 -24.44192 -24.00909 -23.25678 -22.94656 -21.02957
 -20.38146 -19.48883 -18.46371 -18.18101 -17.89524 -17.31156 -16.75898 -16.48608
 -16.41292 -15.93857 -15.81249 -15.48615 -15.38554 -15.25828 -14.94201 -14.71294
 -14.42335 -13.62622 -13.39701 -13.27330 -13.21861 -13.00512 -12.84340 -12.57031
 -12.44442 -12.19632 -11.99996 -11.85273 -11.74955 -11.30450 -10.89301 -10.11398
  -9.81731  -9.09415  -8.92888  -8.81149  -7.78149  -7.43152  -0.81573   0.15815
   0.62627   0.72058   0.80430   0.89085   1.23753   1.46143   1.68937   2.15094
   2.51950   2.68436   2.85655   3.00366   3.18304   3.20549   3.43718   3.48913
   3.83980   3.87534   4.07061   4.08198   4.25306   4.37780   4.78016   5.07287
   5.50845   5.61529   5.79369   5.86264   6.17372   6.39152   6.40464   6.51871
   7.32706   7.90847   8.48673   8.70649   8.82206   9.06475   9.11983   9.78302
  10.34947  10.89934  11.07237  11.21051  11.64327  11.69936  11.97535  12.55430
  12.58393  12.74976  13.02463  14.14418  14.62941  15.03510


              NET ATOMIC CHARGES AND DIPOLE CONTRIBUTIONS

  ATOM NO.   TYPE          CHARGE      No. of ELECS.   s-Pop       p-Pop       
    1          N          -0.408385        5.4084     1.75359     3.65479
    2          C           0.224282        3.7757     1.14961     2.62611
    3          C           0.013421        3.9866     0.99984     2.98674
    4          C           0.141722        3.8583     1.10706     2.75122
    5          C          -0.002726        4.0027     1.03499     2.96773
    6          C          -0.007221        4.0072     1.08319     2.92403
    7          C          -0.038787        4.0388     1.07765     2.96114
    8          C           0.092676        3.9073     1.05138     2.85595
    9          C          -0.011007        4.0110     1.04880     2.96221
   10          C          -0.002410        4.0024     1.08089     2.92152
   11          C          -0.014054        4.0141     1.04693     2.96713
   12          C          -0.017856        4.0179     1.07923     2.93863
   13          C          -0.043683        4.0437     1.07765     2.96603
   14          C          -0.023201        4.0232     1.08078     2.94242
   15          C          -0.039924        4.0399     1.07655     2.96337
   16          C           0.079129        3.9209     1.05072     2.87015
   17          N          -0.126121        5.1261     1.22810     3.89802
   18          C           0.098352        3.9016     1.03911     2.86254
   19          C          -0.029894        4.0299     1.07923     2.95067
   20          C          -0.016440        4.0164     1.08095     2.93549
   21          C          -0.031207        4.0312     1.07707     2.95414
   22          C          -0.016721        4.0167     1.08098     2.93575
   23          C          -0.030962        4.0310     1.07935     2.95162
   24          C           0.503600        3.4964     1.04640     2.45000
   25          O          -0.617493        6.6175     1.81673     4.80076
   26          O          -0.309949        6.3099     1.68697     4.62298
   27          H           0.068719        0.9313     0.93128
   28          H           0.030516        0.9695     0.96948
   29          H           0.031825        0.9682     0.96818
   30          H           0.035162        0.9648     0.96484
   31          H           0.025731        0.9743     0.97427
   32          H           0.016270        0.9837     0.98373
   33          H           0.019369        0.9806     0.98063
   34          H           0.029429        0.9706     0.97057
   35          H           0.030631        0.9694     0.96937
   36          H           0.023608        0.9764     0.97639
   37          H           0.021416        0.9786     0.97858
   38          H           0.023514        0.9765     0.97649
   39          H           0.029769        0.9702     0.97023
   40          H           0.248898        0.7511     0.75110
 DIPOLE           X         Y         Z       TOTAL
 POINT-CHG.     0.227    -5.345     0.356     5.361
 HYBRID         1.236     0.635     0.015     1.390
 SUM            1.463    -4.710     0.371     4.946


          ATOMIC ORBITAL ELECTRON POPULATIONS

     Atom    s        px        py        pz   
    1  N   1.75359   1.23155   1.23397   1.18927
    2  C   1.14961   0.95148   0.80422   0.87042
    3  C   0.99984   0.90306   0.92137   1.16231
    4  C   1.10706   0.98970   1.01113   0.75039
    5  C   1.03499   1.00951   0.95458   1.00363
    6  C   1.08319   0.97045   0.97656   0.97702
    7  C   1.07765   0.99310   0.98450   0.98354
    8  C   1.05138   0.98172   0.88914   0.98508
    9  C   1.04880   1.00166   0.95813   1.00242
   10  C   1.08089   0.96707   0.97375   0.98069
   11  C   1.04693   0.99738   0.98016   0.98959
   12  C   1.07923   0.97598   0.97223   0.99042
   13  C   1.07765   0.98896   0.99401   0.98306
   14  C   1.08078   1.00042   0.95630   0.98570
   15  C   1.07655   0.99496   0.96111   1.00730
   16  C   1.05072   0.96147   0.97835   0.93032
   17  N   1.22810   1.35948   1.16134   1.37720
   18  C   1.03911   0.93118   0.97088   0.96048
   19  C   1.07923   0.95855   0.97693   1.01519
   20  C   1.08095   0.99897   0.95398   0.98253
   21  C   1.07707   0.96873   0.98574   0.99967
   22  C   1.08098   0.95558   0.98760   0.99256
   23  C   1.07935   0.97729   0.95927   1.01506
   24  C   1.04640   0.87953   0.90745   0.66302
   25  O   1.81673   1.28039   1.95521   1.56517
   26  O   1.68697   1.52924   1.21019   1.88355
   27  H   0.93128
   28  H   0.96948
   29  H   0.96818
   30  H   0.96484
   31  H   0.97427
   32  H   0.98373
   33  H   0.98063
   34  H   0.97057
   35  H   0.96937
   36  H   0.97639
   37  H   0.97858
   38  H   0.97649
   39  H   0.97023
   40  H   0.75110

 **********************
 *                    *
 * JOB ENDED NORMALLY *
 *                    *
 **********************



 TOTAL JOB TIME:           249.87 SECONDS

 == MOPAC DONE ==
