 *******************************************************************************
 ** Site#: 4824         For non-commercial use only    Version 21.013L 64BITS **
 *******************************************************************************
 ** Cite this program as: MOPAC2016, Version: 21.013L, James J. P. Stewart,   **
 ** Stewart Computational Chemistry, web: HTTP://OpenMOPAC.net. Days left:  84**
 *******************************************************************************
 **                                                                           **
 **                                MOPAC2016                                  **
 **                                                                           **
 *******************************************************************************

                              INDO CALCULATION RESULTS

 *******************************************************************************
 *  CALCULATION DONE:                                Thu Oct 21 22:40:45 2021  *
 *  INDO       - The INDO Hamiltonian to be used
 *  CIS        - C.I. USES 1 ELECTRON EXCITATIONS ONLY
 *  EPS=  7.58 - USE ANDREAS KLAMT'S COSMO IMPLICIT SOLVATION MODEL
 *  n**2 =  1.400 for COSMO-CI
 *  T=         - A TIME OF 172800.0 SECONDS REQUESTED
 *  DUMP=N     - RESTART FILE WRITTEN EVERY 7200.0 SECONDS REQUESTED
 *******************************************************************************
INDO CIS EPS=7.58 N**2=1.40
 Dye99
 Calculo de Estados Excitados
   ATOM   CHEMICAL          X               Y               Z
  NUMBER   SYMBOL      (ANGSTROMS)     (ANGSTROMS)     (ANGSTROMS)
 
     1       C          0.00000000  *   0.00000000  *   0.00000000  *
     2       C          1.52003933  *   0.00000000  *   0.00000000  *
     3       C          2.06077338  *   1.42915720  *   0.00000000  *
     4       C          3.58706960  *   1.42514574  *   0.03810689  *
     5       C          4.16717584  *   2.83083932  *  -0.13914742  *
     6       C          5.70869014  *   2.72810477  *  -0.19560444  *
     7       N          6.32605697  *   3.92889226  *  -0.74746535  *
     8       C          6.24693022  *   4.30961938  *  -2.10206181  *
     9       C          5.76885975  *   3.59306387  *  -3.19713473  *
    10       C          5.85088868  *   4.20400808  *  -4.43810423  *
    11       C          6.39004120  *   5.48570584  *  -4.59352974  *
    12       C          6.86615477  *   6.19920460  *  -3.50433500  *
    13       C          6.79382909  *   5.61253153  *  -2.25100715  *
    14       C          7.18406390  *   6.05794398  *  -0.93848586  *
    15       C          6.86043544  *   5.01376733  *  -0.02761907  *
    16       C          7.11582286  *   5.14226212  *   1.33670005  *
    17       C          7.69843438  *   6.32092430  *   1.77040324  *
    18       C          8.02315809  *   7.35130810  *   0.87497804  *
    19       C          7.76899317  *   7.22872240  *  -0.48642277  *
    20       C          8.63962883  *   8.55710274  *   1.38956352  *
    21       S         10.32115400  *   8.79997733  *   1.19980245  *
    22       C         10.23118648  *  10.25594749  *   2.01971667  *
    23       C          8.93613385  *  10.56632679  *   2.43958445  *
    24       C          7.99662461  *   9.56710901  *   2.06512990  *
    25       C          6.52903232  *   9.55545271  *   2.32351510  *
    26       C          6.15381430  *  10.40916319  *   3.53503758  *
    27       C          4.68340029  *  10.24201493  *   3.91361260  *
    28       C          4.38718630  *  10.94106550  *   5.23946729  *
    29       C          2.91589207  *  10.81203043  *   5.59899856  *
    30       C          5.78927961  *   9.96545494  *   1.04384147  *
    31       C          5.99391430  *  11.42167254  *   0.67067488  *
    32       S          8.86650780  *  12.04897832  *   3.27598607  *
    33       C         10.55858833  *  12.29248391  *   3.08326325  *
    34       C         11.17631925  *  11.25328685  *   2.38876059  *
    35       C         12.57543238  *  11.28077296  *   2.13354754  *
    36       N         13.16131502  *  10.23824088  *   1.44090767  *
    37       C         14.46944775  *  10.33306478  *   1.24054219  *
    38       C         15.24349790  *  11.44646258  *   1.71346528  *
    39       N         14.70166852  *  12.45692732  *   2.38119392  *
    40       C         13.33847112  *  12.37993250  *   2.59665203  *
    41       C         12.68498148  *  13.42793366  *   3.29923557  *
    42       C         11.31291046  *  13.38066816  *   3.53827890  *
    43       S         10.73805391  *  14.75344261  *   4.40366719  *
    44       C         12.30366162  *  15.41996205  *   4.46869999  *
    45       C         13.25654734  *  14.61466662  *   3.83978497  *
    46       S         14.79429052  *  15.25647754  *   3.89320381  *
    47       C         14.23480149  *  16.61352343  *   4.76632539  *
    48       C         12.87879165  *  16.59442429  *   5.01708015  *
    49       C         12.13133061  *  17.64675408  *   5.76356098  *
    50       C         11.64295522  *  17.03288480  *   7.08176015  *
    51       C         10.87754399  *  18.00416596  *   7.97497602  *
    52       C         11.69914211  *  19.23417864  *   8.34830224  *
    53       C         11.01461884  *  20.02027095  *   9.45590180  *
    54       C         10.97590072  *  18.18264014  *   4.91286203  *
    55       C         11.47350940  *  18.70686938  *   3.57563061  *
    56       C         15.12919483  *  17.63541576  *   5.24295931  *
    57       C         15.91771130  *  18.37462029  *   4.44021410  *
    58       C         16.81740681  *  19.37627147  *   5.02839394  *
    59       O         16.93707506  *  19.63704012  *   6.21718332  *
    60       O         17.56080972  *  20.04359761  *   4.12360953  *
    61       C         15.90813375  *  18.24968364  *   3.02805394  *
    62       N         15.90857456  *  18.15637903  *   1.87576845  *
    63       C          3.72493632  *   3.80127344  *   0.95661498  *
    64       C          3.89911885  *   3.26874428  *   2.36880185  *
    65       H         15.14136110  *  17.78801651  *   6.33448426  *
    66       H         -0.41684404  *   0.51366930  *  -0.87832350  *
    67       H         -0.40889392  *  -1.02079619  *  -0.00867645  *
    68       H         -0.41795667  *   0.49836305  *   0.88657903  *
    69       H          1.90295105  *  -0.56046539  *   0.87901365  *
    70       H          1.90011975  *  -0.56304919  *  -0.87869688  *
    71       H          1.69449219  *   1.97626395  *  -0.89436665  *
    72       H          1.64101622  *   1.98795920  *   0.86193870  *
    73       H          3.95517055  *   0.95608673  *   0.97415079  *
    74       H          3.97156649  *   0.75957715  *  -0.76670980  *
    75       H          3.80608378  *   3.23561114  *  -1.12307060  *
    76       H          6.13938322  *   2.51414665  *   0.80807599  *
    77       H          6.02532471  *   1.86571025  *  -0.83029729  *
    78       H          5.34792616  *   2.59191784  *  -3.08883613  *
    79       H          5.48446775  *   3.67093296  *  -5.32119789  *
    80       H          6.43537602  *   5.92829380  *  -5.59233389  *
    81       H          7.29012584  *   7.19969543  *  -3.62062417  *
    82       H          6.86848621  *   4.35028915  *   2.04594622  *
    83       H          7.91397936  *   6.45340905  *   2.83579139  *
    84       H          8.01809186  *   8.02896874  *  -1.18823749  *
    85       H          6.24327087  *   8.49165989  *   2.55631555  *
    86       H          6.80106963  *  10.12564471  *   4.39356715  *
    87       H          6.37025789  *  11.48329333  *   3.35970847  *
    88       H          4.02623557  *  10.65115762  *   3.11773997  *
    89       H          4.41220374  *   9.16749176  *   3.98154176  *
    90       H          5.01606662  *  10.52047292  *   6.05261079  *
    91       H          4.67581901  *  12.01221763  *   5.18761596  *
    92       H          2.60194700  *   9.76311079  *   5.70026632  *
    93       H          2.68363497  *  11.30389728  *   6.55471691  *
    94       H          2.25972462  *  11.26758981  *   4.84336107  *
    95       H          6.12333059  *   9.31176944  *   0.20724439  *
    96       H          4.70543561  *   9.74297369  *   1.13926339  *
    97       H          5.46310665  *  12.11193054  *   1.34201225  *
    98       H          7.05369571  *  11.71342847  *   0.67824372  *
    99       H          5.61836282  *  11.63505041  *  -0.34164107  *
   100       H         14.94229464  *   9.51006224  *   0.68898538  *
   101       H         16.32544030  *  11.49921432  *   1.53489806  *
   102       H         12.82099270  *  18.50140278  *   5.98824312  *
   103       H         11.00416126  *  16.14662828  *   6.87543770  *
   104       H         12.51427700  *  16.62182573  *   7.63698290  *
   105       H          9.91804956  *  18.30733995  *   7.50608593  *
   106       H         10.56306990  *  17.46499656  *   8.89624182  *
   107       H         12.72276042  *  18.94159101  *   8.66384008  *
   108       H         11.84982708  *  19.89120794  *   7.46578304  *
   109       H         10.92320802  *  19.44133695  *  10.38628971  *
   110       H         11.56923228  *  20.93524100  *   9.71002006  *
   111       H          9.99858701  *  20.33414209  *   9.17631475  *
   112       H         10.20120514  *  17.40228025  *   4.75993192  *
   113       H         10.44949131  *  18.99663491  *   5.45527384  *
   114       H         10.65571551  *  19.13799326  *   2.97960820  *
   115       H         12.22824460  *  19.49799333  *   3.69180130  *
   116       H         11.92978595  *  17.92127240  *   2.95605665  *
   117       H         18.13546787  *  20.69226874  *   4.55560883  *
   118       H          4.27835581  *   4.76047485  *   0.84893469  *
   119       H          2.66429915  *   4.09300890  *   0.79640546  *
   120       H          4.89924854  *   2.85340308  *   2.55580966  *
   121       H          3.75085812  *   4.06306269  *   3.11653261  *
   122       H          3.17891435  *   2.47795549  *   2.62315417  *
 


          CARTESIAN COORDINATES 

    NO.       ATOM           X           Y           Z

     1         C          0.0000      0.0000      0.0000
     2         C          1.5200      0.0000      0.0000
     3         C          2.0608      1.4292      0.0000
     4         C          3.5871      1.4251      0.0381
     5         C          4.1672      2.8308     -0.1391
     6         C          5.7087      2.7281     -0.1956
     7         N          6.3261      3.9289     -0.7475
     8         C          6.2469      4.3096     -2.1021
     9         C          5.7689      3.5931     -3.1971
    10         C          5.8509      4.2040     -4.4381
    11         C          6.3900      5.4857     -4.5935
    12         C          6.8662      6.1992     -3.5043
    13         C          6.7938      5.6125     -2.2510
    14         C          7.1841      6.0579     -0.9385
    15         C          6.8604      5.0138     -0.0276
    16         C          7.1158      5.1423      1.3367
    17         C          7.6984      6.3209      1.7704
    18         C          8.0232      7.3513      0.8750
    19         C          7.7690      7.2287     -0.4864
    20         C          8.6396      8.5571      1.3896
    21         S         10.3212      8.8000      1.1998
    22         C         10.2312     10.2559      2.0197
    23         C          8.9361     10.5663      2.4396
    24         C          7.9966      9.5671      2.0651
    25         C          6.5290      9.5555      2.3235
    26         C          6.1538     10.4092      3.5350
    27         C          4.6834     10.2420      3.9136
    28         C          4.3872     10.9411      5.2395
    29         C          2.9159     10.8120      5.5990
    30         C          5.7893      9.9655      1.0438
    31         C          5.9939     11.4217      0.6707
    32         S          8.8665     12.0490      3.2760
    33         C         10.5586     12.2925      3.0833
    34         C         11.1763     11.2533      2.3888
    35         C         12.5754     11.2808      2.1335
    36         N         13.1613     10.2382      1.4409
    37         C         14.4694     10.3331      1.2405
    38         C         15.2435     11.4465      1.7135
    39         N         14.7017     12.4569      2.3812
    40         C         13.3385     12.3799      2.5967
    41         C         12.6850     13.4279      3.2992
    42         C         11.3129     13.3807      3.5383
    43         S         10.7381     14.7534      4.4037
    44         C         12.3037     15.4200      4.4687
    45         C         13.2565     14.6147      3.8398
    46         S         14.7943     15.2565      3.8932
    47         C         14.2348     16.6135      4.7663
    48         C         12.8788     16.5944      5.0171
    49         C         12.1313     17.6468      5.7636
    50         C         11.6430     17.0329      7.0818
    51         C         10.8775     18.0042      7.9750
    52         C         11.6991     19.2342      8.3483
    53         C         11.0146     20.0203      9.4559
    54         C         10.9759     18.1826      4.9129
    55         C         11.4735     18.7069      3.5756
    56         C         15.1292     17.6354      5.2430
    57         C         15.9177     18.3746      4.4402
    58         C         16.8174     19.3763      5.0284
    59         O         16.9371     19.6370      6.2172
    60         O         17.5608     20.0436      4.1236
    61         C         15.9081     18.2497      3.0281
    62         N         15.9086     18.1564      1.8758
    63         C          3.7249      3.8013      0.9566
    64         C          3.8991      3.2687      2.3688
    65         H         15.1414     17.7880      6.3345
    66         H         -0.4168      0.5137     -0.8783
    67         H         -0.4089     -1.0208     -0.0087
    68         H         -0.4180      0.4984      0.8866
    69         H          1.9030     -0.5605      0.8790
    70         H          1.9001     -0.5630     -0.8787
    71         H          1.6945      1.9763     -0.8944
    72         H          1.6410      1.9880      0.8619
    73         H          3.9552      0.9561      0.9742
    74         H          3.9716      0.7596     -0.7667
    75         H          3.8061      3.2356     -1.1231
    76         H          6.1394      2.5141      0.8081
    77         H          6.0253      1.8657     -0.8303
    78         H          5.3479      2.5919     -3.0888
    79         H          5.4845      3.6709     -5.3212
    80         H          6.4354      5.9283     -5.5923
    81         H          7.2901      7.1997     -3.6206
    82         H          6.8685      4.3503      2.0459
    83         H          7.9140      6.4534      2.8358
    84         H          8.0181      8.0290     -1.1882
    85         H          6.2433      8.4917      2.5563
    86         H          6.8011     10.1256      4.3936
    87         H          6.3703     11.4833      3.3597
    88         H          4.0262     10.6512      3.1177
    89         H          4.4122      9.1675      3.9815
    90         H          5.0161     10.5205      6.0526
    91         H          4.6758     12.0122      5.1876
    92         H          2.6019      9.7631      5.7003
    93         H          2.6836     11.3039      6.5547
    94         H          2.2597     11.2676      4.8434
    95         H          6.1233      9.3118      0.2072
    96         H          4.7054      9.7430      1.1393
    97         H          5.4631     12.1119      1.3420
    98         H          7.0537     11.7134      0.6782
    99         H          5.6184     11.6351     -0.3416
   100         H         14.9423      9.5101      0.6890
   101         H         16.3254     11.4992      1.5349
   102         H         12.8210     18.5014      5.9882
   103         H         11.0042     16.1466      6.8754
   104         H         12.5143     16.6218      7.6370
   105         H          9.9180     18.3073      7.5061
   106         H         10.5631     17.4650      8.8962
   107         H         12.7228     18.9416      8.6638
   108         H         11.8498     19.8912      7.4658
   109         H         10.9232     19.4413     10.3863
   110         H         11.5692     20.9352      9.7100
   111         H          9.9986     20.3341      9.1763
   112         H         10.2012     17.4023      4.7599
   113         H         10.4495     18.9966      5.4553
   114         H         10.6557     19.1380      2.9796
   115         H         12.2282     19.4980      3.6918
   116         H         11.9298     17.9213      2.9561
   117         H         18.1355     20.6923      4.5556
   118         H          4.2784      4.7605      0.8489
   119         H          2.6643      4.0930      0.7964
   120         H          4.8992      2.8534      2.5558
   121         H          3.7509      4.0631      3.1165
   122         H          3.1789      2.4780      2.6232

           Empirical Formula: C54 H58 N4 O2 S4  =   122 atoms



      MOLECULAR POINT GROUP   :   C1  


      RHF CALCULATION, NO. OF DOUBLY OCCUPIED LEVELS = 165

 WARNING: INDO only performs single-point calculations

 Summary of symmetry occupancy in each shell:

 SHELL     
    1  165
    v  149
 TOTAL 314




    ROOT NO.    1           2           3           4           5           6

           -48.73158   -47.40890   -46.84336   -45.79911   -45.76980   -44.20972
  
  
  S  C   1   0.00855    -0.00049     0.00008     0.00119    -0.00759     0.09755
 PX  C   1   0.00377    -0.00021     0.00003     0.00049    -0.00310     0.03775
 PY  C   1   0.00140    -0.00007     0.00001     0.00016    -0.00103     0.01166
 PZ  C   1   0.00004    -0.00000     0.00000     0.00001    -0.00003     0.00041
  
  S  C   2   0.01972    -0.00106     0.00016     0.00239    -0.01519     0.17815
 PX  C   2   0.00402    -0.00019     0.00003     0.00034    -0.00216     0.01759
 PY  C   2   0.00667    -0.00034     0.00005     0.00072    -0.00458     0.04916
 PZ  C   2   0.00014    -0.00001     0.00000     0.00002    -0.00011     0.00146
  
  S  C   3   0.04308    -0.00213     0.00032     0.00425    -0.02700     0.27538
 PX  C   3   0.01470    -0.00067     0.00010     0.00116    -0.00733     0.05939
 PY  C   3   0.00412    -0.00015     0.00002     0.00013    -0.00081    -0.00454
 PZ  C   3   0.00093    -0.00005     0.00001     0.00010    -0.00062     0.00745
  
  S  C   4   0.07937    -0.00360     0.00051     0.00629    -0.03983     0.33992
 PX  C   4   0.01017    -0.00034     0.00004     0.00023    -0.00138    -0.01644
 PY  C   4   0.02560    -0.00108     0.00015     0.00165    -0.01040     0.07173
 PZ  C   4  -0.00092     0.00003    -0.00000     0.00000    -0.00001     0.00708
  
  S  C   5   0.15745    -0.00634     0.00085     0.00914    -0.05767     0.37368
 PX  C   5   0.03972    -0.00131     0.00015     0.00112    -0.00696    -0.01196
 PY  C   5   0.01462    -0.00036     0.00003     0.00000     0.00005    -0.03001
 PZ  C   5   0.00337    -0.00020     0.00003     0.00056    -0.00358     0.05476
  
  S  C   6   0.22957    -0.00825     0.00104     0.00950    -0.05958     0.22938
 PX  C   6   0.01013    -0.00002    -0.00002    -0.00083     0.00534    -0.08160
 PY  C   6   0.08598    -0.00276     0.00032     0.00239    -0.01489     0.00772
 PZ  C   6  -0.03363     0.00120    -0.00015    -0.00114     0.00708     0.01575
  
  S  N   7   0.47387    -0.01481     0.00172     0.01247    -0.07752     0.03252
 PX  N   7   0.00474     0.00036    -0.00008    -0.00126     0.00800    -0.05367
 PY  N   7   0.08167    -0.00171     0.00014    -0.00011     0.00096    -0.07890
 PZ  N   7  -0.03223     0.00123    -0.00015    -0.00117     0.00725     0.04145
  
  S  C   8   0.35783    -0.01146     0.00134     0.00981    -0.06095    -0.10609
 PX  C   8   0.03261    -0.00072     0.00006     0.00002    -0.00003    -0.03205
 PY  C   8   0.03839    -0.00070     0.00005    -0.00034     0.00226    -0.06427
 PZ  C   8   0.11489    -0.00321     0.00035     0.00205    -0.01262     0.02882
  
  S  C   9   0.14672    -0.00539     0.00068     0.00577    -0.03601    -0.06614
 PX  C   9   0.02556    -0.00087     0.00010     0.00079    -0.00491    -0.02169
 PY  C   9   0.04575    -0.00160     0.00020     0.00152    -0.00945    -0.04643
 PZ  C   9   0.04652    -0.00155     0.00018     0.00144    -0.00897     0.01735
  
  S  C  10   0.08783    -0.00336     0.00043     0.00375    -0.02340    -0.09051
 PX  C  10   0.01296    -0.00047     0.00006     0.00047    -0.00295    -0.01599
 PY  C  10   0.01664    -0.00059     0.00007     0.00058    -0.00362    -0.02466
 PZ  C  10   0.03925    -0.00146     0.00018     0.00155    -0.00967    -0.03001
  
  S  C  11   0.08349    -0.00307     0.00039     0.00324    -0.02021    -0.10139
 PX  C  11  -0.00064     0.00006    -0.00001    -0.00012     0.00074    -0.00013
 PY  C  11  -0.01507     0.00062    -0.00008    -0.00074     0.00461     0.01438
 PZ  C  11   0.04010    -0.00141     0.00017     0.00139    -0.00863    -0.04188
  
  S  C  12   0.11576    -0.00354     0.00041     0.00288    -0.01783    -0.12246
 PX  C  12  -0.01438     0.00061    -0.00008    -0.00072     0.00449     0.01474
 PY  C  12  -0.04446     0.00166    -0.00021    -0.00169     0.01055     0.04141
 PZ  C  12   0.03482    -0.00076     0.00007     0.00014    -0.00081    -0.02107
  
  S  C  13   0.28598    -0.00768     0.00082     0.00453    -0.02778    -0.17720
 PX  C  13  -0.02187     0.00107    -0.00015    -0.00137     0.00859     0.00584
 PY  C  13  -0.07692     0.00293    -0.00036    -0.00296     0.01845     0.01978
 PZ  C  13   0.07940    -0.00131     0.00008    -0.00058     0.00387    -0.00579
  
  S  C  14   0.28930    -0.00189    -0.00015    -0.00669     0.04273    -0.17074
 PX  C  14  -0.04431     0.00232    -0.00031    -0.00272     0.01699     0.00556
 PY  C  14  -0.10189     0.00459    -0.00059    -0.00471     0.02929     0.01953
 PZ  C  14   0.00387     0.00304    -0.00051    -0.00582     0.03655    -0.00498
  
  S  C  15   0.35806    -0.00549     0.00033    -0.00236     0.01565    -0.09896
 PX  C  15  -0.03395     0.00248    -0.00036    -0.00373     0.02342    -0.02950
 PY  C  15  -0.03610     0.00406    -0.00062    -0.00674     0.04232    -0.05780
 PZ  C  15  -0.11368     0.00466    -0.00059    -0.00482     0.03005     0.03573
  
  S  C  16   0.14930     0.00241    -0.00063    -0.00961     0.06072    -0.05620
 PX  C  16  -0.00797     0.00138    -0.00021    -0.00227     0.01426    -0.01891
 PY  C  16   0.00909     0.00308    -0.00052    -0.00587     0.03691    -0.03959
 PZ  C  16  -0.06874     0.00084    -0.00002     0.00109    -0.00704     0.02455
  
  S  C  17   0.09693     0.01115    -0.00187    -0.02030     0.12730    -0.07858
 PX  C  17  -0.01050     0.00086    -0.00010    -0.00036     0.00212     0.00381
 PY  C  17  -0.00696     0.00469    -0.00067    -0.00557     0.03470    -0.00043
 PZ  C  17  -0.04372    -0.00209     0.00041     0.00542    -0.03413     0.03818
  
  S  C  18   0.10125     0.02152    -0.00335    -0.03215     0.20077    -0.08984
 PX  C  18  -0.01736     0.00089    -0.00005     0.00103    -0.00682     0.01550
 PY  C  18  -0.02998     0.00624    -0.00078    -0.00435     0.02654     0.03304
 PZ  C  18  -0.01516     0.00329    -0.00042    -0.00264     0.01618     0.01930
  
  S  C  19   0.12440     0.00944    -0.00165    -0.01854     0.11635    -0.11325
 PX  C  19  -0.02168     0.00086    -0.00008    -0.00008     0.00034     0.01486
 PY  C  19  -0.05203     0.00200    -0.00019    -0.00008     0.00021     0.04031
 PZ  C  19   0.01372     0.00506    -0.00080    -0.00795     0.04976    -0.01399
  
  S  C  20   0.04110     0.04841    -0.00652    -0.04544     0.27855     0.00118
 PX  C  20  -0.00939     0.00067     0.00012     0.00531    -0.03583     0.00911
 PY  C  20  -0.00822     0.01538    -0.00186    -0.00889     0.05313     0.02943
 PZ  C  20  -0.00269     0.00808    -0.00101    -0.00553     0.03366     0.01422
  
  S  S  21   0.01435     0.04753    -0.00580    -0.02720     0.14361     0.01787
 PX  S  21  -0.00878    -0.01044     0.00143     0.01136    -0.07910    -0.00505
 PY  S  21   0.00047     0.02267    -0.00263    -0.00922     0.04116     0.01459
 PZ  S  21   0.00182     0.01445    -0.00171    -0.00717     0.03732     0.00918
  
  S  C  22   0.01259     0.12248    -0.01319    -0.04020     0.21024     0.06087
 PX  C  22  -0.00449     0.00744    -0.00048     0.00724    -0.07714    -0.01211
 PY  C  22  -0.00111     0.03050    -0.00261     0.00051    -0.00059     0.01250
 PZ  C  22   0.00020     0.01533    -0.00134    -0.00099     0.01379     0.00917
  
  S  C  23   0.01623     0.09215    -0.01034    -0.04369     0.27652     0.06533
 PX  C  23  -0.00079     0.02657    -0.00243    -0.00011    -0.00033     0.01182
 PY  C  23  -0.00500    -0.00160     0.00075     0.01102    -0.06110    -0.00294
 PZ  C  23  -0.00281    -0.00632     0.00093     0.00660    -0.03678    -0.00423
  
  S  C  24   0.02982     0.06233    -0.00827    -0.05727     0.35630     0.04249
 PX  C  24  -0.00079     0.01365    -0.00139    -0.00113     0.00397     0.00767
 PY  C  24  -0.00570     0.00350    -0.00027     0.00086    -0.00380     0.01251
 PZ  C  24  -0.00376    -0.00195     0.00031     0.00260    -0.01495     0.00407
  
  S  C  25   0.02556     0.03868    -0.00573    -0.05209     0.32908     0.03710
 PX  C  25   0.00381     0.00673    -0.00085    -0.00483     0.02954     0.00089
 PY  C  25  -0.00161     0.00365    -0.00052    -0.00472     0.03041     0.01075
 PZ  C  25  -0.00369    -0.00235     0.00035     0.00309    -0.01901     0.00277
  
  S  C  26   0.01288     0.02585    -0.00388    -0.03708     0.23580     0.03845
 PX  C  26   0.00072     0.00217    -0.00023    -0.00027     0.00139    -0.00095
 PY  C  26  -0.00236    -0.00299     0.00046     0.00449    -0.02840    -0.00267
 PZ  C  26  -0.00377    -0.00635     0.00094     0.00847    -0.05358    -0.00628
  
  S  C  27   0.00725     0.01443    -0.00229    -0.02452     0.15639     0.02883
 PX  C  27   0.00225     0.00434    -0.00066    -0.00634     0.04036     0.00624
 PY  C  27  -0.00016     0.00034    -0.00006    -0.00070     0.00457     0.00177
 PZ  C  27  -0.00128    -0.00185     0.00027     0.00244    -0.01537    -0.00100
  
  S  C  28   0.00326     0.00740    -0.00121    -0.01380     0.08828     0.01907
 PX  C  28   0.00046     0.00097    -0.00014    -0.00126     0.00803     0.00111
 PY  C  28  -0.00052    -0.00105     0.00017     0.00190    -0.01211    -0.00238
 PZ  C  28  -0.00110    -0.00233     0.00037     0.00400    -0.02556    -0.00489
  
  S  C  29   0.00142     0.00334    -0.00056    -0.00685     0.04387     0.01032
 PX  C  29   0.00057     0.00131    -0.00022    -0.00256     0.01639     0.00368
 PY  C  29  -0.00007    -0.00012     0.00002     0.00022    -0.00140    -0.00025
 PZ  C  29  -0.00035    -0.00076     0.00013     0.00145    -0.00929    -0.00197
  
  S  C  30   0.01847     0.02542    -0.00387    -0.03733     0.23625     0.02548
 PX  C  30   0.00491     0.00642    -0.00093    -0.00796     0.05002     0.00365
 PY  C  30  -0.00220     0.00062    -0.00009    -0.00085     0.00568     0.00513
 PZ  C  30   0.00284     0.00601    -0.00091    -0.00870     0.05518     0.00848
  
  S  C  31   0.00938     0.01652    -0.00248    -0.02353     0.14933     0.02044
 PX  C  31   0.00084     0.00204    -0.00026    -0.00161     0.01014     0.00130
 PY  C  31  -0.00384    -0.00541     0.00083     0.00802    -0.05072    -0.00551
 PZ  C  31   0.00189     0.00391    -0.00058    -0.00543     0.03447     0.00533
  
  S  S  32   0.00529     0.06294    -0.00572    -0.01205     0.11265     0.03995
 PX  S  32   0.00077     0.03190    -0.00251     0.00059     0.02091     0.01534
 PY  S  32  -0.00260    -0.01766     0.00216     0.00958    -0.05317    -0.01448
 PZ  S  32  -0.00163    -0.01603     0.00169     0.00526    -0.03396    -0.01102
  
  S  C  33   0.00504     0.16776    -0.01146     0.01103     0.09484     0.05929
 PX  C  33   0.00008     0.05364    -0.00276     0.01232    -0.01301     0.00509
 PY  C  33  -0.00163    -0.01749     0.00380     0.01897    -0.03591    -0.01231
 PZ  C  33  -0.00092    -0.02010     0.00263     0.00809    -0.01748    -0.00782
  
  S  C  34   0.00669     0.22028    -0.02049    -0.02609     0.09983     0.05842
 PX  C  34  -0.00171     0.03967    -0.00401    -0.00344    -0.06400    -0.01785
 PY  C  34  -0.00033     0.02682    -0.00074     0.01228    -0.00652     0.00643
 PZ  C  34   0.00014     0.00715     0.00037     0.00747     0.00861     0.00699
  
  S  C  35   0.00438     0.36257    -0.03893    -0.07710    -0.05641     0.00208
 PX  C  35  -0.00018     0.08179    -0.01131    -0.03675    -0.06538    -0.02761
 PY  C  35   0.00008     0.00812     0.00177     0.01917     0.00834     0.00914
 PZ  C  35   0.00008    -0.01131     0.00317     0.01771     0.01722     0.01039
  
  S  N  36   0.00313     0.33384    -0.04085    -0.11014    -0.10383    -0.03036
 PX  N  36   0.00023     0.06068    -0.00790    -0.02365    -0.03426    -0.01356
 PY  N  36   0.00104     0.11216    -0.01342    -0.03442    -0.03433    -0.00920
 PZ  N  36   0.00053     0.05062    -0.00594    -0.01457    -0.01247    -0.00249
  
  S  C  37   0.00207     0.26084    -0.03225    -0.08874    -0.09802    -0.03272
 PX  C  37  -0.00081    -0.09145     0.01131     0.03107     0.03040     0.00919
 PY  C  37   0.00061     0.08075    -0.00967    -0.02492    -0.03054    -0.00974
 PZ  C  37   0.00050     0.06271    -0.00758    -0.01991    -0.02291    -0.00721
  
  S  C  38   0.00193     0.26110    -0.03141    -0.08217    -0.10282    -0.03452
 PX  C  38  -0.00099    -0.12822     0.01530     0.03921     0.04768     0.01500
 PY  C  38   0.00018     0.02834    -0.00295    -0.00542    -0.01146    -0.00350
 PZ  C  38   0.00029     0.04036    -0.00458    -0.01055    -0.01553    -0.00483
  
  S  N  39   0.00251     0.33511    -0.03733    -0.08350    -0.12328    -0.03713
 PX  N  39  -0.00071    -0.08660     0.00866     0.01421     0.02580     0.00517
 PY  N  39  -0.00072    -0.09924     0.01264     0.03613     0.04066     0.01418
 PZ  N  39  -0.00027    -0.03897     0.00541     0.01744     0.01780     0.00693
  
  S  C  40   0.00347     0.36464    -0.03419    -0.04269    -0.08177    -0.00601
 PX  C  40  -0.00024     0.03193    -0.00682    -0.03315    -0.04395    -0.02428
 PY  C  40  -0.00056    -0.06298     0.01088     0.04221     0.02644     0.01038
 PZ  C  40  -0.00026    -0.04104     0.00732     0.02966     0.02304     0.01038
  
  S  C  41   0.00249     0.22608    -0.00064     0.10824     0.00147     0.02990
 PX  C  41  -0.00036    -0.00815    -0.00216    -0.02194    -0.01913    -0.01337
 PY  C  41  -0.00059    -0.04029     0.01227     0.05378     0.00883    -0.00097
 PZ  C  41  -0.00026    -0.02070     0.00714     0.03373     0.00853     0.00203
  
  S  C  42   0.00255     0.17117     0.00074     0.09498     0.03391     0.04122
 PX  C  42   0.00029     0.04621     0.00179     0.03509    -0.00463     0.00465
 PY  C  42  -0.00081    -0.02930     0.00774     0.03320    -0.01024    -0.00881
 PZ  C  42  -0.00051    -0.02518     0.00390     0.01141    -0.00480    -0.00578
  
  S  S  43   0.00073     0.06725     0.01414     0.11871     0.01650     0.01322
 PX  S  43   0.00033     0.03682     0.00897     0.07163     0.00730     0.00636
 PY  S  43  -0.00024    -0.01461     0.00380     0.01177    -0.00229    -0.00689
 PZ  S  43  -0.00020    -0.01523     0.00026    -0.00784    -0.00272    -0.00500
  
  S  C  44   0.00083     0.10470     0.04750     0.29745     0.02731     0.00829
 PX  C  44   0.00010     0.01778     0.01357     0.06708     0.00469    -0.00024
 PY  C  44  -0.00023    -0.01756     0.01014     0.03424     0.00241    -0.00970
 PZ  C  44  -0.00014    -0.01321     0.00268     0.00508     0.00035    -0.00524
  
  S  C  45   0.00114     0.13335     0.03170     0.22570     0.01441     0.01523
 PX  C  45  -0.00032    -0.02944    -0.00276    -0.04011    -0.00651    -0.00807
 PY  C  45  -0.00025    -0.01835     0.01508     0.06009     0.00854    -0.00414
 PZ  C  45  -0.00008    -0.00434     0.00869     0.04079     0.00595    -0.00069
  
  S  S  46   0.00038     0.05454     0.03431     0.14501     0.00900     0.00138
 PX  S  46  -0.00023    -0.03232    -0.01374    -0.08621    -0.00578    -0.00169
 PY  S  46  -0.00004    -0.00207     0.01478     0.03393     0.00509    -0.00104
 PZ  S  46   0.00002     0.00507     0.00957     0.03526     0.00390    -0.00021
  
  S  C  47   0.00034     0.05855     0.07971     0.25498     0.02182    -0.00535
 PX  C  47  -0.00012    -0.01827    -0.00271    -0.08562    -0.00744     0.00154
 PY  C  47  -0.00007    -0.00892     0.01155    -0.01691    -0.00108    -0.00274
 PZ  C  47  -0.00002    -0.00194     0.00291     0.00604     0.00074    -0.00177
  
  S  C  48   0.00046     0.07693     0.07496     0.36953     0.03262    -0.01083
 PX  C  48   0.00002     0.00292     0.00659    -0.00479    -0.00091     0.00242
 PY  C  48  -0.00012    -0.01304     0.00268    -0.00863    -0.00062    -0.00578
 PZ  C  48  -0.00007    -0.00837    -0.00088    -0.00668    -0.00042    -0.00361
  
  S  C  49   0.00024     0.05007     0.06468     0.34194     0.03083    -0.02241
 PX  C  49   0.00001     0.00066     0.00314    -0.01072    -0.00110     0.00218
 PY  C  49  -0.00005    -0.00845    -0.00695    -0.04023    -0.00359     0.00079
 PZ  C  49  -0.00003    -0.00511    -0.00465    -0.01900    -0.00166    -0.00061
  
  S  C  50   0.00015     0.03260     0.04192     0.24564     0.02227    -0.01893
 PX  C  50   0.00001     0.00242     0.00348     0.01108     0.00096    -0.00007
 PY  C  50   0.00001     0.00360     0.00657     0.03865     0.00351    -0.00412
 PZ  C  50  -0.00005    -0.00912    -0.01045    -0.05516    -0.00497     0.00263
  
  S  C  51   0.00008     0.01897     0.02668     0.16909     0.01539    -0.01616
 PX  C  51   0.00002     0.00412     0.00598     0.03493     0.00317    -0.00314
 PY  C  51  -0.00001    -0.00092    -0.00062    -0.00293    -0.00026    -0.00033
 PZ  C  51  -0.00002    -0.00484    -0.00630    -0.03645    -0.00331     0.00266
  
  S  C  52   0.00005     0.01296     0.01943     0.12342     0.01123    -0.01282
 PX  C  52  -0.00000    -0.00126    -0.00171    -0.01389    -0.00127     0.00162
 PY  C  52  -0.00001    -0.00351    -0.00497    -0.03029    -0.00275     0.00274
 PZ  C  52  -0.00001    -0.00256    -0.00365    -0.01960    -0.00177     0.00144
  
  S  C  53   0.00002     0.00543     0.00837     0.05725     0.00522    -0.00667
 PX  C  53   0.00000     0.00059     0.00093     0.00590     0.00054    -0.00066
 PY  C  53  -0.00001    -0.00163    -0.00245    -0.01634    -0.00149     0.00179
 PZ  C  53  -0.00001    -0.00183    -0.00277    -0.01812    -0.00165     0.00196
  
  S  C  54   0.00016     0.03295     0.04115     0.23774     0.02155    -0.01667
 PX  C  54   0.00004     0.00929     0.01215     0.06272     0.00565    -0.00393
 PY  C  54  -0.00003    -0.00572    -0.00558    -0.03278    -0.00297     0.00149
 PZ  C  54   0.00001     0.00251     0.00396     0.02404     0.00219    -0.00235
  
  S  C  55   0.00010     0.02026     0.02553     0.14161     0.01281    -0.00943
 PX  C  55   0.00001     0.00121     0.00188     0.00467     0.00040     0.00001
 PY  C  55  -0.00003    -0.00535    -0.00566    -0.03177    -0.00287     0.00160
 PZ  C  55   0.00003     0.00687     0.00905     0.05058     0.00458    -0.00359
  
  S  C  56   0.00013     0.02931     0.13033     0.11417     0.01004    -0.00535
 PX  C  56  -0.00004    -0.00567     0.02619    -0.04981    -0.00434     0.00181
 PY  C  56  -0.00003    -0.00325     0.02966    -0.03161    -0.00271     0.00043
 PZ  C  56  -0.00002    -0.00442    -0.02010    -0.01426    -0.00124     0.00030
  
  S  C  57   0.00007     0.02348     0.23107     0.01899     0.00179    -0.00222
 PX  C  57  -0.00001    -0.00079     0.04919    -0.03665    -0.00318     0.00130
 PY  C  57  -0.00001     0.00016     0.05602    -0.03348    -0.00289     0.00097
 PZ  C  57   0.00001     0.00252     0.02910     0.00057     0.00008    -0.00038
  
  S  C  58   0.00005     0.03120     0.50403    -0.10189    -0.00861     0.00136
 PX  C  58  -0.00000     0.00360     0.09168    -0.03553    -0.00306     0.00117
 PY  C  58   0.00000     0.00396     0.09676    -0.03601    -0.00309     0.00112
 PZ  C  58   0.00000     0.00079     0.01102     0.00001     0.00002    -0.00026
  
  S  O  59   0.00004     0.02429     0.40396    -0.08574    -0.00725     0.00110
 PX  O  59  -0.00000    -0.00048    -0.00036    -0.00392    -0.00035     0.00024
 PY  O  59  -0.00000    -0.00164    -0.02000     0.00047     0.00003     0.00017
 PZ  O  59  -0.00002    -0.01014    -0.17138     0.03786     0.00321    -0.00057
  
  S  O  60   0.00004     0.03096     0.55698    -0.14279    -0.01217     0.00329
 PX  O  60  -0.00000    -0.00291    -0.04743     0.00971     0.00082    -0.00014
 PY  O  60  -0.00000    -0.00199    -0.03086     0.00547     0.00046    -0.00005
 PZ  O  60   0.00001     0.00868     0.15705    -0.04042    -0.00344     0.00091
  
  S  C  61   0.00004     0.01268     0.11334     0.01631     0.00146    -0.00121
 PX  C  61  -0.00001    -0.00057     0.01427    -0.01211    -0.00105     0.00038
 PY  C  61  -0.00000    -0.00001     0.01918    -0.01107    -0.00095     0.00025
 PZ  C  61   0.00002     0.00515     0.04898     0.00468     0.00044    -0.00045
  
  S  N  62   0.00002     0.00467     0.03895     0.00818     0.00071    -0.00052
 PX  N  62  -0.00000    -0.00019     0.00263    -0.00270    -0.00023     0.00008
 PY  N  62  -0.00000     0.00006     0.00473    -0.00220    -0.00019     0.00004
 PZ  N  62   0.00001     0.00285     0.02390     0.00479     0.00042    -0.00030
  
  S  C  63   0.10533    -0.00417     0.00056     0.00618    -0.03906     0.29427
 PX  C  63   0.02735    -0.00090     0.00011     0.00094    -0.00588     0.02303
 PY  C  63  -0.01884     0.00092    -0.00013    -0.00164     0.01037    -0.08220
 PZ  C  63  -0.01932     0.00074    -0.00010    -0.00093     0.00582    -0.02280
  
  S  C  64   0.05775    -0.00235     0.00032     0.00373    -0.02361     0.20151
 PX  C  64   0.00568    -0.00014     0.00001     0.00007    -0.00040    -0.00239
 PY  C  64   0.00109     0.00002    -0.00001    -0.00010     0.00067    -0.00571
 PZ  C  64  -0.02556     0.00104    -0.00014    -0.00160     0.01011    -0.07795
  
  S  H  65   0.00005     0.01184     0.05790     0.04594     0.00407    -0.00256
  
  S  H  66   0.00377    -0.00021     0.00003     0.00052    -0.00329     0.04197
  
  S  H  67   0.00262    -0.00015     0.00002     0.00039    -0.00246     0.03278
  
  S  H  68   0.00382    -0.00022     0.00003     0.00052    -0.00332     0.04241
  
  S  H  69   0.00863    -0.00046     0.00007     0.00102    -0.00651     0.07559
  
  S  H  70   0.00848    -0.00045     0.00007     0.00100    -0.00639     0.07388
  
  S  H  71   0.01937    -0.00094     0.00014     0.00184    -0.01168     0.11617
  
  S  H  72   0.02053    -0.00100     0.00015     0.00197    -0.01248     0.12624
  
  S  H  73   0.03444    -0.00156     0.00022     0.00271    -0.01717     0.14831
  
  S  H  74   0.03312    -0.00149     0.00021     0.00255    -0.01615     0.13263
  
  S  H  75   0.07377    -0.00291     0.00039     0.00401    -0.02525     0.14409
  
  S  H  76   0.08690    -0.00302     0.00038     0.00345    -0.02167     0.10157
  
  S  H  77   0.08389    -0.00311     0.00040     0.00373    -0.02341     0.08878
  
  S  H  78   0.05094    -0.00193     0.00025     0.00220    -0.01379     0.00066
  
  S  H  79   0.02030    -0.00081     0.00011     0.00096    -0.00599    -0.02269
  
  S  H  80   0.01894    -0.00071     0.00009     0.00078    -0.00487    -0.02678
  
  S  H  81   0.03149    -0.00072     0.00007     0.00034    -0.00209    -0.03677
  
  S  H  82   0.05120     0.00003    -0.00009    -0.00174     0.01100     0.00435
  
  S  H  83   0.02426     0.00528    -0.00083    -0.00806     0.05039    -0.01835
  
  S  H  84   0.03487     0.00414    -0.00067    -0.00678     0.04240    -0.03412
  
  S  H  85   0.01458     0.01541    -0.00232    -0.02169     0.13685     0.00968
  
  S  H  86   0.00526     0.01144    -0.00166    -0.01507     0.09592     0.01612
  
  S  H  87   0.00551     0.01253    -0.00183    -0.01667     0.10627     0.01828
  
  S  H  88   0.00343     0.00660    -0.00105    -0.01123     0.07160     0.01283
  
  S  H  89   0.00340     0.00619    -0.00098    -0.01055     0.06725     0.01186
  
  S  H  90   0.00140     0.00319    -0.00052    -0.00582     0.03720     0.00798
  
  S  H  91   0.00141     0.00327    -0.00053    -0.00594     0.03803     0.00818
  
  S  H  92   0.00063     0.00145    -0.00024    -0.00297     0.01899     0.00442
  
  S  H  93   0.00043     0.00105    -0.00018    -0.00222     0.01425     0.00348
  
  S  H  94   0.00063     0.00147    -0.00025    -0.00300     0.01919     0.00447
  
  S  H  95   0.01268     0.01124    -0.00171    -0.01620     0.10224     0.00440
  
  S  H  96   0.00669     0.00903    -0.00140    -0.01409     0.08933     0.01033
  
  S  H  97   0.00372     0.00712    -0.00107    -0.01034     0.06573     0.00988
  
  S  H  98   0.00491     0.01031    -0.00145    -0.01218     0.07732     0.01119
  
  S  H  99   0.00304     0.00508    -0.00077    -0.00747     0.04740     0.00631
  
  S  H 100   0.00046     0.05950    -0.00750    -0.02141    -0.02327    -0.00821
  
  S  H 101   0.00042     0.05954    -0.00724    -0.01940    -0.02472    -0.00877
  
  S  H 102   0.00009     0.02049     0.03176     0.14289     0.01286    -0.00993
  
  S  H 103   0.00008     0.01533     0.01746     0.10513     0.00958    -0.00726
  
  S  H 104   0.00007     0.01370     0.01784     0.09973     0.00902    -0.00743
  
  S  H 105   0.00004     0.00842     0.01166     0.07449     0.00678    -0.00704
  
  S  H 106   0.00003     0.00642     0.00906     0.05898     0.00537    -0.00586
  
  S  H 107   0.00002     0.00588     0.00902     0.05440     0.00495    -0.00551
  
  S  H 108   0.00003     0.00680     0.01025     0.06176     0.00561    -0.00609
  
  S  H 109   0.00001     0.00221     0.00341     0.02356     0.00215    -0.00277
  
  S  H 110   0.00001     0.00179     0.00280     0.01923     0.00175    -0.00229
  
  S  H 111   0.00001     0.00235     0.00359     0.02470     0.00225    -0.00287
  
  S  H 112   0.00008     0.01507     0.01709     0.10228     0.00932    -0.00669
  
  S  H 113   0.00005     0.01200     0.01576     0.09332     0.00847    -0.00727
  
  S  H 114   0.00003     0.00615     0.00773     0.04459     0.00404    -0.00312
  
  S  H 115   0.00004     0.00863     0.01212     0.06077     0.00549    -0.00414
  
  S  H 116   0.00007     0.01211     0.01375     0.07319     0.00660    -0.00399
  
  S  H 117   0.00002     0.01292     0.23447    -0.06105    -0.00520     0.00142
  
  S  H 118   0.06122    -0.00203     0.00025     0.00246    -0.01547     0.10628
  
  S  H 119   0.03547    -0.00147     0.00020     0.00233    -0.01475     0.12022
  
  S  H 120   0.03210    -0.00122     0.00016     0.00180    -0.01135     0.09295
  
  S  H 121   0.01859    -0.00072     0.00010     0.00114    -0.00723     0.06564
  
  S  H 122   0.02294    -0.00099     0.00014     0.00169    -0.01071     0.09570




    ROOT NO.    7           8           9          10          11          12

           -43.75599   -42.96653   -42.72695   -41.68226   -41.15242   -40.09635
  
  
  S  C   1  -0.01633     0.00403     0.00136    -0.11778    -0.07600     0.09899
 PX  C   1  -0.00620     0.00147     0.00050    -0.04054    -0.02536     0.03076
 PY  C   1  -0.00187     0.00045     0.00014    -0.01041    -0.00618     0.00653
 PZ  C   1  -0.00007     0.00007    -0.00000    -0.00019    -0.00010    -0.00001
  
  S  C   2  -0.02894     0.00665     0.00227    -0.17989    -0.11106     0.13154
 PX  C   2  -0.00244     0.00030     0.00012    -0.00159     0.00165    -0.00889
 PY  C   2  -0.00775     0.00172     0.00055    -0.03947    -0.02271     0.02232
 PZ  C   2  -0.00026     0.00027    -0.00001    -0.00067    -0.00034    -0.00003
  
  S  C   3  -0.04271     0.00919     0.00293    -0.20193    -0.11394     0.10779
 PX  C   3  -0.00834     0.00123     0.00044    -0.01440    -0.00271    -0.01144
 PY  C   3   0.00137    -0.00032    -0.00026     0.02819     0.02032    -0.03119
 PZ  C   3  -0.00128     0.00119    -0.00002    -0.00296    -0.00144    -0.00033
  
  S  C   4  -0.04929     0.00798     0.00301    -0.15419    -0.07226     0.03582
 PX  C   4   0.00406    -0.00234    -0.00038     0.04701     0.03099    -0.03670
 PY  C   4  -0.00947     0.00151     0.00036    -0.00372     0.00489    -0.02049
 PZ  C   4  -0.00167     0.00327    -0.00019    -0.00284    -0.00179    -0.00096
  
  S  C   5  -0.04832     0.00463     0.00224    -0.04331     0.00229    -0.05041
 PX  C   5   0.00529    -0.00448    -0.00043     0.06290     0.03743    -0.02789
 PY  C   5   0.00536     0.00067    -0.00072     0.03927     0.02096    -0.01590
 PZ  C   5  -0.01010     0.01211    -0.00044    -0.01931    -0.00966    -0.00322
  
  S  C   6  -0.02034    -0.00486     0.00024     0.12075     0.08600    -0.08316
 PX  C   6   0.01280    -0.00002    -0.00107     0.04870     0.01942     0.00430
 PY  C   6   0.00342     0.00071    -0.00099     0.07528     0.04027    -0.02044
 PZ  C   6  -0.00755     0.01956    -0.00111    -0.03038    -0.02047     0.00916
  
  S  N   7   0.02015    -0.01889    -0.00239     0.29828     0.15746    -0.06328
 PX  N   7   0.00465     0.01383    -0.00144    -0.00122    -0.01183     0.02306
 PY  N   7   0.01042     0.01411    -0.00215     0.02344    -0.00527     0.03237
 PZ  N   7  -0.01540     0.05082    -0.00383     0.00848    -0.00412    -0.00143
  
  S  C   8   0.05950    -0.21006     0.01565    -0.00968     0.03374    -0.02540
 PX  C   8   0.00455     0.00483    -0.00079     0.01162    -0.00084     0.01280
 PY  C   8   0.01158    -0.02090     0.00157    -0.04156    -0.02703     0.02708
 PZ  C   8  -0.01173     0.09712    -0.01000     0.19305     0.07452    -0.00596
  
  S  C   9   0.04846    -0.23711     0.02030    -0.16928    -0.03097    -0.03080
 PX  C   9   0.00932    -0.03756     0.00312    -0.02547    -0.00585    -0.00098
 PY  C   9   0.02058    -0.09048     0.00777    -0.08049    -0.02347    -0.00053
 PZ  C   9  -0.00146     0.01429    -0.00181     0.06315     0.03042    -0.00972
  
  S  C  10   0.04921    -0.24618     0.02179    -0.24509    -0.07089    -0.01400
 PX  C  10   0.00723    -0.03352     0.00294    -0.03383    -0.01064     0.00014
 PY  C  10   0.01050    -0.04889     0.00433    -0.05428    -0.01849     0.00193
 PZ  C  10   0.01690    -0.08053     0.00696    -0.06741    -0.01680    -0.00556
  
  S  C  11   0.04922    -0.24078     0.02140    -0.25690    -0.08122    -0.00352
 PX  C  11  -0.00088     0.00584    -0.00051     0.00432     0.00037     0.00199
 PY  C  11  -0.00867     0.04367    -0.00383     0.03936     0.00997     0.00432
 PZ  C  11   0.01934    -0.08903     0.00777    -0.08685    -0.02679     0.00033
  
  S  C  12   0.04876    -0.21602     0.01900    -0.23663    -0.08217     0.01318
 PX  C  12  -0.00843     0.04132    -0.00358     0.03715     0.01002     0.00243
 PY  C  12  -0.02037     0.09282    -0.00801     0.08190     0.02319     0.00193
 PZ  C  12   0.00303     0.00350    -0.00056     0.00723    -0.00124     0.00982
  
  S  C  13   0.05435    -0.16684     0.01311    -0.12392    -0.04831     0.03496
 PX  C  13  -0.00855     0.04133    -0.00325     0.01181    -0.00406     0.00870
 PY  C  13  -0.01585     0.05676    -0.00410    -0.01775    -0.02085     0.01216
 PZ  C  13  -0.01369     0.11169    -0.01064     0.13030     0.03430     0.01837
  
  S  C  14  -0.01099     0.16708    -0.01396    -0.03599    -0.08268     0.09474
 PX  C  14  -0.01068     0.03627    -0.00151    -0.03559    -0.02286     0.00642
 PY  C  14  -0.01710     0.03682    -0.00164    -0.07747    -0.03985     0.00281
 PZ  C  14  -0.02843     0.13276    -0.01041    -0.01290    -0.03613     0.02415
  
  S  C  15  -0.01750     0.19730    -0.01816     0.10407    -0.01389     0.06104
 PX  C  15  -0.00908     0.04731    -0.00302    -0.05447    -0.04183     0.02582
 PY  C  15  -0.01624     0.08514    -0.00608    -0.10218    -0.07893     0.04964
 PZ  C  15  -0.02434     0.06802    -0.00423    -0.07519    -0.04805     0.00859
  
  S  C  16  -0.04486     0.24703    -0.01984    -0.03682    -0.08513     0.06598
 PX  C  16  -0.00499     0.02780    -0.00131    -0.02729    -0.02019     0.01155
 PY  C  16  -0.01689     0.08269    -0.00644    -0.05725    -0.04928     0.02817
 PZ  C  16   0.00661    -0.05891     0.00503    -0.01680     0.01089    -0.01971
  
  S  C  17  -0.06202     0.27231    -0.01736    -0.13170    -0.11036     0.04567
 PX  C  17   0.00326    -0.01537     0.00559    -0.00463     0.01089    -0.01219
 PY  C  17  -0.00786    -0.00431     0.00198    -0.02514     0.00885    -0.02758
 PZ  C  17   0.01914    -0.10623     0.00695     0.04203     0.04679    -0.03071
  
  S  C  18  -0.07442     0.28770    -0.00423    -0.18930    -0.09392    -0.00103
 PX  C  18   0.01171    -0.03439     0.01561     0.00538     0.02916    -0.01978
 PY  C  18   0.00557    -0.07992     0.01404     0.00780     0.05830    -0.06333
 PZ  C  18  -0.00080    -0.02906     0.00467     0.00481     0.02594    -0.03033
  
  S  C  19  -0.04866     0.24106    -0.01312    -0.14234    -0.11416     0.05827
 PX  C  19   0.00184    -0.01357     0.00551    -0.00162     0.01267    -0.01479
 PY  C  19   0.00419    -0.06435     0.00613     0.00994     0.03685    -0.04362
 PZ  C  19  -0.02349     0.08839    -0.00426    -0.04313    -0.02651    -0.00037
  
  S  C  20  -0.02206     0.08808     0.09117    -0.14659     0.10229    -0.13416
 PX  C  20   0.03443    -0.01725     0.04099     0.01410     0.03098     0.01853
 PY  C  20   0.02203    -0.06219     0.04558     0.01500     0.07760    -0.04204
 PZ  C  20   0.00669    -0.02676     0.01924     0.00476     0.03643    -0.02342
  
  S  S  21   0.03681     0.02267     0.12224    -0.06504     0.10968    -0.04777
 PX  S  21  -0.00607    -0.01945    -0.04398     0.04369    -0.04926     0.04596
 PY  S  21   0.02743    -0.01486     0.05541    -0.00184     0.04822    -0.00168
 PZ  S  21   0.01655    -0.00430     0.03928    -0.00910     0.03621    -0.00930
  
  S  C  22   0.16664    -0.02272     0.26288    -0.00833     0.14912     0.05273
 PX  C  22  -0.00673     0.00588    -0.03983     0.02777    -0.06443     0.05359
 PY  C  22   0.06151    -0.01028     0.03953     0.03867    -0.02805     0.07475
 PZ  C  22   0.03564    -0.00644     0.02990     0.01602    -0.00316     0.03186
  
  S  C  23   0.11488    -0.05084     0.20786    -0.01493     0.16389    -0.02064
 PX  C  23   0.08054     0.01291     0.09607     0.00551     0.02370     0.05986
 PY  C  23   0.02620    -0.00161    -0.01089     0.03877    -0.05469     0.07170
 PZ  C  23   0.00048    -0.00200    -0.02293     0.02046    -0.03515     0.03206
  
  S  C  24  -0.03815    -0.04201     0.05559    -0.06996     0.13733    -0.16774
 PX  C  24   0.06461     0.02813     0.11322    -0.03514     0.07653    -0.00002
 PY  C  24   0.01419    -0.03942     0.00439     0.03470     0.00838     0.01852
 PZ  C  24   0.00142    -0.02112    -0.01251     0.02529    -0.01055     0.02269
  
  S  C  25  -0.14117    -0.12607    -0.15154     0.03617    -0.01290    -0.10178
 PX  C  25   0.01162     0.02211     0.04023    -0.03570     0.03898    -0.04397
 PY  C  25  -0.01601    -0.04307    -0.02887     0.02990    -0.00483     0.00281
 PZ  C  25   0.00395    -0.01635    -0.00802     0.02523    -0.01298     0.04916
  
  S  C  26  -0.12476    -0.16478    -0.18055     0.11625    -0.07206     0.07333
 PX  C  26   0.01568     0.02161     0.03706    -0.03170     0.03532    -0.06201
 PY  C  26   0.01376     0.00950     0.01475    -0.00149     0.00172     0.01271
 PZ  C  26   0.02088     0.01740     0.01766     0.00377    -0.01023     0.05423
  
  S  C  27  -0.10869    -0.15405    -0.18690     0.14662    -0.12023     0.21404
 PX  C  27  -0.02083    -0.02518    -0.02767     0.01353    -0.00595    -0.01138
 PY  C  27  -0.00509    -0.01123    -0.01219     0.01405    -0.01144     0.02988
 PZ  C  27   0.00403    -0.00201    -0.00280     0.01402    -0.01527     0.05825
  
  S  C  28  -0.07273    -0.11521    -0.14151     0.13100    -0.11534     0.26149
 PX  C  28  -0.00264    -0.00216    -0.00093    -0.00325     0.00574    -0.02370
 PY  C  28   0.00930     0.01369     0.01698    -0.01433     0.01237    -0.02471
 PZ  C  28   0.01807     0.02614     0.03132    -0.02463     0.01965    -0.03303
  
  S  C  29  -0.04107    -0.06813    -0.08570     0.08546    -0.07912     0.19630
 PX  C  29  -0.01432    -0.02311    -0.02868     0.02730    -0.02449     0.05709
 PY  C  29   0.00104     0.00138     0.00177    -0.00129     0.00110    -0.00160
 PZ  C  29   0.00772     0.01195     0.01483    -0.01333     0.01174    -0.02526
  
  S  C  30  -0.11644    -0.10177    -0.13699     0.03377    -0.02450    -0.10335
 PX  C  30  -0.01607    -0.00661    -0.00902    -0.00884     0.00860    -0.03220
 PY  C  30  -0.00479    -0.02043    -0.01180     0.01498    -0.00116    -0.00325
 PZ  C  30  -0.02760    -0.03210    -0.03544     0.01730    -0.00832    -0.00451
  
  S  C  31  -0.07340    -0.08031    -0.09130     0.03299    -0.01300    -0.07456
 PX  C  31   0.00075     0.00013     0.00501    -0.00389     0.00667    -0.00755
 PY  C  31   0.02490     0.02168     0.02869    -0.00613     0.00382     0.02565
 PZ  C  31  -0.01652    -0.02041    -0.02127     0.01066    -0.00424    -0.00595
  
  S  S  32   0.11382    -0.03244     0.11018     0.03820     0.02477     0.06585
 PX  S  32   0.07896     0.00313     0.06818     0.01629    -0.00134     0.04697
 PY  S  32  -0.02374     0.01682    -0.04432    -0.00608    -0.03145    -0.01227
 PZ  S  32  -0.02832     0.00871    -0.03776    -0.00616    -0.01752    -0.01418
  
  S  C  33   0.28147    -0.00832     0.13605     0.09057    -0.10009     0.13413
 PX  C  33   0.05784     0.00920    -0.02714     0.02406    -0.07681     0.00794
 PY  C  33  -0.02479     0.01230    -0.08281    -0.00766    -0.04334    -0.05207
 PZ  C  33  -0.02495     0.00506    -0.04052    -0.00888    -0.00913    -0.03015
  
  S  C  34   0.24729    -0.01702     0.20754     0.08120    -0.03688     0.17944
 PX  C  34  -0.04742     0.00962    -0.07090     0.00231    -0.05405    -0.01293
 PY  C  34   0.05555     0.00425    -0.01925     0.02737    -0.07003     0.01478
 PZ  C  34   0.03995     0.00056     0.00311     0.01470    -0.02832     0.01087
  
  S  C  35   0.01724    -0.00677     0.06946     0.03737    -0.03610     0.10254
 PX  C  35  -0.13366    -0.00024    -0.04626    -0.03476     0.04387    -0.05085
 PY  C  35   0.06608     0.00659    -0.02468     0.02092    -0.06882    -0.01609
 PZ  C  35   0.06241     0.00371    -0.00474     0.01830    -0.04661     0.00089
  
  S  N  36  -0.16794    -0.01378     0.04949    -0.02256     0.09209     0.06762
 PX  N  36  -0.06809    -0.00150    -0.01510    -0.01641     0.02709    -0.01640
 PY  N  36  -0.04771    -0.00336     0.01099    -0.00450     0.01787     0.01579
 PZ  N  36  -0.01338    -0.00158     0.00904     0.00066     0.00471     0.01194
  
  S  C  37  -0.17230    -0.00890     0.00543    -0.03311     0.08077     0.00415
 PX  C  37   0.05031     0.00394    -0.01344     0.00664    -0.02712    -0.02290
 PY  C  37  -0.04780    -0.00128    -0.00745    -0.00925     0.01323    -0.01435
 PZ  C  37  -0.03641    -0.00148    -0.00155    -0.00645     0.01264    -0.00358
  
  S  C  38  -0.17165    -0.00443    -0.03011    -0.03786     0.05760    -0.05893
 PX  C  38   0.07385     0.00226     0.00886     0.01376    -0.02260     0.01405
 PY  C  38  -0.01329     0.00136    -0.01533    -0.00424    -0.00515    -0.02672
 PZ  C  38  -0.02157     0.00032    -0.01023    -0.00500     0.00148    -0.01756
  
  S  N  39  -0.16553     0.00186    -0.07193    -0.03769     0.02109    -0.10930
 PX  N  39   0.01510    -0.00226     0.01946     0.00098     0.01422     0.01749
 PY  N  39   0.07361     0.00308     0.00449     0.01453    -0.02650     0.01623
 PZ  N  39   0.03819     0.00214    -0.00111     0.00794    -0.01747     0.00582
  
  S  C  40   0.01961     0.01034    -0.05681     0.02279    -0.10021    -0.03524
 PX  C  40  -0.13292    -0.00345    -0.02709    -0.04248     0.07295    -0.06202
 PY  C  40   0.06836     0.00856    -0.03750     0.00612    -0.03915    -0.03474
 PZ  C  40   0.06319     0.00539    -0.01550     0.01151    -0.03560    -0.00737
  
  S  C  41   0.25355     0.03740    -0.16459     0.04144    -0.19538    -0.09594
 PX  C  41  -0.08019    -0.00422    -0.00092    -0.02436     0.05375    -0.01619
 PY  C  41   0.01025     0.00979    -0.06746    -0.02723     0.02939    -0.05893
 PZ  C  41   0.02102     0.00619    -0.03690    -0.01028     0.00575    -0.02943
  
  S  C  42   0.28504     0.02720    -0.08525     0.06540    -0.19718    -0.02654
 PX  C  42   0.05607     0.01243    -0.06345     0.00461    -0.05174    -0.04280
 PY  C  42  -0.02903     0.00859    -0.06982    -0.02905     0.02206    -0.07077
 PZ  C  42  -0.02698     0.00232    -0.02616    -0.01690     0.02211    -0.03079
  
  S  S  43   0.11430     0.01945    -0.09375     0.00676    -0.07056    -0.07455
 PX  S  43   0.06310     0.01330    -0.06995    -0.00356    -0.03046    -0.05270
 PY  S  43  -0.04911    -0.00547     0.02025    -0.00928     0.03262     0.00613
 PZ  S  43  -0.03909    -0.00558     0.02480    -0.00414     0.02285     0.01296
  
  S  C  44   0.11521     0.03458    -0.20408    -0.05405     0.04690    -0.10994
 PX  C  44   0.01518     0.00954    -0.06521    -0.03447     0.07138    -0.00499
 PY  C  44  -0.07890    -0.01213     0.05554    -0.01154     0.06682     0.04802
 PZ  C  44  -0.04602    -0.00850     0.04326     0.00082     0.02098     0.02575
  
  S  C  45   0.17621     0.04491    -0.25468    -0.04822     0.00222    -0.13650
 PX  C  45  -0.06767    -0.01067     0.04852    -0.00992     0.05738     0.04553
 PY  C  45  -0.02484     0.00138    -0.02259    -0.03377     0.09184     0.01609
 PZ  C  45  -0.00029     0.00288    -0.02209    -0.01658     0.03884    -0.00083
  
  S  S  46   0.04678     0.02107    -0.13733    -0.06140     0.11844    -0.00288
 PX  S  46  -0.03444    -0.01316     0.08288     0.03068    -0.04651     0.03219
 PY  S  46  -0.00539     0.00135    -0.01367    -0.01860     0.05836     0.04195
 PZ  S  46   0.00398     0.00330    -0.02344    -0.01552     0.03830     0.01247
  
  S  C  47  -0.00201     0.01651    -0.12584    -0.09313     0.24194     0.11699
 PX  C  47   0.00118    -0.00353     0.02547     0.01164    -0.01330     0.04700
 PY  C  47  -0.03057    -0.00813     0.04702     0.00889     0.00762     0.06585
 PZ  C  47  -0.01711    -0.00405     0.02312     0.00515    -0.00211     0.01623
  
  S  C  48  -0.04470     0.00754    -0.07250    -0.06595     0.16411     0.02257
 PX  C  48   0.02818     0.00931    -0.05964    -0.03041     0.07112     0.03200
 PY  C  48  -0.05917    -0.01494     0.08664     0.02259    -0.01979     0.04651
 PZ  C  48  -0.03830    -0.01039     0.06204     0.02091    -0.03273     0.01451
  
  S  C  49  -0.17299    -0.03008     0.15836     0.02711    -0.01459     0.02492
 PX  C  49   0.02292     0.00688    -0.04333    -0.02166     0.05146     0.02375
 PY  C  49   0.00056    -0.00212     0.01594     0.01042    -0.02334     0.00185
 PZ  C  49  -0.01128    -0.00502     0.03389     0.02082    -0.05330    -0.01724
  
  S  C  50  -0.15754    -0.03307     0.18853     0.06302    -0.12321    -0.02890
 PX  C  50   0.00215     0.00171    -0.01235    -0.00909     0.02472     0.01143
 PY  C  50  -0.03710    -0.00887     0.05254     0.02050    -0.04285    -0.00768
 PZ  C  50   0.01681     0.00123    -0.00226     0.00838    -0.02947    -0.01307
  
  S  C  51  -0.14453    -0.03492     0.20872     0.08872    -0.20151    -0.06194
 PX  C  51  -0.02741    -0.00630     0.03705     0.01443    -0.03102    -0.00761
 PY  C  51  -0.00457    -0.00185     0.01248     0.00827    -0.02272    -0.00869
 PZ  C  51   0.02131     0.00399    -0.02153    -0.00420     0.00269    -0.00358
  
  S  C  52  -0.11764    -0.02983     0.18117     0.08322    -0.19781    -0.06516
 PX  C  52   0.01546     0.00418    -0.02585    -0.01290     0.03197     0.01214
 PY  C  52   0.02395     0.00549    -0.03219    -0.01219     0.02542     0.00589
 PZ  C  52   0.01146     0.00204    -0.01069    -0.00112    -0.00253    -0.00503
  
  S  C  53  -0.06341    -0.01718     0.10654     0.05395    -0.13529    -0.05036
 PX  C  53  -0.00619    -0.00164     0.01006     0.00492    -0.01210    -0.00419
 PY  C  53   0.01667     0.00435    -0.02662    -0.01269     0.03072     0.01062
 PZ  C  53   0.01822     0.00472    -0.02884    -0.01362     0.03281     0.01113
  
  S  C  54  -0.13272    -0.02477     0.13413     0.02880    -0.02847     0.01159
 PX  C  54  -0.02949    -0.00464     0.02313     0.00101     0.00827     0.00959
 PY  C  54   0.00986     0.00112    -0.00471     0.00070    -0.00296     0.00247
 PZ  C  54  -0.02094    -0.00496     0.02938     0.01190    -0.02630    -0.00716
  
  S  C  55  -0.07310    -0.01261     0.06561     0.00784     0.00922     0.01997
 PX  C  55   0.00126     0.00074    -0.00515    -0.00320     0.00795     0.00366
 PY  C  55   0.01104     0.00138    -0.00610     0.00105    -0.00593    -0.00185
 PZ  C  55  -0.02843    -0.00519     0.02772     0.00501    -0.00236     0.00526
  
  S  C  56  -0.02666     0.00362    -0.04192    -0.06203     0.21076     0.24465
 PX  C  56   0.00977     0.00002     0.00345     0.00555    -0.01124     0.02255
 PY  C  56  -0.00136    -0.00208     0.01481     0.00800    -0.01384     0.02299
 PZ  C  56  -0.00119    -0.00210     0.01619     0.01490    -0.04676    -0.04646
  
  S  C  57  -0.01111     0.00258    -0.02774    -0.04371     0.15968     0.22033
 PX  C  57   0.00659    -0.00062     0.00804     0.01254    -0.04250    -0.04851
 PY  C  57   0.00383    -0.00117     0.01103     0.01312    -0.04259    -0.04509
 PZ  C  57  -0.00312    -0.00049     0.00223    -0.00134     0.00866     0.03464
  
  S  C  58   0.00509    -0.00053     0.00495     0.00197     0.00320     0.04965
 PX  C  58   0.00623    -0.00052     0.00754     0.01467    -0.05661    -0.09899
 PY  C  58   0.00568    -0.00068     0.00850     0.01488    -0.05600    -0.08917
 PZ  C  58  -0.00244    -0.00044     0.00191    -0.00333     0.02286     0.11601
  
  S  O  59   0.00306    -0.00109     0.00850     0.00245     0.01105     0.14814
 PX  O  59   0.00149    -0.00003     0.00115     0.00336    -0.01421    -0.03130
 PY  O  59   0.00121    -0.00000     0.00087     0.00321    -0.01436    -0.03622
 PZ  O  59  -0.00203     0.00043    -0.00379    -0.00262     0.00343    -0.03271
  
  S  O  60   0.01639    -0.00116     0.01693     0.03193    -0.12454    -0.26054
 PX  O  60  -0.00063    -0.00003     0.00017     0.00046    -0.00236    -0.00270
 PY  O  60  -0.00021    -0.00009     0.00084     0.00149    -0.00615    -0.00893
 PZ  O  60   0.00436    -0.00041     0.00523     0.00872    -0.03213    -0.05304
  
  S  C  61  -0.00448     0.00266    -0.02462    -0.03365     0.12145     0.15284
 PX  C  61   0.00162    -0.00036     0.00359     0.00446    -0.01465    -0.01808
 PY  C  61   0.00060    -0.00054     0.00450     0.00449    -0.01421    -0.01740
 PZ  C  61  -0.00221     0.00043    -0.00459    -0.00611     0.01924     0.01632
  
  S  N  62  -0.00155     0.00154    -0.01393    -0.01950     0.07315     0.10019
 PX  N  62   0.00034    -0.00010     0.00091     0.00108    -0.00353    -0.00430
 PY  N  62   0.00005    -0.00009     0.00068     0.00042    -0.00086    -0.00053
 PZ  N  62  -0.00092     0.00084    -0.00755    -0.01027     0.03777     0.04933
  
  S  C  63  -0.04260     0.02234     0.00030    -0.04730    -0.00936    -0.04194
 PX  C  63  -0.00264     0.00420    -0.00048     0.02098     0.01301    -0.01374
 PY  C  63   0.01136    -0.00093    -0.00074     0.02484     0.00824     0.00474
 PZ  C  63   0.00166     0.00367    -0.00037    -0.00631    -0.00587     0.00415
  
  S  C  64  -0.03084     0.01997    -0.00001    -0.04644    -0.01521    -0.02628
 PX  C  64   0.00034     0.00202    -0.00030     0.00998     0.00526    -0.00419
 PY  C  64   0.00059     0.00169    -0.00028     0.00617     0.00305    -0.00351
 PZ  C  64   0.01130    -0.00558    -0.00015     0.01442     0.00354     0.00966
  
  S  H  65  -0.01521     0.00003    -0.00778    -0.02013     0.07289     0.09511
  
  S  H  66  -0.00701     0.00170     0.00059    -0.05033    -0.03245     0.04222
  
  S  H  67  -0.00555     0.00139     0.00048    -0.04227    -0.02769     0.03724
  
  S  H  68  -0.00709     0.00179     0.00058    -0.05047    -0.03250     0.04213
  
  S  H  69  -0.01225     0.00289     0.00094    -0.07455    -0.04582     0.05368
  
  S  H  70  -0.01194     0.00256     0.00095    -0.07377    -0.04542     0.05372
  
  S  H  71  -0.01784     0.00332     0.00126    -0.08355    -0.04684     0.04415
  
  S  H  72  -0.01961     0.00506     0.00122    -0.08758    -0.04884     0.04373
  
  S  H  73  -0.02175     0.00506     0.00116    -0.06542    -0.03070     0.01411
  
  S  H  74  -0.01879     0.00096     0.00136    -0.06129    -0.02879     0.01691
  
  S  H  75  -0.01664    -0.00735     0.00157    -0.01600     0.00335    -0.02044
  
  S  H  76  -0.01222     0.01087    -0.00080     0.04205     0.02832    -0.03090
  
  S  H  77  -0.00667    -0.01077     0.00094     0.03748     0.03096    -0.03197
  
  S  H  78   0.01142    -0.06530     0.00560    -0.03597    -0.00056    -0.01627
  
  S  H  79   0.01305    -0.06810     0.00609    -0.07137    -0.02091    -0.00492
  
  S  H  80   0.01309    -0.06616     0.00595    -0.07554    -0.02467    -0.00093
  
  S  H  81   0.01206    -0.05223     0.00473    -0.07054    -0.02768     0.00757
  
  S  H  82  -0.01381     0.06747    -0.00554     0.00172    -0.01626     0.01182
  
  S  H  83  -0.02124     0.07656    -0.00410    -0.04523    -0.02725     0.00235
  
  S  H  84  -0.01416     0.06096    -0.00163    -0.05334    -0.03109     0.00918
  
  S  H  85  -0.06152    -0.03359    -0.06376     0.00489    -0.01451    -0.03503
  
  S  H  86  -0.04622    -0.06532    -0.06650     0.04655    -0.02620     0.03677
  
  S  H  87  -0.05204    -0.07453    -0.07525     0.05167    -0.02766     0.02939
  
  S  H  88  -0.04928    -0.06815    -0.08334     0.06307    -0.05174     0.08591
  
  S  H  89  -0.04643    -0.06347    -0.07874     0.06005    -0.05045     0.08771
  
  S  H  90  -0.03004    -0.04762    -0.05814     0.05381    -0.04705     0.10701
  
  S  H  91  -0.03058    -0.04855    -0.05905     0.05446    -0.04734     0.10678
  
  S  H  92  -0.01768    -0.02915    -0.03675     0.03648    -0.03383     0.08371
  
  S  H  93  -0.01394    -0.02364    -0.02986     0.03068    -0.02878     0.07384
  
  S  H  94  -0.01781    -0.02936    -0.03695     0.03660    -0.03386     0.08351
  
  S  H  95  -0.04662    -0.02076    -0.04698    -0.00433    -0.00851    -0.05156
  
  S  H  96  -0.04887    -0.04602    -0.06315     0.02215    -0.01849    -0.02751
  
  S  H  97  -0.03410    -0.04065    -0.04543     0.02095    -0.01009    -0.02305
  
  S  H  98  -0.02936    -0.03651    -0.03270     0.01199     0.00202    -0.03767
  
  S  H  99  -0.02439    -0.02594    -0.03087     0.01050    -0.00492    -0.02812
  
  S  H 100  -0.04436    -0.00249     0.00248    -0.00926     0.02409     0.00271
  
  S  H 101  -0.04412    -0.00104    -0.00912    -0.01085     0.01618    -0.01956
  
  S  H 102  -0.07777    -0.01382     0.07312     0.01225    -0.00367     0.02430
  
  S  H 103  -0.05900    -0.01197     0.06769     0.02227    -0.04410    -0.01444
  
  S  H 104  -0.06114    -0.01256     0.07114     0.02316    -0.04488    -0.00968
  
  S  H 105  -0.06274    -0.01506     0.08981     0.03771    -0.08493    -0.02597
  
  S  H 106  -0.05321    -0.01322     0.07978     0.03557    -0.08313    -0.02743
  
  S  H 107  -0.05018    -0.01255     0.07588     0.03420    -0.08051    -0.02547
  
  S  H 108  -0.05492    -0.01347     0.08095     0.03530    -0.08144    -0.02453
  
  S  H 109  -0.02641    -0.00719     0.04470     0.02282    -0.05748    -0.02165
  
  S  H 110  -0.02198    -0.00603     0.03759     0.01943    -0.04925    -0.01871
  
  S  H 111  -0.02727    -0.00738     0.04578     0.02317    -0.05808    -0.02168
  
  S  H 112  -0.05262    -0.00973     0.05270     0.01199    -0.01436    -0.00050
  
  S  H 113  -0.06020    -0.01226     0.06867     0.01926    -0.02969     0.00007
  
  S  H 114  -0.02464    -0.00445     0.02363     0.00361     0.00098     0.00623
  
  S  H 115  -0.03220    -0.00555     0.02876     0.00302     0.00587     0.01196
  
  S  H 116  -0.02861    -0.00405     0.01916    -0.00118     0.01369     0.00927
  
  S  H 117   0.00702    -0.00060     0.00809     0.01466    -0.05648    -0.10973
  
  S  H 118  -0.01612     0.01621    -0.00091     0.00065     0.00435    -0.02078
  
  S  H 119  -0.01773     0.00803     0.00035    -0.03169    -0.01106    -0.01057
  
  S  H 120  -0.01433     0.01132    -0.00025    -0.01511    -0.00396    -0.01401
  
  S  H 121  -0.01044     0.00820    -0.00019    -0.01525    -0.00529    -0.00980
  
  S  H 122  -0.01463     0.00767     0.00026    -0.03103    -0.01254    -0.00598




    ROOT NO.   13          14          15          16          17          18

           -39.62514   -39.40861   -39.22264   -38.88403   -38.16393   -37.22560
  
  
  S  C   1  -0.09610     0.30619     0.01050     0.01859    -0.01546     0.03337
 PX  C   1  -0.02880     0.09016     0.00304     0.00523    -0.00405     0.00782
 PY  C   1  -0.00563     0.01687     0.00055     0.00086    -0.00051     0.00048
 PZ  C   1   0.00010    -0.00046    -0.00002    -0.00005     0.00008    -0.00030
  
  S  C   2  -0.12199     0.38033     0.01279     0.02187    -0.01680     0.03237
 PX  C   2   0.01144    -0.04048    -0.00151    -0.00303     0.00315    -0.00840
 PY  C   2  -0.01848     0.05421     0.00172     0.00260    -0.00136     0.00066
 PZ  C   2   0.00033    -0.00156    -0.00007    -0.00018     0.00027    -0.00100
  
  S  C   3  -0.08787     0.25597     0.00808     0.01210    -0.00630     0.00368
 PX  C   3   0.01665    -0.06054    -0.00228    -0.00466     0.00480    -0.01210
 PY  C   3   0.03200    -0.10426    -0.00364    -0.00665     0.00585    -0.01337
 PZ  C   3   0.00162    -0.00729    -0.00032    -0.00080     0.00115    -0.00402
  
  S  C   4  -0.01467     0.02072    -0.00000    -0.00199     0.00435    -0.01327
 PX  C   4   0.03194    -0.09501    -0.00304    -0.00454     0.00201     0.00183
 PY  C   4   0.02411    -0.08181    -0.00293    -0.00553     0.00492    -0.01050
 PZ  C   4   0.00345    -0.01533    -0.00066    -0.00169     0.00245    -0.00857
  
  S  C   5   0.05813    -0.19200    -0.00668    -0.01169     0.00816    -0.00896
 PX  C   5   0.01390    -0.02282    -0.00012     0.00212    -0.00614     0.02593
 PY  C   5   0.01097    -0.02904    -0.00083    -0.00110     0.00044    -0.00119
 PZ  C   5   0.01236    -0.05416    -0.00231    -0.00566     0.00760    -0.02416
  
  S  C   6   0.05198    -0.11522    -0.00236     0.00174    -0.01275     0.06096
 PX  C   6  -0.01558     0.06493     0.00264     0.00601    -0.00672     0.01699
 PY  C   6   0.00391     0.01101     0.00106     0.00401    -0.00664     0.02022
 PZ  C   6   0.00389    -0.03335    -0.00179    -0.00529     0.00821    -0.02546
  
  S  N   7  -0.00730     0.12217     0.00704     0.02083    -0.02952     0.07740
 PX  N   7  -0.01809     0.04670     0.00120     0.00064     0.00309    -0.01841
 PY  N   7  -0.03021     0.08612     0.00254     0.00205     0.00413    -0.03282
 PZ  N   7   0.01061    -0.04920    -0.00218    -0.00496     0.00594    -0.00945
  
  S  C   8  -0.00481     0.06361     0.00363     0.01107    -0.01596     0.03855
 PX  C   8  -0.01263     0.03703     0.00112     0.00103     0.00161    -0.01465
 PY  C   8  -0.01597     0.03081     0.00041    -0.00225     0.00780    -0.03781
 PZ  C   8  -0.02299     0.10857     0.00470     0.00980    -0.00959     0.01077
  
  S  C   9   0.03071    -0.08552    -0.00245    -0.00048    -0.00710     0.04496
 PX  C   9   0.00116    -0.00287    -0.00007     0.00016    -0.00048     0.00151
 PY  C   9   0.00594    -0.02398    -0.00096    -0.00157     0.00122    -0.00114
 PZ  C   9  -0.00446     0.03447     0.00179     0.00465    -0.00624     0.01365
  
  S  C  10   0.03369    -0.12502    -0.00473    -0.00714     0.00311     0.01648
 PX  C  10   0.00294    -0.01284    -0.00054    -0.00103     0.00106    -0.00203
 PY  C  10   0.00421    -0.02124    -0.00096    -0.00214     0.00270    -0.00723
 PZ  C  10   0.00827    -0.02667    -0.00089    -0.00085    -0.00072     0.00764
  
  S  C  11   0.02892    -0.12045    -0.00491    -0.00915     0.00815    -0.00743
 PX  C  11  -0.00185     0.00508     0.00015    -0.00002     0.00058    -0.00417
 PY  C  11  -0.00643     0.02130     0.00074     0.00071     0.00057    -0.00786
 PZ  C  11   0.00688    -0.02958    -0.00122    -0.00236     0.00234    -0.00487
  
  S  C  12   0.01328    -0.07568    -0.00352    -0.00888     0.01163    -0.03414
 PX  C  12  -0.00477     0.01697     0.00062     0.00088    -0.00033    -0.00187
 PY  C  12  -0.00725     0.02797     0.00110     0.00161    -0.00111     0.00003
 PZ  C  12  -0.00971     0.02906     0.00095     0.00053     0.00140    -0.01289
  
  S  C  13  -0.02318     0.05431     0.00127    -0.00148     0.00832    -0.04939
 PX  C  13  -0.00398     0.00383    -0.00016    -0.00130     0.00296    -0.01042
 PY  C  13   0.00201    -0.02789    -0.00154    -0.00542     0.00756    -0.01968
 PZ  C  13  -0.02792     0.09527     0.00340     0.00455    -0.00104    -0.01268
  
  S  C  14  -0.04486     0.05899    -0.00048    -0.01163     0.02574    -0.08852
 PX  C  14   0.00609    -0.03724    -0.00194    -0.00273     0.00318    -0.00116
 PY  C  14   0.01639    -0.07334    -0.00287    -0.00759     0.00566    -0.00041
 PZ  C  14   0.00227    -0.04653    -0.00274    -0.00778     0.00942    -0.00886
  
  S  C  15  -0.03457     0.05538     0.00002    -0.00609     0.01670    -0.05075
 PX  C  15  -0.00351    -0.02264    -0.00185    -0.00546     0.00866    -0.01959
 PY  C  15  -0.00791    -0.03677    -0.00303    -0.01161     0.01766    -0.04440
 PZ  C  15   0.02181    -0.11230    -0.00512    -0.01118     0.01168    -0.00842
  
  S  C  16  -0.00212    -0.09676    -0.00668    -0.01857     0.02802    -0.05097
 PX  C  16  -0.00165    -0.00981    -0.00094    -0.00092     0.00204    -0.00225
 PY  C  16  -0.00179    -0.03124    -0.00210    -0.00663     0.00844    -0.01315
 PZ  C  16   0.00874    -0.00768     0.00038     0.00301    -0.00622     0.01719
  
  S  C  17   0.01235    -0.11990    -0.00709    -0.00857     0.01002     0.00474
 PX  C  17   0.00174     0.00633    -0.00023     0.00970    -0.00965     0.02033
 PY  C  17   0.01010     0.00534     0.00140     0.00812    -0.01554     0.04222
 PZ  C  17   0.00271     0.03375     0.00255     0.00625    -0.00939     0.01640
  
  S  C  18   0.02585    -0.10691    -0.00631     0.01655    -0.02176     0.07744
 PX  C  18  -0.00053     0.00951    -0.00224     0.02538    -0.01862     0.03017
 PY  C  18   0.01420     0.03429     0.00302     0.02015    -0.02814     0.06058
 PZ  C  18   0.00927     0.00351     0.00065     0.01024    -0.01398     0.03449
  
  S  C  19  -0.00332    -0.06284    -0.00438    -0.01015     0.01331    -0.02330
 PX  C  19   0.00496    -0.00654    -0.00092     0.01011    -0.00982     0.02357
 PY  C  19   0.01532     0.00330     0.00199     0.00691    -0.01522     0.04354
 PZ  C  19   0.01016    -0.04023    -0.00174     0.00075    -0.00406     0.02461
  
  S  C  20   0.02399    -0.01084    -0.01317     0.13774    -0.10781     0.18913
 PX  C  20  -0.02525     0.00135    -0.01090     0.05464    -0.01604    -0.00268
 PY  C  20  -0.00747     0.04094    -0.00379     0.04800    -0.02743     0.01407
 PZ  C  20  -0.00142     0.01696    -0.00172     0.02378    -0.01577     0.01322
  
  S  S  21  -0.02345    -0.00336    -0.02238     0.14063    -0.05353     0.10828
 PX  S  21  -0.00086    -0.00111     0.00802    -0.07347     0.05846    -0.05908
 PY  S  21  -0.01791     0.00688    -0.00852     0.04241    -0.00005     0.00996
 PZ  S  21  -0.01008     0.00338    -0.00649     0.03870    -0.01184     0.01755
  
  S  C  22  -0.07646    -0.00816    -0.03127     0.12588     0.00451    -0.04519
 PX  C  22   0.00165    -0.01860     0.00730    -0.08214     0.08008    -0.00924
 PY  C  22  -0.01773    -0.01471     0.00263    -0.05788     0.04723    -0.10469
 PZ  C  22  -0.01073    -0.00530    -0.00031    -0.01444     0.00988    -0.05533
  
  S  C  23  -0.04561     0.02804    -0.02087     0.12450    -0.05702    -0.06268
 PX  C  23  -0.03782    -0.02267    -0.01345     0.03953     0.00390    -0.05293
 PY  C  23  -0.01002    -0.01736     0.00507    -0.06796     0.04733    -0.09911
 PZ  C  23  -0.00103    -0.00831     0.00382    -0.03789     0.02222    -0.04177
  
  S  C  24   0.03857     0.06172     0.00417     0.06260    -0.07396     0.10574
 PX  C  24  -0.03785    -0.01390    -0.02443     0.14017    -0.06613     0.04642
 PY  C  24  -0.01047     0.01620     0.00116    -0.01464     0.01610    -0.05924
 PZ  C  24  -0.00750     0.00145     0.00018    -0.01103     0.01118    -0.03255
  
  S  C  25   0.07244     0.07135     0.03740    -0.16082     0.05384    -0.02084
 PX  C  25   0.00804     0.00823    -0.00172     0.03220    -0.02980     0.04129
 PY  C  25   0.00283     0.01694     0.00564    -0.03219     0.01956    -0.03528
 PZ  C  25  -0.02767    -0.02076    -0.01179     0.04667    -0.01362    -0.00318
  
  S  C  26  -0.01864    -0.00429    -0.00017    -0.02400     0.02452    -0.04256
 PX  C  26   0.02696     0.02986     0.01114    -0.03617     0.00506    -0.00240
 PY  C  26  -0.00902    -0.00721    -0.00430     0.01810    -0.00538    -0.00140
 PZ  C  26  -0.03400    -0.03619    -0.01767     0.07657    -0.02818     0.02187
  
  S  C  27  -0.09733    -0.09266    -0.03976     0.13985    -0.03135     0.01088
 PX  C  27   0.01172     0.01488     0.00783    -0.03935     0.01843    -0.02155
 PY  C  27  -0.01615    -0.01521    -0.00743     0.03004    -0.00962     0.00574
 PZ  C  27  -0.03576    -0.03714    -0.01852     0.08156    -0.03172     0.02860
  
  S  C  28  -0.13620    -0.13645    -0.06324     0.25414    -0.08339     0.06661
 PX  C  28   0.01522     0.01719     0.00841    -0.03840     0.01621    -0.01857
 PY  C  28   0.01204     0.01192     0.00529    -0.02006     0.00569    -0.00374
 PZ  C  28   0.01414     0.01273     0.00525    -0.01630     0.00157     0.00344
  
  S  C  29  -0.10690    -0.10995    -0.05178     0.21577    -0.07695     0.07065
 PX  C  29  -0.03010    -0.03040    -0.01414     0.05730    -0.01914     0.01570
 PY  C  29   0.00060     0.00058     0.00020    -0.00045    -0.00012     0.00032
 PZ  C  29   0.01276     0.01273     0.00577    -0.02254     0.00684    -0.00493
  
  S  C  30   0.08598     0.08454     0.04886    -0.23293     0.10002    -0.07747
 PX  C  30   0.01671     0.01485     0.00685    -0.02338     0.00312     0.00691
 PY  C  30   0.00533     0.01340     0.00549    -0.03049     0.01814    -0.02828
 PZ  C  30   0.00643     0.00801     0.00424    -0.02017     0.00774    -0.00426
  
  S  C  31   0.06328     0.07195     0.03873    -0.18987     0.08830    -0.08946
 PX  C  31   0.00167     0.00288     0.00019     0.00291    -0.00380     0.00382
 PY  C  31  -0.02014    -0.02002    -0.01122     0.05249    -0.02192     0.01586
 PZ  C  31   0.00637     0.00864     0.00431    -0.02122     0.00955    -0.00994
  
  S  S  32  -0.03259    -0.00333    -0.00478    -0.00671     0.00714    -0.14053
 PX  S  32  -0.01737    -0.01252    -0.00268    -0.00797     0.00467    -0.06371
[...]
  66    H       -0.416844037     0.513669297    -0.878323499
  67    H       -0.408893922    -1.020796186    -0.008676447
  68    H       -0.417956670     0.498363046     0.886579031
  69    H        1.902951046    -0.560465390     0.879013646
  70    H        1.900119745    -0.563049185    -0.878696878
  71    H        1.694492187     1.976263952    -0.894366655
  72    H        1.641016216     1.987959203     0.861938697
  73    H        3.955170553     0.956086735     0.974150792
  74    H        3.971566489     0.759577147    -0.766709797
  75    H        3.806083781     3.235611143    -1.123070604
  76    H        6.139383219     2.514146650     0.808075987
  77    H        6.025324712     1.865710253    -0.830297293
  78    H        5.347926160     2.591917841    -3.088836128
  79    H        5.484467750     3.670932955    -5.321197887
  80    H        6.435376024     5.928293804    -5.592333889
  81    H        7.290125841     7.199695430    -3.620624165
  82    H        6.868486212     4.350289153     2.045946225
  83    H        7.913979360     6.453409048     2.835791385
  84    H        8.018091863     8.028968737    -1.188237486
  85    H        6.243270869     8.491659889     2.556315547
  86    H        6.801069625    10.125644710     4.393567152
  87    H        6.370257894    11.483293330     3.359708465
  88    H        4.026235574    10.651157620     3.117739972
  89    H        4.412203744     9.167491758     3.981541758
  90    H        5.016066619    10.520472920     6.052610788
  91    H        4.675819013    12.012217630     5.187615958
  92    H        2.601946995     9.763110788     5.700266317
  93    H        2.683634968    11.303897280     6.554716906
  94    H        2.259724617    11.267589810     4.843361066
  95    H        6.123330592     9.311769445     0.207244387
  96    H        4.705435608     9.742973685     1.139263394
  97    H        5.463106646    12.111930540     1.342012250
  98    H        7.053695706    11.713428470     0.678243724
  99    H        5.618362816    11.635050410    -0.341641074
 100    H       14.942294640     9.510062238     0.688985377
 101    H       16.325440300    11.499214320     1.534898063
 102    H       12.820992700    18.501402780     5.988243118
 103    H       11.004161260    16.146628280     6.875437699
 104    H       12.514277000    16.621825730     7.636982901
 105    H        9.918049558    18.307339950     7.506085932
 106    H       10.563069900    17.464996560     8.896241824
 107    H       12.722760420    18.941591010     8.663840076
 108    H       11.849827080    19.891207940     7.465783037
 109    H       10.923208020    19.441336950    10.386289710
 110    H       11.569232280    20.935241000     9.710020060
 111    H        9.998587008    20.334142090     9.176314746
 112    H       10.201205140    17.402280250     4.759931924
 113    H       10.449491310    18.996634910     5.455273841
 114    H       10.655715510    19.137993260     2.979608204
 115    H       12.228244600    19.497993330     3.691801298
 116    H       11.929785950    17.921272400     2.956056652
 117    H       18.135467870    20.692268740     4.555608833
 118    H        4.278355810     4.760474848     0.848934693
 119    H        2.664299148     4.093008899     0.796405458
 120    H        4.899248539     2.853403076     2.555809659
 121    H        3.750858116     4.063062692     3.116532606
 122    H        3.178914353     2.477955488     2.623154175


           Empirical Formula: C54 H58 N4 O2 S4  =   122 atoms



      MOLECULAR POINT GROUP   :   C1  


                  EIGENVALUES  
 -48.73158 -47.40890 -46.84336 -45.79911 -45.76980 -44.20972 -43.75599 -42.96653
 -42.72695 -41.68226 -41.15242 -40.09635 -39.62514 -39.40861 -39.22264 -38.88403
 -38.16393 -37.22560 -36.45387 -36.05069 -35.14134 -34.89288 -34.54353 -34.42131
 -33.36117 -32.83380 -32.45171 -31.73657 -31.33267 -30.96558 -30.45717 -30.14665
 -29.74937 -29.17336 -28.82944 -28.04525 -27.88451 -27.30248 -26.83891 -26.69631
 -26.56789 -26.18481 -26.12374 -25.30403 -24.99905 -24.69141 -24.55567 -24.43325
 -24.31990 -23.82536 -23.60912 -23.21604 -23.03454 -22.63929 -22.35719 -22.07422
 -21.73567 -21.61769 -21.59843 -21.13318 -21.06364 -20.55360 -20.51533 -20.37896
 -20.31207 -20.01450 -19.81876 -19.49642 -19.20182 -19.18659 -18.97053 -18.78106
 -18.66045 -18.28895 -18.26759 -18.15328 -18.00758 -17.71376 -17.64493 -17.40261
 -17.31232 -17.13952 -16.83104 -16.76340 -16.65218 -16.56522 -16.47672 -16.28448
 -16.14869 -15.99403 -15.97063 -15.88656 -15.81534 -15.74988 -15.54535 -15.50913
 -15.43166 -15.26640 -15.15704 -14.96037 -14.90236 -14.80393 -14.74542 -14.70680
 -14.55339 -14.43432 -14.36711 -14.25542 -14.14120 -14.07229 -14.02713 -13.97093
 -13.92792 -13.84196 -13.80457 -13.69260 -13.51838 -13.42055 -13.34736 -13.22699
 -13.18118 -13.10425 -13.08138 -12.99050 -12.94497 -12.90203 -12.85057 -12.75510
 -12.72298 -12.64873 -12.57668 -12.51208 -12.51082 -12.40997 -12.36751 -12.32649
 -12.29739 -12.17895 -12.15169 -12.11475 -12.10117 -12.02658 -11.90702 -11.83110
 -11.79722 -11.72333 -11.62993 -11.47788 -11.42491 -11.33903 -10.95108 -10.89008
 -10.78855 -10.01684  -9.96598  -9.77238  -9.50154  -9.44223  -9.10874  -8.92855
  -8.38339  -7.93054  -7.75937  -7.48868  -6.73952  -1.22173  -0.76986   0.03874
   0.17097   0.29369   0.45807   0.72814   0.76710   1.11318   1.35815   1.49230
   1.62567   1.82085   1.88522   1.90106   2.17090   2.20081   2.30499   2.33328
   2.45965   2.66415   2.80112   2.82287   3.00791   3.06984   3.17496   3.19000
   3.27485   3.30908   3.33830   3.34603   3.40221   3.46836   3.48248   3.54914
   3.56622   3.65444   3.70143   3.77126   3.84936   3.91687   3.93548   4.01534
   4.04412   4.22192   4.25885   4.28042   4.36358   4.38895   4.56720   4.61427
   4.78519   4.83761   4.85584   4.89850   4.99344   5.05477   5.05685   5.19156
   5.24524   5.28652   5.48804   5.56268   5.63875   5.88400   5.92670   6.05278
   6.32698   6.39089   6.40437   6.55505   6.59195   6.64874   6.67173   6.70346
   6.73210   6.75280   6.77318   6.78752   6.83270   6.84440   6.86853   6.86975
   6.94944   6.95916   6.96052   6.98320   6.99657   7.00654   7.00937   7.01305
   7.02394   7.03797   7.03867   7.07264   7.07371   7.08403   7.37176   7.43064
   7.56953   7.59619   7.68999   8.23309   8.23713   8.29904   8.51890   8.56072
   8.59978   8.60627   8.62004   8.69734   8.71968   8.87569   8.90690   8.97859
   9.04406   9.17174   9.28676   9.44479   9.53863   9.81172   9.87764  10.05826
  10.21993  10.25404  10.40969  10.48332  10.62872  10.75152  10.90649  10.95106
  11.01267  11.20557  11.24463  11.57530  11.67807  11.97795  12.28545  12.45866
  12.68266  12.81684  12.95725  13.06383  13.75991  13.92921  14.12351  14.38248
  14.44704  15.12852


              NET ATOMIC CHARGES AND DIPOLE CONTRIBUTIONS

  ATOM NO.   TYPE          CHARGE      No. of ELECS.   s-Pop       p-Pop       
    1          C          -0.027846        4.0278     1.05492     2.97292
    2          C          -0.007110        4.0071     1.04512     2.96199
    3          C          -0.009190        4.0092     1.05123     2.95796
    4          C          -0.010226        4.0102     1.05556     2.95467
    5          C           0.013200        3.9868     1.04016     2.94664
    6          C           0.073530        3.9265     1.05442     2.87205
    7          N          -0.157174        5.1572     1.24290     3.91428
    8          C           0.077415        3.9226     1.05111     2.87148
    9          C          -0.044184        4.0442     1.07592     2.96826
   10          C          -0.023788        4.0238     1.08065     2.94314
   11          C          -0.045987        4.0460     1.07739     2.96860
   12          C          -0.020918        4.0209     1.07929     2.94163
   13          C          -0.019288        4.0193     1.04723     2.97205
   14          C          -0.016127        4.0161     1.05073     2.96540
   15          C           0.071390        3.9286     1.04908     2.87953
   16          C          -0.039823        4.0398     1.07888     2.96095
   17          C          -0.032938        4.0329     1.07940     2.95354
   18          C           0.019149        3.9809     1.04111     2.93974
   19          C          -0.033398        4.0334     1.07743     2.95597
   20          C           0.020342        3.9797     1.08677     2.89289
   21          S          -0.049083        6.0491     1.76540     4.28368
   22          C          -0.006189        4.0062     1.07282     2.93337
   23          C           0.013819        3.9862     1.08703     2.89915
   24          C          -0.003969        4.0040     1.05850     2.94547
   25          C           0.022117        3.9779     1.03004     2.94784
   26          C          -0.009178        4.0092     1.05661     2.95257
   27          C          -0.009724        4.0097     1.05167     2.95805
   28          C          -0.007075        4.0071     1.04505     2.96202
   29          C          -0.027722        4.0277     1.05489     2.97283
   30          C           0.000662        3.9993     1.04724     2.95210
   31          C          -0.025151        4.0252     1.05348     2.97167
   32          S          -0.059591        6.0596     1.77185     4.28774
   33          C           0.026956        3.9730     1.07598     2.89707
   34          C           0.023380        3.9766     1.04691     2.92971
   35          C           0.095895        3.9041     1.04659     2.85751
   36          N          -0.274179        5.2742     1.59494     3.67924
   37          C           0.113598        3.8864     1.09089     2.79551
   38          C           0.117070        3.8829     1.09127     2.79166
   39          N          -0.275313        5.2753     1.59535     3.67996
   40          C           0.100905        3.8991     1.04732     2.85177
   41          C           0.010005        3.9900     1.04291     2.94709
   42          C           0.043263        3.9567     1.07810     2.87864
   43          S          -0.055835        6.0558     1.77115     4.28468
   44          C          -0.003445        4.0034     1.07939     2.92406
   45          C           0.029404        3.9706     1.07782     2.89278
   46          S          -0.023345        6.0233     1.76279     4.26055
   47          C          -0.030243        4.0302     1.06525     2.96500
   48          C           0.048160        3.9518     1.06771     2.88413
   49          C           0.024345        3.9757     1.03087     2.94478
   50          C          -0.004836        4.0048     1.05454     2.95029
   51          C          -0.006484        4.0065     1.04952     2.95696
   52          C          -0.004324        4.0043     1.04369     2.96063
   53          C          -0.027066        4.0271     1.05487     2.97220
   54          C          -0.001363        4.0014     1.04747     2.95389
   55          C          -0.027951        4.0280     1.05559     2.97237
   56          C           0.136265        3.8637     1.09793     2.76581
   57          C           0.020107        3.9799     1.00119     2.97870
   58          C           0.502918        3.4971     1.04470     2.45238
   59          O          -0.601889        6.6019     1.81665     4.78524
   60          O          -0.306124        6.3061     1.68671     4.61942
   61          C           0.215499        3.7845     1.14696     2.63754
   62          N          -0.381909        5.3819     1.75321     3.62870
   63          C          -0.002251        4.0023     1.04583     2.95643
   64          C          -0.025831        4.0258     1.05414     2.97169
   65          H           0.067130        0.9329     0.93287
   66          H           0.007826        0.9922     0.99217
   67          H           0.000443        0.9996     0.99956
   68          H           0.007826        0.9922     0.99217
   69          H           0.006505        0.9935     0.99349
   70          H           0.006510        0.9935     0.99349
   71          H           0.007594        0.9924     0.99241
   72          H           0.009651        0.9903     0.99035
   73          H           0.011119        0.9889     0.98888
   74          H           0.002033        0.9980     0.99797
   75          H           0.007760        0.9922     0.99224
   76          H           0.022920        0.9771     0.97708
   77          H           0.014471        0.9855     0.98553
   78          H           0.026502        0.9735     0.97350
   79          H           0.019100        0.9809     0.98090
   80          H           0.016468        0.9835     0.98353
   81          H           0.023716        0.9763     0.97628
   82          H           0.027811        0.9722     0.97219
   83          H           0.021956        0.9780     0.97804
   84          H           0.024922        0.9751     0.97508
   85          H           0.007213        0.9928     0.99279
   86          H           0.002355        0.9976     0.99765
   87          H           0.014377        0.9856     0.98562
   88          H           0.009247        0.9908     0.99075
   89          H           0.007916        0.9921     0.99208
   90          H           0.006085        0.9939     0.99392
   91          H           0.006514        0.9935     0.99349
   92          H           0.007772        0.9922     0.99223
   93          H           0.000332        0.9997     0.99967
   94          H           0.007996        0.9920     0.99200
   95          H           0.004590        0.9954     0.99541
   96          H           0.003468        0.9965     0.99653
   97          H           0.011122        0.9889     0.98888
   98          H           0.010657        0.9893     0.98934
   99          H           0.001318        0.9987     0.99868
  100          H           0.046413        0.9536     0.95359
  101          H           0.046911        0.9531     0.95309
  102          H           0.013521        0.9865     0.98648
  103          H           0.004806        0.9952     0.99519
  104          H           0.004170        0.9958     0.99583
  105          H           0.010655        0.9893     0.98934
  106          H           0.001139        0.9989     0.99886
  107          H           0.007633        0.9924     0.99237
  108          H           0.009069        0.9909     0.99093
  109          H           0.007972        0.9920     0.99203
  110          H           0.001224        0.9988     0.99878
  111          H           0.008291        0.9917     0.99171
  112          H           0.014347        0.9857     0.98565
  113          H           0.008291        0.9917     0.99171
  114          H           0.003255        0.9967     0.99674
  115          H           0.010427        0.9896     0.98957
  116          H           0.009262        0.9907     0.99074
  117          H           0.248007        0.7520     0.75199
  118          H           0.004061        0.9959     0.99594
  119          H           0.002789        0.9972     0.99721
  120          H           0.011669        0.9883     0.98833
  121          H           0.001222        0.9988     0.99878
  122          H           0.010315        0.9897     0.98969
 DIPOLE           X         Y         Z       TOTAL
 POINT-CHG.    -4.627    -5.172     1.519     7.104
 HYBRID         0.195     0.492     1.533     1.622
 SUM           -4.432    -4.680     3.052     7.132


          ATOMIC ORBITAL ELECTRON POPULATIONS

     Atom    s        px        py        pz   
    1  C   1.05492   0.99076   0.98897   0.99319
    2  C   1.04512   0.99087   0.98504   0.98608
    3  C   1.05123   0.98801   0.98182   0.98813
    4  C   1.05556   0.99125   0.97495   0.98846
    5  C   1.04016   0.97300   0.99773   0.97591
    6  C   1.05442   0.98295   0.90875   0.98035
    7  N   1.24290   1.60722   1.20030   1.10675
    8  C   1.05111   0.99310   0.99044   0.88794
    9  C   1.07592   1.03269   0.95585   0.97972
   10  C   1.08065   0.99371   0.98516   0.96427
   11  C   1.07739   1.02917   0.98895   0.95048
   12  C   1.07929   0.99371   0.95379   0.99413
   13  C   1.04723   1.02685   0.99130   0.95390
   14  C   1.05073   1.01475   0.97543   0.97522
   15  C   1.04908   0.99011   0.92979   0.95964
   16  C   1.07888   1.02622   0.97750   0.95723
   17  C   1.07940   1.01997   0.98865   0.94492
   18  C   1.04111   0.98808   0.96630   0.98536
   19  C   1.07743   1.02796   0.96818   0.95982
   20  C   1.08677   0.89564   0.98489   1.01236
   21  S   1.76540   1.21882   1.34305   1.72182
   22  C   1.07282   0.99334   0.91724   1.02278
   23  C   1.08703   1.00057   0.90781   0.99078
   24  C   1.05850   0.95177   0.98502   1.00867
   25  C   1.03004   0.98255   0.97404   0.99125
   26  C   1.05661   0.98779   0.98443   0.98036
   27  C   1.05167   0.98615   0.98417   0.98773
   28  C   1.04505   0.98628   0.98482   0.99093
   29  C   1.05489   0.99172   0.99227   0.98884
   30  C   1.04724   0.97619   0.99324   0.98266
   31  C   1.05348   0.99341   0.98723   0.99104
   32  S   1.77185   1.21097   1.34404   1.73274
   33  C   1.07598   0.89313   0.98295   1.02099
   34  C   1.04691   0.95123   0.98075   0.99773
   35  C   1.04659   0.95098   0.94700   0.95953
   36  N   1.59494   1.18995   1.31640   1.17289
   37  C   1.09089   0.94512   0.94216   0.90822
   38  C   1.09127   0.94307   0.94312   0.90548
   39  N   1.59535   1.18647   1.31793   1.17555
   40  C   1.04732   0.92333   0.96658   0.96186
   41  C   1.04291   0.97080   0.96506   1.01123
   42  C   1.07810   0.97995   0.91864   0.98004
   43  S   1.77115   1.24177   1.31666   1.72625
   44  C   1.07939   0.89878   0.97970   1.04558
   45  C   1.07782   0.90519   0.97949   1.00810
   46  S   1.76279   1.24696   1.31428   1.69931
   47  C   1.06525   0.95429   0.94249   1.06823
   48  C   1.06771   0.97999   0.96158   0.94256
   49  C   1.03087   0.99014   0.96859   0.98604
   50  C   1.05454   0.98900   0.97888   0.98242
   51  C   1.04952   0.97705   0.99517   0.98474
   52  C   1.04369   0.97704   0.99320   0.99040
   53  C   1.05487   0.99281   0.98855   0.99084
   54  C   1.04747   0.96818   0.98931   0.99639
   55  C   1.05559   0.99353   0.99159   0.98725
   56  C   1.09793   0.87971   0.90203   0.98406
   57  C   1.00119   1.03554   1.03232   0.91085
   58  C   1.04470   0.78075   0.79881   0.87283
   59  O   1.81665   1.74921   1.74120   1.29483
   60  O   1.68671   1.55588   1.54223   1.52131
   61  C   1.14696   0.84801   0.84210   0.94743
   62  N   1.75321   1.19302   1.20373   1.23195
   63  C   1.04583   0.98352   0.97495   0.99796
   64  C   1.05414   0.99519   0.99344   0.98305
   65  H   0.93287
   66  H   0.99217
   67  H   0.99956
   68  H   0.99217
   69  H   0.99349
   70  H   0.99349
   71  H   0.99241
   72  H   0.99035
   73  H   0.98888
   74  H   0.99797
   75  H   0.99224
   76  H   0.97708
   77  H   0.98553
   78  H   0.97350
   79  H   0.98090
   80  H   0.98353
   81  H   0.97628
   82  H   0.97219
   83  H   0.97804
   84  H   0.97508
   85  H   0.99279
   86  H   0.99765
   87  H   0.98562
   88  H   0.99075
   89  H   0.99208
   90  H   0.99392
   91  H   0.99349
   92  H   0.99223
   93  H   0.99967
   94  H   0.99200
   95  H   0.99541
   96  H   0.99653
   97  H   0.98888
   98  H   0.98934
   99  H   0.99868
  100  H   0.95359
  101  H   0.95309
  102  H   0.98648
  103  H   0.99519
  104  H   0.99583
  105  H   0.98934
  106  H   0.99886
  107  H   0.99237
  108  H   0.99093
  109  H   0.99203
  110  H   0.99878
  111  H   0.99171
  112  H   0.98565
  113  H   0.99171
  114  H   0.99674
  115  H   0.98957
  116  H   0.99074
  117  H   0.75199
  118  H   0.99594
  119  H   0.99721
  120  H   0.98833
  121  H   0.99878
  122  H   0.98969

 **********************
 *                    *
 * JOB ENDED NORMALLY *
 *                    *
 **********************



 TOTAL JOB TIME:          1458.44 SECONDS

 == MOPAC DONE ==
