 *******************************************************************************
 ** Site#: 4824         For non-commercial use only    Version 21.013L 64BITS **
 *******************************************************************************
 ** Cite this program as: MOPAC2016, Version: 21.013L, James J. P. Stewart,   **
 ** Stewart Computational Chemistry, web: HTTP://OpenMOPAC.net. Days left:  84**
 *******************************************************************************
 **                                                                           **
 **                                MOPAC2016                                  **
 **                                                                           **
 *******************************************************************************

                              INDO CALCULATION RESULTS

 *******************************************************************************
 *  CALCULATION DONE:                                Thu Oct 21 23:40:43 2021  *
 *  INDO       - The INDO Hamiltonian to be used
 *  CIS        - C.I. USES 1 ELECTRON EXCITATIONS ONLY
 *  EPS=  7.58 - USE ANDREAS KLAMT'S COSMO IMPLICIT SOLVATION MODEL
 *  n**2 =  1.400 for COSMO-CI
 *  T=         - A TIME OF 172800.0 SECONDS REQUESTED
 *  DUMP=N     - RESTART FILE WRITTEN EVERY 7200.0 SECONDS REQUESTED
 *******************************************************************************
INDO CIS EPS=7.58 N**2=1.40
 Dye96
 Calculo de Estados Excitados
   ATOM   CHEMICAL          X               Y               Z
  NUMBER   SYMBOL      (ANGSTROMS)     (ANGSTROMS)     (ANGSTROMS)
 
     1       C          1.46585179  *  -0.14201467  *   3.17933934  *
     2       C          2.78892768  *  -0.20911860  *   2.43257174  *
     3       C          3.39105259  *   1.18384231  *   2.27522392  *
     4       C          4.78425703  *   1.14239691  *   1.65371686  *
     5       C          4.74354871  *   0.73849274  *   0.17999510  *
     6       C          6.11283752  *   0.78955099  *  -0.38577543  *
     7       C          7.07115521  *  -0.17534840  *  -0.21608169  *
     8       S          8.56204018  *   0.18706480  *  -0.98121293  *
     9       C          7.95353541  *   1.64453201  *  -1.54826863  *
    10       C          6.62816784  *   1.85877444  *  -1.16609049  *
    11       S          6.00311468  *   3.32752965  *  -1.73499560  *
    12       C          7.49457205  *   3.70441370  *  -2.50171544  *
    13       C          8.45884139  *   2.72065760  *  -2.32591525  *
    14       C          9.77101858  *   2.85674393  *  -2.89106999  *
    15       N         10.68009134  *   1.88044864  *  -2.70204780  *
    16       C         11.90337819  *   2.08365393  *  -3.27150085  *
    17       C         12.91329618  *   1.07917332  *  -3.10901878  *
    18       C         14.13519665  *   1.26471655  *  -3.66973358  *
    19       C         14.43353373  *   2.44148806  *  -4.41908948  *
    20       C         13.50605329  *   3.41642142  *  -4.59592392  *
    21       C         12.20267126  *   3.26120756  *  -4.01951345  *
    22       N         11.28119397  *   4.25007782  *  -4.20626195  *
    23       C         10.07308313  *   4.04342803  *  -3.64620533  *
    24       C          9.04838364  *   5.03302439  *  -3.80383871  *
    25       C          7.79022395  *   4.86394550  *  -3.24492973  *
    26       S          6.72752619  *   6.17623110  *  -3.56936975  *
    27       C          7.93450648  *   6.98025999  *  -4.45102026  *
    28       C          9.13579175  *   6.26480708  *  -4.50929944  *
    29       S         10.31634871  *   7.04949761  *  -5.38151865  *
    30       C          9.27281187  *   8.36684767  *  -5.69521696  *
    31       C          8.01616855  *   8.21248741  *  -5.13776294  *
    32       C          6.89754644  *   9.17685321  *  -5.25325056  *
    33       C          6.36651064  *   9.19669071  *  -6.68788141  *
    34       C          5.20861019  *  10.18282686  *  -6.81745062  *
    35       C          4.67852208  *  10.20515335  *  -8.24903016  *
    36       C          3.52431908  *  11.18545326  *  -8.37954889  *
    37       C          9.67654610  *   9.53853842  *  -6.41317156  *
    38       C         10.51094782  *   9.54554163  *  -7.47383947  *
    39       C         10.87017676  *  10.82456759  *  -8.09816560  *
    40       O         10.48001161  *  11.93497282  *  -7.76413252  *
    41       O         11.71926657  *  10.70767882  *  -9.13920888  *
    42       C         11.05309705  *   8.37049209  *  -8.04949969  *
    43       N         11.49935828  *   7.42647332  *  -8.54679740  *
    44       C          6.89282286  *  -1.41085429  *   0.51711436  *
    45       C          6.14193756  *  -2.44231906  *  -0.06632446  *
    46       C          5.92996366  *  -3.64246518  *   0.59133186  *
    47       C          6.48782553  *  -3.78618781  *   1.86029279  *
    48       C          7.25101136  *  -2.74463387  *   2.45475824  *
    49       C          7.45512114  *  -1.55247031  *   1.78109241  *
    50       C          7.68322500  *  -3.22154863  *   3.74316697  *
    51       C          8.45391480  *  -2.64936934  *   4.74227773  *
    52       C          8.70524099  *  -3.39076239  *   5.88645483  *
    53       C          8.20077123  *  -4.68731789  *   6.03006362  *
    54       C          7.43030024  *  -5.28437605  *   5.04482999  *
    55       C          7.16945834  *  -4.53847080  *   3.89716271  *
    56       N          6.47307148  *  -4.89919402  *   2.72432432  *
    57       C          5.57908075  *  -6.03989979  *   2.56684291  *
    58       C          4.09158871  *  -5.67997680  *   2.78913778  *
    59       C          3.25551719  *  -6.93779421  *   2.51415155  *
    60       C          1.78370518  *  -6.59226761  *   2.29736601  *
    61       C          0.95590036  *  -7.86063878  *   2.10049748  *
    62       C         -0.50588850  *  -7.51754166  *   1.86401851  *
    63       C          3.85283262  *  -5.16192307  *   4.21375752  *
    64       C          3.70855841  *  -3.64817508  *   4.25242453  *
    65       H          9.25972469  *  10.49178043  *  -6.04716238  *
    66       H          1.57696657  *   0.27184997  *   4.19198923  *
    67       H          0.72569947  *   0.48414193  *   2.66072148  *
    68       H          1.01235500  *  -1.13732204  *   3.29563850  *
    69       H          3.49396235  *  -0.88265685  *   2.96573752  *
    70       H          2.63643264  *  -0.68895544  *   1.44333156  *
    71       H          2.71569968  *   1.83170645  *   1.67738535  *
    72       H          3.44701480  *   1.68433296  *   3.26628418  *
    73       H          5.26863144  *   2.13744269  *   1.75520037  *
    74       H          5.44742058  *   0.45157559  *   2.21778847  *
    75       H          4.32905545  *  -0.28500072  *   0.05543666  *
    76       H          4.05397025  *   1.39374717  *  -0.39289144  *
    77       H         12.67268841  *   0.17910393  *  -2.53296677  *
    78       H         14.91960050  *   0.50918684  *  -3.55751072  *
    79       H         15.43418205  *   2.54044659  *  -4.85241313  *
    80       H         13.72282492  *   4.32259315  *  -5.17225281  *
    81       H          6.08370409  *   8.92208384  *  -4.54054360  *
    82       H          7.22741185  *  10.19001022  *  -4.93491095  *
    83       H          7.18087229  *   9.45763473  *  -7.39660792  *
    84       H          6.04697823  *   8.17692095  *  -6.98969923  *
    85       H          4.39366903  *   9.91996411  *  -6.11025481  *
    86       H          5.53009119  *  11.20074090  *  -6.51088774  *
    87       H          5.48888427  *  10.47180982  *  -8.96023063  *
    88       H          4.35506796  *   9.18930815  *  -8.56047672  *
    89       H          2.68009809  *  10.92606899  *  -7.72452236  *
    90       H          3.81935066  *  12.21366713  *  -8.12490789  *
    91       H          3.12888454  *  11.21650297  *  -9.40521527  *
    92       H         11.92536747  *  11.57431157  *  -9.51843315  *
    93       H          5.71739078  *  -2.29339782  *  -1.06453918  *
    94       H          5.35212475  *  -4.44236488  *   0.12455544  *
    95       H          8.03987984  *  -0.75072092  *   2.23916067  *
    96       H          8.85044008  *  -1.63827657  *   4.62081560  *
    97       H          9.30889276  *  -2.95983588  *   6.68980710  *
    98       H          8.42228658  *  -5.24520639  *   6.94555811  *
    99       H          7.05359676  *  -6.30062613  *   5.17272285  *
   100       H          5.73275684  *  -6.44611871  *   1.53805294  *
   101       H          5.89675354  *  -6.85862805  *   3.25203605  *
   102       H          3.80741409  *  -4.89068306  *   2.04606226  *
   103       H          3.63730007  *  -7.47580987  *   1.61945244  *
   104       H          3.37249786  *  -7.66800282  *   3.34264263  *
   105       H          1.38069210  *  -6.00309715  *   3.14727161  *
   106       H          1.67090125  *  -5.92182578  *   1.41868651  *
   107       H          1.35065847  *  -8.45674714  *   1.25061619  *
   108       H          1.05314622  *  -8.53007356  *   2.98136445  *
   109       H         -0.64902198  *  -6.89460606  *   0.96929226  *
   110       H         -1.11952260  *  -8.41884906  *   1.72128574  *
   111       H         -0.94692162  *  -6.96690454  *   2.70745624  *
   112       H          2.94859719  *  -5.62277242  *   4.66658187  *
   113       H          4.66793207  *  -5.48107273  *   4.89809500  *
   114       H          2.83814652  *  -3.29619499  *   3.67886287  *
   115       H          3.57514427  *  -3.27945072  *   5.28020399  *
   116       H          4.59048609  *  -3.13055065  *   3.84664533  *
 


          CARTESIAN COORDINATES 

    NO.       ATOM           X           Y           Z

     1         C          1.4659     -0.1420      3.1793
     2         C          2.7889     -0.2091      2.4326
     3         C          3.3911      1.1838      2.2752
     4         C          4.7843      1.1424      1.6537
     5         C          4.7435      0.7385      0.1800
     6         C          6.1128      0.7896     -0.3858
     7         C          7.0712     -0.1753     -0.2161
     8         S          8.5620      0.1871     -0.9812
     9         C          7.9535      1.6445     -1.5483
    10         C          6.6282      1.8588     -1.1661
    11         S          6.0031      3.3275     -1.7350
    12         C          7.4946      3.7044     -2.5017
    13         C          8.4588      2.7207     -2.3259
    14         C          9.7710      2.8567     -2.8911
    15         N         10.6801      1.8804     -2.7020
    16         C         11.9034      2.0837     -3.2715
    17         C         12.9133      1.0792     -3.1090
    18         C         14.1352      1.2647     -3.6697
    19         C         14.4335      2.4415     -4.4191
    20         C         13.5061      3.4164     -4.5959
    21         C         12.2027      3.2612     -4.0195
    22         N         11.2812      4.2501     -4.2063
    23         C         10.0731      4.0434     -3.6462
    24         C          9.0484      5.0330     -3.8038
    25         C          7.7902      4.8639     -3.2449
    26         S          6.7275      6.1762     -3.5694
    27         C          7.9345      6.9803     -4.4510
    28         C          9.1358      6.2648     -4.5093
    29         S         10.3163      7.0495     -5.3815
    30         C          9.2728      8.3668     -5.6952
    31         C          8.0162      8.2125     -5.1378
    32         C          6.8975      9.1769     -5.2533
    33         C          6.3665      9.1967     -6.6879
    34         C          5.2086     10.1828     -6.8175
    35         C          4.6785     10.2052     -8.2490
    36         C          3.5243     11.1855     -8.3795
    37         C          9.6765      9.5385     -6.4132
    38         C         10.5109      9.5455     -7.4738
    39         C         10.8702     10.8246     -8.0982
    40         O         10.4800     11.9350     -7.7641
    41         O         11.7193     10.7077     -9.1392
    42         C         11.0531      8.3705     -8.0495
    43         N         11.4994      7.4265     -8.5468
    44         C          6.8928     -1.4109      0.5171
    45         C          6.1419     -2.4423     -0.0663
    46         C          5.9300     -3.6425      0.5913
    47         C          6.4878     -3.7862      1.8603
    48         C          7.2510     -2.7446      2.4548
    49         C          7.4551     -1.5525      1.7811
    50         C          7.6832     -3.2215      3.7432
    51         C          8.4539     -2.6494      4.7423
    52         C          8.7052     -3.3908      5.8865
    53         C          8.2008     -4.6873      6.0301
    54         C          7.4303     -5.2844      5.0448
    55         C          7.1695     -4.5385      3.8972
    56         N          6.4731     -4.8992      2.7243
    57         C          5.5791     -6.0399      2.5668
    58         C          4.0916     -5.6800      2.7891
    59         C          3.2555     -6.9378      2.5142
    60         C          1.7837     -6.5923      2.2974
    61         C          0.9559     -7.8606      2.1005
    62         C         -0.5059     -7.5175      1.8640
    63         C          3.8528     -5.1619      4.2138
    64         C          3.7086     -3.6482      4.2524
    65         H          9.2597     10.4918     -6.0472
    66         H          1.5770      0.2718      4.1920
    67         H          0.7257      0.4841      2.6607
    68         H          1.0124     -1.1373      3.2956
    69         H          3.4940     -0.8827      2.9657
    70         H          2.6364     -0.6890      1.4433
    71         H          2.7157      1.8317      1.6774
    72         H          3.4470      1.6843      3.2663
    73         H          5.2686      2.1374      1.7552
    74         H          5.4474      0.4516      2.2178
    75         H          4.3291     -0.2850      0.0554
    76         H          4.0540      1.3937     -0.3929
    77         H         12.6727      0.1791     -2.5330
    78         H         14.9196      0.5092     -3.5575
    79         H         15.4342      2.5404     -4.8524
    80         H         13.7228      4.3226     -5.1723
    81         H          6.0837      8.9221     -4.5405
    82         H          7.2274     10.1900     -4.9349
    83         H          7.1809      9.4576     -7.3966
    84         H          6.0470      8.1769     -6.9897
    85         H          4.3937      9.9200     -6.1103
    86         H          5.5301     11.2007     -6.5109
    87         H          5.4889     10.4718     -8.9602
    88         H          4.3551      9.1893     -8.5605
    89         H          2.6801     10.9261     -7.7245
    90         H          3.8194     12.2137     -8.1249
    91         H          3.1289     11.2165     -9.4052
    92         H         11.9254     11.5743     -9.5184
    93         H          5.7174     -2.2934     -1.0645
    94         H          5.3521     -4.4424      0.1246
    95         H          8.0399     -0.7507      2.2392
    96         H          8.8504     -1.6383      4.6208
    97         H          9.3089     -2.9598      6.6898
    98         H          8.4223     -5.2452      6.9456
    99         H          7.0536     -6.3006      5.1727
   100         H          5.7328     -6.4461      1.5381
   101         H          5.8968     -6.8586      3.2520
   102         H          3.8074     -4.8907      2.0461
   103         H          3.6373     -7.4758      1.6195
   104         H          3.3725     -7.6680      3.3426
   105         H          1.3807     -6.0031      3.1473
   106         H          1.6709     -5.9218      1.4187
   107         H          1.3507     -8.4567      1.2506
   108         H          1.0531     -8.5301      2.9814
   109         H         -0.6490     -6.8946      0.9693
   110         H         -1.1195     -8.4188      1.7213
   111         H         -0.9469     -6.9669      2.7075
   112         H          2.9486     -5.6228      4.6666
   113         H          4.6679     -5.4811      4.8981
   114         H          2.8381     -3.2962      3.6789
   115         H          3.5751     -3.2795      5.2802
   116         H          4.5905     -3.1306      3.8466

           Empirical Formula: C54 H52 N4 O2 S4  =   116 atoms



      MOLECULAR POINT GROUP   :   C1  


      RHF CALCULATION, NO. OF DOUBLY OCCUPIED LEVELS = 162

 WARNING: INDO only performs single-point calculations

 Summary of symmetry occupancy in each shell:

 SHELL     
    1  162
    v  146
 TOTAL 308




    ROOT NO.    1           2           3           4           5           6

           -48.82253   -47.64627   -46.78799   -45.30284   -44.96834   -43.91206
  
  
  S  C   1   0.00408     0.00147    -0.00006     0.02843    -0.03349     0.00144
 PX  C   1   0.00159     0.00059    -0.00002     0.01047    -0.01219     0.00007
 PY  C   1  -0.00026     0.00016    -0.00001     0.00263    -0.00306    -0.00119
 PZ  C   1  -0.00064    -0.00034     0.00001    -0.00587     0.00681     0.00036
  
  S  C   2   0.00873     0.00360    -0.00015     0.05965    -0.06873    -0.00135
 PX  C   2   0.00183     0.00078    -0.00003     0.00978    -0.01068    -0.00165
 PY  C   2   0.00030     0.00093    -0.00004     0.01447    -0.01655    -0.00259
 PZ  C   2  -0.00020    -0.00050     0.00002    -0.00554     0.00593     0.00180
  
  S  C   3   0.00889     0.00553    -0.00021     0.08141    -0.09212    -0.00619
 PX  C   3   0.00185     0.00136    -0.00005     0.01524    -0.01635    -0.00215
 PY  C   3  -0.00208    -0.00071     0.00003    -0.01233     0.01429     0.00095
 PZ  C   3  -0.00129    -0.00120     0.00004    -0.01360     0.01463     0.00139
  
  S  C   4   0.01485     0.01080    -0.00039     0.12488    -0.13551    -0.01108
 PX  C   4   0.00092     0.00072    -0.00002    -0.00104     0.00299    -0.00058
 PY  C   4  -0.00331    -0.00098     0.00004    -0.01344     0.01505     0.00394
 PZ  C   4  -0.00282    -0.00331     0.00011    -0.02904     0.02951     0.00074
  
  S  C   5   0.01868     0.01703    -0.00057     0.16170    -0.16861    -0.00790
 PX  C   5   0.00513     0.00570    -0.00018     0.04142    -0.04038    -0.00002
 PY  C   5  -0.00267     0.00068    -0.00001     0.00090     0.00053     0.00623
 PZ  C   5   0.00181    -0.00065     0.00000     0.00816    -0.01184    -0.00533
  
  S  C   6   0.02447     0.03944    -0.00119     0.25200    -0.23997     0.02290
 PX  C   6   0.00252     0.01164    -0.00033     0.04433    -0.03465     0.01697
 PY  C   6  -0.00581     0.00372    -0.00005    -0.00205     0.00992     0.01974
 PZ  C   6   0.00290    -0.00578     0.00013    -0.00830    -0.00022    -0.01766
  
  S  C   7   0.03738     0.03196    -0.00104     0.22129    -0.21845    -0.01581
 PX  C   7  -0.00524    -0.00193     0.00007    -0.02934     0.03184     0.00657
 PY  C   7  -0.00923     0.01132    -0.00033     0.04385    -0.03345     0.03772
 PZ  C   7   0.00718    -0.00539     0.00015    -0.01181     0.00504    -0.02367
  
  S  S   8   0.01250     0.03682    -0.00125     0.13323    -0.12118     0.02593
 PX  S   8  -0.00722    -0.01235     0.00034    -0.07864     0.07124    -0.01156
 PY  S   8  -0.00034     0.01822    -0.00063     0.03878    -0.03082     0.02281
 PZ  S   8   0.00310    -0.00525     0.00021     0.00900    -0.01062    -0.00846
  
  S  C   9   0.01037     0.10122    -0.00278     0.23593    -0.17017     0.10688
 PX  C   9  -0.00307    -0.00019    -0.00029    -0.06642     0.05029    -0.02005
 PY  C   9  -0.00127     0.02812    -0.00053     0.01979     0.00785     0.02959
 PZ  C   9   0.00190    -0.01522     0.00039     0.01460    -0.02364    -0.00866
  
  S  C  10   0.01281     0.07007    -0.00167     0.25639    -0.19831     0.09199
 PX  C  10   0.00143     0.02245    -0.00054     0.05197    -0.03169     0.03029
 PY  C  10  -0.00425     0.00287     0.00012    -0.03559     0.04783     0.00851
 PZ  C  10   0.00193    -0.00987     0.00013     0.00150    -0.01594    -0.01616
  
  S  S  11   0.00382     0.04983    -0.00056     0.12795    -0.06637     0.06625
 PX  S  11   0.00161     0.03060    -0.00036     0.06837    -0.03004     0.04042
 PY  S  11  -0.00183    -0.01116     0.00043    -0.04326     0.03673    -0.01838
 PZ  S  11   0.00042    -0.00536    -0.00010    -0.00174    -0.00911    -0.00516
  
  S  C  12   0.00403     0.14091    -0.00017     0.20197    -0.02203     0.11935
 PX  C  12   0.00054     0.04866    -0.00037     0.03292     0.01299     0.02303
 PY  C  12  -0.00132    -0.01132     0.00169    -0.03207     0.05002    -0.02535
 PZ  C  12   0.00053    -0.01195    -0.00078     0.00534    -0.03222     0.00528
  
  S  C  13   0.00542     0.19250    -0.00442     0.19336    -0.07169     0.12980
 PX  C  13  -0.00120     0.02934    -0.00185    -0.06521     0.02873    -0.02723
 PY  C  13  -0.00044     0.02432     0.00055     0.01507     0.02988     0.01201
 PZ  C  13   0.00070    -0.02415     0.00039     0.01638    -0.02717     0.00371
  
  S  C  14   0.00361     0.34837    -0.01365    -0.00105    -0.02887     0.05085
 PX  C  14  -0.00007     0.08465    -0.00605    -0.10081    -0.01144    -0.04186
 PY  C  14  -0.00001     0.00642     0.00152     0.02809     0.02564     0.01078
 PZ  C  14   0.00003    -0.03510     0.00144     0.02248    -0.00967     0.00982
  
  S  N  15   0.00272     0.34191    -0.01744    -0.12030    -0.05573    -0.01182
 PX  N  15  -0.00012     0.02184    -0.00174    -0.03913    -0.00160    -0.02116
 PY  N  15   0.00090     0.11561    -0.00563    -0.03566    -0.01373    -0.00103
 PZ  N  15  -0.00044    -0.07093     0.00371     0.03404     0.00805     0.00850
  
  S  C  16   0.00203     0.31685    -0.01730    -0.17501    -0.05041    -0.06006
 PX  C  16  -0.00065    -0.07909     0.00359     0.01088     0.00647    -0.01277
 PY  C  16   0.00043     0.06747    -0.00324    -0.02702    -0.00340    -0.00609
 PZ  C  16   0.00001    -0.00681     0.00041     0.01055    -0.00059     0.00810
  
  S  C  17   0.00073     0.12928    -0.00788    -0.10277    -0.03004    -0.05074
 PX  C  17  -0.00018    -0.02466     0.00124     0.00688     0.00296    -0.00226
 PY  C  17   0.00029     0.05117    -0.00304    -0.03821    -0.01049    -0.01798
 PZ  C  17  -0.00009    -0.01840     0.00118     0.01808     0.00456     0.01058
  
  S  C  18   0.00045     0.08814    -0.00567    -0.08507    -0.02353    -0.04896
 PX  C  18  -0.00017    -0.03293     0.00205     0.02846     0.00795     0.01485
 PY  C  18   0.00014     0.02743    -0.00174    -0.02551    -0.00669    -0.01435
 PZ  C  18  -0.00001    -0.00244     0.00017     0.00309     0.00063     0.00217
  
  S  C  19   0.00044     0.08811    -0.00563    -0.08510    -0.02245    -0.04946
 PX  C  19  -0.00021    -0.04003     0.00249     0.03547     0.00917     0.01922
 PY  C  19  -0.00000    -0.00067     0.00009     0.00204     0.00101     0.00156
 PZ  C  19   0.00008     0.01546    -0.00099    -0.01448    -0.00401    -0.00810
  
  S  C  20   0.00069     0.12914    -0.00763    -0.10299    -0.02388    -0.05347
 PX  C  20  -0.00026    -0.04417     0.00230     0.02361     0.00393     0.00796
 PY  C  20  -0.00013    -0.02594     0.00175     0.02704     0.00804     0.01588
 PZ  C  20   0.00017     0.03063    -0.00181    -0.02349    -0.00583    -0.01157
  
  S  C  21   0.00191     0.31683    -0.01668    -0.17585    -0.03535    -0.06649
 PX  C  21  -0.00068    -0.09709     0.00419     0.02204     0.00017    -0.00500
 PY  C  21  -0.00002    -0.00302     0.00078     0.01453     0.01021     0.00866
 PZ  C  21   0.00026     0.03797    -0.00199    -0.01604    -0.00556    -0.00276
  
  S  N  22   0.00219     0.34244    -0.01485    -0.12375     0.00195    -0.03483
 PX  N  22  -0.00031    -0.03597     0.00020    -0.01463    -0.01510    -0.00964
 PY  N  22  -0.00069    -0.11076     0.00595     0.05582     0.01378     0.01495
 PZ  N  22   0.00048     0.07281    -0.00327    -0.02454    -0.00184    -0.00442
  
  S  C  23   0.00285     0.34987    -0.01033    -0.00591     0.03953     0.02521
 PX  C  23   0.00008     0.06711    -0.00619    -0.09614    -0.02793    -0.03820
 PY  C  23  -0.00049    -0.06088     0.00511     0.04079     0.03378     0.00159
 PZ  C  23   0.00023     0.00785    -0.00047     0.01365    -0.00799     0.01336
  
  S  C  24   0.00197     0.19593     0.00884     0.17360     0.17060     0.04568
 PX  C  24  -0.00007     0.01302    -0.00452    -0.05664    -0.03858    -0.01175
 PY  C  24  -0.00049    -0.03876     0.00663     0.02288     0.05281    -0.02313
 PZ  C  24   0.00029     0.01613    -0.00196     0.00848    -0.01459     0.01697
  
  S  C  25   0.00200     0.14293     0.00783     0.19012     0.12718     0.06747
 PX  C  25   0.00045     0.04649     0.00141     0.03865     0.03543     0.01401
 PY  C  25  -0.00062    -0.02224     0.00413    -0.00360     0.04731    -0.02830
 PZ  C  25   0.00017    -0.00515    -0.00279    -0.01238    -0.03901     0.01025
  
  S  S  26   0.00056     0.05152     0.01060     0.11056     0.12271     0.00446
 PX  S  26   0.00031     0.03173     0.00631     0.06648     0.07671     0.00238
 PY  S  26  -0.00017    -0.01119     0.00123    -0.01176     0.00177    -0.01311
 PZ  S  26  -0.00002    -0.00561    -0.00303    -0.01816    -0.02938     0.00636
  
  S  C  27   0.00062     0.07463     0.03353     0.20767     0.29107    -0.04687
 PX  C  27   0.00014     0.01871     0.00863     0.04879     0.07128    -0.01220
 PY  C  27  -0.00018    -0.01740     0.00505    -0.01066     0.00489    -0.02243
 PZ  C  27   0.00005     0.00247    -0.00622    -0.01283    -0.03010     0.01727
  
  S  C  28   0.00089     0.10710     0.02731     0.19749     0.26835    -0.02503
 PX  C  28  -0.00015    -0.01396    -0.00617    -0.05491    -0.06514     0.00256
 PY  C  28  -0.00023    -0.02278     0.00922     0.01895     0.04280    -0.02678
 PZ  C  28   0.00018     0.01763    -0.00287     0.01007     0.00080     0.01376
  
  S  S  29   0.00029     0.04076     0.03009     0.10314     0.16121    -0.03790
 PX  S  29  -0.00015    -0.02074    -0.01409    -0.06551    -0.10001     0.02297
 PY  S  29  -0.00005    -0.00679     0.01100     0.01291     0.02150    -0.01079
 PZ  S  29   0.00009     0.01146    -0.00201     0.01726     0.02522    -0.00238
  
  S  C  30   0.00023     0.03561     0.06575     0.14986     0.24266    -0.07585
 PX  C  30  -0.00005    -0.00755    -0.00090    -0.03539    -0.05666     0.01768
 PY  C  30  -0.00007    -0.00891     0.00868    -0.02435    -0.03381     0.00279
 PZ  C  30   0.00005     0.00742    -0.00715     0.02509     0.03702    -0.00686
  
  S  C  31   0.00030     0.04394     0.04999     0.18543     0.29548    -0.08948
 PX  C  31   0.00006     0.00860     0.00869     0.02730     0.04107    -0.00754
 PY  C  31  -0.00010    -0.01203     0.00061    -0.02936    -0.03770    -0.00024
 PZ  C  31   0.00003     0.00254    -0.00537     0.00079    -0.00353     0.00676
  
  S  C  32   0.00011     0.01875     0.03397     0.10747     0.18271    -0.07275
 PX  C  32   0.00003     0.00448     0.00780     0.01981     0.03173    -0.00905
 PY  C  32  -0.00003    -0.00456    -0.00360    -0.01960    -0.03071     0.00842
 PZ  C  32  -0.00000    -0.00116    -0.00559    -0.01171    -0.02202     0.01182
  
  S  C  33   0.00007     0.01174     0.02721     0.08038     0.14197    -0.06528
 PX  C  33   0.00001     0.00206     0.00524     0.00868     0.01363    -0.00302
 PY  C  33  -0.00000    -0.00056     0.00081     0.00008     0.00157    -0.00305
 PZ  C  33   0.00002     0.00310     0.00501     0.01792     0.03025    -0.01150
  
  S  C  34   0.00003     0.00582     0.01499     0.04956     0.09102    -0.04834
 PX  C  34   0.00001     0.00155     0.00401     0.01042     0.01827    -0.00798
 PY  C  34  -0.00001    -0.00123    -0.00270    -0.00875    -0.01550     0.00718
 PZ  C  34   0.00000     0.00032     0.00023     0.00039    -0.00011     0.00163
  
  S  C  35   0.00001     0.00299     0.00838     0.02976     0.05618    -0.03283
 PX  C  35   0.00000     0.00054     0.00153     0.00397     0.00706    -0.00325
 PY  C  35  -0.00000    -0.00017    -0.00032    -0.00072    -0.00106     0.00005
 PZ  C  35   0.00000     0.00096     0.00252     0.00862     0.01597    -0.00871
  
  S  C  36   0.00001     0.00131     0.00382     0.01492     0.02875    -0.01801
 PX  C  36   0.00000     0.00045     0.00130     0.00476     0.00907    -0.00545
 PY  C  36  -0.00000    -0.00032    -0.00091    -0.00347    -0.00662     0.00400
 PZ  C  36   0.00000     0.00023     0.00063     0.00232     0.00438    -0.00254
  
  S  C  37   0.00008     0.01512     0.12374     0.06654     0.11604    -0.04650
 PX  C  37  -0.00001    -0.00183     0.02542    -0.01461    -0.02361     0.00798
 PY  C  37  -0.00003    -0.00417     0.01123    -0.02364    -0.03845     0.01249
 PZ  C  37   0.00001     0.00170    -0.03651     0.01405     0.02167    -0.00591
  
  S  C  38   0.00004     0.01021     0.22929     0.01850     0.03845    -0.02027
 PX  C  38  -0.00001    -0.00102     0.02248    -0.01193    -0.01997     0.00771
 PY  C  38  -0.00000     0.00034     0.07013    -0.01274    -0.01975     0.00617
 PZ  C  38   0.00001     0.00097    -0.03907     0.01528     0.02519    -0.00931
  
  S  C  39   0.00003     0.01174     0.51043    -0.03569    -0.04778     0.00984
 PX  C  39  -0.00000     0.00056     0.05805    -0.01078    -0.01756     0.00690
 PY  C  39   0.00000     0.00121     0.09115    -0.01298    -0.02008     0.00656
 PZ  C  39   0.00000    -0.00092    -0.08500     0.01488     0.02403    -0.00922
  
  S  O  40   0.00002     0.00904     0.40904    -0.03048    -0.04126     0.00847
 PX  O  40   0.00000     0.00131     0.06852    -0.00694    -0.01022     0.00301
 PY  O  40  -0.00001    -0.00338    -0.14701     0.00981     0.01278    -0.00213
 PZ  O  40  -0.00000    -0.00118    -0.06528     0.00722     0.01084    -0.00339
  
  S  O  41   0.00002     0.01114     0.56772    -0.05660    -0.08369     0.02559
 PX  O  41  -0.00000    -0.00195    -0.09515     0.00858     0.01235    -0.00342
 PY  O  41   0.00000     0.00168     0.09324    -0.01052    -0.01593     0.00518
 PZ  O  41   0.00001     0.00219     0.10523    -0.00924    -0.01320     0.00356
  
  S  C  42   0.00002     0.00561     0.11337     0.01272     0.02527    -0.01256
 PX  C  42  -0.00001    -0.00111    -0.00866    -0.00518    -0.00902     0.00360
 PY  C  42   0.00000     0.00153     0.05392    -0.00150    -0.00113    -0.00055
 PZ  C  42   0.00001     0.00121     0.00498     0.00671     0.01150    -0.00445
  
  S  N  43   0.00001     0.00210     0.03944     0.00584     0.01153    -0.00584
 PX  N  43  -0.00000    -0.00055    -0.00744    -0.00208    -0.00383     0.00173
 PY  N  43   0.00000     0.00095     0.02247     0.00171     0.00370    -0.00209
 PZ  N  43   0.00000     0.00061     0.00747     0.00254     0.00464    -0.00207
  
  S  C  44   0.09839     0.01235    -0.00048     0.15700    -0.17676    -0.12564
 PX  C  44  -0.00503    -0.00054     0.00002    -0.00923     0.01076     0.00447
 PY  C  44  -0.03106     0.00405    -0.00012     0.01627    -0.01110     0.03654
 PZ  C  44   0.02170    -0.00211     0.00006    -0.00606     0.00263    -0.02631
  
  S  C  45   0.09519     0.00603    -0.00026     0.10185    -0.11964    -0.10717
 PX  C  45   0.01580     0.00103    -0.00005     0.01738    -0.02045    -0.02261
 PY  C  45  -0.00827     0.00273    -0.00009     0.02417    -0.02491    -0.00366
 PZ  C  45   0.04168     0.00057    -0.00004     0.02359    -0.02983    -0.04158
  
  S  C  46   0.15012     0.00087    -0.00009     0.05252    -0.06617    -0.07235
 PX  C  46   0.03160     0.00024    -0.00002     0.01320    -0.01690    -0.03178
 PY  C  46   0.00701     0.00170    -0.00007     0.03029    -0.03660    -0.04974
 PZ  C  46   0.06306    -0.00098     0.00002     0.00012    -0.00164    -0.00816
  
  S  C  47   0.36051    -0.00405     0.00004     0.01949    -0.03097    -0.09454
 PX  C  47   0.03426    -0.00041     0.00000     0.00257    -0.00452    -0.04430
 PY  C  47  -0.04047     0.00239    -0.00009     0.03532    -0.04294    -0.07187
 PZ  C  47   0.11260    -0.00311     0.00009    -0.02883     0.03282     0.00170
  
  S  C  48   0.28828    -0.00184    -0.00003     0.04037    -0.05562    -0.17614
 PX  C  48  -0.03778     0.00019     0.00001    -0.00634     0.00837     0.00657
 PY  C  48  -0.10347     0.00285    -0.00008     0.02235    -0.02434     0.00838
 PZ  C  48   0.01939    -0.00207     0.00008    -0.03187     0.03791     0.01375
  
  S  C  49   0.12245     0.00501    -0.00023     0.09416    -0.11199    -0.13823
 PX  C  49  -0.02441    -0.00109     0.00005    -0.02157     0.02575     0.02530
 PY  C  49  -0.05255     0.00136    -0.00003    -0.00298     0.00736     0.04308
 PZ  C  49   0.00012    -0.00267     0.00010    -0.03237     0.03616     0.01240
  
  S  C  50   0.28451    -0.00495     0.00011    -0.01847     0.01576    -0.16631
 PX  C  50  -0.06251     0.00105    -0.00002     0.00264    -0.00190     0.00207
 PY  C  50  -0.07567     0.00179    -0.00005     0.01421    -0.01588     0.01350
 PZ  C  50  -0.05527     0.00047     0.00000    -0.00783     0.01104     0.00064
  
  S  C  51   0.11433    -0.00222     0.00006    -0.01359     0.01384    -0.12091
 PX  C  51  -0.03087     0.00058    -0.00001     0.00287    -0.00275     0.02186
 PY  C  51  -0.04376     0.00101    -0.00003     0.00839    -0.00927     0.03980
 PZ  C  51  -0.02156     0.00024    -0.00000    -0.00187     0.00293     0.00933
  
  S  C  52   0.08194    -0.00186     0.00005    -0.01628     0.01814    -0.10056
 PX  C  52  -0.02297     0.00052    -0.00001     0.00437    -0.00485     0.02291
 PY  C  52  -0.01428     0.00036    -0.00001     0.00368    -0.00426     0.01339
 PZ  C  52  -0.03236     0.00070    -0.00002     0.00529    -0.00571     0.03395
  
  S  C  53   0.08614    -0.00202     0.00006    -0.01887     0.02148    -0.08935
 PX  C  53  -0.01226     0.00028    -0.00001     0.00256    -0.00297     0.00407
 PY  C  53   0.01740    -0.00039     0.00001    -0.00312     0.00335    -0.02498
 PZ  C  53  -0.03825     0.00087    -0.00002     0.00747    -0.00837     0.03191
  
  S  C  54   0.14336    -0.00323     0.00009    -0.02780     0.03179    -0.06306
 PX  C  54  -0.00699     0.00013    -0.00000     0.00080    -0.00114    -0.02754
 PY  C  54   0.04719    -0.00103     0.00003    -0.00777     0.00841    -0.04327
 PZ  C  54  -0.04965     0.00103    -0.00003     0.00689    -0.00764    -0.00486
  
  S  C  55   0.35393    -0.00711     0.00018    -0.04433     0.04748    -0.08787
 PX  C  55  -0.03996     0.00079    -0.00002     0.00505    -0.00603    -0.04704
 PY  C  55   0.04324    -0.00060     0.00001     0.00188    -0.00408    -0.05950
 PZ  C  55  -0.11147     0.00195    -0.00004     0.00599    -0.00500    -0.01393
  
  S  N  56   0.47308    -0.00929     0.00023    -0.05529     0.06041     0.05828
 PX  N  56   0.01302    -0.00012    -0.00000     0.00363    -0.00599    -0.06823
 PY  N  56   0.08683    -0.00129     0.00002     0.00144    -0.00472    -0.06810
 PZ  N  56   0.02366    -0.00069     0.00002    -0.00795     0.00941    -0.00527
  
  S  C  57   0.22914    -0.00497     0.00014    -0.04398     0.05437     0.22364
 PX  C  57   0.02957    -0.00053     0.00001     0.00042    -0.00249    -0.06756
 PY  C  57   0.08869    -0.00178     0.00004    -0.01144     0.01284     0.02326
 PZ  C  57   0.01990    -0.00051     0.00002    -0.00578     0.00721     0.02033
  
  S  C  58   0.15962    -0.00368     0.00011    -0.04265     0.05674     0.35025
 PX  C  58   0.04276    -0.00087     0.00002    -0.00485     0.00486    -0.01342
 PY  C  58   0.00982    -0.00011     0.00000     0.00172    -0.00294    -0.03120
 PZ  C  58   0.00990    -0.00028     0.00001    -0.00410     0.00547     0.02782
  
  S  C  59   0.07574    -0.00193     0.00006    -0.02937     0.04117     0.31167
 PX  C  59   0.01435    -0.00031     0.00001    -0.00214     0.00228    -0.00405
 PY  C  59   0.02217    -0.00053     0.00002    -0.00689     0.00938     0.06345
 PZ  C  59   0.00593    -0.00015     0.00000    -0.00209     0.00280     0.01562
  
  S  C  60   0.04077    -0.00111     0.00004    -0.02030     0.02949     0.25589
 PX  C  60   0.01424    -0.00036     0.00001    -0.00507     0.00698     0.04852
 PY  C  60   0.00067     0.00001    -0.00000     0.00101    -0.00167    -0.02036
 PZ  C  60   0.00349    -0.00009     0.00000    -0.00135     0.00187     0.01255
  
  S  C  61   0.01846    -0.00054     0.00002    -0.01191     0.01782     0.17111
 PX  C  61   0.00496    -0.00013     0.00000    -0.00225     0.00319     0.02484
 PY  C  61   0.00525    -0.00015     0.00001    -0.00304     0.00449     0.04132
 PZ  C  61   0.00124    -0.00003     0.00000    -0.00061     0.00087     0.00696
  
  S  C  62   0.00797    -0.00025     0.00001    -0.00608     0.00928     0.09517
 PX  C  62   0.00366    -0.00011     0.00000    -0.00252     0.00380     0.03736
 PY  C  62   0.00048    -0.00001     0.00000    -0.00021     0.00030     0.00242
 PZ  C  62   0.00070    -0.00002     0.00000    -0.00047     0.00070     0.00679
  
  S  C  63   0.11460    -0.00267     0.00008    -0.03199     0.04275     0.26236
 PX  C  63   0.02546    -0.00054     0.00001    -0.00394     0.00445     0.00313
 PY  C  63   0.00077     0.00005    -0.00000     0.00194    -0.00276    -0.01874
 PZ  C  63  -0.03301     0.00075    -0.00002     0.00861    -0.01145    -0.07204
  
  S  C  64   0.07477    -0.00156     0.00004    -0.01632     0.02186     0.14444
 PX  C  64   0.01828    -0.00036     0.00001    -0.00227     0.00255     0.00323
 PY  C  64  -0.02280     0.00060    -0.00002     0.00791    -0.01047    -0.05863
 PZ  C  64  -0.01398     0.00026    -0.00001     0.00201    -0.00263    -0.01860
  
  S  H  65   0.00003     0.00623     0.05713     0.02746     0.04842    -0.02018
  
  S  H  66   0.00170     0.00060    -0.00003     0.01181    -0.01394     0.00065
  
  S  H  67   0.00148     0.00064    -0.00003     0.01218    -0.01435     0.00020
  
  S  H  68   0.00200     0.00047    -0.00002     0.00948    -0.01120     0.00205
  
  S  H  69   0.00698     0.00157    -0.00006     0.02600    -0.02983     0.00178
  
  S  H  70   0.00461     0.00189    -0.00007     0.02915    -0.03324    -0.00106
  
  S  H  71   0.00337     0.00235    -0.00009     0.03396    -0.03831    -0.00227
  
  S  H  72   0.00316     0.00189    -0.00007     0.02918    -0.03327    -0.00207
  
  S  H  73   0.00553     0.00502    -0.00017     0.05206    -0.05541    -0.00272
  
  S  H  74   0.01074     0.00511    -0.00019     0.05938    -0.06467    -0.00994
  
  S  H  75   0.01112     0.00672    -0.00024     0.07010    -0.07469    -0.00910
  
  S  H  76   0.00589     0.00684    -0.00022     0.06149    -0.06329     0.00013
  
  S  H  77   0.00023     0.03908    -0.00237    -0.02954    -0.00933    -0.01383
  
  S  H  78   0.00010     0.02078    -0.00137    -0.02157    -0.00607    -0.01305
  
  S  H  79   0.00010     0.02077    -0.00136    -0.02157    -0.00573    -0.01320
  
  S  H  80   0.00021     0.03900    -0.00222    -0.02965    -0.00607    -0.01525
  
  S  H  81   0.00005     0.00760     0.01160     0.04209     0.07086    -0.02770
  
  S  H  82   0.00004     0.00715     0.01582     0.04252     0.07307    -0.03006
  
  S  H  83   0.00003     0.00571     0.01714     0.03730     0.06580    -0.02984
  
  S  H  84   0.00003     0.00534     0.01097     0.03471     0.06073    -0.02723
  
  S  H  85   0.00001     0.00247     0.00598     0.02079     0.03809    -0.02012
  
  S  H  86   0.00001     0.00249     0.00664     0.02106     0.03865    -0.02045
  
  S  H  87   0.00001     0.00133     0.00388     0.01283     0.02414    -0.01394
  
  S  H  88   0.00001     0.00131     0.00357     0.01272     0.02393    -0.01383
  
  S  H  89   0.00000     0.00057     0.00163     0.00642     0.01236    -0.00772
  
  S  H  90   0.00000     0.00057     0.00167     0.00644     0.01240    -0.00774
  
  S  H  91   0.00000     0.00041     0.00123     0.00492     0.00955    -0.00612
  
  S  H  92   0.00001     0.00463     0.23930    -0.02438    -0.03621     0.01120
  
  S  H  93   0.02349     0.00297    -0.00012     0.03886    -0.04395    -0.02818
  
  S  H  94   0.05166    -0.00013    -0.00001     0.01002    -0.01276    -0.00079
  
  S  H  95   0.03403     0.00230    -0.00010     0.03320    -0.03822    -0.04203
  
  S  H  96   0.03116    -0.00047     0.00001    -0.00144     0.00101    -0.03726
  
  S  H  97   0.01854    -0.00043     0.00001    -0.00399     0.00448    -0.02695
  
  S  H  98   0.01988    -0.00048     0.00001    -0.00490     0.00567    -0.02278
  
  S  H  99   0.04879    -0.00112     0.00003    -0.01031     0.01217    -0.00137
  
  S  H 100   0.08235    -0.00174     0.00005    -0.01502     0.01867     0.08601
  
  S  H 101   0.08499    -0.00191     0.00005    -0.01838     0.02297     0.09283
  
  S  H 102   0.07443    -0.00159     0.00004    -0.01671     0.02220     0.14536
  
  S  H 103   0.03160    -0.00079     0.00003    -0.01180     0.01649     0.12430
  
  S  H 104   0.03189    -0.00082     0.00003    -0.01258     0.01762     0.13182
  
  S  H 105   0.01982    -0.00053     0.00002    -0.00938     0.01357     0.11555
  
  S  H 106   0.01797    -0.00048     0.00002    -0.00849     0.01231     0.10674
  
  S  H 107   0.00791    -0.00023     0.00001    -0.00499     0.00746     0.07122
  
  S  H 108   0.00808    -0.00024     0.00001    -0.00510     0.00761     0.07225
  
  S  H 109   0.00350    -0.00011     0.00000    -0.00262     0.00399     0.04085
  
  S  H 110   0.00243    -0.00008     0.00000    -0.00200     0.00307     0.03225
  
  S  H 111   0.00357    -0.00011     0.00000    -0.00266     0.00405     0.04124
  
  S  H 112   0.03760    -0.00092     0.00003    -0.01252     0.01716     0.11717
  
  S  H 113   0.06146    -0.00142     0.00004    -0.01555     0.02023     0.10401
  
  S  H 114   0.02846    -0.00053     0.00001    -0.00545     0.00763     0.06391
  
  S  H 115   0.02379    -0.00049     0.00001    -0.00520     0.00704     0.04841
  
  S  H 116   0.05784    -0.00103     0.00002    -0.00719     0.00912     0.05475




    ROOT NO.    7           8           9          10          11          12

           -43.55556   -42.69643   -42.15629   -41.77125   -41.48467   -40.82587
  
  
  S  C   1  -0.05559     0.05375     0.16066    -0.08933     0.10092     0.07575
 PX  C   1  -0.01882     0.01744     0.05088    -0.02768     0.03076     0.02209
 PY  C   1  -0.00376     0.00410     0.01125    -0.00605     0.00707     0.00450
 PZ  C   1   0.01007    -0.00943    -0.02725     0.01477    -0.01647    -0.01165
  
  S  C   2  -0.10011     0.09019     0.25892    -0.13904     0.15284     0.10748
 PX  C   2  -0.01041     0.00606     0.01340    -0.00494     0.00308    -0.00091
 PY  C   2  -0.02127     0.02092     0.05546    -0.02906     0.03268     0.02045
 PZ  C   2   0.00429    -0.00230    -0.00282    -0.00004     0.00123     0.00333
  
  S  C   3  -0.11913     0.10823     0.28710    -0.14865     0.16316     0.10223
 PX  C   3  -0.01434     0.01009     0.01773    -0.00590     0.00431    -0.00298
 PY  C   3   0.02083    -0.01692    -0.05180     0.02784    -0.02931    -0.02182
 PZ  C   3   0.01354    -0.01110    -0.02078     0.00827    -0.00831    -0.00028
  
  S  C   4  -0.13821     0.11411     0.25458    -0.11759     0.12244     0.05253
 PX  C   4   0.01481    -0.01824    -0.05808     0.03335    -0.03926    -0.02850
 PY  C   4   0.01632    -0.00480    -0.02182     0.00995    -0.00421    -0.00538
 PZ  C   4   0.01873    -0.01571    -0.00970    -0.00197     0.00176     0.01553
  
  S  C   5  -0.13651     0.11308     0.18178    -0.06701     0.07165    -0.00679
 PX  C   5  -0.01714     0.01335    -0.01451     0.01721    -0.01770    -0.02996
 PY  C   5   0.00457     0.01476     0.00670    -0.00288     0.01635    -0.00099
 PZ  C   5  -0.02555     0.01430     0.06311    -0.03409     0.02967     0.02602
  
  S  C   6  -0.09715     0.13778     0.00659     0.04328     0.00232    -0.12040
 PX  C   6   0.02011     0.01642    -0.07682     0.04709    -0.02364    -0.04771
 PY  C   6   0.02991     0.02404    -0.01608     0.00717     0.02967    -0.00308
 PZ  C   6  -0.03147    -0.01161     0.05217    -0.02803    -0.00011     0.02160
  
  S  C   7  -0.10871     0.04078    -0.03681     0.05625    -0.08984    -0.10110
 PX  C   7   0.02996    -0.00949    -0.02748     0.00809     0.00106     0.00347
 PY  C   7   0.02141     0.08025    -0.02320     0.02350     0.04532    -0.05326
 PZ  C   7  -0.02398    -0.03735     0.02765    -0.01802    -0.02297     0.02900
  
  S  S   8  -0.00868     0.05920    -0.07993     0.05256    -0.02533    -0.08785
 PX  S   8   0.01401    -0.03593     0.03749    -0.03469     0.01538     0.05053
 PY  S   8   0.01969     0.03440    -0.03623     0.01610     0.01326    -0.02997
 PZ  S   8  -0.01648    -0.00513     0.00620     0.00408    -0.01336    -0.00251
  
  S  C   9   0.10667     0.11781    -0.18691     0.08918     0.03097    -0.08259
 PX  C   9  -0.00488    -0.04146     0.03515    -0.04192    -0.00870     0.02700
 PY  C   9   0.06248    -0.00625    -0.03275     0.00023     0.02210     0.04379
 PZ  C   9  -0.03264     0.01940     0.00531     0.01536    -0.00851    -0.03402
  
  S  C  10   0.05225     0.14720    -0.14054     0.10066     0.03869    -0.09927
 PX  C  10   0.04209     0.02184    -0.06809     0.03327     0.00322    -0.01727
 PY  C  10   0.04571    -0.03047    -0.00926    -0.00964     0.01402     0.05556
 PZ  C  10  -0.04246     0.01008     0.03373    -0.00858    -0.00738    -0.02352
  
  S  S  11   0.08439     0.04974    -0.08409     0.05382     0.03831     0.01571
 PX  S  11   0.05985     0.02032    -0.05712     0.03156     0.01965     0.01684
 PY  S  11  -0.01150    -0.03131     0.03035    -0.01672    -0.01184     0.01999
 PZ  S  11  -0.01651     0.00979     0.00552    -0.00301    -0.00058    -0.01714
  
  S  C  12   0.21537    -0.01601    -0.08736     0.05384     0.05046     0.14522
 PX  C  12   0.05423    -0.02726     0.00301    -0.01306     0.00376     0.04855
 PY  C  12  -0.02371    -0.04045     0.06943    -0.01092    -0.01335     0.03271
 PZ  C  12  -0.00728     0.03231    -0.03896     0.01085     0.00595    -0.03594
  
  S  C  13   0.21824     0.01424    -0.14640     0.00795     0.04407     0.06750
 PX  C  13  -0.02903    -0.03250     0.04514    -0.06443    -0.02169    -0.01521
 PY  C  13   0.04095    -0.03658     0.02598    -0.00668     0.00452     0.06883
 PZ  C  13  -0.01142     0.03219    -0.03101     0.02774     0.00573    -0.03181
  
  S  C  14   0.11177    -0.04075    -0.04605    -0.16523    -0.01671    -0.03350
 PX  C  14  -0.07715     0.00985     0.01655    -0.06841    -0.02715    -0.10017
 PY  C  14   0.03314    -0.03198     0.03307     0.00664     0.00163     0.06303
 PZ  C  14   0.01089     0.01368    -0.02413     0.02193     0.00927     0.00323
  
  S  N  15  -0.02317     0.01665    -0.05445    -0.15054    -0.02762    -0.14829
 PX  N  15  -0.04229     0.01277     0.00966     0.02689     0.00107    -0.00493
 PY  N  15   0.00203    -0.00567    -0.00931    -0.07145    -0.01461    -0.04975
 PZ  N  15   0.01477    -0.00172     0.00144     0.02862     0.00751     0.02881
  
  S  C  16  -0.13038     0.06941    -0.02740     0.09525     0.01744    -0.01669
 PX  C  16  -0.03671     0.03267     0.00405     0.17952     0.03917     0.11403
 PY  C  16  -0.00746    -0.00733     0.00923    -0.04023    -0.01186    -0.02589
 PZ  C  16   0.01786    -0.00834    -0.00649    -0.04581    -0.00833    -0.02891
  
  S  C  17  -0.12190     0.08484    -0.02431     0.25754     0.05660     0.11044
 PX  C  17  -0.00779     0.00881     0.00199     0.06102     0.01386     0.04504
 PY  C  17  -0.04209     0.02711    -0.00634     0.07859     0.01660     0.03148
 PZ  C  17   0.02570    -0.01799     0.00269    -0.06550    -0.01420    -0.03399
  
  S  C  18  -0.12046     0.08786    -0.01896     0.31171     0.06904     0.15930
 PX  C  18   0.03571    -0.02462     0.00588    -0.07802    -0.01691    -0.03462
 PY  C  18  -0.03474     0.02414    -0.00408     0.08474     0.01833     0.04261
 PZ  C  18   0.00535    -0.00379    -0.00000    -0.01648    -0.00355    -0.01002
  
  S  C  19  -0.12091     0.08624    -0.01504     0.31201     0.06823     0.16211
 PX  C  19   0.04597    -0.03087     0.00495    -0.10421    -0.02217    -0.04976
 PY  C  19   0.00450    -0.00470     0.00235    -0.01769    -0.00445    -0.01001
 PZ  C  19  -0.01978     0.01419    -0.00314     0.04888     0.01077     0.02418
  
  S  C  20  -0.12437     0.07671    -0.00527     0.25916     0.05287     0.12301
 PX  C  20   0.01444    -0.00113    -0.00496     0.01319     0.00557     0.01678
 PY  C  20   0.03965    -0.03001     0.00757    -0.10586    -0.02376    -0.05415
 PZ  C  20  -0.02685     0.01663    -0.00222     0.05220     0.01073     0.02292
  
  S  C  21  -0.13626     0.05228     0.01157     0.09901     0.01029     0.00670
 PX  C  21  -0.02450     0.03716    -0.01542     0.16625     0.04048     0.09912
 PY  C  21   0.02635    -0.02908     0.01949    -0.08439    -0.02193    -0.03746
 PZ  C  21  -0.00494     0.00169    -0.00474    -0.01710    -0.00341    -0.01713
  
  S  N  22  -0.04359    -0.03906     0.06605    -0.13964    -0.04849    -0.08505
 PX  N  22  -0.02964     0.02912    -0.01948     0.05282     0.01261     0.00619
 PY  N  22   0.02674    -0.00252    -0.00345     0.04082     0.01258     0.03972
 PZ  N  22  -0.00330    -0.00947     0.00903    -0.04169    -0.01146    -0.02372
  
  S  C  23   0.08957    -0.09668     0.06789    -0.15600    -0.03550     0.01750
 PX  C  23  -0.07847     0.02345     0.00181    -0.05909    -0.02433    -0.10620
 PY  C  23   0.00911    -0.01718     0.03558     0.04604     0.00480     0.04593
 PZ  C  23   0.02424     0.00064    -0.02003    -0.00297     0.00646     0.01456
  
  S  C  24   0.14720    -0.14552     0.15401     0.03006    -0.00287     0.17689
 PX  C  24  -0.02951     0.01823    -0.02169    -0.05345    -0.01207    -0.05937
 PY  C  24  -0.04054    -0.00103     0.04301     0.05528    -0.00238    -0.01984
 PZ  C  24   0.03303    -0.00617    -0.01538    -0.01020     0.00579     0.03273
  
  S  C  25   0.17197    -0.11454     0.09283     0.06716     0.02068     0.21233
 PX  C  25   0.04180    -0.03711     0.03344    -0.00100    -0.00057     0.04867
 PY  C  25  -0.04523    -0.01106     0.05452     0.02614    -0.01039    -0.01838
 PZ  C  25   0.00917     0.01981    -0.04211    -0.01384     0.00589    -0.00808
  
  S  S  26   0.03436    -0.05386     0.08055     0.06489     0.00425     0.07995
 PX  S  26   0.02218    -0.03819     0.05895     0.04252     0.00110     0.04692
 PY  S  26  -0.03024     0.01827    -0.01398    -0.00986    -0.00337    -0.03488
 PZ  S  26   0.00851     0.00390    -0.01371    -0.00997     0.00141     0.00142
  
  S  C  27  -0.05529    -0.03821     0.12054     0.11467    -0.00608    -0.03407
 PX  C  27  -0.01382    -0.01440     0.04410     0.03887    -0.00414    -0.03671
 PY  C  27  -0.05758     0.04990    -0.05652    -0.02476    -0.00142    -0.07566
 PZ  C  27   0.03776    -0.02317     0.01674     0.00087     0.00217     0.05333
  
  S  C  28  -0.00049    -0.08587     0.17176     0.11369    -0.01119     0.00242
 PX  C  28  -0.00652     0.02167    -0.04025    -0.04036    -0.00213    -0.02686
 PY  C  28  -0.05924     0.03423    -0.01409     0.02519    -0.00123    -0.08831
 PZ  C  28   0.03503    -0.02710     0.02332     0.00178     0.00143     0.05797
  
  S  S  29  -0.05892    -0.00426     0.05925     0.06032    -0.00969    -0.11676
 PX  S  29   0.03562     0.00272    -0.03669    -0.04054     0.00481     0.05975
 PY  S  29  -0.02456     0.01747    -0.01329     0.00772     0.00039    -0.04827
 PZ  S  29   0.00089    -0.01132     0.02194     0.01130    -0.00200     0.00669
  
  S  C  30  -0.14371     0.05876    -0.00645     0.04788    -0.00853    -0.22358
 PX  C  30   0.03405    -0.01685     0.01207     0.00088     0.00023     0.00820
 PY  C  30  -0.00252     0.01916    -0.04187    -0.03274     0.00253     0.00011
 PZ  C  30  -0.00841    -0.00679     0.02213     0.01987    -0.00158    -0.00098
  
  S  C  31  -0.16904     0.07368    -0.02909     0.02978    -0.00544    -0.15083
 PX  C  31  -0.00810    -0.01364     0.04417     0.04407    -0.00462    -0.06880
 PY  C  31  -0.01187     0.03111    -0.06278    -0.05024     0.00331     0.01375
 PZ  C  31   0.01806    -0.01936     0.02920     0.01906    -0.00067     0.01324
  
  S  C  32  -0.15703     0.12006    -0.16079    -0.09810     0.00607     0.01022
 PX  C  32  -0.01574     0.00126     0.01522     0.02255    -0.00260    -0.05721
 PY  C  32   0.01476    -0.00300    -0.00702    -0.01236     0.00125     0.02546
 PZ  C  32   0.02826    -0.02844     0.04756     0.03625    -0.00267    -0.02674
  
  S  C  33  -0.14981     0.13940    -0.22578    -0.16934     0.01296     0.14235
 PX  C  33  -0.00364    -0.00626     0.02419     0.02811    -0.00295    -0.06298
 PY  C  33  -0.00909     0.01411    -0.03035    -0.02784     0.00246     0.04026
 PZ  C  33  -0.02405     0.01571    -0.01595    -0.00521    -0.00006    -0.01978
  
  S  C  34  -0.11748     0.12895    -0.23822    -0.20012     0.01695     0.25321
 PX  C  34  -0.01771     0.01427    -0.01909    -0.01104     0.00057    -0.00587
 PY  C  34   0.01648    -0.01519     0.02409     0.01754    -0.00131    -0.01206
 PZ  C  34   0.00544    -0.01046     0.02555     0.02573    -0.00247    -0.04879
  
  S  C  35  -0.08270     0.09996    -0.19788    -0.17549     0.01551     0.25913
 PX  C  35  -0.00737     0.00631    -0.00891    -0.00548     0.00031    -0.00179
 PY  C  35  -0.00040     0.00209    -0.00632    -0.00707     0.00072     0.01622
 PZ  C  35  -0.02136     0.02395    -0.04480    -0.03794     0.00323     0.04879
  
  S  C  36  -0.04651     0.05990    -0.12374    -0.11328     0.01027     0.18194
 PX  C  36  -0.01385     0.01711    -0.03432    -0.03073     0.00274     0.04639
 PY  C  36   0.01020    -0.01271     0.02565     0.02307    -0.00206    -0.03531
 PZ  C  36  -0.00639     0.00763    -0.01494    -0.01312     0.00115     0.01875
  
  S  C  37  -0.09791     0.06175    -0.05136    -0.00148    -0.00383    -0.19740
 PX  C  37   0.01611    -0.01008     0.01175     0.00699    -0.00050    -0.01202
 PY  C  37   0.02407    -0.01035     0.00133    -0.00871     0.00155     0.04184
 PZ  C  37  -0.01054     0.00321     0.00069     0.00268    -0.00024     0.00695
  
  S  C  38  -0.04532     0.03200    -0.02690     0.00228    -0.00285    -0.15206
 PX  C  38   0.01634    -0.01099     0.01089     0.00284     0.00036     0.02800
 PY  C  38   0.01203    -0.00566     0.00157    -0.00404     0.00081     0.02559
 PZ  C  38  -0.01938     0.01207    -0.01006    -0.00032    -0.00074    -0.03960
  
  S  C  39   0.01677    -0.00567     0.00186    -0.00117     0.00016    -0.00804
 PX  C  39   0.01508    -0.01135     0.01245     0.00357     0.00049     0.04651
 PY  C  39   0.01320    -0.00716     0.00378    -0.00283     0.00079     0.02548
 PZ  C  39  -0.01995     0.01455    -0.01515    -0.00344    -0.00076    -0.06170
  
  S  O  40   0.01393    -0.00257    -0.00447    -0.00634     0.00049    -0.01982
 PX  O  40   0.00597    -0.00343     0.00276     0.00009     0.00020     0.00963
 PY  O  40  -0.00299    -0.00049     0.00284     0.00230    -0.00008     0.01196
 PZ  O  40  -0.00687     0.00420    -0.00360    -0.00026    -0.00025    -0.01375
  
  S  O  41   0.05202    -0.03333     0.03216     0.00645     0.00163     0.12224
 PX  O  41  -0.00669     0.00385    -0.00344    -0.00065    -0.00016    -0.01037
 PY  O  41   0.01068    -0.00685     0.00608     0.00038     0.00047     0.02835
 PZ  O  41   0.00691    -0.00391     0.00355     0.00084     0.00012     0.00894
  
  S  C  42  -0.02768     0.01821    -0.01150     0.00769    -0.00257    -0.11784
 PX  C  42   0.00756    -0.00468     0.00373    -0.00007     0.00031     0.01454
 PY  C  42  -0.00160     0.00160    -0.00196    -0.00086     0.00001    -0.00098
 PZ  C  42  -0.00923     0.00543    -0.00373     0.00096    -0.00045    -0.01938
  
  S  N  43  -0.01300     0.00866    -0.00468     0.00555    -0.00159    -0.07338
 PX  N  43   0.00374    -0.00239     0.00140    -0.00116     0.00036     0.01645
 PY  N  43  -0.00472     0.00322    -0.00174     0.00211    -0.00060    -0.02756
 PZ  N  43  -0.00446     0.00280    -0.00156     0.00148    -0.00043    -0.01931
  
  S  C  44  -0.17107    -0.18483    -0.01111     0.01138    -0.21326     0.03270
 PX  C  44   0.01456     0.00824    -0.00924     0.00498     0.00268    -0.00466
 PY  C  44   0.01297     0.08682     0.01557     0.00562     0.04050    -0.04223
 PZ  C  44  -0.00814    -0.04493    -0.00156    -0.00628    -0.02282     0.02653
  
  S  C  45  -0.14049    -0.20274    -0.01954     0.00264    -0.17481     0.05442
 PX  C  45  -0.02067    -0.03435    -0.00658     0.00260    -0.03398     0.00789
 PY  C  45  -0.01368     0.01912     0.01128     0.00182    -0.01338    -0.01205
 PZ  C  45  -0.04050    -0.07997    -0.01019    -0.00140    -0.05290     0.02661
  
  S  C  46  -0.10788    -0.20904    -0.03948    -0.00127    -0.08712     0.05205
 PX  C  46  -0.01797    -0.04726    -0.00954     0.00010    -0.02359     0.01335
 PY  C  46  -0.03660    -0.06280    -0.00251    -0.00017    -0.07475     0.02668
 PZ  C  46  -0.00990    -0.03659    -0.01301    -0.00108     0.02072     0.00264
  
  S  C  47  -0.04961    -0.19685    -0.06381    -0.00353     0.06220     0.02187
 PX  C  47   0.01773    -0.00412    -0.00251    -0.00002    -0.00383     0.00538
 PY  C  47  -0.03352    -0.06197     0.00473    -0.00004    -0.12609     0.04381
 PZ  C  47   0.05579     0.05236    -0.00515    -0.00103     0.10666    -0.03030
  
  S  C  48  -0.02249    -0.15378    -0.03137    -0.00205    -0.07698     0.05487
 PX  C  48   0.01996     0.04289     0.01159     0.00132    -0.01277    -0.00374
 PY  C  48  -0.03868    -0.01622     0.01241     0.00082    -0.08367     0.01785
 PZ  C  48   0.06980     0.10353     0.01656     0.00009     0.05221    -0.02376
  
  S  C  49  -0.10865    -0.17924    -0.01500     0.00238    -0.18084     0.05933
 PX  C  49   0.03137     0.04642     0.00189     0.00179     0.03199    -0.01377
 PY  C  49   0.01059     0.06265     0.01445     0.00113     0.03040    -0.02536
 PZ  C  49   0.04402     0.04300     0.00427    -0.00312     0.04181    -0.00360
  
  S  C  50   0.14454     0.14154     0.04480     0.00175    -0.10607     0.02262
 PX  C  50   0.00713     0.03782     0.01918     0.00147    -0.06024     0.00787
 PY  C  50  -0.03981    -0.04591    -0.00609    -0.00032    -0.02594     0.01192
 PZ  C  50   0.04528     0.11557     0.04438     0.00269    -0.09443     0.00441
  
  S  C  51   0.13646     0.20784     0.08027     0.00436    -0.20858     0.03118
 PX  C  51  -0.02218    -0.02693    -0.00920    -0.00037     0.02085    -0.00345
 PY  C  51  -0.05650    -0.08881    -0.03159    -0.00177     0.06956    -0.00706
 PZ  C  51   0.00564     0.02574     0.01015     0.00072    -0.02030    -0.00061
  
  S  C  52   0.13832     0.23484     0.09031     0.00518    -0.22304     0.02717
 PX  C  52  -0.03234    -0.05284    -0.01947    -0.00108     0.04474    -0.00483
 PY  C  52  -0.02344    -0.04118    -0.01490    -0.00088     0.03180    -0.00218
 PZ  C  52  -0.04321    -0.06751    -0.02504    -0.00138     0.05997    -0.00762
  
  S  C  53   0.13779     0.23929     0.08977     0.00521    -0.20887     0.02091
 PX  C  53  -0.01083    -0.01863    -0.00596    -0.00032     0.00888     0.00054
 PY  C  53   0.03066     0.04959     0.01927     0.00107    -0.04951     0.00699
 PZ  C  53  -0.04865    -0.07930    -0.02822    -0.00159     0.06048    -0.00520
  
  S  C  54   0.13190     0.22200     0.07389     0.00429    -0.13220     0.00209
 PX  C  54   0.02367     0.03757     0.01662     0.00096    -0.05100     0.00896
 PY  C  54   0.05661     0.08593     0.03059     0.00162    -0.06759     0.00732
 PZ  C  54  -0.00690     0.00020     0.00676     0.00041    -0.04079     0.01025
  
  S  C  55   0.14968     0.16770     0.03307     0.00142     0.02221    -0.02200
 PX  C  55   0.03350     0.05593     0.02765     0.00165    -0.09481     0.01853
 PY  C  55   0.03080     0.01560     0.00768    -0.00004    -0.03818     0.01448
 PZ  C  55   0.02757     0.09703     0.04940     0.00297    -0.15299     0.02221
  
  S  N  56   0.03057    -0.03215    -0.05959    -0.00300     0.30655    -0.07384
 PX  N  56   0.03405     0.00987     0.00198    -0.00025    -0.01042     0.00726
 PY  N  56   0.02416    -0.02447    -0.01203    -0.00142     0.02073     0.00708
 PZ  N  56   0.02681     0.04260     0.01045     0.00029     0.00280    -0.00682
  
  S  C  57  -0.06273    -0.00014    -0.01863     0.00155     0.12558    -0.04793
 PX  C  57   0.03567    -0.00709    -0.01293    -0.00160     0.06734    -0.01288
 PY  C  57  -0.00071    -0.01197    -0.01421    -0.00106     0.07449    -0.01858
 PZ  C  57   0.00140     0.01502     0.00326     0.00011     0.00801    -0.00593
  
  S  C  58  -0.13131     0.02303     0.01582     0.00465    -0.05006    -0.00849
 PX  C  58   0.01298    -0.00882    -0.01331    -0.00135     0.07802    -0.02101
 PY  C  58   0.01295    -0.00669    -0.00466    -0.00229     0.03704    -0.00688
 PZ  C  58  -0.00683     0.01039     0.00476    -0.00037    -0.00082    -0.00307
  
  S  C  59  -0.12755     0.03166     0.03088     0.00882    -0.18682     0.03439
 PX  C  59   0.00540    -0.00408    -0.00695    -0.00152     0.05697    -0.01832
 PY  C  59  -0.02482     0.00455     0.00391     0.00078    -0.01278    -0.00100
 PZ  C  59  -0.00485     0.00293     0.00117    -0.00010     0.00304    -0.00275
  
  S  C  60  -0.11082     0.03165     0.03613     0.00995    -0.25143     0.06176
 PX  C  60  -0.01900     0.00354     0.00270     0.00054    -0.00520    -0.00330
 PY  C  60   0.00971    -0.00381    -0.00471    -0.00168     0.04194    -0.01235
 PZ  C  60  -0.00466     0.00161     0.00106     0.00001    -0.00080    -0.00109
  
  S  C  61  -0.07692     0.02453     0.02990     0.00884    -0.23190     0.06408
 PX  C  61  -0.01020     0.00244     0.00226     0.00057    -0.01094     0.00083
 PY  C  61  -0.01828     0.00553     0.00657     0.00185    -0.04805     0.01255
 PZ  C  61  -0.00286     0.00090     0.00083     0.00018    -0.00427     0.00068
  
  S  C  62  -0.04382     0.01483     0.01889     0.00570    -0.15401     0.04510
 PX  C  62  -0.01693     0.00549     0.00679     0.00201    -0.05325     0.01492
 PY  C  62  -0.00101     0.00023     0.00024     0.00004    -0.00091     0.00003
 PZ  C  62  -0.00305     0.00102     0.00122     0.00035    -0.00930     0.00257
  
  S  C  63  -0.09465     0.03272     0.02207     0.00064    -0.03836    -0.00722
 PX  C  63   0.00467     0.00171    -0.00385    -0.00018     0.02836    -0.00908
 PY  C  63   0.00671    -0.00168     0.00068    -0.00230     0.01570    -0.00150
 PZ  C  63   0.02789    -0.00236    -0.00225    -0.00094     0.00837     0.00179
  
  S  C  64  -0.05575     0.01992     0.02170    -0.00573    -0.00799    -0.00155
 PX  C  64   0.00137     0.00018    -0.00226     0.00041     0.00927    -0.00343
 PY  C  64   0.01949    -0.00643    -0.00111    -0.00219     0.00949     0.00388
 PZ  C  64   0.00837     0.00063    -0.00163     0.00089    -0.00171     0.00000
  
  S  H  65  -0.04328     0.02967    -0.02989    -0.00834    -0.00085    -0.06974
  
  S  H  66  -0.02334     0.02273     0.06803    -0.03790     0.04292     0.03230
  
  S  H  67  -0.02347     0.02301     0.06847    -0.03808     0.04321     0.03226
  
  S  H  68  -0.02006     0.01909     0.05770    -0.03228     0.03627     0.02800
  
  S  H  69  -0.04460     0.03671     0.10826    -0.05784     0.06184     0.04450
  
  S  H  70  -0.04595     0.03922     0.11181    -0.05915     0.06377     0.04414
  
  S  H  71  -0.04906     0.04594     0.11932    -0.06170     0.06874     0.04209
  
  S  H  72  -0.04486     0.04165     0.11292    -0.05936     0.06573     0.04268
  
  S  H  73  -0.05209     0.04723     0.09340    -0.04165     0.04643     0.01505
  
  S  H  74  -0.06499     0.04094     0.10584    -0.04828     0.04127     0.02250
  
  S  H  75  -0.06672     0.03893     0.08529    -0.03377     0.02511     0.00483
  
  S  H  76  -0.04978     0.05007     0.07503    -0.02875     0.03735    -0.00029
  
  S  H  77  -0.03342     0.02385    -0.00874     0.06692     0.01500     0.02580
  
  S  H  78  -0.03258     0.02466    -0.00553     0.09091     0.02041     0.04846
  
  S  H  79  -0.03271     0.02411    -0.00422     0.09097     0.02013     0.04941
  
  S  H  80  -0.03469     0.01971     0.00090     0.06772     0.01313     0.03203
  
  S  H  81  -0.05970     0.04625    -0.06397    -0.04083     0.00286     0.01665
  
  S  H  82  -0.06561     0.05160    -0.07040    -0.04367     0.00266     0.00297
  
  S  H  83  -0.06794     0.06144    -0.09663    -0.07038     0.00514     0.04815
  
  S  H  84  -0.06203     0.05694    -0.09179    -0.06877     0.00531     0.05976
  
  S  H  85  -0.04885     0.05357    -0.09900    -0.08323     0.00707     0.10613
  
  S  H  86  -0.04962     0.05419    -0.09970    -0.08348     0.00705     0.10442
  
  S  H  87  -0.03498     0.04184    -0.08226    -0.07259     0.00639     0.10573
  
  S  H  88  -0.03472     0.04164    -0.08204    -0.07252     0.00640     0.10635
  
  S  H  89  -0.01992     0.02562    -0.05288    -0.04840     0.00439     0.07771
  
  S  H  90  -0.01997     0.02566    -0.05294    -0.04842     0.00438     0.07760
  
  S  H  91  -0.01594     0.02095    -0.04387    -0.04057     0.00370     0.06685
  
  S  H  92   0.02283    -0.01458     0.01373     0.00223     0.00079     0.05531
  
  S  H  93  -0.04707    -0.05133    -0.00215     0.00173    -0.05380     0.01040
  
  S  H  94  -0.03397    -0.05747    -0.01280    -0.00033    -0.01187     0.01062
  
  S  H  95  -0.03066    -0.03961     0.00028     0.00154    -0.05981     0.01432
  
  S  H  96   0.03456     0.05159     0.02176     0.00118    -0.06451     0.01157
  
  S  H  97   0.03715     0.06541     0.02587     0.00151    -0.06637     0.00846
  
  S  H  98   0.03690     0.06709     0.02572     0.00153    -0.06126     0.00612
  
  S  H  99   0.03158     0.06110     0.01886     0.00121    -0.02432    -0.00415
  
  S  H 100  -0.02908    -0.00732    -0.00845     0.00082     0.04160    -0.01558
  
  S  H 101  -0.02217     0.01188    -0.00269     0.00103     0.03908    -0.01877
  
  S  H 102  -0.05883     0.00199     0.00543     0.00135    -0.02101    -0.00132
  
  S  H 103  -0.05108     0.01143     0.01152     0.00374    -0.07471     0.01404
  
  S  H 104  -0.05331     0.01467     0.01342     0.00378    -0.07948     0.01443
  
  S  H 105  -0.04962     0.01446     0.01619     0.00406    -0.10685     0.02576
  
  S  H 106  -0.04639     0.01261     0.01484     0.00407    -0.10363     0.02558
  
  S  H 107  -0.03197     0.01006     0.01226     0.00367    -0.09540     0.02627
  
  S  H 108  -0.03233     0.01034     0.01245     0.00367    -0.09580     0.02627
  
  S  H 109  -0.01881     0.00632     0.00807     0.00243    -0.06574     0.01924
  
  S  H 110  -0.01498     0.00518     0.00669     0.00205    -0.05562     0.01659
  
  S  H 111  -0.01895     0.00641     0.00813     0.00243    -0.06590     0.01926
  
  S  H 112  -0.04474     0.01533     0.01229     0.00095    -0.03834     0.00285
  
  S  H 113  -0.03114     0.02078     0.00898     0.00035    -0.00466    -0.00758
  
  S  H 114  -0.02799     0.00922     0.01494    -0.00523    -0.00518     0.00324
  
  S  H 115  -0.01876     0.00877     0.00957    -0.00276    -0.00343     0.00024
  
  S  H 116  -0.02164     0.00598     0.00953    -0.00419     0.00753    -0.00079




    ROOT NO.   13          14          15          16          17          18

           -39.90821   -39.46305   -39.27488   -38.89805   -38.11661   -37.21383
  
  
  S  C   1  -0.12511    -0.04691    -0.04852    -0.04615    -0.10306    -0.23072
 PX  C   1  -0.03411    -0.01252    -0.01198    -0.01135    -0.02330    -0.04624
 PY  C   1  -0.00689    -0.00339     0.00016    -0.00147    -0.00266    -0.00326
 PZ  C   1   0.01797     0.00688     0.00553     0.00576     0.01187     0.02358
  
  S  C   2  -0.16122    -0.05904    -0.05386    -0.05167    -0.10407    -0.20365
 PX  C   2   0.00957     0.00454     0.00709     0.00700     0.02077     0.05881
 PY  C   2  -0.02862    -0.01218    -0.00279    -0.00633    -0.01019    -0.01027
 PZ  C   2  -0.00995    -0.00358    -0.00746    -0.00600    -0.01576    -0.04079
  
  S  C   3  -0.13669    -0.05190    -0.02635    -0.03227    -0.05095    -0.05516
 PX  C   3   0.01542     0.00634     0.01184     0.01037     0.02850     0.07582
 PY  C   3   0.03228     0.01136     0.01187     0.01063     0.02124     0.04297
 PZ  C   3  -0.00753    -0.00292    -0.00818    -0.00651    -0.01800    -0.04820
  
  S  C   4  -0.03203    -0.01123     0.02172     0.01223     0.05056     0.16118
 PX  C   4   0.04454     0.01724     0.01157     0.01260     0.02257     0.02870
 PY  C   4   0.00158    -0.00157     0.00250    -0.00027    -0.00383    -0.00764
 PZ  C   4  -0.03609    -0.01312    -0.01984    -0.01639    -0.03562    -0.07060
  
  S  C   5   0.06652     0.02383     0.05829     0.04405     0.10522     0.23116
 PX  C   5   0.05387     0.01866     0.02249     0.01806     0.03247     0.03905
 PY  C   5  -0.00322    -0.00571     0.00913     0.00147    -0.00122     0.00583
 PZ  C   5  -0.02964    -0.00849    -0.00770    -0.00522     0.00042     0.02452
  
  S  C   6   0.19350     0.05017     0.10918     0.06512     0.10149     0.09433
 PX  C   6   0.04273     0.00412     0.01747     0.00120    -0.01791    -0.10149
 PY  C   6  -0.01959    -0.01852     0.01157    -0.00399    -0.02796    -0.03254
 PZ  C   6  -0.00521     0.00823    -0.00944     0.00364     0.02769     0.07149
  
  S  C   7   0.17989     0.06894     0.04555     0.04381     0.08404     0.02436
 PX  C   7  -0.02408    -0.01302    -0.00874    -0.01285    -0.02854    -0.06114
 PY  C   7   0.04963    -0.00785     0.06086     0.01562     0.01007    -0.03022
 PZ  C   7  -0.01956     0.00781    -0.02794    -0.00336     0.00606     0.04189
  
  S  S   8   0.08660     0.00999     0.03754    -0.00104     0.02676    -0.08410
 PX  S   8  -0.06690    -0.01540    -0.03187    -0.01647    -0.01022     0.03806
 PY  S   8   0.00687    -0.01322     0.01424    -0.01173    -0.00175    -0.04347
 PZ  S   8   0.02143     0.01301     0.00434     0.01266     0.00499     0.00967
  
  S  C   9  -0.02234    -0.05035     0.01121    -0.04403    -0.07387    -0.16941
 PX  C   9  -0.03616    -0.00596    -0.03181    -0.02710     0.04209     0.04685
 PY  C   9  -0.09705    -0.03084    -0.04505    -0.02677    -0.05995    -0.00487
 PZ  C   9   0.06667     0.01907     0.03679     0.02493     0.01724    -0.01417
  
  S  C  10   0.05629    -0.01868     0.06493     0.01407    -0.06696    -0.11750
 PX  C  10  -0.01854    -0.01711    -0.00571    -0.01567    -0.04405    -0.08351
 PY  C  10  -0.09670    -0.02604    -0.04882    -0.02396    -0.06242    -0.01221
 PZ  C  10   0.06000     0.02065     0.02964     0.01945     0.05205     0.04170
  
  S  S  11  -0.06632    -0.02979    -0.01303    -0.00539    -0.09889    -0.05585
 PX  S  11  -0.05328    -0.02034    -0.01807    -0.00831    -0.06567    -0.04000
 PY  S  11   0.00108     0.01069    -0.00907     0.00254     0.02726     0.03092
 PZ  S  11   0.01939     0.00177     0.01188     0.00181     0.01001    -0.00116
  
  S  C  12  -0.17022    -0.02103    -0.07569     0.00848    -0.10367     0.05316
 PX  C  12  -0.03885     0.00563    -0.02422     0.00790     0.00942     0.06597
 PY  C  12   0.04467     0.03479     0.01439     0.02937     0.06840     0.06601
 PZ  C  12  -0.00990    -0.02110     0.00122    -0.01895    -0.04089    -0.06060
  
  S  C  13  -0.20306    -0.06839    -0.09924    -0.07372    -0.06831     0.00930
 PX  C  13   0.01582     0.00396    -0.00849    -0.02767     0.10307     0.06650
 PY  C  13  -0.02898     0.02052    -0.01635     0.03819    -0.01585     0.08310
 PZ  C  13   0.00984    -0.01268     0.01213    -0.01041    -0.02999    -0.07009
  
  S  C  14  -0.11090    -0.05677    -0.07996    -0.11981     0.12380     0.08533
 PX  C  14   0.05917    -0.01389     0.02295    -0.04751     0.07423    -0.04890
 PY  C  14   0.02163     0.05038     0.02313     0.11400    -0.11112     0.05257
 PZ  C  14  -0.03383    -0.02212    -0.02108    -0.04399     0.03233    -0.01026
  
  S  N  15  -0.07540    -0.11468    -0.08102    -0.28213     0.34284    -0.01240
 PX  N  15   0.01868     0.00083     0.00808    -0.01042     0.03529    -0.01135
 PY  N  15  -0.00888    -0.02191    -0.01277    -0.04961     0.05145    -0.00076
 PZ  N  15  -0.00214     0.01161     0.00394     0.03091    -0.04130     0.00464
  
  S  C  16  -0.03426    -0.05021    -0.03549    -0.13539     0.18481    -0.01379
 PX  C  16  -0.00921     0.03327     0.00859     0.07911    -0.08944     0.01940
 PY  C  16   0.03435     0.01764     0.02629     0.05295    -0.08750    -0.02001
 PZ  C  16  -0.01506    -0.02203    -0.01741    -0.05831     0.08083     0.00349
  
  S  C  17  -0.06428    -0.02194    -0.04227    -0.07323     0.13175     0.03275
 PX  C  17  -0.00415     0.01579     0.00390     0.04007    -0.04965     0.01436
 PY  C  17  -0.01322    -0.00287    -0.00728    -0.01013     0.01759     0.00343
 PZ  C  17   0.00872    -0.00438     0.00248    -0.00959     0.00915    -0.00727
  
  S  C  18  -0.06145     0.00373    -0.03052    -0.00397     0.03573     0.04811
 PX  C  18   0.01547     0.00303     0.00903     0.01214    -0.02480    -0.00708
 PY  C  18  -0.01121     0.00509    -0.00307     0.01188    -0.01396     0.00722
 PZ  C  18   0.00025    -0.00389    -0.00173    -0.01100     0.01689    -0.00125
  
  S  C  19  -0.04669     0.01796    -0.01544     0.03980    -0.03984     0.03650
 PX  C  19   0.01175    -0.00578     0.00270    -0.01311     0.01498    -0.00504
 PY  C  19   0.00990     0.00433     0.00770     0.01451    -0.02773    -0.00980
 PZ  C  19  -0.00979    -0.00016    -0.00518    -0.00290     0.00935     0.00720
  
  S  C  20  -0.00358     0.03447     0.01654     0.09177    -0.13334    -0.00446
 PX  C  20  -0.02392    -0.00944    -0.01785    -0.02818     0.04800     0.02228
 PY  C  20   0.02368     0.00065     0.01250     0.00600    -0.01710    -0.01688
 PZ  C  20  -0.00378     0.00320    -0.00003     0.00735    -0.00881     0.00072
  
  S  C  21   0.06825     0.04092     0.05765     0.11509    -0.18221    -0.05932
 PX  C  21  -0.05226    -0.00399    -0.02807    -0.01532     0.03106     0.03034
 PY  C  21   0.05418     0.03048     0.04114     0.08630    -0.13101    -0.02825
 PZ  C  21  -0.00961    -0.01499    -0.01167    -0.04092     0.05914     0.00383
  
  S  N  22   0.17357     0.09383     0.12661     0.24560    -0.33782    -0.08286
 PX  N  22  -0.01675    -0.01281    -0.00784    -0.02022    -0.00439    -0.01910
 PY  N  22  -0.03288    -0.00937    -0.02335    -0.03340     0.06527     0.02571
 PZ  N  22   0.02378     0.00971     0.01538     0.02519    -0.03318    -0.00665
  
  S  C  23   0.05975     0.07208     0.04197     0.15563    -0.13169     0.07574
 PX  C  23   0.08104     0.00740     0.05387     0.04040    -0.10477    -0.09560
 PY  C  23   0.03911     0.03627     0.02851     0.06791    -0.04222    -0.00581
 PZ  C  23  -0.05139    -0.02244    -0.03549    -0.05191     0.06175     0.03868
  
  S  C  24   0.07177     0.09665     0.03625     0.12362     0.06211     0.08470
 PX  C  24   0.01336    -0.00034     0.01448     0.03256    -0.09128    -0.02025
 PY  C  24   0.06218    -0.00063     0.02933    -0.03086     0.06655    -0.08941
 PZ  C  24  -0.03884     0.00044    -0.02131     0.00448    -0.00247     0.05606
  
  S  C  25  -0.01836     0.06110    -0.01468     0.06022     0.09130     0.12084
 PX  C  25   0.00550     0.02303     0.00098     0.02955     0.02087     0.04412
 PY  C  25   0.08033     0.01462     0.03837    -0.00888     0.07073    -0.05657
 PZ  C  25  -0.04585    -0.01654    -0.02127    -0.00620    -0.04638     0.01440
  
  S  S  26   0.05633     0.02635     0.02223    -0.01284     0.09481     0.00706
 PX  S  26   0.04137     0.01956     0.01712    -0.00242     0.06792    -0.00784
 PY  S  26   0.00630    -0.01467     0.00270    -0.02330    -0.02292    -0.01159
 PZ  S  26  -0.01869     0.00077    -0.00775     0.01346    -0.01243     0.00877
  
  S  C  27   0.10716    -0.02669     0.03951    -0.11427     0.07202    -0.10741
 PX  C  27   0.02532    -0.01063     0.00999    -0.01790     0.02242    -0.08522
 PY  C  27  -0.03461    -0.04464    -0.01846    -0.05307    -0.08976     0.01400
 PZ  C  27   0.00969     0.02833     0.00672     0.03490     0.04153     0.02074
  
  S  C  28   0.13320     0.01997     0.05954    -0.01602     0.09640    -0.15149
 PX  C  28  -0.02791    -0.00367    -0.00868     0.02778    -0.06353     0.01097
 PY  C  28  -0.01216    -0.05169    -0.01198    -0.07798    -0.01203    -0.07733
 PZ  C  28   0.01749     0.02973     0.01025     0.03101     0.03004     0.03718
  
  S  S  29   0.00888    -0.03387    -0.00240     0.00460     0.01214    -0.14243
 PX  S  29  -0.02074     0.02322    -0.00694     0.03825    -0.00531     0.08352
 PY  S  29  -0.04286    -0.01921    -0.02374     0.00640     0.00363    -0.00765
 PZ  S  29   0.03578     0.00407     0.02023    -0.02963    -0.00491    -0.02733
  
  S  C  30  -0.10328    -0.06254    -0.04863    -0.00305    -0.05343    -0.05478
 PX  C  30  -0.02643     0.02298    -0.01004     0.07932     0.05102    -0.02655
 PY  C  30  -0.06424     0.02316    -0.01895     0.05533    -0.02056     0.08832
 PZ  C  30   0.05108    -0.01899     0.01970    -0.07394    -0.01211    -0.04173
  
  S  C  31  -0.00551    -0.08893    -0.01201    -0.15905    -0.12647     0.03493
 PX  C  31  -0.00895    -0.01248    -0.00375     0.00579     0.03018    -0.10972
 PY  C  31  -0.04693     0.00756    -0.01739     0.02600    -0.05690     0.11455
 PZ  C  31   0.02938     0.00243     0.01238    -0.01537     0.02667    -0.03631
  
  S  C  32  -0.01732    -0.04534    -0.01553    -0.10402    -0.17623     0.25554
 PX  C  32  -0.02053    -0.01517    -0.00725    -0.02081    -0.02532    -0.00018
 PY  C  32  -0.00267     0.01541     0.00089     0.02975     0.01886    -0.00465
 PZ  C  32   0.00437    -0.00173     0.00306    -0.00338     0.02082    -0.04693
  
  S  C  33   0.01597    -0.00289    -0.00273    -0.02475    -0.08815     0.18656
 PX  C  33  -0.02732    -0.01513    -0.00945    -0.02359    -0.04373     0.04566
 PY  C  33   0.00882     0.01079     0.00342     0.01745     0.01782    -0.01089
 PZ  C  33  -0.00998    -0.01563    -0.00572    -0.03333    -0.05501     0.07797
  
  S  C  34   0.06885     0.03991     0.01931     0.05743     0.06737    -0.03715
 PX  C  34  -0.00968    -0.00789    -0.00482    -0.01879    -0.04545     0.08110
 PY  C  34  -0.00003     0.00290     0.00135     0.00895     0.02254    -0.04519
 PZ  C  34  -0.01863    -0.01509    -0.00723    -0.02977    -0.05400     0.08144
  
  S  C  35   0.08457     0.05714     0.02845     0.10050     0.16823    -0.22600
 PX  C  35  -0.00455    -0.00374    -0.00241    -0.00951    -0.02527     0.04999
 PY  C  35   0.00734     0.00593     0.00309     0.01230     0.02568    -0.04440
 PZ  C  35   0.01331     0.00769     0.00369     0.01080     0.01135    -0.00169
  
  S  C  36   0.06514     0.04585     0.02344     0.08572     0.15857    -0.24180
 PX  C  36   0.01542     0.01056     0.00527     0.01875     0.03173    -0.04295
 PY  C  36  -0.01200    -0.00812    -0.00412    -0.01455    -0.02519     0.03488
 PZ  C  36   0.00589     0.00374     0.00188     0.00615     0.00937    -0.01024
  
  S  C  37  -0.24620     0.05942    -0.06208     0.17822     0.00429     0.04651
 PX  C  37  -0.03469     0.02593    -0.00677     0.06359     0.04452    -0.02371
 PY  C  37   0.00897     0.05315     0.03412    -0.02592     0.00757     0.00918
 PZ  C  37   0.04502    -0.03734     0.00498    -0.06774    -0.03970     0.00225
  
[...]
  52    C        8.705240987    -3.390762394     5.886454826
  53    C        8.200771228    -4.687317886     6.030063623
  54    C        7.430300237    -5.284376049     5.044829994
  55    C        7.169458337    -4.538470803     3.897162714
  56    N        6.473071479    -4.899194017     2.724324315
  57    C        5.579080752    -6.039899788     2.566842908
  58    C        4.091588714    -5.679976804     2.789137783
  59    C        3.255517191    -6.937794211     2.514151551
  60    C        1.783705180    -6.592267615     2.297366013
  61    C        0.955900364    -7.860638779     2.100497480
  62    C       -0.505888505    -7.517541657     1.864018510
  63    C        3.852832618    -5.161923069     4.213757522
  64    C        3.708558412    -3.648175078     4.252424528
  65    H        9.259724694    10.491780430    -6.047162378
  66    H        1.576966572     0.271849973     4.191989226
  67    H        0.725699465     0.484141929     2.660721475
  68    H        1.012355000    -1.137322040     3.295638503
  69    H        3.493962346    -0.882656846     2.965737524
  70    H        2.636432636    -0.688955442     1.443331564
  71    H        2.715699681     1.831706455     1.677385350
  72    H        3.447014798     1.684332961     3.266284177
  73    H        5.268631439     2.137442694     1.755200371
  74    H        5.447420585     0.451575592     2.217788467
  75    H        4.329055454    -0.285000723     0.055436658
  76    H        4.053970252     1.393747171    -0.392891442
  77    H       12.672688410     0.179103928    -2.532966771
  78    H       14.919600500     0.509186836    -3.557510725
  79    H       15.434182050     2.540446594    -4.852413132
  80    H       13.722824920     4.322593155    -5.172252812
  81    H        6.083704093     8.922083838    -4.540543602
  82    H        7.227411854    10.190010220    -4.934910951
  83    H        7.180872287     9.457634725    -7.396607922
  84    H        6.046978227     8.176920954    -6.989699233
  85    H        4.393669025     9.919964114    -6.110254808
  86    H        5.530091192    11.200740900    -6.510887745
  87    H        5.488884270    10.471809820    -8.960230626
  88    H        4.355067965     9.189308149    -8.560476724
  89    H        2.680098090    10.926068990    -7.724522363
  90    H        3.819350655    12.213667130    -8.124907885
  91    H        3.128884543    11.216502970    -9.405215265
  92    H       11.925367470    11.574311570    -9.518433152
  93    H        5.717390780    -2.293397821    -1.064539182
  94    H        5.352124754    -4.442364883     0.124555444
  95    H        8.039879835    -0.750720916     2.239160674
  96    H        8.850440076    -1.638276569     4.620815599
  97    H        9.308892758    -2.959835876     6.689807100
  98    H        8.422286576    -5.245206390     6.945558109
  99    H        7.053596760    -6.300626127     5.172722852
 100    H        5.732756844    -6.446118715     1.538052943
 101    H        5.896753535    -6.858628054     3.252036048
 102    H        3.807414088    -4.890683064     2.046062260
 103    H        3.637300074    -7.475809865     1.619452442
 104    H        3.372497858    -7.668002817     3.342642631
 105    H        1.380692102    -6.003097155     3.147271614
 106    H        1.670901254    -5.921825775     1.418686514
 107    H        1.350658466    -8.456747141     1.250616190
 108    H        1.053146218    -8.530073557     2.981364447
 109    H       -0.649021980    -6.894606060     0.969292257
 110    H       -1.119522601    -8.418849060     1.721285737
 111    H       -0.946921622    -6.966904542     2.707456237
 112    H        2.948597193    -5.622772421     4.666581873
 113    H        4.667932070    -5.481072733     4.898094998
 114    H        2.838146518    -3.296194989     3.678862866
 115    H        3.575144272    -3.279450715     5.280203993
 116    H        4.590486089    -3.130550654     3.846645331


           Empirical Formula: C54 H52 N4 O2 S4  =   116 atoms



      MOLECULAR POINT GROUP   :   C1  


                  EIGENVALUES  
 -48.82253 -47.64627 -46.78799 -45.30284 -44.96834 -43.91206 -43.55556 -42.69643
 -42.15629 -41.77125 -41.48467 -40.82587 -39.90821 -39.46305 -39.27488 -38.89805
 -38.11661 -37.21383 -36.34739 -36.29019 -35.90738 -35.06506 -34.56983 -33.42809
 -32.99665 -32.89155 -32.48802 -31.88775 -31.32178 -30.96645 -30.39272 -29.98203
 -29.42215 -29.23334 -29.05671 -27.38244 -26.95298 -26.74202 -26.37299 -26.15317
 -25.93045 -25.62207 -25.46369 -25.36729 -25.07057 -24.72504 -24.60632 -24.38343
 -24.32582 -24.28971 -24.03553 -23.77721 -23.51530 -22.94210 -22.68069 -21.74710
 -21.60047 -21.27268 -20.75320 -20.64218 -20.56983 -20.48489 -20.22819 -20.09229
 -20.07452 -19.62550 -19.48633 -19.43414 -18.85158 -18.62588 -18.41948 -18.32096
 -18.19683 -17.96234 -17.86283 -17.79488 -17.75833 -17.50786 -17.35257 -17.19138
 -16.90927 -16.75278 -16.59663 -16.41388 -16.38525 -16.34258 -16.10261 -16.05676
 -16.01114 -15.87411 -15.81199 -15.73361 -15.68351 -15.52603 -15.43291 -15.30246
 -15.09448 -15.01786 -14.89092 -14.81383 -14.71625 -14.56262 -14.53577 -14.37741
 -14.32123 -14.19969 -14.04406 -13.99782 -13.90688 -13.85180 -13.78486 -13.71325
 -13.58648 -13.54636 -13.45606 -13.37138 -13.28197 -13.25474 -13.11092 -13.08022
 -12.97633 -12.89447 -12.82043 -12.78334 -12.72041 -12.69787 -12.58759 -12.53329
 -12.48716 -12.47351 -12.39463 -12.32510 -12.27988 -12.22432 -12.17055 -12.10168
 -12.04427 -12.02203 -11.95316 -11.88430 -11.84605 -11.76166 -11.64765 -11.58190
 -11.49564 -11.40552 -10.82291 -10.80213 -10.51500 -10.19814  -9.96158  -9.68804
  -9.64112  -9.41769  -9.16223  -8.93319  -8.42357  -8.25935  -7.88582  -7.75166
  -7.50770  -6.68454  -1.59680  -0.99754  -0.09362   0.17370   0.30521   0.44638
   0.72867   0.83509   1.08159   1.13158   1.48311   1.51023   1.60913   1.63741
   1.85750   1.91999   2.03258   2.23976   2.32121   2.39840   2.56442   2.67555
   2.81566   2.82701   2.91875   2.93992   3.00118   3.06845   3.16625   3.29029
   3.34051   3.36717   3.39436   3.45965   3.46419   3.53811   3.59516   3.65535
   3.77805   3.81589   3.82478   3.85136   3.86491   3.93629   4.00758   4.05304
   4.16471   4.23209   4.27418   4.39138   4.44373   4.58029   4.70180   4.73915
   4.78120   5.03937   5.12985   5.13961   5.18481   5.24234   5.30023   5.40575
   5.48688   5.65514   5.82270   5.88026   5.96231   6.02843   6.32880   6.42258
   6.47591   6.56399   6.59559   6.62449   6.65261   6.70374   6.70886   6.73396
   6.74919   6.77234   6.79410   6.81338   6.84308   6.86199   6.88408   6.90590
   6.90690   6.97387   6.99892   7.00327   7.03561   7.04214   7.05637   7.06709
   7.09890   7.55595   7.74639   8.04742   8.22798   8.23112   8.48380   8.49472
   8.49684   8.60024   8.60438   8.62563   8.65630   8.69064   8.74775   8.83605
   8.98128   9.12530   9.15494   9.26402   9.37877   9.52041   9.69557   9.75055
   9.82921  10.27438  10.37435  10.49684  10.52568  10.56902  10.88430  10.97317
  11.15167  11.24078  11.35964  11.41354  11.60826  11.76259  12.01264  12.12774
  12.40422  12.53224  12.66485  12.77610  13.00906  13.12881  13.87408  13.98706
  14.23616  14.39956  15.06068  15.15168


              NET ATOMIC CHARGES AND DIPOLE CONTRIBUTIONS

  ATOM NO.   TYPE          CHARGE      No. of ELECS.   s-Pop       p-Pop       
    1          C          -0.027477        4.0275     1.05496     2.97252
    2          C          -0.005231        4.0052     1.04416     2.96107
    3          C          -0.007052        4.0071     1.04997     2.95708
    4          C          -0.003137        4.0031     1.05017     2.95297
    5          C           0.006638        3.9934     1.04148     2.95188
    6          C          -0.003607        4.0036     1.05118     2.95243
    7          C           0.025827        3.9742     1.08377     2.89040
    8          S          -0.046265        6.0463     1.76653     4.27973
    9          C          -0.004867        4.0049     1.07309     2.93177
   10          C           0.017560        3.9824     1.08561     2.89683
   11          S          -0.053691        6.0537     1.76945     4.28425
   12          C           0.028771        3.9712     1.07427     2.89696
   13          C           0.027445        3.9726     1.04850     2.92405
   14          C           0.119570        3.8804     1.05091     2.82952
   15          N          -0.283239        5.2832     1.59836     3.68488
   16          C           0.112327        3.8877     1.04912     2.83856
   17          C          -0.023150        4.0231     1.08363     2.93952
   18          C          -0.007687        4.0077     1.08150     2.92619
   19          C          -0.006280        4.0063     1.08182     2.92446
   20          C          -0.023315        4.0233     1.08353     2.93979
   21          C           0.115885        3.8841     1.04970     2.83441
   22          N          -0.288715        5.2887     1.59887     3.68984
   23          C           0.124296        3.8757     1.05158     2.82412
   24          C           0.002718        3.9973     1.04240     2.95488
   25          C           0.057445        3.9426     1.08008     2.86248
   26          S          -0.048447        6.0484     1.76973     4.27872
   27          C          -0.007276        4.0073     1.07626     2.93102
   28          C           0.048836        3.9512     1.08156     2.86961
   29          S          -0.020431        6.0204     1.76197     4.25846
   30          C          -0.031838        4.0318     1.06020     2.97164
   31          C           0.073809        3.9262     1.06711     2.85908
   32          C           0.006341        3.9937     1.04252     2.95114
   33          C          -0.003020        4.0030     1.05144     2.95158
   34          C          -0.007335        4.0073     1.05060     2.95673
   35          C          -0.006358        4.0064     1.04455     2.96181
   36          C          -0.027309        4.0273     1.05474     2.97257
   37          C           0.125133        3.8749     1.09693     2.77794
   38          C           0.001970        3.9980     0.99995     2.99808
   39          C           0.496182        3.5038     1.04529     2.45853
   40          O          -0.611309        6.6113     1.81689     4.79442
   41          O          -0.310701        6.3107     1.68753     4.62317
   42          C           0.214153        3.7858     1.14865     2.63719
   43          N          -0.393810        5.3938     1.75343     3.64038
   44          C           0.018943        3.9811     1.04055     2.94051
   45          C          -0.032532        4.0325     1.07958     2.95296
   46          C          -0.039105        4.0391     1.07879     2.96031
   47          C           0.070387        3.9296     1.04938     2.88023
   48          C          -0.014250        4.0142     1.05069     2.96356
   49          C          -0.033070        4.0331     1.07740     2.95567
   50          C          -0.018604        4.0186     1.04725     2.97136
   51          C          -0.021119        4.0211     1.07918     2.94194
   52          C          -0.046279        4.0463     1.07723     2.96905
   53          C          -0.024243        4.0242     1.08050     2.94375
   54          C          -0.043172        4.0432     1.07575     2.96742
   55          C           0.080927        3.9191     1.05187     2.86720
   56          N          -0.158762        5.1588     1.25027     3.90849
   57          C           0.075422        3.9246     1.05447     2.87011
   58          C           0.010471        3.9895     1.04396     2.94557
   59          C          -0.011970        4.0120     1.05758     2.95439
   60          C          -0.008587        4.0086     1.05110     2.95749
   61          C          -0.006843        4.0068     1.04484     2.96200
   62          C          -0.027785        4.0278     1.05490     2.97288
   63          C          -0.005129        4.0051     1.04969     2.95544
   64          C          -0.028699        4.0287     1.05692     2.97178
   65          H           0.062143        0.9379     0.93786
   66          H           0.007894        0.9921     0.99211
   67          H           0.008235        0.9918     0.99176
   68          H           0.000962        0.9990     0.99904
   69          H           0.007545        0.9925     0.99246
   70          H           0.008559        0.9914     0.99144
   71          H           0.008343        0.9917     0.99166
   72          H           0.000292        0.9997     0.99971
   73          H           0.001698        0.9983     0.99830
   74          H           0.010545        0.9895     0.98945
   75          H           0.014006        0.9860     0.98599
   76          H           0.010438        0.9896     0.98956
   77          H           0.029529        0.9705     0.97047
   78          H           0.026996        0.9730     0.97300
   79          H           0.027497        0.9725     0.97250
   80          H           0.030430        0.9696     0.96957
   81          H           0.014917        0.9851     0.98508
   82          H           0.022146        0.9779     0.97785
   83          H           0.010273        0.9897     0.98973
   84          H           0.012929        0.9871     0.98707
   85          H           0.009433        0.9906     0.99057
   86          H           0.009376        0.9906     0.99062
   87          H           0.007147        0.9929     0.99285
   88          H           0.006832        0.9932     0.99317
   89          H           0.007793        0.9922     0.99221
   90          H           0.008147        0.9919     0.99185
   91          H           0.000403        0.9996     0.99960
   92          H           0.246838        0.7532     0.75316
   93          H           0.022239        0.9778     0.97776
   94          H           0.027019        0.9730     0.97298
   95          H           0.024720        0.9753     0.97528
   96          H           0.023324        0.9767     0.97668
   97          H           0.015949        0.9841     0.98405
   98          H           0.018799        0.9812     0.98120
   99          H           0.026925        0.9731     0.97308
  100          H           0.013280        0.9867     0.98672
  101          H           0.021177        0.9788     0.97882
  102          H           0.014629        0.9854     0.98537
  103          H           0.002257        0.9977     0.99774
  104          H           0.008693        0.9913     0.99131
  105          H           0.008812        0.9912     0.99119
  106          H           0.007271        0.9927     0.99273
  107          H           0.006537        0.9935     0.99346
  108          H           0.006523        0.9935     0.99348
  109          H           0.007859        0.9921     0.99214
  110          H           0.000394        0.9996     0.99961
  111          H           0.007780        0.9922     0.99222
  112          H           0.004932        0.9951     0.99507
  113          H           0.009357        0.9906     0.99064
  114          H           0.008858        0.9911     0.99114
  115          H           0.000407        0.9996     0.99959
  116          H           0.011553        0.9884     0.98845
 DIPOLE           X         Y         Z       TOTAL
 POINT-CHG.    -5.122    -5.056     5.132     8.840
 HYBRID        -0.760     1.548     0.223     1.739
 SUM           -5.883    -3.508     5.355     8.694


          ATOMIC ORBITAL ELECTRON POPULATIONS

     Atom    s        px        py        pz   
    1  C   1.05496   0.99049   0.98943   0.99260
    2  C   1.04416   0.99210   0.98111   0.98786
    3  C   1.04997   0.99054   0.98337   0.98317
    4  C   1.05017   0.98237   0.98581   0.98479
    5  C   1.04148   0.97237   0.98775   0.99176
    6  C   1.05118   0.96826   0.98338   1.00079
    7  C   1.08377   0.92130   0.97972   0.98939
    8  S   1.76653   1.29465   1.32100   1.66409
    9  C   1.07309   0.98985   0.91370   1.02822
   10  C   1.08561   0.99295   0.90702   0.99686
   11  S   1.76945   1.29374   1.32176   1.66874
   12  C   1.07427   0.92416   0.97552   0.99728
   13  C   1.04850   0.95755   0.97919   0.98732
   14  C   1.05091   0.94197   0.94501   0.94254
   15  N   1.59836   1.09961   1.34475   1.24052
   16  C   1.04912   0.93090   0.96571   0.94195
   17  C   1.08363   0.98699   0.96036   0.99217
   18  C   1.08150   0.97579   0.96760   0.98279
   19  C   1.08182   0.95928   0.99151   0.97367
   20  C   1.08353   0.98181   0.96760   0.99037
   21  C   1.04970   0.94649   0.94332   0.94460
   22  N   1.59887   1.09948   1.34448   1.24589
   23  C   1.05158   0.93382   0.95695   0.93336
   24  C   1.04240   0.96914   0.96414   1.02159
   25  C   1.08008   0.96264   0.91844   0.98140
   26  S   1.76973   1.30307   1.29668   1.67898
   27  C   1.07626   0.94492   0.97458   1.01152
   28  C   1.08156   0.95411   0.96491   0.95059
   29  S   1.76197   1.30856   1.28914   1.66077
   30  C   1.06020   0.94960   0.93474   1.08730
   31  C   1.06711   0.98117   0.97455   0.90336
   32  C   1.04252   0.97945   0.98117   0.99052
   33  C   1.05144   0.99210   0.99034   0.96915
   34  C   1.05060   0.98833   0.98421   0.98419
   35  C   1.04455   0.99102   0.98419   0.98660
   36  C   1.05474   0.99111   0.99286   0.98860
   37  C   1.09693   0.87157   0.98942   0.91694
   38  C   0.99995   1.08102   0.88852   1.02854
   39  C   1.04529   0.73957   0.93612   0.78284
   40  O   1.81689   1.64802   1.38953   1.75686
   41  O   1.68753   1.64771   1.48736   1.48810
   42  C   1.14865   0.87440   0.90590   0.85690
   43  N   1.75343   1.19352   1.23532   1.21154
   44  C   1.04055   0.99540   0.96388   0.98123
   45  C   1.07958   1.00492   0.98847   0.95957
   46  C   1.07879   1.01098   0.97518   0.97415
   47  C   1.04938   1.00377   0.92771   0.94875
   48  C   1.05069   1.01105   0.97369   0.97882
   49  C   1.07740   1.00687   0.96714   0.98167
   50  C   1.04725   1.01095   0.99055   0.96986
   51  C   1.07918   0.99274   0.95275   0.99645
   52  C   1.07723   1.00739   0.98883   0.97284
   53  C   1.08050   0.99666   0.98436   0.96273
   54  C   1.07575   1.02312   0.95262   0.99168
   55  C   1.05187   0.96954   0.99030   0.90737
   56  N   1.25027   1.47973   1.21035   1.21841
   57  C   1.05447   0.96302   0.91463   0.99246
   58  C   1.04396   0.97632   0.98462   0.98463
   59  C   1.05758   0.99523   0.97420   0.98496
   60  C   1.05110   0.99161   0.97739   0.98849
   61  C   1.04484   0.99628   0.97912   0.98659
   62  C   1.05490   0.98947   0.99039   0.99302
   63  C   1.04969   0.98797   0.99376   0.97371
   64  C   1.05692   0.99401   0.98777   0.99001
   65  H   0.93786
   66  H   0.99211
   67  H   0.99176
   68  H   0.99904
   69  H   0.99246
   70  H   0.99144
   71  H   0.99166
   72  H   0.99971
   73  H   0.99830
   74  H   0.98945
   75  H   0.98599
   76  H   0.98956
   77  H   0.97047
   78  H   0.97300
   79  H   0.97250
   80  H   0.96957
   81  H   0.98508
   82  H   0.97785
   83  H   0.98973
   84  H   0.98707
   85  H   0.99057
   86  H   0.99062
   87  H   0.99285
   88  H   0.99317
   89  H   0.99221
   90  H   0.99185
   91  H   0.99960
   92  H   0.75316
   93  H   0.97776
   94  H   0.97298
   95  H   0.97528
   96  H   0.97668
   97  H   0.98405
   98  H   0.98120
   99  H   0.97308
  100  H   0.98672
  101  H   0.97882
  102  H   0.98537
  103  H   0.99774
  104  H   0.99131
  105  H   0.99119
  106  H   0.99273
  107  H   0.99346
  108  H   0.99348
  109  H   0.99214
  110  H   0.99961
  111  H   0.99222
  112  H   0.99507
  113  H   0.99064
  114  H   0.99114
  115  H   0.99959
  116  H   0.98845

 **********************
 *                    *
 * JOB ENDED NORMALLY *
 *                    *
 **********************



 TOTAL JOB TIME:           881.46 SECONDS

 == MOPAC DONE ==
