 *******************************************************************************
 ** Site#: 4824         For non-commercial use only    Version 21.013L 64BITS **
 *******************************************************************************
 ** Cite this program as: MOPAC2016, Version: 21.013L, James J. P. Stewart,   **
 ** Stewart Computational Chemistry, web: HTTP://OpenMOPAC.net. Days left:  84**
 *******************************************************************************
 **                                                                           **
 **                                MOPAC2016                                  **
 **                                                                           **
 *******************************************************************************

                              INDO CALCULATION RESULTS

 *******************************************************************************
 *  CALCULATION DONE:                                Thu Oct 21 09:29:28 2021  *
 *  INDO       - The INDO Hamiltonian to be used
 *  CIS        - C.I. USES 1 ELECTRON EXCITATIONS ONLY
 *  EPS= 24.50 - USE ANDREAS KLAMT'S COSMO IMPLICIT SOLVATION MODEL
 *  n**2 =  1.360 for COSMO-CI
 *  T=         - A TIME OF 172800.0 SECONDS REQUESTED
 *  DUMP=N     - RESTART FILE WRITTEN EVERY 7200.0 SECONDS REQUESTED
 *******************************************************************************
INDO CIS EPS=24.5 N**2=1.36
 Dye1
 Calculo de Estados Excitados
   ATOM   CHEMICAL          X               Y               Z
  NUMBER   SYMBOL      (ANGSTROMS)     (ANGSTROMS)     (ANGSTROMS)
 
     1       N          0.00045784  *   0.02487556  *  -0.00093597  *
     2       C          1.15715337  *  -0.00394974  *   0.00053788  *
     3       C          2.57236994  *  -0.00273009  *   0.00008163  *
     4       C          3.32615731  *  -1.12150146  *   0.07327833  *
     5       C          2.84062522  *  -2.46215970  *   0.16118125  *
     6       C          3.69450203  *  -3.54804682  *   0.23123935  *
     7       C          2.96970798  *  -4.75405678  *   0.31045052  *
     8       C          1.58339593  *  -4.53742137  *   0.29769656  *
     9       S          1.18559431  *  -2.91710264  *   0.19211658  *
    10       C          0.88209335  *  -5.75647873  *   0.37738834  *
    11       C          1.76014497  *  -6.84080729  *   0.44697367  *
    12       S          3.39916368  *  -6.39655706  *   0.41705730  *
    13       C          1.07879981  *  -8.08432481  *   0.53216006  *
    14       C         -0.27599306  *  -7.89258897  *   0.52482686  *
    15       S         -0.73448214  *  -6.23293308  *   0.40918107  *
    16       C         -1.26705861  *  -8.94061192  *   0.58304170  *
    17       C         -2.38375161  *  -8.80491019  *   1.42322275  *
    18       C         -3.34857056  *  -9.79355545  *   1.50928460  *
    19       C         -3.17127819  * -10.92957807  *   0.72276584  *
    20       C         -2.03594440  * -11.08272286  *  -0.12068629  *
    21       C         -1.08173763  * -10.08314136  *  -0.19122922  *
    22       C         -2.15273111  * -12.36804839  *  -0.76178341  *
    23       C         -1.35699644  * -13.04111820  *  -1.67503882  *
    24       C         -1.76874414  * -14.29103504  *  -2.11216179  *
    25       C         -2.96138120  * -14.86170685  *  -1.65421230  *
    26       C         -3.77746939  * -14.21135845  *  -0.74218755  *
    27       C         -3.35564082  * -12.96278465  *  -0.29384850  *
    28       N         -3.97560101  * -12.07678795  *   0.60939222  *
    29       C         -5.17742125  * -12.32078729  *   1.31720623  *
    30       C         -6.20309271  * -11.36701983  *   1.28095136  *
    31       C         -7.37392662  * -11.59968758  *   1.97724573  *
    32       C         -7.52033549  * -12.79561120  *   2.69733098  *
    33       C         -6.50768563  * -13.74992040  *   2.72780266  *
    34       C         -5.32549826  * -13.50455655  *   2.03802926  *
    35       O         -8.72405005  * -12.89945117  *   3.32907793  *
    36       C         -8.95309020  * -14.05186854  *   4.09930679  *
    37       C          3.23638712  *   1.30313042  *  -0.08581664  *
    38       O          4.44210681  *   1.51073733  *  -0.10026655  *
    39       O          2.38542914  *   2.34724561  *  -0.15344183  *
    40       H          4.42531673  *  -1.02135137  *   0.06653578  *
    41       H          4.78177198  *  -3.49341541  *   0.22680088  *
    42       H          1.57953419  *  -9.04630372  *   0.60503030  *
    43       H         -2.49087126  *  -7.90236745  *   2.03407378  *
    44       H         -4.20601490  *  -9.69048688  *   2.17784890  *
    45       H         -0.21342252  * -10.19576278  *  -0.84578401  *
    46       H         -0.43060874  * -12.58857218  *  -2.03723491  *
    47       H         -1.15535860  * -14.84172250  *  -2.83070111  *
    48       H         -3.25805102  * -15.84660908  *  -2.02876983  *
    49       H         -4.71559923  * -14.65409319  *  -0.40178909  *
    50       H         -6.08722373  * -10.44563543  *   0.69985742  *
    51       H         -8.18346928  * -10.86300252  *   1.96325176  *
    52       H         -6.60202411  * -14.68747793  *   3.28024845  *
    53       H         -4.51652718  * -14.24253807  *   2.07311928  *
    54       H         -8.24729702  * -14.16387447  *   4.93890802  *
    55       H         -9.96294098  * -13.88958674  *   4.50735876  *
    56       H         -8.95877273  * -14.97950534  *   3.50342199  *
    57       H          2.86750954  *   3.18499757  *  -0.20886354  *
 


          CARTESIAN COORDINATES 

    NO.       ATOM           X           Y           Z

     1         N          0.0005      0.0249     -0.0009
     2         C          1.1572     -0.0039      0.0005
     3         C          2.5724     -0.0027      0.0001
     4         C          3.3262     -1.1215      0.0733
     5         C          2.8406     -2.4622      0.1612
     6         C          3.6945     -3.5480      0.2312
     7         C          2.9697     -4.7541      0.3105
     8         C          1.5834     -4.5374      0.2977
     9         S          1.1856     -2.9171      0.1921
    10         C          0.8821     -5.7565      0.3774
    11         C          1.7601     -6.8408      0.4470
    12         S          3.3992     -6.3966      0.4171
    13         C          1.0788     -8.0843      0.5322
    14         C         -0.2760     -7.8926      0.5248
    15         S         -0.7345     -6.2329      0.4092
    16         C         -1.2671     -8.9406      0.5830
    17         C         -2.3838     -8.8049      1.4232
    18         C         -3.3486     -9.7936      1.5093
    19         C         -3.1713    -10.9296      0.7228
    20         C         -2.0359    -11.0827     -0.1207
    21         C         -1.0817    -10.0831     -0.1912
    22         C         -2.1527    -12.3680     -0.7618
    23         C         -1.3570    -13.0411     -1.6750
    24         C         -1.7687    -14.2910     -2.1122
    25         C         -2.9614    -14.8617     -1.6542
    26         C         -3.7775    -14.2114     -0.7422
    27         C         -3.3556    -12.9628     -0.2938
    28         N         -3.9756    -12.0768      0.6094
    29         C         -5.1774    -12.3208      1.3172
    30         C         -6.2031    -11.3670      1.2810
    31         C         -7.3739    -11.5997      1.9772
    32         C         -7.5203    -12.7956      2.6973
    33         C         -6.5077    -13.7499      2.7278
    34         C         -5.3255    -13.5046      2.0380
    35         O         -8.7241    -12.8995      3.3291
    36         C         -8.9531    -14.0519      4.0993
    37         C          3.2364      1.3031     -0.0858
    38         O          4.4421      1.5107     -0.1003
    39         O          2.3854      2.3472     -0.1534
    40         H          4.4253     -1.0214      0.0665
    41         H          4.7818     -3.4934      0.2268
    42         H          1.5795     -9.0463      0.6050
    43         H         -2.4909     -7.9024      2.0341
    44         H         -4.2060     -9.6905      2.1778
    45         H         -0.2134    -10.1958     -0.8458
    46         H         -0.4306    -12.5886     -2.0372
    47         H         -1.1554    -14.8417     -2.8307
    48         H         -3.2581    -15.8466     -2.0288
    49         H         -4.7156    -14.6541     -0.4018
    50         H         -6.0872    -10.4456      0.6999
    51         H         -8.1835    -10.8630      1.9633
    52         H         -6.6020    -14.6875      3.2802
    53         H         -4.5165    -14.2425      2.0731
    54         H         -8.2473    -14.1639      4.9389
    55         H         -9.9629    -13.8896      4.5074
    56         H         -8.9588    -14.9795      3.5034
    57         H          2.8675      3.1850     -0.2089

           Empirical Formula: C31 H18 N2 O3 S3  =    57 atoms



      MOLECULAR POINT GROUP   :   C1  


      RHF CALCULATION, NO. OF DOUBLY OCCUPIED LEVELS = 94

 WARNING: INDO only performs single-point calculations

 Summary of symmetry occupancy in each shell:

 SHELL     
    1   94
    v   80
 TOTAL 174




    ROOT NO.    1           2           3           4           5           6

           -48.64096   -46.78092   -46.64360   -44.88684   -43.37281   -42.97071
  
  
  S  N   1   0.00003     0.03918     0.00014     0.00866    -0.01323    -0.00224
 PX  N   1   0.00002     0.02431     0.00009     0.00478    -0.00715    -0.00120
 PY  N   1  -0.00000     0.00406     0.00002    -0.00149     0.00168     0.00027
 PZ  N   1   0.00000    -0.00027    -0.00000     0.00010    -0.00011    -0.00002
  
  S  C   2   0.00008     0.11194     0.00042     0.01897    -0.02653    -0.00435
 PX  C   2   0.00003     0.04908     0.00019     0.00518    -0.00643    -0.00099
 PY  C   2  -0.00001     0.02364     0.00015    -0.00830     0.00768     0.00116
 PZ  C   2   0.00000    -0.00156    -0.00001     0.00054    -0.00050    -0.00008
  
  S  C   3   0.00014     0.22451     0.00089     0.02680    -0.03801    -0.00618
 PX  C   3   0.00001     0.03254     0.00015    -0.00027    -0.00099    -0.00019
 PY  C   3  -0.00004     0.07950     0.00048    -0.02396     0.02173     0.00327
 PZ  C   3   0.00000    -0.00522    -0.00003     0.00157    -0.00142    -0.00021
  
  S  C   4   0.00027     0.11236     0.00008     0.07658    -0.07747    -0.01180
 PX  C   4  -0.00004    -0.01446     0.00001    -0.01290     0.01309     0.00200
 PY  C   4  -0.00011     0.04658     0.00043    -0.03355     0.02495     0.00344
 PZ  C   4   0.00001    -0.00305    -0.00003     0.00219    -0.00163    -0.00022
  
  S  C   5   0.00086     0.04856    -0.00112     0.20068    -0.15941    -0.02260
 PX  C   5  -0.00005     0.00204     0.00007    -0.00445    -0.00003    -0.00016
 PY  C   5  -0.00040     0.01204     0.00064    -0.07576     0.04735     0.00609
 PZ  C   5   0.00003    -0.00079    -0.00004     0.00493    -0.00308    -0.00040
  
  S  C   6   0.00112     0.02662    -0.00151     0.22556    -0.16221    -0.02225
 PX  C   6  -0.00054    -0.00847     0.00071    -0.09936     0.06711     0.00901
 PY  C   6  -0.00024     0.00565     0.00029    -0.02102     0.00267    -0.00019
 PZ  C   6   0.00002    -0.00036    -0.00002     0.00145    -0.00023     0.00001
  
  S  C   7   0.00276     0.02089    -0.00313     0.34362    -0.17835    -0.02181
 PX  C   7  -0.00106    -0.00440     0.00111    -0.10193     0.03893     0.00406
 PY  C   7  -0.00046     0.00587     0.00028     0.01737    -0.04457    -0.00726
 PZ  C   7   0.00003    -0.00038    -0.00002    -0.00104     0.00287     0.00047
  
  S  C   8   0.00352     0.01998    -0.00369     0.36289    -0.16375    -0.01892
 PX  C   8   0.00032     0.00641    -0.00055     0.08524    -0.05905    -0.00788
 PY  C   8  -0.00152     0.00160     0.00126    -0.06353    -0.01508    -0.00412
 PZ  C   8   0.00010    -0.00011    -0.00008     0.00403     0.00107     0.00028
  
  S  S   9   0.00094     0.02349    -0.00119     0.16933    -0.11605    -0.01572
 PX  S   9   0.00040     0.01271    -0.00055     0.08860    -0.06636    -0.00921
 PY  S   9  -0.00047     0.00243     0.00061    -0.06659     0.03490     0.00421
 PZ  S   9   0.00003    -0.00017    -0.00004     0.00427    -0.00222    -0.00027
  
  S  C  10   0.00797     0.01143    -0.00620     0.36243    -0.03333     0.00204
 PX  C  10   0.00024     0.00427    -0.00068     0.09743    -0.04961    -0.00572
 PY  C  10  -0.00314     0.00055     0.00192    -0.04296    -0.04876    -0.00837
 PZ  C  10   0.00021    -0.00004    -0.00013     0.00282     0.00331     0.00059
  
  S  C  11   0.00916     0.00977    -0.00673     0.34915    -0.00145     0.00642
 PX  C  11  -0.00370    -0.00093     0.00230    -0.06771    -0.03927    -0.00717
 PY  C  11  -0.00061     0.00344    -0.00018     0.07845    -0.04946    -0.00566
 PZ  C  11   0.00001    -0.00022     0.00002    -0.00484     0.00312     0.00042
  
  S  S  12   0.00256     0.00750    -0.00242     0.19702    -0.05945    -0.00532
 PX  S  12  -0.00169    -0.00384     0.00154    -0.11515     0.02631     0.00172
 PY  S  12   0.00036     0.00332    -0.00053     0.06588    -0.03543    -0.00425
 PZ  S  12  -0.00003    -0.00021     0.00003    -0.00419     0.00228     0.00028
  
  S  C  13   0.01701     0.00477    -0.00916     0.23644     0.11080     0.01893
 PX  C  13  -0.00723    -0.00048     0.00332    -0.03921    -0.05319    -0.00758
 PY  C  13   0.00004     0.00223    -0.00098     0.09262    -0.00142     0.00265
 PZ  C  13  -0.00036    -0.00015     0.00021    -0.00670    -0.00149    -0.00007
  
  S  C  14   0.03352     0.00408    -0.01512     0.23017     0.20200     0.03123
 PX  C  14  -0.00737     0.00133     0.00184     0.05715    -0.02659    -0.00264
 PY  C  14  -0.01094     0.00091     0.00360     0.03116    -0.05026    -0.00457
 PZ  C  14   0.00035    -0.00008    -0.00005    -0.00333     0.00183     0.00085
  
  S  S  15   0.01105     0.00376    -0.00606     0.17352     0.06719     0.01344
 PX  S  15   0.00230     0.00239    -0.00197     0.10199     0.01137     0.00374
 PY  S  15  -0.00648    -0.00067     0.00309    -0.04787    -0.04953    -0.00812
 PZ  S  15   0.00068     0.00005    -0.00030     0.00378     0.00481     0.00090
  
  S  C  16   0.09704     0.00172    -0.03330     0.14021     0.35823     0.04762
 PX  C  16  -0.02461     0.00037     0.00657     0.01467    -0.04443    -0.00879
 PY  C  16  -0.03119     0.00028     0.00903     0.00833    -0.05603    -0.00279
 PZ  C  16  -0.00057    -0.00004     0.00043    -0.00170     0.00207     0.00480
  
  S  C  17   0.09425     0.00087    -0.02855     0.08540     0.29649     0.05575
 PX  C  17   0.00170     0.00028    -0.00271     0.02095     0.03734    -0.00186
 PY  C  17  -0.03919    -0.00005     0.01051    -0.01178    -0.08004    -0.01620
 PZ  C  17  -0.02378    -0.00021     0.00781    -0.02079    -0.07113    -0.00835
  
  S  C  18   0.14886     0.00036    -0.03030     0.04679     0.22426     0.08410
 PX  C  18   0.02214     0.00023    -0.01186     0.02410     0.10107    -0.00095
 PY  C  18  -0.05057     0.00010     0.00618     0.00837     0.01619    -0.01810
 PZ  C  18  -0.04505    -0.00009     0.01124    -0.01136    -0.05863    -0.01172
  
  S  C  19   0.36337     0.00008    -0.06972     0.01624     0.15794     0.07141
 PX  C  19  -0.00882     0.00023    -0.01162     0.02259     0.09822    -0.04451
 PY  C  19  -0.11342     0.00029     0.01568     0.03424     0.11676     0.01046
 PZ  C  19  -0.05768     0.00002     0.01613     0.00463     0.00213     0.03458
  
  S  C  20   0.29346     0.00033    -0.07362     0.03366     0.20619    -0.05046
 PX  C  20  -0.09429     0.00013     0.01771     0.01312     0.01892    -0.00394
 PY  C  20  -0.05438     0.00029     0.00913     0.03363     0.11604     0.05613
 PZ  C  20   0.03279     0.00008    -0.00684     0.01059     0.05381     0.03428
  
  S  C  21   0.12434     0.00096    -0.03916     0.08845     0.29474     0.00788
 PX  C  21  -0.05052    -0.00001     0.01400    -0.00793    -0.07448    -0.00373
 PY  C  21  -0.01941     0.00034     0.00392     0.02637     0.04349     0.02377
 PZ  C  21   0.02315     0.00022    -0.00729     0.02192     0.07655     0.01625
  
  S  C  22   0.29125    -0.00011    -0.07175    -0.02355    -0.04272    -0.25313
 PX  C  22  -0.08788     0.00010     0.01670     0.01176     0.02846     0.01390
 PY  C  22   0.02143     0.00007    -0.00397     0.01212     0.07081     0.09018
 PZ  C  22   0.07022    -0.00002    -0.01317    -0.00092     0.02108     0.04264
  
  S  C  23   0.11819    -0.00006    -0.03494    -0.01774    -0.07160    -0.26875
 PX  C  23  -0.04854     0.00004     0.01329     0.00891     0.03428     0.09399
 PY  C  23   0.00346     0.00003    -0.00038     0.00492     0.02874     0.04424
 PZ  C  23   0.03416    -0.00001    -0.00901    -0.00312    -0.00646    -0.03713
  
  S  C  24   0.08527    -0.00008    -0.02605    -0.02007    -0.09481    -0.26902
 PX  C  24  -0.02256     0.00003     0.00627     0.00567     0.02612     0.06080
 PY  C  24   0.02412    -0.00002    -0.00723    -0.00420    -0.01678    -0.05676
 PZ  C  24   0.02857    -0.00003    -0.00821    -0.00612    -0.02674    -0.07213
  
  S  C  25   0.08897    -0.00011    -0.02458    -0.02228    -0.10657    -0.25839
 PX  C  25   0.00721    -0.00000    -0.00349    -0.00163    -0.00735    -0.03595
 PY  C  25   0.04053    -0.00004    -0.01108    -0.00891    -0.03904    -0.09658
 PZ  C  25   0.01861    -0.00002    -0.00397    -0.00407    -0.01776    -0.03136
  
  S  C  26   0.14644    -0.00020    -0.02786    -0.03001    -0.12992    -0.21020
 PX  C  26   0.03298    -0.00002    -0.01235    -0.00713    -0.03015    -0.10252
 PY  C  26   0.06096    -0.00007    -0.01071    -0.00898    -0.02891    -0.02532
 PZ  C  26   0.01426    -0.00003     0.00249    -0.00068     0.00193     0.05500
  
  S  C  27   0.36110    -0.00036    -0.06775    -0.04660    -0.13961    -0.17789
 PX  C  27   0.01161     0.00006    -0.01406     0.00149     0.01455    -0.09742
 PY  C  27   0.11436    -0.00006    -0.02137    -0.00438     0.02227     0.05989
 PZ  C  27   0.05644    -0.00008    -0.00193    -0.00347     0.00223     0.10208
  
  S  N  28   0.48343    -0.00057    -0.05537    -0.05159    -0.13215     0.14273
 PX  N  28   0.07457     0.00006    -0.03363    -0.00043     0.03568    -0.07566
 PY  N  28   0.01288     0.00005    -0.00658     0.00668     0.04222     0.01483
 PZ  N  28  -0.03846    -0.00002     0.01871     0.00332    -0.00322     0.06042
  
  S  C  29   0.23723    -0.00078     0.08205    -0.03524    -0.18188     0.31737
 PX  C  29   0.07109     0.00010    -0.05447    -0.00744     0.00632    -0.04686
 PY  C  29   0.01372     0.00004    -0.01141     0.00106     0.01535     0.00325
 PZ  C  29  -0.04087    -0.00006     0.03207     0.00474    -0.00162     0.02910
  
  S  C  30   0.11809    -0.00066     0.10753    -0.01727    -0.12243     0.26702
 PX  C  30   0.04058     0.00002    -0.02137    -0.00513    -0.01141     0.02042
 PY  C  30  -0.03285     0.00024    -0.04247     0.00641     0.04798    -0.08689
 PZ  C  30   0.00168    -0.00014     0.03334    -0.00059    -0.01776     0.04200
  
  S  C  31   0.06653    -0.00094     0.20276    -0.00582    -0.07895     0.18079
 PX  C  31   0.02211    -0.00005    -0.00154    -0.00615    -0.04597     0.09719
 PY  C  31  -0.01863     0.00036    -0.08170     0.00058     0.01774    -0.03714
 PZ  C  31  -0.00011    -0.00017     0.04500     0.00275     0.01318    -0.02609
  
  S  C  32   0.07758    -0.00180     0.42077     0.00566    -0.02206     0.06466
 PX  C  32   0.00718     0.00043    -0.11768    -0.01174    -0.07697     0.15228
 PY  C  32   0.00082     0.00012    -0.03268    -0.00274    -0.01784     0.03879
 PZ  C  32  -0.00386    -0.00027     0.07453     0.00719     0.04700    -0.09417
  
  S  C  33   0.06822    -0.00103     0.22409    -0.00575    -0.07881     0.16056
 PX  C  33   0.00357     0.00027    -0.07356    -0.00606    -0.03312     0.05761
 PY  C  33   0.02359    -0.00031     0.06514    -0.00283    -0.03236     0.06986
 PZ  C  33  -0.01475     0.00004     0.00048     0.00458     0.03402    -0.06472
  
  S  C  34   0.11968    -0.00070     0.11173    -0.02091    -0.14255     0.24539
 PX  C  34   0.00771     0.00020    -0.05228    -0.00118     0.01729    -0.05478
 PY  C  34   0.04273    -0.00019     0.02666    -0.00703    -0.04324     0.08402
 PZ  C  34  -0.02984     0.00002     0.01051     0.00528     0.01968    -0.01745
  
  S  O  35   0.06392    -0.00259     0.63790     0.02812     0.13036    -0.24210
 PX  O  35   0.01439    -0.00051     0.12368     0.00447     0.01587    -0.02657
 PY  O  35  -0.00866     0.00041    -0.10148    -0.00516    -0.02731     0.05320
 PZ  O  35  -0.00186     0.00001    -0.00053     0.00084     0.00815    -0.01782
  
  S  C  36   0.03002    -0.00126     0.31098     0.01431     0.06980    -0.13250
 PX  C  36   0.00691    -0.00025     0.06151     0.00234     0.00910    -0.01617
 PY  C  36   0.01295    -0.00056     0.13925     0.00659     0.03264    -0.06178
 PZ  C  36  -0.01073     0.00044    -0.10922    -0.00489    -0.02303     0.04313
  
  S  C  37   0.00011     0.51305     0.00246    -0.02823     0.01172     0.00140
 PX  C  37   0.00000     0.01795     0.00009    -0.00089    -0.00069    -0.00019
 PY  C  37   0.00000     0.13896     0.00073    -0.02163     0.02067     0.00324
 PZ  C  37  -0.00000    -0.00910    -0.00005     0.00142    -0.00135    -0.00021
  
  S  O  38   0.00008     0.41203     0.00199    -0.02548     0.01155     0.00139
 PX  O  38  -0.00003    -0.17593    -0.00085     0.01159    -0.00595    -0.00077
 PY  O  38  -0.00001    -0.00464    -0.00001    -0.00288     0.00399     0.00067
 PZ  O  38   0.00000     0.00043     0.00000     0.00018    -0.00026    -0.00004
  
  S  O  39   0.00009     0.57413     0.00283    -0.04965     0.03699     0.00555
 PX  O  39   0.00002     0.15875     0.00078    -0.01401     0.01040     0.00155
 PY  O  39  -0.00001    -0.06496    -0.00031     0.00327    -0.00091    -0.00007
 PZ  O  39   0.00000     0.00411     0.00002    -0.00020     0.00005     0.00000
  
  S  H  40   0.00010     0.05237     0.00008     0.02789    -0.02872    -0.00439
  
  S  H  41   0.00027     0.00919    -0.00036     0.05888    -0.04477    -0.00625
  
  S  H  42   0.00728     0.00122    -0.00349     0.06511     0.04403     0.00620
  
  S  H  43   0.02264     0.00036    -0.00716     0.03105     0.08847     0.01797
  
  S  H  44   0.05016     0.00005    -0.00431     0.00957     0.04838     0.04279
  
  S  H  45   0.03471     0.00042    -0.01163     0.03394     0.08817    -0.00525
  
  S  H  46   0.03212     0.00001    -0.01002    -0.00265    -0.01108    -0.07427
  
  S  H  47   0.01939    -0.00002    -0.00630    -0.00502    -0.02531    -0.07433
  
  S  H  48   0.02050    -0.00003    -0.00570    -0.00579    -0.02954    -0.07032
  
  S  H  49   0.04958    -0.00009    -0.00361    -0.01029    -0.04707    -0.03801
  
  S  H  50   0.04847    -0.00017     0.02297    -0.00543    -0.03221     0.08299
  
  S  H  51   0.01764    -0.00031     0.07090    -0.00032    -0.01485     0.03821
  
  S  H  52   0.01936    -0.00039     0.08855     0.00011    -0.01272     0.02588
  
  S  H  53   0.04948    -0.00020     0.02480    -0.00865    -0.04938     0.06644
  
  S  H  54   0.01145    -0.00046     0.11301     0.00498     0.02343    -0.04425
  
  S  H  55   0.00918    -0.00040     0.10017     0.00486     0.02492    -0.04791
  
  S  H  56   0.01140    -0.00046     0.11261     0.00496     0.02341    -0.04428
  
  S  H  57   0.00004     0.24200     0.00120    -0.02163     0.01651     0.00249




    ROOT NO.    7           8           9          10          11          12

           -41.87840   -40.90805   -39.66897   -39.16750   -37.02135   -36.27402
  
  
  S  N   1   0.04862    -0.05240    -0.03918     0.39893     0.38886    -0.17017
 PX  N   1   0.02527    -0.02634    -0.01789     0.18695     0.15831    -0.06502
 PY  N   1  -0.00480     0.00430     0.01021    -0.00660    -0.00135     0.00032
 PZ  N   1   0.00031    -0.00027    -0.00066     0.00037     0.00003     0.00000
  
  S  C   2   0.08616    -0.08438    -0.07413     0.47533     0.28381    -0.09081
 PX  C   2   0.01544    -0.01027    -0.01919    -0.05676    -0.19729     0.11317
 PY  C   2  -0.01842     0.01476     0.03768    -0.00189     0.01555    -0.00755
 PZ  C   2   0.00120    -0.00097    -0.00246     0.00016    -0.00095     0.00046
  
  S  C   3   0.11815    -0.11137    -0.21942     0.30975    -0.00845     0.07510
 PX  C   3   0.00477    -0.00636    -0.09672    -0.10727    -0.05331     0.02523
 PY  C   3  -0.05157     0.04057     0.06903    -0.04907     0.04837    -0.02771
 PZ  C   3   0.00337    -0.00265    -0.00447     0.00326    -0.00315     0.00181
  
  S  C   4   0.18958    -0.15078    -0.24867     0.21464    -0.17409     0.11533
 PX  C   4  -0.03298     0.02699     0.02381    -0.08623     0.00873    -0.01701
 PY  C   4  -0.03708     0.01180    -0.08304     0.01867     0.07578    -0.00116
 PZ  C   4   0.00242    -0.00077     0.00544    -0.00120    -0.00495     0.00008
  
  S  C   5   0.28712    -0.16706    -0.03525     0.08424    -0.25208     0.06339
 PX  C   5   0.00815    -0.00895    -0.01727    -0.00151    -0.04538     0.01756
 PY  C   5  -0.04876     0.00194    -0.10386     0.11143     0.00990     0.04055
 PZ  C   5   0.00316    -0.00011     0.00679    -0.00728    -0.00061    -0.00266
  
  S  C   6   0.25079    -0.11927     0.06522    -0.05184    -0.18176     0.00921
 PX  C   6  -0.09366     0.03855    -0.04155     0.03154     0.03939     0.00848
 PY  C   6   0.02424    -0.02882    -0.04133     0.04911    -0.08135     0.03232
 PZ  C   6  -0.00150     0.00185     0.00273    -0.00323     0.00526    -0.00212
  
  S  C   7   0.15537    -0.01957     0.12668    -0.13833     0.09668    -0.05242
 PX  C   7  -0.00438    -0.02044    -0.02792     0.03414    -0.07902     0.01695
 PY  C   7   0.11766    -0.07304     0.02567    -0.00892    -0.14847     0.00726
 PZ  C   7  -0.00767     0.00478    -0.00165     0.00055     0.00973    -0.00052
  
  S  C   8   0.10040     0.01402     0.11051    -0.12342     0.13977    -0.04956
 PX  C   8   0.07682    -0.02575     0.04536    -0.04439     0.00451    -0.01701
 PY  C   8   0.10657    -0.07785     0.01261     0.00744    -0.14858     0.00855
 PZ  C   8  -0.00703     0.00509    -0.00088    -0.00042     0.00962    -0.00061
  
  S  S   9   0.17246    -0.08210     0.03593     0.01176    -0.06769    -0.00555
 PX  S   9   0.10791    -0.05464     0.01891    -0.00218    -0.07722     0.00855
 PY  S   9  -0.02485    -0.00610    -0.05349     0.08180    -0.00710     0.01693
 PZ  S   9   0.00153     0.00044     0.00348    -0.00535     0.00051    -0.00112
  
  S  C  10  -0.18525     0.14276    -0.02151    -0.00052     0.13905     0.00612
 PX  C  10   0.01623     0.02361     0.04114    -0.05424     0.13083    -0.02439
 PY  C  10   0.11678    -0.04558     0.06338    -0.06689     0.06966    -0.03563
 PZ  C  10  -0.00771     0.00294    -0.00420     0.00444    -0.00475     0.00188
  
  S  C  11  -0.23486     0.15644    -0.05448     0.03522     0.10092     0.03067
 PX  C  11   0.10465    -0.03906     0.05615    -0.06121     0.08950    -0.03367
 PY  C  11   0.02153     0.02231     0.04327    -0.05721     0.14188    -0.03221
 PZ  C  11  -0.00174    -0.00112    -0.00298     0.00388    -0.00932     0.00160
  
  S  S  12  -0.03045     0.06022     0.03847    -0.05904     0.17423    -0.02596
 PX  S  12   0.03862    -0.04542    -0.01190     0.02365    -0.10220     0.00934
 PY  S  12   0.02564     0.00354     0.03193    -0.03874     0.05798    -0.02002
 PZ  S  12  -0.00173    -0.00016    -0.00209     0.00253    -0.00372     0.00124
  
  S  C  13  -0.25457     0.07980    -0.11390     0.12117    -0.17257     0.06334
 PX  C  13   0.05067     0.01079     0.02762    -0.03417     0.08921    -0.00321
 PY  C  13  -0.09133     0.06315    -0.03496     0.03123     0.00372     0.02114
 PZ  C  13   0.00633    -0.00297     0.00231    -0.00217     0.00045    -0.00414
  
  S  C  14  -0.23578    -0.00321    -0.10652     0.12275    -0.25688     0.00369
 PX  C  14  -0.08368     0.07287    -0.04197     0.04060    -0.02176     0.05838
 PY  C  14  -0.05073     0.07106    -0.02436     0.01990     0.02187     0.02559
 PZ  C  14   0.00492    -0.00432     0.00238    -0.00227     0.00004    -0.01183
  
  S  S  15  -0.17064     0.05943    -0.07072     0.07319    -0.09391     0.01390
 PX  S  15  -0.09921     0.05728    -0.03864     0.03641    -0.01607     0.02670
 PY  S  15   0.06217    -0.00096     0.03221    -0.03759     0.07962     0.00187
 PZ  S  15  -0.00425    -0.00101    -0.00204     0.00247    -0.00609    -0.00334
  
  S  C  16  -0.02055    -0.21101     0.01176     0.00396    -0.12057    -0.09757
 PX  C  16  -0.06332     0.04606    -0.03720     0.04075    -0.07989     0.05414
 PY  C  16  -0.05751     0.04827    -0.03342     0.03593    -0.07537    -0.02621
 PZ  C  16   0.00577    -0.00407     0.00376    -0.00422     0.00392    -0.04925
  
  S  C  17   0.05091    -0.19504     0.04809    -0.04159     0.00124    -0.21836
 PX  C  17  -0.02047    -0.02066    -0.00878     0.01275    -0.04811     0.01980
 PY  C  17  -0.04257     0.04996    -0.02576     0.02696    -0.05045     0.03373
 PZ  C  17  -0.01075     0.04287    -0.00900     0.00703     0.00323     0.00660
  
  S  C  18   0.09923    -0.11655     0.05375    -0.05472     0.07462    -0.23096
 PX  C  18   0.02717    -0.06657     0.02162    -0.02060     0.02650    -0.01741
 PY  C  18  -0.01952    -0.04496     0.00534    -0.00349    -0.00714    -0.01570
 PZ  C  18  -0.02943     0.01988    -0.01174     0.01211    -0.02230     0.00414
  
  S  C  19   0.15564     0.06972     0.02084    -0.02699     0.08114    -0.00946
 PX  C  19   0.01944    -0.08070     0.02590    -0.02558     0.06289     0.11734
 PY  C  19  -0.00483    -0.16064     0.04009    -0.03742     0.04220    -0.09844
 PZ  C  19  -0.01492    -0.03694     0.00549    -0.00419    -0.01828    -0.13448
  
  S  C  20   0.11296    -0.04322     0.03933    -0.04281     0.14190     0.30574
 PX  C  20  -0.03690    -0.07932     0.00909    -0.00589    -0.01002    -0.00803
 PY  C  20   0.01860    -0.09846     0.02519    -0.02237     0.00277    -0.11216
 PZ  C  20   0.03511    -0.00284     0.00807    -0.00857     0.00779    -0.05761
  
  S  C  21   0.03770    -0.17934     0.03723    -0.02973     0.01715     0.11204
 PX  C  21  -0.04704     0.03993    -0.02516     0.02692    -0.06029    -0.02071
 PY  C  21  -0.02626    -0.03033    -0.00959     0.01458    -0.07351    -0.09707
 PZ  C  21   0.01461    -0.04419     0.01028    -0.00838    -0.00485    -0.04063
  
  S  C  22  -0.04774    -0.05040     0.01038    -0.01167     0.08535     0.30237
 PX  C  22  -0.01329    -0.06184     0.01277    -0.01158     0.01894     0.01109
 PY  C  22   0.08577     0.07667    -0.00096    -0.00238     0.03588     0.11478
 PZ  C  22   0.05735     0.08469    -0.00914     0.00648     0.00713     0.05656
  
  S  C  23  -0.13598    -0.18530     0.02406    -0.02051     0.05027     0.10237
 PX  C  23   0.04700     0.05113    -0.00467     0.00342    -0.00432    -0.00431
 PY  C  23   0.04072     0.04499    -0.00287     0.00116     0.01866     0.09217
 PZ  C  23  -0.00807    -0.00833     0.00145    -0.00158     0.01338     0.05515
  
  S  C  24  -0.16469    -0.21233     0.02334    -0.01786     0.00373    -0.09669
 PX  C  24   0.03833     0.04292    -0.00324     0.00178     0.01121     0.05400
 PY  C  24  -0.02810    -0.03538     0.00429    -0.00366     0.01288     0.03998
 PZ  C  24  -0.04116    -0.04826     0.00455    -0.00322    -0.00012    -0.01280
  
  S  C  25  -0.16863    -0.20236     0.01823    -0.01185    -0.03471    -0.20866
 PX  C  25  -0.01830    -0.02856     0.00447    -0.00410     0.01184     0.01614
 PY  C  25  -0.05673    -0.06338     0.00523    -0.00334    -0.00472    -0.02793
 PZ  C  25  -0.02063    -0.01762     0.00003     0.00082    -0.01073    -0.02705
  
  S  C  26  -0.14719    -0.12765     0.00128     0.00462    -0.07500    -0.22784
 PX  C  26  -0.05192    -0.06444     0.00698    -0.00539     0.00393    -0.01503
 PY  C  26  -0.00934     0.01881    -0.00694     0.00699    -0.01363     0.00764
 PZ  C  26   0.02795     0.05276    -0.00870     0.00774    -0.01153     0.01231
  
  S  C  27  -0.05656     0.05920    -0.02536     0.02553    -0.05313    -0.01015
 PX  C  27  -0.01768    -0.05457     0.01388    -0.01435     0.05879     0.13964
 PY  C  27   0.08692     0.13870    -0.01551     0.01075     0.02623     0.14724
 PZ  C  27   0.06055     0.11456    -0.01814     0.01581    -0.02556    -0.01164
  
  S  N  28   0.08272     0.29986    -0.06091     0.05601    -0.11874    -0.17469
 PX  N  28   0.04818     0.05694    -0.00101    -0.00238     0.05151     0.17148
 PY  N  28   0.03707     0.01142     0.00756    -0.00970     0.04054     0.03474
 PZ  N  28  -0.01232    -0.02932     0.00387    -0.00269    -0.01630    -0.09947
  
  S  C  29  -0.09373    -0.04514    -0.01013     0.01382    -0.07458    -0.18400
 PX  C  29   0.06350     0.14801    -0.02715     0.02506    -0.06741    -0.13752
 PY  C  29   0.02452     0.02954    -0.00162     0.00034     0.00547    -0.02385
 PZ  C  29  -0.03540    -0.08595     0.01605    -0.01483     0.03851     0.07887
  
  S  C  30  -0.10731    -0.15075     0.01831    -0.01501     0.02579     0.00788
 PX  C  30   0.01679     0.05000    -0.01068     0.01039    -0.03897    -0.10694
 PY  C  30   0.04489     0.05790    -0.00561     0.00399    -0.00391    -0.01741
 PZ  C  30  -0.02983    -0.05581     0.00908    -0.00821     0.02335     0.05468
  
  S  C  31  -0.10235    -0.17659     0.02737    -0.02463     0.07284     0.15714
 PX  C  31  -0.04690    -0.07118     0.00935    -0.00782     0.01490     0.02253
 PY  C  31   0.02570     0.04335    -0.00632     0.00550    -0.01533    -0.04423
 PZ  C  31   0.00928     0.01093    -0.00093     0.00060     0.00156     0.01171
  
  S  C  32  -0.05523    -0.10871     0.01834    -0.01684     0.05391     0.13771
 PX  C  32  -0.07910    -0.12050     0.01605    -0.01353     0.02996     0.07191
 PY  C  32  -0.01876    -0.03113     0.00488    -0.00449     0.01518     0.03007
 PZ  C  32   0.04849     0.07497    -0.01033     0.00889    -0.02246    -0.05114
  
  S  C  33  -0.10133    -0.16408     0.02274    -0.01932     0.04454     0.12511
 PX  C  33  -0.02768    -0.03371     0.00281    -0.00171    -0.00360    -0.00708
 PY  C  33  -0.03950    -0.06453     0.00924    -0.00802     0.02073     0.04857
 PZ  C  33   0.03509     0.05095    -0.00617     0.00495    -0.00859    -0.02161
  
  S  C  34  -0.12396    -0.14740     0.01140    -0.00652    -0.01360    -0.00976
 PX  C  34   0.04043     0.08490    -0.01508     0.01396    -0.04102    -0.09426
 PY  C  34  -0.03036    -0.03084     0.00140    -0.00028    -0.00703    -0.02116
 PZ  C  34   0.00068    -0.02297     0.00719    -0.00747     0.02781     0.06256
  
  S  O  35   0.10826     0.15035    -0.01851     0.01530    -0.03332    -0.07879
 PX  O  35   0.00825     0.00598     0.00033    -0.00071     0.00734     0.02254
 PY  O  35  -0.02609    -0.04034     0.00582    -0.00518     0.01652     0.04133
 PZ  O  35   0.01106     0.02025    -0.00348     0.00329    -0.01286    -0.03433
  
  S  C  36   0.06190     0.09119    -0.01241     0.01080    -0.03180    -0.08022
 PX  C  36   0.00584     0.00644    -0.00050     0.00031     0.00058     0.00372
 PY  C  36   0.02911     0.04254    -0.00564     0.00481    -0.01244    -0.03091
 PZ  C  36  -0.01944    -0.02742     0.00347    -0.00291     0.00687     0.01591
  
  S  C  37  -0.00778    -0.00590    -0.13137    -0.05860     0.02953    -0.00054
 PX  C  37   0.00937    -0.01923    -0.32434    -0.26209     0.08022    -0.05402
 PY  C  37  -0.06000     0.05897     0.20405    -0.07399    -0.02314    -0.02326
 PZ  C  37   0.00392    -0.00385    -0.01312     0.00503     0.00145     0.00156
  
  S  O  38  -0.00515    -0.01767    -0.46658    -0.37982     0.13237    -0.07982
 PX  O  38   0.00664     0.00110     0.12382     0.11307    -0.03235     0.01991
 PY  O  38  -0.01424     0.01596     0.08765     0.01217    -0.01179    -0.00253
 PZ  O  38   0.00093    -0.00105    -0.00583    -0.00088     0.00079     0.00015
  
  S  O  39  -0.09532     0.09448     0.50608     0.10606    -0.11733     0.03309
 PX  O  39  -0.02574     0.02366     0.07901    -0.02717    -0.01845    -0.00150
 PY  O  39  -0.00142     0.00306    -0.00706    -0.04566    -0.01081    -0.00500
 PZ  O  39   0.00012    -0.00022     0.00038     0.00300     0.00073     0.00033
  
  S  H  40   0.07101    -0.05707    -0.11646     0.04986    -0.07285     0.04419
  
  S  H  41   0.07492    -0.03915     0.00830    -0.00776    -0.06996     0.00999
  
  S  H  42  -0.07083     0.01159    -0.03282     0.03651    -0.06431     0.02158
  
  S  H  43   0.00277    -0.05919     0.00924    -0.00625    -0.01927    -0.08945
  
  S  H  44   0.02514    -0.02823     0.01413    -0.01471     0.01767    -0.10642
  
  S  H  45  -0.00757    -0.05597     0.00386    -0.00016    -0.01336     0.06605
  
  S  H  46  -0.03560    -0.05792     0.00897    -0.00807     0.02423     0.05966
  
  S  H  47  -0.04772    -0.06498     0.00769    -0.00606     0.00172    -0.03709
  
  S  H  48  -0.04927    -0.06150     0.00577    -0.00377    -0.01416    -0.08470
  
  S  H  49  -0.04489    -0.03149    -0.00239     0.00451    -0.03843    -0.10592
  
  S  H  50  -0.02171    -0.02989     0.00383    -0.00326     0.00325    -0.02814
  
  S  H  51  -0.02297    -0.04349     0.00748    -0.00701     0.02399     0.05127
  
  S  H  52  -0.02048    -0.03491     0.00499    -0.00425     0.00955     0.03159
  
  S  H  53  -0.03560    -0.02889    -0.00091     0.00251    -0.02107    -0.03585
  
  S  H  54   0.02013     0.02926    -0.00396     0.00345    -0.01051    -0.02616
  
  S  H  55   0.02330     0.03555    -0.00506     0.00448    -0.01420    -0.03718
  
  S  H  56   0.02014     0.02933    -0.00398     0.00347    -0.01059    -0.02633
  
  S  H  57  -0.04311     0.04230     0.19498     0.00437    -0.04881     0.00721




    ROOT NO.   13          14          15          16          17          18

           -35.48483   -34.04557   -32.95759   -32.72698   -31.40826   -30.75902
  
  
  S  N   1   0.35907    -0.05567     0.05671    -0.01062    -0.05191     0.04387
 PX  N   1   0.12692    -0.01648     0.01415    -0.00253    -0.01002     0.00888
 PY  N   1  -0.00243     0.00203    -0.00436     0.00096     0.00611     0.00004
 PZ  N   1   0.00011    -0.00013     0.00028    -0.00006    -0.00040    -0.00001
  
  S  C   2   0.11394     0.00458    -0.02067     0.00459     0.03173    -0.01929
 PX  C   2  -0.30090     0.06404    -0.07714     0.01498     0.07809    -0.05748
 PY  C   2   0.00981     0.00380    -0.01099     0.00251     0.01668     0.00059
 PZ  C   2  -0.00055    -0.00027     0.00074    -0.00017    -0.00111    -0.00002
  
  S  C   3  -0.32021     0.09206    -0.11886     0.02345     0.11082    -0.05515
 PX  C   3  -0.05499     0.00654    -0.00172     0.00013    -0.01358     0.02522
 PY  C   3   0.05076     0.00535    -0.02585     0.00601     0.05255    -0.02514
 PZ  C   3  -0.00332    -0.00035     0.00169    -0.00040    -0.00342     0.00163
  
  S  C   4  -0.27268     0.02395     0.01188    -0.00381    -0.07911     0.08483
 PX  C   4   0.06261    -0.01582     0.01915    -0.00342    -0.02745     0.05071
 PY  C   4  -0.10454     0.05625    -0.08927     0.01808     0.09977    -0.05689
 PZ  C   4   0.00682    -0.00367     0.00582    -0.00118    -0.00650     0.00369
  
  S  C   5   0.05050    -0.07486     0.12135    -0.02472    -0.10939     0.01929
 PX  C   5  -0.01111    -0.01430     0.03215    -0.00567    -0.08111     0.15295
 PY  C   5  -0.17318     0.03386    -0.01611     0.00178    -0.03815     0.03893
 PZ  C   5   0.01130    -0.00220     0.00102    -0.00011     0.00256    -0.00265
  
  S  C   6   0.17592    -0.07445     0.08579    -0.01351    -0.10143     0.21705
 PX  C   6  -0.07198     0.01674    -0.00863     0.00147    -0.03147     0.07562
 PY  C   6  -0.01585    -0.03048     0.06526    -0.01483    -0.06041    -0.02778
 PZ  C   6   0.00109     0.00196    -0.00422     0.00095     0.00400     0.00176
  
  S  C   7   0.03831     0.05033    -0.10402     0.02532     0.03147     0.18596
 PX  C   7   0.04501    -0.03451     0.04550    -0.00682    -0.06570     0.14438
 PY  C   7   0.16032    -0.07047     0.07906    -0.01622     0.01448    -0.10208
 PZ  C   7  -0.01050     0.00458    -0.00509     0.00098    -0.00071     0.00658
  
  S  C   8  -0.01678     0.05527    -0.08616     0.01179     0.15763    -0.28309
 PX  C   8   0.04125     0.01133    -0.03758     0.01215    -0.01249     0.14092
 PY  C   8   0.14910    -0.05949     0.05702    -0.00964     0.01768    -0.09043
 PZ  C   8  -0.00978     0.00378    -0.00350     0.00048    -0.00080     0.00595
  
  S  S   9   0.09789    -0.03282     0.03364    -0.00996     0.08757    -0.31241
 PX  S   9   0.05288    -0.02473     0.02747    -0.00524     0.00299    -0.05102
 PY  S   9  -0.04163    -0.00281     0.01708    -0.00186    -0.07253     0.13496
 PZ  S   9   0.00267     0.00019    -0.00110     0.00010     0.00481    -0.00875
  
  S  C  10  -0.13796     0.00330     0.05299    -0.02349     0.04233    -0.24359
 PX  C  10  -0.08633     0.06792    -0.09489     0.02495    -0.02115     0.12017
 PY  C  10  -0.01146     0.06005    -0.10307     0.01975     0.09650    -0.09271
 PZ  C  10   0.00059    -0.00434     0.00761    -0.00202    -0.00443     0.00656
  
  S  C  11  -0.13060    -0.01174     0.06559    -0.00473    -0.17393     0.16374
 PX  C  11  -0.04433     0.07196    -0.11631     0.02726     0.00778     0.15031
 PY  C  11  -0.10090     0.06652    -0.07950     0.00678     0.07840    -0.04040
 PZ  C  11   0.00605    -0.00522     0.00707    -0.00170    -0.00298     0.00339
  
  S  S  12  -0.12585     0.08135    -0.11017     0.03044    -0.08225     0.34615
 PX  S  12   0.08569    -0.03976     0.04255    -0.01149     0.03880    -0.09869
 PY  S  12  -0.01950     0.03407    -0.05758     0.01098     0.03066     0.06939
 PZ  S  12   0.00115    -0.00230     0.00396    -0.00086    -0.00176    -0.00434
  
  S  C  13   0.10582    -0.07290     0.06777     0.01277    -0.15635     0.12996
 PX  C  13  -0.07839     0.00355     0.03474    -0.00657    -0.07986     0.05494
 PY  C  13  -0.03798    -0.05093     0.11237    -0.03135    -0.04856    -0.02447
 PZ  C  13  -0.00044    -0.00010     0.00016    -0.00345     0.01279     0.00440
  
  S  C  14   0.19419    -0.01783    -0.07155     0.00543     0.16111     0.02694
 PX  C  14  -0.00062    -0.06564     0.11382     0.00130    -0.17106    -0.00782
 PY  C  14  -0.05310    -0.07742     0.16808    -0.04873    -0.01971    -0.09864
 PZ  C  14  -0.00439    -0.00276     0.00677    -0.01139     0.03465     0.01602
  
  S  S  15   0.03734    -0.06685     0.10761    -0.04990     0.14272    -0.22102
 PX  S  15  -0.01192    -0.04374     0.08784    -0.02001    -0.02177    -0.12403
 PY  S  15  -0.05415     0.01886    -0.00402     0.01115    -0.06311    -0.04673
 PZ  S  15   0.00269    -0.00237     0.00288    -0.00412     0.01541     0.00641
  
  S  C  16   0.11578     0.13217    -0.25117     0.02550     0.16422     0.06774
 PX  C  16   0.09747     0.01819    -0.10150     0.05872    -0.01621     0.01244
 PY  C  16   0.04378    -0.03611     0.00912    -0.03005     0.20537     0.05449
 PZ  C  16  -0.03350    -0.03177     0.06781    -0.05207     0.11417     0.03741
  
  S  C  17  -0.09111    -0.02248     0.09369    -0.10855     0.27379     0.09871
 PX  C  17   0.07365     0.06997    -0.13323     0.01886     0.05718     0.01126
 PY  C  17   0.06457     0.02110    -0.07234     0.01458     0.09812     0.02287
 PZ  C  17  -0.01203    -0.03383     0.04869    -0.00387     0.01367     0.00961
  
  S  C  18  -0.20359    -0.17818     0.28419    -0.05835     0.03142     0.03485
 PX  C  18  -0.02345     0.03516     0.02507    -0.05279     0.01157     0.00400
 PY  C  18   0.00738     0.03782    -0.01009    -0.04413     0.09780     0.03082
 PZ  C  18   0.02148     0.00488    -0.01913     0.00756     0.05025     0.01861
  
  S  C  19  -0.10487    -0.13990     0.18428    -0.04281    -0.07845    -0.01226
 PX  C  19   0.01061     0.07555     0.00745    -0.07207    -0.07039    -0.04575
 PY  C  19  -0.08304    -0.02038     0.07994    -0.00258    -0.07542    -0.03103
 PZ  C  19  -0.05328    -0.04960     0.04862     0.04306     0.00687     0.01766
  
  S  C  20   0.02658     0.05463     0.00426     0.02902    -0.21246    -0.11892
 PX  C  20   0.02198     0.05597    -0.08883     0.11339    -0.08612    -0.03856
 PY  C  20  -0.04081     0.03545    -0.03578     0.02309    -0.14607    -0.04497
 PZ  C  20  -0.03690    -0.01432     0.04061    -0.06280    -0.02529     0.00256
  
  S  C  21   0.08864     0.16390    -0.24362     0.15355    -0.26592    -0.09552
 PX  C  21   0.04306    -0.00547    -0.04845     0.02661     0.06489     0.04477
 PY  C  21   0.03355     0.02357    -0.08262    -0.01931     0.09804     0.06306
 PZ  C  21  -0.00643     0.01768    -0.01625    -0.02738     0.00852     0.01194
  
  S  C  22   0.06198    -0.01418     0.03026     0.07837     0.11968     0.00997
 PX  C  22  -0.01084    -0.02295     0.01214     0.17824    -0.03020    -0.01237
 PY  C  22   0.02226     0.02451    -0.00545    -0.00788    -0.08429    -0.04684
 PZ  C  22   0.02010     0.03231    -0.00960    -0.12288    -0.02712    -0.01712
  
  S  C  23  -0.00505    -0.11030     0.07726     0.37426     0.17187     0.08060
 PX  C  23   0.00278     0.01071    -0.00688     0.02080    -0.02268    -0.00315
 PY  C  23   0.03003     0.03506    -0.02251    -0.01318    -0.01413    -0.02845
 PZ  C  23   0.01531     0.01353    -0.00783    -0.02133     0.00735    -0.01376
  
  S  C  24  -0.05922    -0.12416     0.07759     0.22738     0.03956     0.05850
 PX  C  24   0.01394    -0.01015     0.01429     0.09865     0.06953     0.03399
 PY  C  24   0.00573    -0.02396     0.01917     0.10156     0.09114     0.03701
 PZ  C  24  -0.00579    -0.00629     0.00161    -0.00757     0.00615    -0.00128
  
  S  C  25  -0.06596    -0.01472    -0.01049    -0.13761    -0.20111    -0.07339
 PX  C  25  -0.00899    -0.05577     0.03977     0.12342     0.06675     0.04432
 PY  C  25  -0.00804    -0.00513    -0.00067    -0.01078     0.02011     0.00724
 PZ  C  25   0.00147     0.03547    -0.02596    -0.08730    -0.03240    -0.02487
  
  S  C  26  -0.02097     0.13357    -0.10398    -0.31783    -0.18992    -0.09359
 PX  C  26  -0.01309    -0.02758     0.00928    -0.02329     0.00291    -0.00009
 PY  C  26   0.02000     0.02843    -0.02434    -0.01436     0.07433     0.03000
 PZ  C  26   0.02088     0.04254    -0.01676     0.00924     0.04111     0.01823
  
  S  C  27   0.05443     0.11379    -0.08826    -0.23888     0.07623     0.02087
 PX  C  27   0.00374    -0.05856     0.06229     0.01776     0.05812     0.00827
 PY  C  27   0.03567    -0.04100     0.02888     0.04855     0.10133     0.04597
 PZ  C  27   0.01904     0.02941    -0.01830     0.01966     0.01982     0.02319
  
  S  N  28   0.01822    -0.01206    -0.07881     0.08484     0.06038     0.06204
 PX  N  28   0.02611    -0.00188     0.06433    -0.17408     0.07220     0.03155
 PY  N  28  -0.04085    -0.14019     0.07693     0.04441    -0.01483    -0.00422
 PZ  N  28  -0.03443    -0.03082     0.02016     0.13872    -0.04953    -0.01233
  
  S  C  29  -0.01089     0.02488    -0.06277     0.25633    -0.07416    -0.04955
 PX  C  29  -0.00108     0.05178    -0.01009     0.05855     0.01632     0.04422
 PY  C  29  -0.03460    -0.19927    -0.06649     0.05021    -0.02270    -0.02407
 PZ  C  29   0.00514     0.04708     0.07359    -0.02745     0.00675    -0.00339
  
  S  C  30  -0.03840    -0.30367    -0.18234     0.09002    -0.08835    -0.10888
 PX  C  30  -0.01270     0.05075     0.04462     0.13393    -0.02209    -0.00437
 PY  C  30  -0.00983    -0.03703    -0.00631    -0.01935     0.00349     0.00418
 PZ  C  30   0.00379    -0.01889    -0.00372    -0.04658     0.00962     0.00196
  
  S  C  31  -0.01062    -0.31405    -0.21500    -0.18095     0.00901    -0.00024
 PX  C  31  -0.00398    -0.02475     0.00323     0.04333    -0.03022    -0.05190
 PY  C  31  -0.00972    -0.03172    -0.02520     0.05196    -0.03262    -0.04060
 PZ  C  31   0.00564     0.02685     0.01606    -0.04700     0.03270     0.04769
  
  S  C  32   0.01276    -0.05390    -0.01598    -0.19255     0.08580     0.10490
 PX  C  32   0.01345     0.09542     0.10783     0.00139     0.00710    -0.02537
 PY  C  32  -0.00855    -0.15611    -0.13221    -0.06255    -0.00576     0.00246
 PZ  C  32  -0.00226     0.03849     0.02196     0.03514    -0.00011     0.01071
  
  S  C  33   0.03837     0.30000     0.27859    -0.06432     0.08012     0.06182
 PX  C  33   0.00722     0.08734     0.05213     0.03939    -0.01295    -0.01639
 PY  C  33   0.00328    -0.02741    -0.01464    -0.03625     0.01120     0.00970
 PZ  C  33  -0.00582    -0.02871    -0.01350     0.00422     0.00158     0.00341
  
  S  C  34   0.03783     0.35026     0.19717     0.07670     0.00430     0.00916
 PX  C  34  -0.00781    -0.03100    -0.07850     0.04776    -0.02740    -0.00851
 PY  C  34  -0.00409    -0.04046    -0.04836     0.05697    -0.02081    -0.01915
 PZ  C  34   0.00279     0.02302     0.07466    -0.03914     0.02993     0.01791
  
  S  O  35  -0.01149    -0.05621    -0.07592     0.02945    -0.01600     0.01077
 PX  O  35   0.00123    -0.03816    -0.03190    -0.08283     0.04371     0.07188
 PY  O  35   0.00091    -0.06746    -0.05774    -0.09076     0.03426     0.05717
 PZ  O  35  -0.00126     0.05550     0.04754     0.09127    -0.04043    -0.06689
  
  S  C  36  -0.00422     0.09867     0.08572     0.17649    -0.08044    -0.13790
 PX  C  36   0.00169     0.01298     0.01341    -0.01677     0.01565     0.02300
 PY  C  36  -0.00373    -0.00481    -0.01411     0.03079    -0.01423    -0.00942
 PZ  C  36   0.00126    -0.00402     0.00130    -0.00956     0.00062    -0.00563
  
  S  C  37  -0.04274     0.02503    -0.04379     0.00915     0.05857    -0.03076
 PX  C  37   0.15494    -0.03591     0.04598    -0.00922    -0.04578     0.01681
 PY  C  37   0.13278    -0.04600     0.06535    -0.01319    -0.06663     0.02625
 PZ  C  37  -0.00881     0.00304    -0.00431     0.00087     0.00440    -0.00173
  
  S  O  38   0.20460    -0.03764     0.03915    -0.00753    -0.02455    -0.00230
 PX  O  38  -0.04984     0.00816    -0.00719     0.00133     0.00236     0.00191
 PY  O  38   0.02635    -0.01094     0.01643    -0.00336    -0.01691     0.00435
 PZ  O  38  -0.00169     0.00071    -0.00107     0.00022     0.00110    -0.00028
  
  S  O  39  -0.01960    -0.01357     0.02764    -0.00580    -0.03917     0.02556
 PX  O  39   0.02674    -0.01125     0.01672    -0.00340    -0.01776     0.00713
 PY  O  39   0.04127    -0.01956     0.03448    -0.00727    -0.04988     0.02793
 PZ  O  39  -0.00273     0.00129    -0.00228     0.00048     0.00329    -0.00184
  
  S  H  40  -0.09620     0.00439     0.01307    -0.00301    -0.05011     0.07073
  
  S  H  41   0.04618    -0.02785     0.03866    -0.00614    -0.06864     0.14785
  
  S  H  42   0.05132    -0.00902    -0.01480     0.02194    -0.07707     0.08971
  
  S  H  43  -0.02227    -0.01634     0.03643    -0.04949     0.18236     0.05926
  
  S  H  44  -0.08305    -0.10545     0.11590    -0.00006     0.02873     0.01997
  
  S  H  45   0.06334     0.06813    -0.12815     0.10194    -0.11103    -0.03111
  
  S  H  46   0.00382    -0.04147     0.02782     0.19508     0.06449     0.03228
  
  S  H  47  -0.02409    -0.05483     0.03642     0.11573     0.01367     0.02964
  
  S  H  48  -0.02703    -0.00311    -0.00557    -0.06369    -0.11210    -0.04160
  
  S  H  49  -0.00426     0.08734    -0.04918    -0.13527    -0.10436    -0.04943
  
  S  H  50  -0.02805    -0.15998    -0.08169     0.05537    -0.04489    -0.05114
  
  S  H  51  -0.00714    -0.15402    -0.11514    -0.08580     0.00409     0.00545
  
  S  H  52   0.01512     0.14956     0.13946    -0.01019     0.03244     0.02277
  
  S  H  53   0.01721     0.17613     0.08032     0.02713    -0.00308     0.00736
  
  S  H  54  -0.00017     0.05342     0.05064     0.06996    -0.02975    -0.05758
  
  S  H  55  -0.00266     0.03906     0.03348     0.09058    -0.04630    -0.07846
  
  S  H  56  -0.00015     0.05365     0.05058     0.07015    -0.02998    -0.05787
  
  S  H  57   0.02424    -0.01791     0.03151    -0.00659    -0.04309     0.02433




    ROOT NO.   19          20          21          22          23          24

           -30.41060   -30.14449   -29.60952   -28.55787   -27.21017   -26.57979
  
  
  S  N   1   0.03564    -0.07043     0.06707     0.01039    -0.02692    -0.01435
 PX  N   1   0.00555    -0.00844     0.00687     0.00443    -0.00106    -0.00097
 PY  N   1  -0.00480     0.01817    -0.01767     0.02439    -0.00182    -0.01290
 PZ  N   1   0.00031    -0.00119     0.00115    -0.00160     0.00012     0.00084
  
  S  C   2  -0.02559     0.06548    -0.06330     0.01536     0.02190     0.00911
 PX  C   2  -0.05495     0.12097    -0.11372     0.00619     0.03769     0.01676
 PY  C   2  -0.01362     0.05174    -0.05057     0.06600    -0.00282    -0.03282
 PZ  C   2   0.00091    -0.00342     0.00334    -0.00432     0.00018     0.00215
  
  S  C   3  -0.06983     0.17482    -0.14986     0.05755     0.01472    -0.00152
 PX  C   3   0.01812    -0.03286     0.04282     0.02159    -0.03951    -0.02159
 PY  C   3  -0.04822     0.14578    -0.15057     0.12749     0.02029    -0.06100
 PZ  C   3   0.00315    -0.00952     0.00984    -0.00835    -0.00131     0.00401
  
  S  C   4   0.08096    -0.18675     0.20301    -0.04970    -0.06636     0.00720
 PX  C   4   0.02246    -0.01270     0.01635     0.09589    -0.03844    -0.05618
 PY  C   4  -0.06505     0.15675    -0.13198     0.04276    -0.00100     0.00330
 PZ  C   4   0.00423    -0.01023     0.00861    -0.00285     0.00008    -0.00019
  
  S  C   5   0.05595    -0.16837     0.11925    -0.10459     0.03541     0.01628
 PX  C   5   0.06925    -0.05469     0.06832     0.18576    -0.06572    -0.07705
 PY  C   5   0.05235    -0.14398     0.16287    -0.09127    -0.03741     0.03391
 PZ  C   5  -0.00346     0.00942    -0.01066     0.00579     0.00250    -0.00213
  
  S  C   6   0.05400     0.07580    -0.07543     0.32765    -0.02879    -0.08632
 PX  C   6   0.03848    -0.04182     0.05767     0.08577    -0.04319    -0.03149
 PY  C   6   0.03709    -0.15145     0.11320    -0.07551     0.00671    -0.02719
 PZ  C   6  -0.00242     0.00989    -0.00741     0.00486    -0.00032     0.00188
  
  S  C   7   0.00362     0.17036    -0.07722     0.14783    -0.04843     0.03373
 PX  C   7   0.03406     0.05110    -0.04972     0.16837     0.00138    -0.01426
 PY  C   7  -0.04599     0.06846    -0.12235     0.06235     0.03402    -0.04293
 PZ  C   7   0.00309    -0.00450     0.00802    -0.00416    -0.00190     0.00313
  
  S  C   8  -0.07760    -0.02952     0.03436    -0.12604    -0.05162    -0.02275
 PX  C   8   0.00336     0.11051    -0.06633     0.00778     0.01896     0.05265
 PY  C   8  -0.05786     0.08764    -0.12909    -0.10040     0.08149     0.03573
 PZ  C   8   0.00402    -0.00578     0.00846     0.00661    -0.00476    -0.00175
  
  S  S   9  -0.09096    -0.03677    -0.03004    -0.32451     0.09433     0.07084
 PX  S   9  -0.02029     0.00640    -0.02852    -0.09502     0.05012     0.03750
 PY  S   9   0.05227    -0.04056     0.05192     0.01165     0.01173     0.03493
 PZ  S   9  -0.00335     0.00264    -0.00337    -0.00067    -0.00068    -0.00217
  
  S  C  10   0.00757    -0.18774     0.11102     0.14710    -0.05501    -0.10477
 PX  C  10   0.01548     0.00684     0.04284    -0.14094     0.00362     0.02556
 PY  C  10  -0.02728    -0.02086     0.07412    -0.07341    -0.07910    -0.01321
 PZ  C  10   0.00293     0.00135    -0.00475     0.00519     0.00743     0.00332
  
  S  C  11   0.03570    -0.01635    -0.05868    -0.13594     0.14446     0.00437
 PX  C  11   0.02369     0.03003     0.05089    -0.10435    -0.00103     0.06309
 PY  C  11   0.03364    -0.09654     0.14756     0.11689    -0.09128    -0.00997
 PZ  C  11  -0.00069     0.00646    -0.00982    -0.00726     0.00955     0.00386
  
  S  S  12   0.06882     0.06610     0.02521    -0.04637     0.02956     0.09905
 PX  S  12  -0.02478     0.01617    -0.03252     0.09111    -0.03235    -0.02555
 PY  S  12   0.01561     0.03421     0.02424     0.11212    -0.07001     0.01172
 PZ  S  12  -0.00080    -0.00220    -0.00160    -0.00738     0.00519    -0.00020
  
  S  C  13  -0.05958     0.15546    -0.18417    -0.27763     0.06357    -0.00214
 PX  C  13   0.02065    -0.02306    -0.04725    -0.07429     0.11931    -0.00474
 PY  C  13   0.02281    -0.03753    -0.04444     0.08162     0.08755    -0.00355
 PZ  C  13   0.00450     0.00309     0.00331    -0.00328     0.00630     0.01135
  
  S  C  14  -0.01311     0.10349     0.06708     0.02009    -0.12134     0.09417
 PX  C  14  -0.05158     0.04486    -0.15317    -0.09563     0.02906    -0.06926
 PY  C  14   0.03016    -0.06141    -0.05105     0.18072     0.07254     0.01482
 PZ  C  14   0.01840     0.00274     0.00625    -0.00518     0.02807     0.03205
  
  S  S  15   0.02663    -0.09645     0.07468     0.33495    -0.05394     0.01681
 PX  S  15  -0.01016    -0.05932    -0.01305     0.11052    -0.00701    -0.06492
 PY  S  15  -0.02160    -0.04287    -0.01159    -0.04518    -0.00128    -0.08632
 PZ  S  15   0.00795     0.00201     0.00252     0.00491     0.00966     0.01710
  
  S  C  16   0.01601    -0.00032     0.16117    -0.01844    -0.01466    -0.01624
 PX  C  16  -0.06274     0.06915     0.03518    -0.06327    -0.16641     0.00080
 PY  C  16   0.06021     0.04694     0.06959     0.01740    -0.03190     0.16064
 PZ  C  16   0.06710    -0.00336     0.00116     0.00717     0.09165     0.08268
  
  S  C  17   0.17811    -0.06373    -0.02386    -0.00916     0.19538     0.09990
 PX  C  17  -0.00964     0.00412     0.11715     0.03698     0.02862     0.02351
 PY  C  17   0.02705     0.01214     0.07213     0.02473     0.00331     0.10684
 PZ  C  17   0.01887     0.00693    -0.04311    -0.02397    -0.01580     0.04149
  
  S  C  18   0.03640     0.01146    -0.16277    -0.08792    -0.13775    -0.02991
 PX  C  18   0.02641    -0.03446    -0.01268     0.01892     0.14583    -0.03175
 PY  C  18   0.10799    -0.05486    -0.03549    -0.00019     0.15475     0.04055
 PZ  C  18   0.03941    -0.01102    -0.01493    -0.01578    -0.00202     0.04211
  
  S  C  19  -0.15157     0.13452     0.06629    -0.01626    -0.13900    -0.01340
 PX  C  19   0.03923    -0.02252    -0.02371     0.04935     0.17689     0.01178
 PY  C  19   0.04239    -0.05522    -0.13489    -0.00840    -0.03155    -0.06282
 PZ  C  19  -0.01073    -0.02382    -0.06713    -0.03791    -0.11890    -0.04711
  
  S  C  20  -0.01936    -0.01288    -0.02973     0.10838     0.08170     0.14754
 PX  C  20   0.01418    -0.10599    -0.09305     0.02677    -0.03335    -0.01949
 PY  C  20  -0.08075    -0.04613    -0.02142     0.02463     0.01808    -0.17133
 PZ  C  20  -0.05759     0.04394     0.04692    -0.00756     0.03750    -0.08439
  
  S  C  21  -0.09464    -0.08619    -0.02283     0.03056    -0.06738    -0.12265
 PX  C  21  -0.00440     0.03182     0.01809    -0.06769    -0.10166     0.00004
 PY  C  21  -0.01673     0.04303     0.08751    -0.07205    -0.05338    -0.09084
 PZ  C  21  -0.01033     0.00969     0.03197    -0.01282     0.03756    -0.05379
  
  S  C  22   0.20078    -0.05088    -0.12133    -0.01953    -0.08998     0.18737
 PX  C  22  -0.02403    -0.07928    -0.07657     0.03092    -0.04567     0.04437
 PY  C  22  -0.04583     0.02620     0.04163     0.06597     0.08135     0.14129
 PZ  C  22  -0.01179     0.06540     0.07246     0.01657     0.08205     0.05035
  
  S  C  23   0.01377    -0.13505    -0.10734    -0.02402    -0.03340    -0.11428
 PX  C  23  -0.04775    -0.01159     0.01448     0.02210     0.05883    -0.03305
 PY  C  23   0.10847    -0.04525    -0.10202     0.00371    -0.10153     0.13053
 PZ  C  23   0.09331    -0.01865    -0.06837    -0.01274    -0.09555     0.09612
  
  S  C  24  -0.26575     0.05863     0.20359     0.03890     0.23448    -0.10847
 PX  C  24   0.01265    -0.06010    -0.04200    -0.01095     0.04302    -0.11990
 PY  C  24   0.07820    -0.07713    -0.10131    -0.04311    -0.08142    -0.11730
 PZ  C  24   0.03664    -0.00479    -0.03081    -0.01745    -0.07435     0.01235
  
  S  C  25  -0.19330     0.15722     0.19020     0.07407     0.03409     0.22920
 PX  C  25  -0.08738     0.01451     0.08134     0.00309     0.11914    -0.06090
 PY  C  25   0.04897    -0.01787    -0.04491    -0.03153    -0.06490    -0.07620
 PZ  C  25   0.08547    -0.02101    -0.08055    -0.01986    -0.11360    -0.00320
  
  S  C  26   0.10218    -0.01781    -0.11603     0.00024    -0.12389    -0.02531
 PX  C  26   0.00425     0.03895     0.02598    -0.01571    -0.05251     0.03160
 PY  C  26   0.09706    -0.06759    -0.08075    -0.04429     0.01554    -0.17284
 PZ  C  26   0.05112    -0.06982    -0.06805    -0.01349     0.05290    -0.11806
  
  S  C  27   0.18448    -0.04936    -0.08628    -0.06291     0.04033    -0.18522
 PX  C  27   0.05189     0.06342     0.02245    -0.02163    -0.08241     0.14751
 PY  C  27  -0.05433     0.05984     0.12210     0.00656     0.10755     0.06130
 PZ  C  27  -0.07208    -0.01823     0.04698     0.02159     0.13596    -0.05907
  
  S  N  28  -0.13716    -0.03782     0.06961    -0.00475     0.01068    -0.12872
 PX  N  28  -0.01658     0.12889     0.12303    -0.03275     0.05175    -0.02378
 PY  N  28  -0.08586     0.13814     0.10393    -0.02045    -0.22767     0.12001
 PZ  N  28  -0.06003    -0.03893    -0.04429     0.01875    -0.10151     0.08225
  
  S  C  29   0.04598    -0.10211    -0.08743     0.05896     0.03900     0.17473
 PX  C  29  -0.11748    -0.10332    -0.04730     0.00639    -0.00962    -0.09182
 PY  C  29   0.02509     0.08170     0.05706    -0.02424    -0.19045     0.01415
 PZ  C  29   0.01130     0.03464     0.01015     0.00205     0.03887     0.07978
  
  S  C  30   0.22827     0.11806     0.04865     0.00057    -0.04155     0.07527
 PX  C  30  -0.03705    -0.03469    -0.03689     0.01324    -0.12285     0.13801
 PY  C  30  -0.00218     0.01515     0.00518    -0.01651    -0.04178    -0.05198
 PZ  C  30   0.01092     0.01769     0.01500    -0.00363     0.04968    -0.02658
  
  S  C  31   0.04405     0.01257     0.02737    -0.00999     0.13670    -0.17959
 PX  C  31   0.11841     0.09439     0.04979    -0.00654    -0.01452     0.04271
 PY  C  31   0.08890     0.04201     0.01277    -0.00035     0.02097    -0.00212
 PZ  C  31  -0.10742    -0.06607    -0.03091     0.00173    -0.01312    -0.01581
  
  S  C  32  -0.21407    -0.08769    -0.01612    -0.02024    -0.09619    -0.10617
 PX  C  32   0.07762     0.13907     0.09823    -0.03358    -0.04119    -0.09626
 PY  C  32   0.00333    -0.05587    -0.03485     0.01893     0.13628    -0.01902
 PZ  C  32  -0.03894    -0.03437    -0.02714     0.00518    -0.05723     0.05826
  
  S  C  33  -0.11829     0.08766     0.08230    -0.05375    -0.19761    -0.09353
 PX  C  33   0.03192    -0.00249    -0.01878     0.01797     0.09472     0.09263
 PY  C  33  -0.01519    -0.00702     0.00232     0.00224     0.01859     0.01039
 PZ  C  33  -0.00941     0.00805     0.01048    -0.01062    -0.06032    -0.04529
  
  S  C  34  -0.03186    -0.06811    -0.06852     0.03643     0.14159     0.13576
 PX  C  34   0.00512    -0.08751    -0.06958     0.02864     0.08779     0.01840
 PY  C  34   0.03238    -0.02571    -0.02020     0.02180     0.04907     0.06472
 PZ  C  34  -0.03109     0.06657     0.05484    -0.02779    -0.08626    -0.02556
  
  S  O  35  -0.04934    -0.12117    -0.09547     0.04140     0.05423     0.20655
 PX  O  35  -0.16643    -0.11538    -0.05817     0.00249    -0.08343    -0.00162
 PY  O  35  -0.12703    -0.10660    -0.05657     0.01017     0.00872     0.00100
 PZ  O  35   0.15181     0.11570     0.05986    -0.00693     0.03556     0.00064
  
  S  C  36   0.32174     0.25876     0.14691    -0.02913     0.07982    -0.17959
 PX  C  36  -0.05484    -0.02434    -0.01032    -0.00436    -0.06591     0.00476
 PY  C  36   0.01042    -0.02509    -0.02798     0.01751     0.02501     0.12797
 PZ  C  36   0.02030     0.02587     0.02083    -0.00785     0.01776    -0.07508
  
  S  C  37  -0.04625     0.12874    -0.12671     0.09033     0.01647    -0.04263
 PX  C  37   0.03225    -0.09466     0.08911    -0.07198    -0.00810     0.03220
 PY  C  37   0.04385    -0.12281     0.10818    -0.07814     0.00247     0.02658
 PZ  C  37  -0.00289     0.00810    -0.00714     0.00517    -0.00016    -0.00176
  
  S  O  38   0.01088    -0.04074     0.02975    -0.04548     0.01364     0.02143
 PX  O  38   0.00021     0.00098     0.00146     0.00086    -0.00186     0.00202
 PY  O  38   0.01085    -0.03351     0.02906    -0.02976     0.00547     0.01361
 PZ  O  38  -0.00071     0.00219    -0.00190     0.00195    -0.00036    -0.00090
  
  S  O  39   0.03127    -0.08013     0.07946    -0.03880    -0.01827     0.01387
 PX  O  39   0.01202    -0.03382     0.03024    -0.02158     0.00006     0.00676
 PY  O  39   0.04282    -0.12108     0.12551    -0.09182    -0.02807     0.04882
 PZ  O  39  -0.00282     0.00797    -0.00826     0.00605     0.00184    -0.00321
  
  S  H  40   0.04958    -0.08806     0.09957     0.04152    -0.05653    -0.03282
  
  S  H  41   0.04921     0.00904    -0.00055     0.20885    -0.04030    -0.06300
  
  S  H  42  -0.03666     0.08861    -0.08216    -0.20020     0.01676    -0.00264
  
  S  H  43   0.10748    -0.02400     0.00299     0.00276     0.09243     0.11898
  
  S  H  44   0.03068     0.01620    -0.08134    -0.05741    -0.13319     0.02137
  
  S  H  45  -0.04492    -0.03262    -0.02589    -0.01500    -0.09399    -0.03782
  
  S  H  46  -0.00896    -0.08057    -0.05884     0.00271     0.00417    -0.06169
  
  S  H  47  -0.16248     0.03378     0.12805     0.03480     0.18562    -0.06500
  
  S  H  48  -0.12252     0.08842     0.11989     0.05660     0.05545     0.16816
  
  S  H  49   0.03470    -0.02927    -0.06773     0.01762    -0.02322    -0.00554
  
  S  H  50   0.10373     0.06090     0.01895    -0.00873    -0.07426     0.02718
  
  S  H  51   0.00732    -0.01714    -0.00301    -0.00191     0.08475    -0.10738
  
  S  H  52  -0.04382     0.05887     0.04931    -0.03337    -0.13015    -0.08054
  
  S  H  53  -0.02313    -0.06043    -0.05707     0.02079     0.08932     0.04254
  
  S  H  54   0.13834     0.12859     0.07885    -0.02156     0.01379    -0.13195
  
  S  H  55   0.18498     0.13933     0.07812    -0.01236     0.07932    -0.09776
  
  S  H  56   0.13900     0.12875     0.07886    -0.02147     0.01444    -0.13190
  
  S  H  57   0.03524    -0.09712     0.09816    -0.06627    -0.02005     0.03238




    ROOT NO.   25          26          27          28          29          30

           -25.60637   -25.21957   -25.18221   -24.48317   -24.34179   -23.92775
  
  
  S  N   1   0.05279     0.02517     0.09325    -0.03695     0.05253     0.12094
 PX  N   1  -0.00255    -0.00255    -0.00612     0.00544    -0.00869    -0.02124
 PY  N   1   0.01142    -0.00801     0.04404     0.00884    -0.02292     0.01695
 PZ  N   1  -0.00075     0.00052    -0.00289    -0.00058     0.00150    -0.00111
  
  S  C   2  -0.05266    -0.02543    -0.10227     0.03859    -0.05129    -0.15358
 PX  C   2  -0.07522    -0.03576    -0.13649     0.05097    -0.06907    -0.18171
 PY  C   2   0.02504    -0.02291     0.10616     0.02537    -0.06233     0.03759
 PZ  C   2  -0.00162     0.00151    -0.00691    -0.00167     0.00409    -0.00239
  
  S  C   3  -0.01353     0.00617    -0.04509    -0.02345     0.06082    -0.01450
 PX  C   3   0.09602     0.05658     0.16128    -0.09248     0.14693     0.26316
 PY  C   3   0.01255    -0.07582     0.17954     0.08597    -0.18458     0.03773
 PZ  C   3  -0.00085     0.00494    -0.01178    -0.00560     0.01203    -0.00250
  
  S  C   4   0.08340     0.07489     0.06392    -0.07856     0.12538     0.11719
 PX  C   4   0.09174     0.00481     0.22409    -0.01405    -0.00723     0.15767
 PY  C   4   0.03120     0.06171    -0.01536    -0.11585     0.23274     0.14419
 PZ  C   4  -0.00207    -0.00402     0.00093     0.00755    -0.01517    -0.00942
  
  S  C   5  -0.06596    -0.06942    -0.02886     0.10224    -0.19557    -0.08864
 PX  C   5   0.09006    -0.00921     0.20014     0.02306    -0.06801     0.00439
 PY  C   5   0.01106     0.03940    -0.06561    -0.01128     0.01388    -0.06127
 PZ  C   5  -0.00080    -0.00256     0.00418     0.00071    -0.00086     0.00411
  
  S  C   6   0.02562    -0.03316     0.07995     0.01867    -0.01858    -0.06043
 PX  C   6   0.04073     0.00782     0.05209     0.00221    -0.00643    -0.04753
 PY  C   6   0.00937    -0.06910     0.15395     0.10063    -0.21703    -0.01201
 PZ  C   6  -0.00072     0.00447    -0.01001    -0.00655     0.01410     0.00105
  
  S  C   7   0.01586     0.09050    -0.14814    -0.09147     0.17939    -0.00883
 PX  C   7  -0.03631    -0.00525    -0.09660    -0.01164     0.05262    -0.05024
 PY  C   7   0.00310    -0.02405     0.06222    -0.01800     0.05060     0.04425
 PZ  C   7  -0.00045     0.00150    -0.00384     0.00116    -0.00340    -0.00210
  
  S  C   8   0.11523     0.05186     0.17287    -0.04186     0.04486     0.05540
 PX  C   8  -0.03951     0.02639    -0.12036    -0.02886     0.05558     0.03007
 PY  C   8  -0.06271    -0.01739    -0.05601    -0.01782     0.04604     0.10736
 PZ  C   8   0.00356     0.00104     0.00401     0.00116    -0.00315    -0.00584
  
  S  S   9  -0.09008    -0.02745    -0.10856     0.01663    -0.01858     0.03787
 PX  S   9  -0.06753    -0.02476    -0.09503     0.02374    -0.03425    -0.01445
 PY  S   9  -0.07369    -0.01669    -0.16490     0.03509    -0.04635    -0.11891
 PZ  S   9   0.00473     0.00109     0.01092    -0.00231     0.00302     0.00810
  
  S  C  10   0.04967    -0.03378     0.10809     0.02681    -0.03312    -0.09267
 PX  C  10   0.02322    -0.00330     0.07484     0.02315    -0.07017     0.01252
 PY  C  10   0.11469     0.05817     0.14295    -0.02137     0.00316    -0.00991
 PZ  C  10  -0.00958    -0.00399    -0.00824     0.00130    -0.00052     0.00464
  
  S  C  11  -0.11318    -0.12158     0.02957     0.06962    -0.10382     0.07050
 PX  C  11  -0.02298     0.00552    -0.02800     0.02777    -0.07205     0.03365
 PY  C  11   0.02708     0.01927    -0.03767     0.02502    -0.05612    -0.09232
 PZ  C  11  -0.00398    -0.00231     0.00335    -0.00202     0.00304     0.01286
  
  S  S  12  -0.10236     0.00167    -0.20408     0.02320    -0.03912     0.01431
 PX  S  12   0.03403     0.03614    -0.01776    -0.04302     0.08781    -0.02726
 PY  S  12   0.03483     0.07368    -0.10059    -0.05288     0.09784    -0.06798
 PZ  S  12  -0.00269    -0.00503     0.00679     0.00341    -0.00658     0.00587
  
  S  C  13   0.07296     0.02843     0.15046    -0.04693     0.06602     0.04073
 PX  C  13  -0.09024    -0.09168     0.06064     0.03785    -0.04029     0.08461
 PY  C  13  -0.10312    -0.07641    -0.07751     0.02235    -0.00959     0.05735
 PZ  C  13   0.00085     0.00104     0.00630    -0.00296    -0.00197     0.01829
  
  S  C  14   0.07928     0.10751    -0.09762    -0.03170    -0.01003     0.01081
 PX  C  14   0.05938     0.02536     0.07784    -0.04882     0.10480    -0.05852
 PY  C  14  -0.11746    -0.02524    -0.12276    -0.00463     0.04305     0.04876
 PZ  C  14  -0.01665    -0.00377     0.01800    -0.00087    -0.00968     0.04530
  
  S  S  15  -0.07199     0.02226    -0.19291    -0.00373     0.02979    -0.00743
 PX  S  15   0.00561    -0.02213    -0.00863    -0.00557     0.03494    -0.04912
 PY  S  15   0.04856    -0.02853     0.11800     0.00387     0.01448    -0.06510
 PZ  S  15  -0.01410     0.00267    -0.00134     0.00048    -0.00224     0.01593
  
  S  C  16   0.02890    -0.10987    -0.02226     0.03598    -0.09119     0.07335
 PX  C  16   0.11053     0.11409     0.00481    -0.00645    -0.00985    -0.12951
 PY  C  16  -0.02495     0.09110    -0.01095     0.00296    -0.05878     0.06511
 PZ  C  16  -0.05598    -0.01214     0.03573    -0.00606    -0.01598     0.11098
  
  S  C  17  -0.16646     0.01242     0.16948     0.00805     0.04569     0.00061
 PX  C  17  -0.01217    -0.12119    -0.06806     0.02319    -0.09429     0.18827
 PY  C  17  -0.08805     0.04249     0.04210     0.02970    -0.02767     0.02157
 PZ  C  17  -0.03140     0.11318     0.08676    -0.00586     0.04942    -0.12377
  
  S  C  18   0.07628     0.16794     0.02944    -0.02664     0.03640    -0.19357
 PX  C  18  -0.00946    -0.08433     0.00039    -0.03304     0.01757     0.08220
 PY  C  18  -0.12223     0.03437     0.16194     0.01036     0.11506    -0.11909
 PZ  C  18  -0.05485     0.08912     0.09638     0.01212     0.04465    -0.13242
  
  S  C  19   0.16670     0.00079    -0.16134    -0.02067    -0.12570     0.14063
 PX  C  19   0.04447    -0.07090    -0.02083    -0.02906     0.06092     0.05315
 PY  C  19   0.06318    -0.02336    -0.06530    -0.02757     0.02827    -0.00016
 PZ  C  19   0.02913     0.06048    -0.02851    -0.01778    -0.04753    -0.04428
  
  S  C  20  -0.07644     0.04370     0.00694    -0.01298     0.03444     0.05968
 PX  C  20  -0.14304     0.07439     0.05621     0.00861     0.03629    -0.08739
 PY  C  20   0.00450    -0.10034    -0.09109     0.00146     0.02956     0.03832
 PZ  C  20   0.10853    -0.09643    -0.08627    -0.01206    -0.01367     0.07624
  
  S  C  21  -0.07817     0.01987     0.03289     0.03090     0.05994    -0.18341
 PX  C  21   0.02917     0.09601     0.06771     0.01076    -0.00577    -0.14188
 PY  C  21   0.12921    -0.09139    -0.02548     0.01261    -0.04586    -0.02389
 PZ  C  21   0.06898    -0.10846    -0.04325    -0.00667    -0.01960     0.07670
  
  S  C  22  -0.00740     0.02814     0.06867    -0.02906    -0.04699    -0.04869
 PX  C  22  -0.11418     0.14777     0.00341     0.00100    -0.06892     0.10156
 PY  C  22  -0.10867     0.13758     0.07187     0.01609     0.02680     0.02700
 PZ  C  22   0.02387    -0.01208     0.03659     0.00570     0.05452    -0.05475
  
  S  C  23  -0.03968     0.08777    -0.06575     0.02535    -0.07050     0.17748
 PX  C  23  -0.06999     0.11049     0.00294     0.03543     0.01393     0.09177
 PY  C  23  -0.09052     0.11810     0.05077    -0.01088    -0.06848     0.03167
 PZ  C  23  -0.00189    -0.00419     0.02617    -0.03041    -0.05022    -0.04377
  
  S  C  24   0.03195    -0.04312     0.00724     0.02423     0.11546    -0.07345
 PX  C  24  -0.00881     0.04125    -0.04647     0.04035     0.02591     0.10140
 PY  C  24   0.04404    -0.04271    -0.09061     0.00612    -0.04918     0.10809
 PZ  C  24   0.03292    -0.05043    -0.02162    -0.02307    -0.04625    -0.00584
  
  S  C  25  -0.08288     0.09098     0.10366    -0.02428    -0.04395    -0.03858
 PX  C  25   0.05968    -0.09397     0.01629    -0.00758     0.08575    -0.14415
 PY  C  25   0.07371    -0.11731    -0.06336    -0.01558    -0.00048    -0.01726
 PZ  C  25   0.00717    -0.00225    -0.04851    -0.00263    -0.05865     0.08420
  
  S  C  26  -0.06200     0.08391    -0.05994     0.02578    -0.03700     0.16012
 PX  C  26   0.05677    -0.10706     0.00160    -0.03903    -0.01552    -0.08747
 PY  C  26   0.06615    -0.13728    -0.04160    -0.00604     0.09628    -0.09991
 PZ  C  26   0.01543     0.00423    -0.02976     0.02760     0.05900    -0.00215
  
  S  C  27   0.05221    -0.11796    -0.00347     0.01102     0.13068    -0.12482
 PX  C  27   0.10937    -0.07820     0.00871    -0.03216    -0.06349    -0.05501
 PY  C  27  -0.01588     0.01755     0.08454     0.00695     0.02542    -0.06127
 PZ  C  27  -0.05485     0.09018     0.03405     0.02178     0.03671    -0.00319
  
  S  N  28  -0.14975     0.04704     0.03450    -0.00103    -0.01969     0.00312
 PX  N  28   0.13089     0.03924    -0.01926     0.03961    -0.01020    -0.02664
 PY  N  28   0.04073    -0.01656    -0.04938     0.01834    -0.13381     0.09102
 PZ  N  28   0.00509     0.04354    -0.03775    -0.05286    -0.13073     0.05086
  
  S  C  29   0.00506    -0.12856     0.03167    -0.16831    -0.02538    -0.00661
 PX  C  29  -0.08039     0.14431    -0.01566     0.03145    -0.06772     0.01507
 PY  C  29  -0.14329    -0.11864     0.03479     0.06535     0.05806     0.03728
 PZ  C  29   0.15222     0.01450    -0.02680    -0.06160    -0.06271    -0.03333
  
  S  C  30  -0.01673    -0.13696     0.02899     0.22875     0.16976     0.03843
 PX  C  30  -0.05602    -0.15601     0.03896    -0.10205     0.00781    -0.00256
 PY  C  30  -0.01094     0.09114    -0.01517     0.24690     0.06075     0.02054
 PZ  C  30   0.04654     0.04187    -0.01428    -0.09034    -0.05681    -0.02517
  
  S  C  31   0.04101     0.23948    -0.05770     0.05513    -0.09089     0.00880
 PX  C  31  -0.00066    -0.13015     0.02736    -0.00622     0.08253    -0.00715
 PY  C  31   0.04813     0.06168    -0.01902     0.26907     0.07689     0.02917
 PZ  C  31  -0.02206     0.03344    -0.00355    -0.14578    -0.08773    -0.01785
  
  S  C  32  -0.18255    -0.01677     0.02950    -0.19793    -0.04989    -0.00467
 PX  C  32  -0.09335    -0.04238     0.02079    -0.11125     0.00251    -0.01497
 PY  C  32   0.12805     0.15127    -0.05064    -0.08372    -0.13512    -0.02021
 PZ  C  32  -0.02232    -0.06044     0.01719     0.09757     0.06870     0.01511
  
  S  C  33  -0.16913    -0.04121     0.02929     0.17414     0.10169     0.02991
 PX  C  33   0.22366     0.09450    -0.05333     0.14434    -0.03602    -0.01093
 PY  C  33  -0.00667    -0.06879     0.01672    -0.24657    -0.05356    -0.03943
 PZ  C  33  -0.09865    -0.00813     0.01601     0.06337     0.04034     0.02217
  
  S  C  34   0.27864     0.13197    -0.06453     0.12456    -0.06101    -0.01797
 PX  C  34   0.05999     0.09328    -0.02475     0.02787    -0.03820     0.00710
 PY  C  34   0.00277    -0.10512     0.02774    -0.26648    -0.04547    -0.04337
 PZ  C  34  -0.01517     0.01013    -0.00433     0.12601     0.02314     0.00784
  
  S  O  35   0.20130    -0.07748    -0.01210     0.11064     0.05565    -0.01451
 PX  O  35  -0.11222    -0.02754     0.02366    -0.00618     0.01655     0.02108
 PY  O  35   0.01543     0.06765    -0.01638    -0.02631    -0.06501    -0.00000
 PZ  O  35   0.04740    -0.02275    -0.00284     0.01632     0.02571    -0.01144
  
  S  C  36  -0.05866     0.13645    -0.02054    -0.14386    -0.11422    -0.00501
 PX  C  36  -0.07389    -0.05458     0.02281     0.05481     0.06171     0.01795
 PY  C  36   0.12848    -0.09388     0.00079     0.08829     0.07782    -0.01523
 PZ  C  36  -0.03668     0.08088    -0.01177    -0.07836    -0.07602    -0.00076
  
  S  C  37   0.01024    -0.05595     0.13983     0.06661    -0.14807     0.04646
 PX  C  37  -0.00884     0.04068    -0.09986    -0.05294     0.11663    -0.01369
 PY  C  37  -0.03761    -0.01322    -0.08389     0.04562    -0.08413    -0.12446
 PZ  C  37   0.00248     0.00084     0.00560    -0.00296     0.00543     0.00822
  
  S  O  38  -0.04290    -0.01070    -0.09818     0.02363    -0.02924    -0.11403
 PX  O  38  -0.00160     0.00418    -0.01599    -0.00456     0.01248    -0.01937
 PY  O  38  -0.02634    -0.00924    -0.05840     0.02503    -0.04166    -0.08392
 PZ  O  38   0.00174     0.00061     0.00386    -0.00164     0.00273     0.00554
  
  S  O  39   0.02042     0.04015    -0.02131    -0.05529     0.10805     0.04895
 PX  O  39  -0.00850    -0.00434    -0.01624     0.01516    -0.03088    -0.02859
 PY  O  39   0.01825     0.10682    -0.15104    -0.15797     0.33238     0.06278
 PZ  O  39  -0.00119    -0.00702     0.00995     0.01037    -0.02182    -0.00409
  
[...]
    Config     638   0.04458483  0.00198781
    Config     645   0.10536354  0.01110148
    Config     648   0.07727915  0.00597207
    Config     654  -0.07403383  0.00548101
    Config     658  -0.07869922  0.00619357
    Config     659   0.08706747  0.00758074
    Config     660  -0.07658719  0.00586560
    Config     670   0.04216413  0.00177781
    Config     682   0.08105769  0.00657035
    Config     689   0.04056585  0.00164559
    Config     690   0.05041012  0.00254118
    Config     695  -0.04869997  0.00237169
    Config     703  -0.04372344  0.00191174
    Config     704  -0.06534690  0.00427022
    Config     705   0.04974894  0.00247496
    Config     707  -0.04485713  0.00201216
    Config     712   0.09879551  0.00976055
    Config     716  -0.09299394  0.00864787
    Config     729  -0.08383960  0.00702908
    Config     733  -0.05689379  0.00323690
    Config     741   0.04011466  0.00160919
    Config     743  -0.04474160  0.00200181
    Config     748   0.04492665  0.00201840
    Config     749  -0.06883650  0.00473846
    Config     763   0.05933463  0.00352060
    Config     798  -0.06941815  0.00481888
    Config     812  -0.04511402  0.00203527
    Config     817   0.05166965  0.00266975
    Config     828   0.04966788  0.00246690
    Config     836   0.05377666  0.00289193
    Config     838   0.05686803  0.00323397
    Config     844   0.04556136  0.00207584
    Config     879   0.05503328  0.00302866
    Config     881   0.04083287  0.00166732
    Config     892   0.05268779  0.00277600
    Config     912   0.06769124  0.00458210
    Config     913  -0.04427308  0.00196011
    Config     970   0.05853437  0.00342627
    Config     989   0.04755171  0.00226117
    Config    1101   0.04223088  0.00178345
 Total coeff printed             0.74125313
  

 -------------------------------------------------------------------------------
 INDO CIS EPS=24.5 N**2=1.36
 Dye1
 Calculo de Estados Excitados


     1SCF WAS SPECIFIED, SO BFGS WAS NOT USED                 
     SCF FIELD WAS ACHIEVED                                   


                              INDO CALCULATION
                                                       MOPAC2016 (Version: 21.013L)
                                                       Thu Oct 21 09:35:50 2021
                                                       No. of days remaining =  84




          FINAL HEAT OF FORMATION =    -160023.67640 KCAL/MOL = -669539.06206 KJ/MOL
          VAN DER WAALS AREA      =        526.97 SQUARE ANGSTROMS


          TOTAL ENERGY            =      -7235.86955 EV
          ELECTRONIC ENERGY       =      -7704.63158 EV  POINT GROUP:     C1  
          CORE-CORE REPULSION     =        468.76203 EV

          DIELECTRIC ENERGY       =         -0.61311 EV
          COSMO AREA              =        526.97 SQUARE ANGSTROMS
          COSMO VOLUME            =        602.71 CUBIC ANGSTROMS

          IONIZATION POTENTIAL    =          6.796029 EV
          HOMO LUMO ENERGIES (EV) =         -6.796 -1.444
          NO. OF FILLED LEVELS    =         94
          MOLECULAR WEIGHT        =        562.6748

          MOLECULAR DIMENSIONS (Angstroms)

            Atom       Atom       Distance
            H    57    H    56    21.99071
            H    55    H    47    10.26659
            H    51    S    12     4.77684


          SCF CALCULATIONS        =          2
 
          WALL-CLOCK TIME         =  6 MINUTES AND 21.891 SECONDS
          COMPUTATION TIME        =  6 MINUTES AND 30.132 SECONDS




   ATOM   CHEMICAL          X               Y               Z
  NUMBER   SYMBOL      (ANGSTROMS)     (ANGSTROMS)     (ANGSTROMS)
 
     1       N          0.00045784  *   0.02487556  *  -0.00093597  *
     2       C          1.15715337  *  -0.00394974  *   0.00053788  *
     3       C          2.57236994  *  -0.00273009  *   0.00008163  *
     4       C          3.32615731  *  -1.12150146  *   0.07327833  *
     5       C          2.84062522  *  -2.46215970  *   0.16118125  *
     6       C          3.69450203  *  -3.54804682  *   0.23123935  *
     7       C          2.96970798  *  -4.75405678  *   0.31045052  *
     8       C          1.58339593  *  -4.53742137  *   0.29769656  *
     9       S          1.18559431  *  -2.91710264  *   0.19211658  *
    10       C          0.88209335  *  -5.75647873  *   0.37738834  *
    11       C          1.76014497  *  -6.84080729  *   0.44697367  *
    12       S          3.39916368  *  -6.39655706  *   0.41705730  *
    13       C          1.07879981  *  -8.08432481  *   0.53216006  *
    14       C         -0.27599306  *  -7.89258897  *   0.52482686  *
    15       S         -0.73448214  *  -6.23293308  *   0.40918107  *
    16       C         -1.26705861  *  -8.94061192  *   0.58304170  *
    17       C         -2.38375161  *  -8.80491019  *   1.42322275  *
    18       C         -3.34857056  *  -9.79355545  *   1.50928460  *
    19       C         -3.17127819  * -10.92957807  *   0.72276584  *
    20       C         -2.03594440  * -11.08272286  *  -0.12068629  *
    21       C         -1.08173763  * -10.08314136  *  -0.19122922  *
    22       C         -2.15273111  * -12.36804839  *  -0.76178341  *
    23       C         -1.35699644  * -13.04111820  *  -1.67503882  *
    24       C         -1.76874414  * -14.29103504  *  -2.11216179  *
    25       C         -2.96138120  * -14.86170685  *  -1.65421230  *
    26       C         -3.77746939  * -14.21135845  *  -0.74218755  *
    27       C         -3.35564082  * -12.96278465  *  -0.29384850  *
    28       N         -3.97560101  * -12.07678795  *   0.60939222  *
    29       C         -5.17742125  * -12.32078729  *   1.31720623  *
    30       C         -6.20309271  * -11.36701983  *   1.28095136  *
    31       C         -7.37392662  * -11.59968758  *   1.97724573  *
    32       C         -7.52033549  * -12.79561120  *   2.69733098  *
    33       C         -6.50768563  * -13.74992040  *   2.72780266  *
    34       C         -5.32549826  * -13.50455655  *   2.03802926  *
    35       O         -8.72405005  * -12.89945117  *   3.32907793  *
    36       C         -8.95309020  * -14.05186854  *   4.09930679  *
    37       C          3.23638712  *   1.30313042  *  -0.08581664  *
    38       O          4.44210681  *   1.51073733  *  -0.10026655  *
    39       O          2.38542914  *   2.34724561  *  -0.15344183  *
    40       H          4.42531673  *  -1.02135137  *   0.06653578  *
    41       H          4.78177198  *  -3.49341541  *   0.22680088  *
    42       H          1.57953419  *  -9.04630372  *   0.60503030  *
    43       H         -2.49087126  *  -7.90236745  *   2.03407378  *
    44       H         -4.20601490  *  -9.69048688  *   2.17784890  *
    45       H         -0.21342252  * -10.19576278  *  -0.84578401  *
    46       H         -0.43060874  * -12.58857218  *  -2.03723491  *
    47       H         -1.15535860  * -14.84172250  *  -2.83070111  *
    48       H         -3.25805102  * -15.84660908  *  -2.02876983  *
    49       H         -4.71559923  * -14.65409319  *  -0.40178909  *
    50       H         -6.08722373  * -10.44563543  *   0.69985742  *
    51       H         -8.18346928  * -10.86300252  *   1.96325176  *
    52       H         -6.60202411  * -14.68747793  *   3.28024845  *
    53       H         -4.51652718  * -14.24253807  *   2.07311928  *
    54       H         -8.24729702  * -14.16387447  *   4.93890802  *
    55       H         -9.96294098  * -13.88958674  *   4.50735876  *
    56       H         -8.95877273  * -14.97950534  *   3.50342199  *
    57       H          2.86750954  *   3.18499757  *  -0.20886354  *

                             CARTESIAN COORDINATES

   1    N        0.000457841     0.024875562    -0.000935966
   2    C        1.157153365    -0.003949740     0.000537880
   3    C        2.572369937    -0.002730092     0.000081631
   4    C        3.326157312    -1.121501461     0.073278328
   5    C        2.840625220    -2.462159700     0.161181252
   6    C        3.694502026    -3.548046817     0.231239352
   7    C        2.969707977    -4.754056775     0.310450520
   8    C        1.583395931    -4.537421372     0.297696559
   9    S        1.185594308    -2.917102636     0.192116578
  10    C        0.882093352    -5.756478728     0.377388335
  11    C        1.760144969    -6.840807291     0.446973667
  12    S        3.399163681    -6.396557057     0.417057304
  13    C        1.078799813    -8.084324809     0.532160063
  14    C       -0.275993057    -7.892588971     0.524826864
  15    S       -0.734482143    -6.232933083     0.409181067
  16    C       -1.267058609    -8.940611924     0.583041705
  17    C       -2.383751610    -8.804910186     1.423222750
  18    C       -3.348570563    -9.793555451     1.509284605
  19    C       -3.171278192   -10.929578070     0.722765840
  20    C       -2.035944398   -11.082722860    -0.120686292
  21    C       -1.081737634   -10.083141360    -0.191229222
  22    C       -2.152731113   -12.368048390    -0.761783411
  23    C       -1.356996441   -13.041118200    -1.675038818
  24    C       -1.768744136   -14.291035040    -2.112161786
  25    C       -2.961381203   -14.861706850    -1.654212304
  26    C       -3.777469390   -14.211358450    -0.742187551
  27    C       -3.355640821   -12.962784650    -0.293848496
  28    N       -3.975601012   -12.076787950     0.609392220
  29    C       -5.177421246   -12.320787290     1.317206225
  30    C       -6.203092713   -11.367019830     1.280951355
  31    C       -7.373926618   -11.599687580     1.977245733
  32    C       -7.520335492   -12.795611200     2.697330977
  33    C       -6.507685634   -13.749920400     2.727802662
  34    C       -5.325498255   -13.504556550     2.038029261
  35    O       -8.724050051   -12.899451170     3.329077932
  36    C       -8.953090202   -14.051868540     4.099306790
  37    C        3.236387122     1.303130421    -0.085816636
  38    O        4.442106814     1.510737329    -0.100266552
  39    O        2.385429138     2.347245608    -0.153441833
  40    H        4.425316732    -1.021351369     0.066535783
  41    H        4.781771976    -3.493415412     0.226800883
  42    H        1.579534186    -9.046303715     0.605030303
  43    H       -2.490871258    -7.902367446     2.034073785
  44    H       -4.206014897    -9.690486880     2.177848896
  45    H       -0.213422516   -10.195762780    -0.845784011
  46    H       -0.430608739   -12.588572180    -2.037234914
  47    H       -1.155358604   -14.841722500    -2.830701113
  48    H       -3.258051017   -15.846609080    -2.028769829
  49    H       -4.715599226   -14.654093190    -0.401789088
  50    H       -6.087223726   -10.445635430     0.699857424
  51    H       -8.183469284   -10.863002520     1.963251758
  52    H       -6.602024108   -14.687477930     3.280248447
  53    H       -4.516527175   -14.242538070     2.073119280
  54    H       -8.247297018   -14.163874470     4.938908020
  55    H       -9.962940978   -13.889586740     4.507358756
  56    H       -8.958772727   -14.979505340     3.503421989
  57    H        2.867509541     3.184997570    -0.208863537


           Empirical Formula: C31 H18 N2 O3 S3  =    57 atoms



      MOLECULAR POINT GROUP   :   C1  


                  EIGENVALUES  
 -48.64096 -46.78092 -46.64360 -44.88684 -43.37281 -42.97071 -41.87840 -40.90805
 -39.66897 -39.16750 -37.02135 -36.27402 -35.48483 -34.04557 -32.95759 -32.72698
 -31.40826 -30.75902 -30.41060 -30.14449 -29.60952 -28.55787 -27.21017 -26.57979
 -25.60637 -25.21957 -25.18221 -24.48317 -24.34179 -23.92775 -23.38283 -22.87206
 -22.31107 -22.02565 -20.95743 -20.50304 -20.37242 -19.84599 -19.12587 -18.93579
 -18.63111 -17.89180 -17.79709 -17.64350 -17.23225 -16.75723 -16.65367 -16.35413
 -15.99058 -15.98150 -15.82230 -15.76466 -15.56022 -15.41841 -15.32348 -15.11086
 -14.96515 -14.53702 -14.41442 -14.17067 -14.04667 -13.70436 -13.66036 -13.64612
 -13.54389 -13.42094 -13.23487 -13.14653 -13.00773 -12.90942 -12.80765 -12.71921
 -12.45326 -12.26652 -12.24672 -12.15408 -11.99760 -11.88615 -11.76138 -11.61401
 -11.47187 -11.13549 -10.81470 -10.74126 -10.08531  -9.90327  -9.40636  -9.26022
  -9.12673  -8.77894  -8.47161  -7.77130  -7.46753  -6.79603  -1.44395  -0.13707
   0.19386   0.59318   0.70511   0.73858   0.82590   1.09925   1.38724   1.53457
   1.55399   1.97412   1.99575   2.05882   2.33265   2.34971   2.65138   2.67715
   2.73369   2.90116   3.02987   3.05453   3.11350   3.22462   3.44502   3.49331
   3.67960   3.82932   3.87640   3.93681   4.12840   4.16859   4.25596   4.31926
   4.45634   4.87089   5.12219   5.18255   5.34456   5.54524   5.68726   5.83175
   5.89807   6.27640   6.42771   6.44379   6.64366   6.75857   6.86774   7.35148
   7.80566   8.31250   8.65005   8.71132   8.75963   8.93071   9.00485   9.07914
   9.09399   9.52226   9.83364   9.91863  10.48571  10.57267  10.84749  10.92712
  11.10030  11.58302  11.64193  11.80338  12.13401  12.46721  12.67420  12.92186
  13.03186  13.21718  13.81559  14.32005  14.79945  15.13181


              NET ATOMIC CHARGES AND DIPOLE CONTRIBUTIONS

  ATOM NO.   TYPE          CHARGE      No. of ELECS.   s-Pop       p-Pop       
    1          N          -0.410120        5.4101     1.75382     3.65630
    2          C           0.218413        3.7816     1.15063     2.63095
    3          C          -0.008357        4.0084     0.99814     3.01021
    4          C           0.124478        3.8755     1.09409     2.78143
    5          C          -0.014439        4.0144     1.06122     2.95322
    6          C           0.058015        3.9420     1.09829     2.84369
    7          C          -0.012426        4.0124     1.07220     2.94023
    8          C           0.068246        3.9318     1.08283     2.84893
    9          S          -0.027453        6.0275     1.76558     4.26188
   10          C          -0.004566        4.0046     1.06683     2.93773
   11          C           0.045434        3.9546     1.08891     2.86565
   12          S          -0.039986        6.0400     1.76756     4.27242
   13          C          -0.045877        4.0459     1.07971     2.96617
   14          C           0.065476        3.9345     1.09155     2.84298
   15          S          -0.043632        6.0436     1.77002     4.27361
   16          C           0.009265        3.9907     1.03709     2.95364
   17          C          -0.023635        4.0236     1.08142     2.94221
   18          C          -0.037411        4.0374     1.07835     2.95907
   19          C           0.079109        3.9209     1.04964     2.87125
   20          C          -0.014561        4.0146     1.05018     2.96438
   21          C          -0.020523        4.0205     1.08131     2.93922
   22          C          -0.016432        4.0164     1.04743     2.96900
   23          C          -0.019829        4.0198     1.07927     2.94056
   24          C          -0.045676        4.0457     1.07745     2.96822
   25          C          -0.024266        4.0243     1.08066     2.94361
   26          C          -0.041374        4.0414     1.07643     2.96495
   27          C           0.078686        3.9213     1.05067     2.87064
   28          N          -0.129505        5.1295     1.22738     3.90213
   29          C           0.085236        3.9148     1.03598     2.87878
   30          C          -0.022438        4.0224     1.08069     2.94175
   31          C          -0.032883        4.0329     1.08026     2.95263
   32          C           0.139544        3.8605     1.04221     2.81825
   33          C          -0.028225        4.0282     1.07724     2.95099
   34          C          -0.023899        4.0239     1.08105     2.94285
   35          O          -0.327780        6.3278     1.69005     4.63773
   36          C           0.107796        3.8922     1.05729     2.83491
   37          C           0.493650        3.5063     1.04630     2.46005
   38          O          -0.628131        6.6281     1.81707     4.81106
   39          O          -0.313954        6.3140     1.68744     4.62652
   40          H           0.060474        0.9395     0.93953
   41          H           0.059419        0.9406     0.94058
   42          H           0.042615        0.9574     0.95739
   43          H           0.023154        0.9768     0.97685
   44          H           0.029696        0.9703     0.97030
   45          H           0.029474        0.9705     0.97053
   46          H           0.024447        0.9756     0.97555
   47          H           0.015592        0.9844     0.98441
   48          H           0.018962        0.9810     0.98104
   49          H           0.028921        0.9711     0.97108
   50          H           0.031446        0.9686     0.96855
   51          H           0.028433        0.9716     0.97157
   52          H           0.035148        0.9649     0.96485
   53          H           0.032413        0.9676     0.96759
   54          H           0.031548        0.9685     0.96845
   55          H           0.012468        0.9875     0.98753
   56          H           0.033017        0.9670     0.96698
   57          H           0.246804        0.7532     0.75320
 DIPOLE           X         Y         Z       TOTAL
 POINT-CHG.    -0.299   -10.771     1.567    10.888
 HYBRID         3.151    -0.769     0.307     3.258
 SUM            2.852   -11.539     1.874    12.033


          ATOMIC ORBITAL ELECTRON POPULATIONS

     Atom    s        px        py        pz   
    1  N   1.75382   1.23235   1.22627   1.19768
    2  C   1.15063   0.95320   0.80535   0.87240
    3  C   0.99814   0.89967   0.92070   1.18984
    4  C   1.09409   0.98569   0.99064   0.80509
    5  C   1.06122   0.89259   0.94586   1.11477
    6  C   1.09829   0.95340   0.99410   0.89620
    7  C   1.07220   0.98324   0.87554   1.08144
    8  C   1.08283   0.99985   0.88985   0.95922
    9  S   1.76558   1.21890   1.15533   1.88765
   10  C   1.06683   0.88776   0.95687   1.09310
   11  C   1.08891   0.89328   1.00133   0.97104
   12  S   1.76756   1.21158   1.16882   1.89201
   13  C   1.07971   0.96026   0.93314   1.07277
   14  C   1.09155   0.99277   0.89506   0.95514
   15  S   1.77002   1.21785   1.16226   1.89351
   16  C   1.03709   0.97806   0.97378   1.00179
   17  C   1.08142   0.98180   0.96822   0.99219
   18  C   1.07835   0.97552   0.98960   0.99394
   19  C   1.04964   0.96273   0.91258   0.99594
   20  C   1.05018   0.98668   0.96869   1.00901
   21  C   1.08131   0.96500   0.98031   0.99391
   22  C   1.04743   0.99176   0.97681   1.00043
   23  C   1.07927   0.96005   0.98875   0.99176
   24  C   1.07745   0.98558   0.98730   0.99534
   25  C   1.08066   0.99541   0.95666   0.99154
   26  C   1.07643   0.96838   0.98099   1.01558
   27  C   1.05067   0.97784   0.94365   0.94915
   28  N   1.22738   1.24123   1.21641   1.44448
   29  C   1.03598   0.90784   0.99984   0.97110
   30  C   1.08069   0.98636   0.95966   0.99573
   31  C   1.08026   0.97342   0.96715   1.01206
   32  C   1.04221   0.86562   0.99572   0.95691
   33  C   1.07724   0.98314   0.95890   1.00895
   34  C   1.08105   0.97507   0.96723   1.00055
   35  O   1.69005   1.45784   1.50919   1.67070
   36  C   1.05729   0.99378   0.89047   0.95066
   37  C   1.04630   0.87922   0.90688   0.67395
   38  O   1.81707   1.28009   1.95494   1.57603
   39  O   1.68744   1.52845   1.21010   1.88797
   40  H   0.93953
   41  H   0.94058
   42  H   0.95739
   43  H   0.97685
   44  H   0.97030
   45  H   0.97053
   46  H   0.97555
   47  H   0.98441
   48  H   0.98104
   49  H   0.97108
   50  H   0.96855
   51  H   0.97157
   52  H   0.96485
   53  H   0.96759
   54  H   0.96845
   55  H   0.98753
   56  H   0.96698
   57  H   0.75320

 **********************
 *                    *
 * JOB ENDED NORMALLY *
 *                    *
 **********************



 TOTAL JOB TIME:           382.26 SECONDS

 == MOPAC DONE ==
