 *******************************************************************************
 ** Site#: 4824         For non-commercial use only    Version 21.013L 64BITS **
 *******************************************************************************
 ** Cite this program as: MOPAC2016, Version: 21.013L, James J. P. Stewart,   **
 ** Stewart Computational Chemistry, web: HTTP://OpenMOPAC.net. Days left:  84**
 *******************************************************************************
 **                                                                           **
 **                                MOPAC2016                                  **
 **                                                                           **
 *******************************************************************************

                              INDO CALCULATION RESULTS

 *******************************************************************************
 *  CALCULATION DONE:                                Thu Oct 21 10:29:28 2021  *
 *  INDO       - The INDO Hamiltonian to be used
 *  CIS        - C.I. USES 1 ELECTRON EXCITATIONS ONLY
 *  EPS=  8.93 - USE ANDREAS KLAMT'S COSMO IMPLICIT SOLVATION MODEL
 *  n**2 =  1.420 for COSMO-CI
 *  T=         - A TIME OF 172800.0 SECONDS REQUESTED
 *  DUMP=N     - RESTART FILE WRITTEN EVERY 7200.0 SECONDS REQUESTED
 *******************************************************************************
INDO CIS EPS=8.93 N**2=1.42
 Dye2
 Calculo de Estados Excitados
   ATOM   CHEMICAL          X               Y               Z
  NUMBER   SYMBOL      (ANGSTROMS)     (ANGSTROMS)     (ANGSTROMS)
 
     1       C          1.00862343  *  -0.70976027  *  -0.22378088  *
     2       C          2.48043488  *  -0.34282448  *  -0.12812643  *
     3       C          2.65111814  *   1.17176072  *  -0.06340056  *
     4       C          4.14092996  *   1.53015090  *   0.03390889  *
     5       N          4.34935824  *   2.97453001  *   0.09540107  *
     6       C          4.25006775  *   3.75776617  *   1.26609250  *
     7       C          4.27288196  *   3.36136158  *   2.59909971  *
     8       C          4.22934811  *   4.36757824  *   3.55971770  *
     9       C          4.16306287  *   5.72373555  *   3.20749172  *
    10       C          4.13370898  *   6.11149622  *   1.87699778  *
    11       C          4.17199760  *   5.13002979  *   0.90039419  *
    12       C          4.14759351  *   5.18381476  *  -0.53790795  *
    13       C          4.21266176  *   3.84295841  *  -1.00625352  *
    14       C          4.17905428  *   3.53830808  *  -2.36358142  *
    15       C          4.10864098  *   4.62093700  *  -3.24016954  *
    16       C          4.06297086  *   5.95457200  *  -2.79367663  *
    17       C          4.07616442  *   6.23521992  *  -1.43713086  *
    18       N          4.08044279  *   4.36789570  *  -4.63197450  *
    19       C          4.96289301  *   3.52317635  *  -5.33675501  *
    20       C          6.05629646  *   2.79714561  *  -4.87450941  *
    21       C          6.76083798  *   2.05374202  *  -5.80943949  *
    22       C          6.39936881  *   2.03715211  *  -7.16000898  *
    23       C          5.32117517  *   2.77754995  *  -7.62270367  *
    24       C          4.59858336  *   3.52857399  *  -6.71052293  *
    25       C          3.46072971  *   4.40275620  *  -6.84726418  *
    26       C          3.15863887  *   4.90706134  *  -5.55330230  *
    27       C          2.08071057  *   5.75978505  *  -5.33575189  *
    28       C          1.32874228  *   6.12143948  *  -6.44335885  *
    29       C          1.62869236  *   5.64569065  *  -7.72352012  *
    30       C          2.69164404  *   4.77984612  *  -7.93569972  *
    31       C          4.24631959  *   3.99009650  *   4.95618826  *
    32       C          3.53654729  *   2.94789213  *   5.50008305  *
    33       C          3.77693021  *   2.82441133  *   6.89512106  *
    34       C          4.65952879  *   3.78050859  *   7.35659800  *
    35       S          5.18528608  *   4.80361412  *   6.10507354  *
    36       C          5.05924685  *   3.85433375  *   8.72788382  *
    37       C          5.82228330  *   4.82100799  *   9.28151886  *
    38       C          6.14715954  *   4.74650671  *  10.71132965  *
    39       O          5.79236176  *   3.87805419  *  11.49649351  *
    40       O          6.91714878  *   5.76223890  *  11.15135008  *
    41       C          6.33583094  *   5.92709278  *   8.56273622  *
    42       N          6.76549121  *   6.84229103  *   8.00033731  *
    43       H          4.69285980  *   3.03268863  *   9.36696252  *
    44       H          0.53031604  *  -0.28558791  *  -1.11847948  *
    45       H          0.86205790  *  -1.79847096  *  -0.27449566  *
    46       H          0.43256325  *  -0.35421604  *   0.64272597  *
    47       H          2.93812270  *  -0.82634304  *   0.76103301  *
    48       H          3.03585682  *  -0.76193138  *  -0.99401471  *
    49       H          2.19532571  *   1.65503827  *  -0.95381799  *
    50       H          2.09418093  *   1.59152973  *   0.80070938  *
    51       H          4.61042043  *   1.05859764  *   0.92785491  *
    52       H          4.70770103  *   1.12655788  *  -0.83766901  *
    53       H          4.33315575  *   2.30984913  *   2.88614753  *
    54       H          4.12413229  *   6.48706966  *   3.99029777  *
    55       H          4.08076713  *   7.16672794  *   1.59643441  *
    56       H          4.18790155  *   2.50689275  *  -2.72316554  *
    57       H          4.03625715  *   6.77603903  *  -3.51645711  *
    58       H          4.03829734  *   7.26650023  *  -1.07546604  *
    59       H          6.36092138  *   2.82243338  *  -3.82635012  *
    60       H          7.62537615  *   1.46729201  *  -5.48256453  *
    61       H          6.98198005  *   1.43404798  *  -7.86180949  *
    62       H          5.04246049  *   2.77685219  *  -8.67934436  *
    63       H          1.82556722  *   6.12023564  *  -4.33724474  *
    64       H          0.47606116  *   6.79520634  *  -6.31204556  *
    65       H          1.01007289  *   5.95965146  *  -8.56875590  *
    66       H          2.92365747  *   4.39786327  *  -8.93289105  *
    67       H          2.86097177  *   2.29795360  *   4.94952538  *
    68       H          3.30686388  *   2.06067878  *   7.51212756  *
    69       H          7.10506886  *   5.67160374  *  12.09682052  *
 


          CARTESIAN COORDINATES 

    NO.       ATOM           X           Y           Z

     1         C          1.0086     -0.7098     -0.2238
     2         C          2.4804     -0.3428     -0.1281
     3         C          2.6511      1.1718     -0.0634
     4         C          4.1409      1.5302      0.0339
     5         N          4.3494      2.9745      0.0954
     6         C          4.2501      3.7578      1.2661
     7         C          4.2729      3.3614      2.5991
     8         C          4.2293      4.3676      3.5597
     9         C          4.1631      5.7237      3.2075
    10         C          4.1337      6.1115      1.8770
    11         C          4.1720      5.1300      0.9004
    12         C          4.1476      5.1838     -0.5379
    13         C          4.2127      3.8430     -1.0063
    14         C          4.1791      3.5383     -2.3636
    15         C          4.1086      4.6209     -3.2402
    16         C          4.0630      5.9546     -2.7937
    17         C          4.0762      6.2352     -1.4371
    18         N          4.0804      4.3679     -4.6320
    19         C          4.9629      3.5232     -5.3368
    20         C          6.0563      2.7971     -4.8745
    21         C          6.7608      2.0537     -5.8094
    22         C          6.3994      2.0372     -7.1600
    23         C          5.3212      2.7775     -7.6227
    24         C          4.5986      3.5286     -6.7105
    25         C          3.4607      4.4028     -6.8473
    26         C          3.1586      4.9071     -5.5533
    27         C          2.0807      5.7598     -5.3358
    28         C          1.3287      6.1214     -6.4434
    29         C          1.6287      5.6457     -7.7235
    30         C          2.6916      4.7798     -7.9357
    31         C          4.2463      3.9901      4.9562
    32         C          3.5365      2.9479      5.5001
    33         C          3.7769      2.8244      6.8951
    34         C          4.6595      3.7805      7.3566
    35         S          5.1853      4.8036      6.1051
    36         C          5.0592      3.8543      8.7279
    37         C          5.8223      4.8210      9.2815
    38         C          6.1472      4.7465     10.7113
    39         O          5.7924      3.8781     11.4965
    40         O          6.9171      5.7622     11.1514
    41         C          6.3358      5.9271      8.5627
    42         N          6.7655      6.8423      8.0003
    43         H          4.6929      3.0327      9.3670
    44         H          0.5303     -0.2856     -1.1185
    45         H          0.8621     -1.7985     -0.2745
    46         H          0.4326     -0.3542      0.6427
    47         H          2.9381     -0.8263      0.7610
    48         H          3.0359     -0.7619     -0.9940
    49         H          2.1953      1.6550     -0.9538
    50         H          2.0942      1.5915      0.8007
    51         H          4.6104      1.0586      0.9279
    52         H          4.7077      1.1266     -0.8377
    53         H          4.3332      2.3098      2.8861
    54         H          4.1241      6.4871      3.9903
    55         H          4.0808      7.1667      1.5964
    56         H          4.1879      2.5069     -2.7232
    57         H          4.0363      6.7760     -3.5165
    58         H          4.0383      7.2665     -1.0755
    59         H          6.3609      2.8224     -3.8264
    60         H          7.6254      1.4673     -5.4826
    61         H          6.9820      1.4340     -7.8618
    62         H          5.0425      2.7769     -8.6793
    63         H          1.8256      6.1202     -4.3372
    64         H          0.4761      6.7952     -6.3120
    65         H          1.0101      5.9597     -8.5688
    66         H          2.9237      4.3979     -8.9329
    67         H          2.8610      2.2980      4.9495
    68         H          3.3069      2.0607      7.5121
    69         H          7.1051      5.6716     12.0968

           Empirical Formula: C36 H27 N3 O2 S  =    69 atoms



      MOLECULAR POINT GROUP   :   C1  


      RHF CALCULATION, NO. OF DOUBLY OCCUPIED LEVELS = 102

 WARNING: INDO only performs single-point calculations

 Summary of symmetry occupancy in each shell:

 SHELL     
    1  102
    v   93
 TOTAL 195




    ROOT NO.    1           2           3           4           5           6

           -48.86133   -48.28298   -46.74504   -43.91031   -42.95344   -42.89998
  
  
  S  C   1   0.01423     0.01642    -0.00021    -0.01831    -0.05039     0.01540
 PX  C   1   0.00542     0.00619    -0.00008    -0.00626    -0.01666     0.00507
 PY  C   1   0.00377     0.00422    -0.00005    -0.00371    -0.00937     0.00284
 PZ  C   1   0.00038     0.00052    -0.00000    -0.00024    -0.00145     0.00048
  
  S  C   2   0.03288     0.03719    -0.00045    -0.03295    -0.08560     0.02608
 PX  C   2   0.00363     0.00385    -0.00004    -0.00072     0.00001    -0.00005
 PY  C   2   0.01271     0.01402    -0.00016    -0.00942    -0.02186     0.00662
 PZ  C   2   0.00044     0.00081     0.00000     0.00058    -0.00147     0.00062
  
  S  C   3   0.07911     0.08717    -0.00096    -0.05221    -0.11847     0.03634
 PX  C   3   0.02701     0.02961    -0.00031    -0.01274    -0.02467     0.00767
 PY  C   3   0.01830     0.01941    -0.00018    -0.00325     0.00135    -0.00020
 PZ  C   3   0.00102     0.00258     0.00002     0.00349    -0.00442     0.00207
  
  S  C   4   0.14356     0.15726    -0.00163    -0.06876    -0.14350     0.04477
 PX  C   4  -0.00647    -0.00746     0.00010     0.00750     0.01787    -0.00556
 PY  C   4   0.06587     0.07213    -0.00072    -0.02218    -0.03460     0.01171
 PZ  C   4   0.00034     0.00355     0.00008     0.01084    -0.00824     0.00440
  
  S  N   5   0.32545     0.35415    -0.00347    -0.10172    -0.16860     0.05797
 PX  N   5  -0.02633    -0.02892     0.00030     0.01064     0.01758    -0.00596
 PY  N   5   0.06425     0.06784    -0.00059    -0.00223     0.01994    -0.00361
 PZ  N   5  -0.00121     0.00542     0.00022     0.03322    -0.02556     0.01204
  
  S  C   6   0.24698     0.27848    -0.00088     0.11314    -0.11255     0.04847
 PX  C   6  -0.00083    -0.00085    -0.00002    -0.00180    -0.00002    -0.00006
 PY  C   6   0.00727     0.00770     0.00039     0.05822     0.02915    -0.00656
 PZ  C   6  -0.08805    -0.09208     0.00192     0.11298     0.02503    -0.00759
  
  S  C   7   0.10144     0.12167     0.00271     0.23816    -0.04689     0.02212
 PX  C   7  -0.00178    -0.00214    -0.00010    -0.00593     0.00029    -0.00017
 PY  C   7   0.02439     0.03006     0.00080     0.09440    -0.00345     0.00459
 PZ  C   7  -0.03972    -0.04468     0.00160     0.03943     0.04083    -0.01650
  
  S  C   8   0.06736     0.08430     0.00601     0.34577     0.01333    -0.00104
 PX  C   8  -0.00054    -0.00068    -0.00012    -0.00392    -0.00076     0.00030
 PY  C   8   0.00262     0.00315    -0.00073    -0.00082    -0.00673     0.00419
 PZ  C   8  -0.02735    -0.03279     0.00184    -0.01823     0.03833    -0.01878
  
  S  C   9   0.06065     0.07499     0.00289     0.25400    -0.00815     0.00972
 PX  C   9   0.00080     0.00100     0.00003     0.00352    -0.00011     0.00010
 PY  C   9  -0.02048    -0.02549    -0.00114    -0.08632     0.00287    -0.00262
 PZ  C   9  -0.02179    -0.02595     0.00044    -0.03291     0.01609    -0.00911
  
  S  C  10   0.08257     0.09632     0.00103     0.18565    -0.01342     0.01389
 PX  C  10   0.00181     0.00217     0.00002     0.00397    -0.00080     0.00045
 PY  C  10  -0.03941    -0.04657    -0.00039    -0.07688     0.01432    -0.00868
 PZ  C  10  -0.01184    -0.01060     0.00061     0.04162    -0.00719     0.00258
  
  S  C  11   0.20468     0.22348    -0.00067     0.11613    -0.02043     0.01821
 PX  C  11   0.00349     0.00405    -0.00002     0.00101    -0.00214     0.00082
 PY  C  11  -0.07120    -0.07957     0.00062     0.00479     0.03537    -0.01362
 PZ  C  11  -0.03596    -0.02906     0.00123     0.10991    -0.03167     0.01341
  
  S  C  12   0.22467     0.19644    -0.00212    -0.08886     0.15707    -0.05093
 PX  C  12   0.00431     0.00522    -0.00005    -0.00024    -0.00328     0.00084
 PY  C  12  -0.07548    -0.07954     0.00083     0.02577     0.02442    -0.00758
 PZ  C  12   0.01379     0.04522     0.00003     0.05949    -0.11117     0.04205
  
  S  C  13   0.27769     0.24235    -0.00293    -0.14805     0.10015    -0.04128
 PX  C  13   0.00107     0.00259    -0.00002     0.00157    -0.00656     0.00147
 PY  C  13   0.00658    -0.01045     0.00004    -0.00829     0.09948    -0.03160
 PZ  C  13   0.07234     0.11325    -0.00083     0.01347    -0.11781     0.04822
  
  S  C  14   0.17434     0.03371    -0.00129    -0.12734     0.20838    -0.09792
 PX  C  14  -0.00025     0.00010     0.00000     0.00132    -0.00579    -0.00305
 PY  C  14   0.04340    -0.00228    -0.00027    -0.03964     0.11217    -0.03766
 PZ  C  14   0.01511     0.07851    -0.00061    -0.02310    -0.02028     0.01577
  
  S  C  15   0.22123    -0.09627    -0.00065    -0.12171     0.32290    -0.12036
 PX  C  15  -0.00061     0.00219    -0.00001    -0.00092    -0.00444    -0.01272
 PY  C  15  -0.01093     0.01295    -0.00004    -0.00342     0.02228     0.01340
 PZ  C  15  -0.03351     0.09638    -0.00058    -0.03750     0.04116    -0.01713
  
  S  C  16   0.13185    -0.01376    -0.00075    -0.10572     0.27704    -0.08104
 PX  C  16   0.00057     0.00234    -0.00002    -0.00220     0.00265    -0.00635
 PY  C  16  -0.05180     0.00909     0.00026     0.03729    -0.08935     0.03302
 PZ  C  16   0.00334     0.04120    -0.00034    -0.02556     0.04236    -0.02235
  
  S  C  17   0.11263     0.05640    -0.00102    -0.09275     0.22878    -0.07428
 PX  C  17   0.00233     0.00225    -0.00003    -0.00173     0.00296    -0.00206
 PY  C  17  -0.05258    -0.03046     0.00052     0.04281    -0.08488     0.03025
 PZ  C  17  -0.00178     0.02061    -0.00003     0.02016    -0.04679     0.01406
  
  S  N  18   0.35207    -0.33872     0.00058    -0.02673     0.16401    -0.06385
 PX  N  18  -0.00117     0.00223    -0.00001    -0.00133    -0.01604    -0.04626
 PY  N  18  -0.01036     0.01359    -0.00005    -0.00588     0.03136     0.03030
 PZ  N  18  -0.04975     0.07299    -0.00034    -0.03692     0.08676    -0.03885
  
  S  C  19   0.25586    -0.26612     0.00064     0.02777    -0.13009    -0.19802
 PX  C  19  -0.07089     0.07354    -0.00017     0.00120    -0.06250    -0.06270
 PY  C  19   0.05502    -0.05553     0.00011    -0.00538     0.06815     0.05161
 PZ  C  19  -0.00459     0.01727    -0.00015    -0.02709     0.10625     0.01718
  
  S  C  20   0.10590    -0.10710     0.00025     0.01835    -0.16542    -0.22767
 PX  C  20  -0.03773     0.03723    -0.00007     0.00004     0.00212     0.02569
 PY  C  20   0.02281    -0.02185     0.00003    -0.00297     0.01848    -0.00123
 PZ  C  20  -0.02303     0.03132    -0.00013    -0.01810     0.09922     0.08088
  
  S  C  21   0.06186    -0.06923     0.00022     0.02910    -0.21369    -0.22331
 PX  C  21  -0.02510     0.02796    -0.00009    -0.01007     0.06848     0.07083
 PY  C  21   0.01816    -0.01999     0.00006     0.00653    -0.04537    -0.04910
 PZ  C  21  -0.00463     0.00719    -0.00004    -0.00635     0.03481     0.02416
  
  S  C  22   0.05820    -0.06778     0.00024     0.03344    -0.22537    -0.21252
 PX  C  22  -0.01697     0.01970    -0.00007    -0.00851     0.05021     0.04282
 PY  C  22   0.01705    -0.01972     0.00007     0.00840    -0.05160    -0.04657
 PZ  C  22   0.01783    -0.02015     0.00006     0.00800    -0.05702    -0.06075
  
  S  C  23   0.08050    -0.09351     0.00032     0.04050    -0.22985    -0.17945
 PX  C  23  -0.00667     0.00742    -0.00002    -0.00019    -0.02045    -0.03803
 PY  C  23   0.01323    -0.01497     0.00005     0.00342    -0.00300     0.01231
 PZ  C  23   0.03801    -0.04326     0.00014     0.01528    -0.08900    -0.08177
  
  S  C  24   0.20052    -0.22349     0.00067     0.05646    -0.21989    -0.11645
 PX  C  24  -0.02146     0.02297    -0.00006     0.00083    -0.06105    -0.10633
 PY  C  24   0.03176    -0.03393     0.00008     0.00063     0.04577     0.07652
 PZ  C  24   0.07023    -0.07405     0.00018     0.00477    -0.00549    -0.03038
  
  S  C  25   0.20003    -0.22405     0.00068     0.05882    -0.08909     0.23285
 PX  C  25   0.02515    -0.02627     0.00006    -0.00207    -0.02341    -0.12055
 PY  C  25  -0.00473     0.00475    -0.00001     0.00240     0.02085     0.09281
 PZ  C  25   0.07577    -0.08031     0.00020     0.00487     0.01011    -0.00280
  
  S  C  26   0.25419    -0.26773     0.00067     0.03169     0.03404     0.23273
 PX  C  26   0.07128    -0.07282     0.00015    -0.00349     0.00843    -0.09412
 PY  C  26  -0.05420     0.05801    -0.00015    -0.00365     0.00981     0.04943
 PZ  C  26   0.01197    -0.00093    -0.00010    -0.02747     0.07109    -0.10516
  
  S  C  27   0.10373    -0.10946     0.00029     0.02306     0.02848     0.28009
 PX  C  27   0.03633    -0.03646     0.00007    -0.00019     0.01720     0.01426
 PY  C  27  -0.02994     0.03185    -0.00008    -0.00413    -0.00585    -0.03513
 PZ  C  27  -0.01535     0.02252    -0.00011    -0.01873     0.02592    -0.12393
  
  S  C  28   0.06093    -0.07032     0.00024     0.03287    -0.01325     0.31053
 PX  C  28   0.02468    -0.02816     0.00009     0.01107    -0.00421     0.09744
 PY  C  28  -0.01865     0.02164    -0.00007    -0.00935     0.00551    -0.07843
 PZ  C  28   0.00087     0.00045    -0.00001    -0.00392     0.00985    -0.01907
  
  S  C  29   0.05764    -0.06843     0.00025     0.03677    -0.03010     0.31063
 PX  C  29   0.01777    -0.02093     0.00007     0.00969    -0.00987     0.07006
 PY  C  29  -0.00954     0.01131    -0.00004    -0.00535     0.00673    -0.03500
 PZ  C  29   0.02175    -0.02529     0.00009     0.01128    -0.00516     0.10007
  
  S  C  30   0.08003    -0.09406     0.00033     0.04344    -0.05528     0.28850
 PX  C  30   0.00854    -0.00941     0.00003     0.00047    -0.01022    -0.03706
 PY  C  30   0.00122    -0.00173     0.00001     0.00292     0.00493     0.05088
 PZ  C  30   0.03964    -0.04564     0.00015     0.01669    -0.01561     0.11169
  
  S  C  31   0.02357     0.03127     0.01548     0.35282     0.12080    -0.05340
 PX  C  31  -0.00097    -0.00130    -0.00042    -0.01677    -0.00618     0.00279
 PY  C  31   0.00078     0.00084    -0.00225    -0.02984    -0.02126     0.01013
 PZ  C  31  -0.00889    -0.01107     0.00566     0.02154     0.04695    -0.02255
  
  S  C  32   0.01234     0.01685     0.01619     0.29500     0.13136    -0.05965
 PX  C  32   0.00255     0.00356     0.00441     0.07344     0.03425    -0.01557
 PY  C  32   0.00340     0.00469     0.00412     0.07964     0.03335    -0.01498
 PZ  C  32  -0.00290    -0.00357     0.00439     0.02859     0.03117    -0.01464
  
  S  C  33   0.00594     0.00857     0.02502     0.26202     0.14217    -0.06529
 PX  C  33   0.00088     0.00130     0.00625     0.04720     0.02674    -0.01230
 PY  C  33   0.00169     0.00246     0.00747     0.07729     0.04167    -0.01911
 PZ  C  33  -0.00223    -0.00311     0.00112    -0.06298    -0.02786     0.01263
  
  S  C  34   0.00500     0.00732     0.04772     0.25410     0.14533    -0.06692
 PX  C  34  -0.00085    -0.00123     0.00464    -0.03621    -0.01819     0.00830
 PY  C  34  -0.00043    -0.00064     0.00284    -0.02357    -0.01287     0.00591
 PZ  C  34  -0.00211    -0.00299     0.01179    -0.07044    -0.03164     0.01431
  
  S  S  35   0.00786     0.01088     0.02262     0.21790     0.10326    -0.04686
 PX  S  35  -0.00294    -0.00410    -0.00436    -0.08537    -0.03977     0.01802
 PY  S  35  -0.00251    -0.00360    -0.00761    -0.09905    -0.05109     0.02338
 PZ  S  35  -0.00298    -0.00389     0.00901    -0.01276     0.00856    -0.00446
  
  S  C  36   0.00154     0.00240     0.11281     0.11327     0.07637    -0.03553
 PX  C  36  -0.00020    -0.00027     0.02572    -0.01096    -0.00493     0.00223
 PY  C  36  -0.00002    -0.00001     0.02739     0.00149     0.00295    -0.00142
 PZ  C  36  -0.00067    -0.00097     0.03190    -0.04383    -0.02506     0.01153
  
  S  C  37   0.00077     0.00133     0.22549     0.05064     0.04021    -0.01886
 PX  C  37  -0.00011    -0.00016     0.02256    -0.01464    -0.00974     0.00453
 PY  C  37  -0.00011    -0.00018     0.00166    -0.01178    -0.00814     0.00379
 PZ  C  37  -0.00014    -0.00018     0.08313    -0.02696    -0.01724     0.00800
  
  S  C  38   0.00055     0.00113     0.51343    -0.02387    -0.00922     0.00414
 PX  C  38  -0.00000     0.00002     0.05411    -0.01313    -0.00966     0.00453
 PY  C  38  -0.00001     0.00001     0.03336    -0.01021    -0.00809     0.00381
 PZ  C  38   0.00001     0.00007     0.12495    -0.02507    -0.01703     0.00794
  
  S  O  39   0.00040     0.00084     0.41150    -0.02284    -0.00915     0.00411
 PX  O  39   0.00004     0.00010     0.06291    -0.00634    -0.00374     0.00173
 PY  O  39   0.00011     0.00025     0.13532    -0.01034    -0.00538     0.00247
 PZ  O  39  -0.00011    -0.00023    -0.09315     0.00125    -0.00105     0.00054
  
  S  O  40   0.00044     0.00098     0.57437    -0.05804    -0.03615     0.01680
 PX  O  40  -0.00007    -0.00016    -0.08705     0.00707     0.00395    -0.00182
 PY  O  40  -0.00011    -0.00025    -0.14553     0.01354     0.00803    -0.00372
 PZ  O  40   0.00000     0.00001     0.02616    -0.00637    -0.00471     0.00221
  
  S  C  41   0.00045     0.00076     0.11224     0.03529     0.02830    -0.01329
 PX  C  41  -0.00010    -0.00015    -0.00764    -0.00828    -0.00563     0.00262
 PY  C  41  -0.00015    -0.00026    -0.03044    -0.01090    -0.00762     0.00355
 PZ  C  41   0.00003     0.00007     0.04469    -0.00504    -0.00305     0.00141
  
  S  N  42   0.00017     0.00028     0.03928     0.01713     0.01457    -0.00687
 PX  N  42  -0.00004    -0.00007    -0.00705    -0.00445    -0.00359     0.00169
 PY  N  42  -0.00007    -0.00012    -0.01770    -0.00807    -0.00671     0.00316
 PZ  N  42   0.00004     0.00007     0.01575     0.00270     0.00249    -0.00118
  
  S  H  43   0.00057     0.00090     0.05238     0.04168     0.02835    -0.01319
  
  S  H  44   0.00641     0.00729    -0.00010    -0.00807    -0.02148     0.00653
  
  S  H  45   0.00434     0.00507    -0.00007    -0.00621    -0.01754     0.00537
  
  S  H  46   0.00631     0.00731    -0.00009    -0.00773    -0.02170     0.00666
  
  S  H  47   0.01396     0.01595    -0.00019    -0.01312    -0.03613     0.01110
  
  S  H  48   0.01423     0.01581    -0.00020    -0.01434    -0.03531     0.01062
  
  S  H  49   0.03822     0.03974    -0.00047    -0.02604    -0.04590     0.01340
  
  S  H  50   0.03599     0.04024    -0.00039    -0.01861    -0.05146     0.01623
  
  S  H  51   0.05141     0.05769    -0.00050    -0.01760    -0.05907     0.01906
  
  S  H  52   0.05343     0.05530    -0.00063    -0.03142    -0.04965     0.01377
  
  S  H  53   0.03384     0.04051     0.00128     0.07725    -0.01632     0.00631
  
  S  H  54   0.01437     0.01808     0.00132     0.08243     0.00388     0.00002
  
  S  H  55   0.02280     0.02557     0.00022     0.04633     0.00281     0.00170
  
  S  H  56   0.06606     0.00365    -0.00041    -0.04001     0.04647    -0.03482
  
  S  H  57   0.04606    -0.01998    -0.00014    -0.02808     0.08658    -0.01511
  
  S  H  58   0.02955     0.01665    -0.00025    -0.01999     0.06208    -0.01896
  
  S  H  59   0.03919    -0.03173     0.00002    -0.00271    -0.02671    -0.06993
  
  S  H  60   0.01437    -0.01589     0.00005     0.00730    -0.05817    -0.06240
  
  S  H  61   0.01315    -0.01557     0.00006     0.00895    -0.06245    -0.05845
  
  S  H  62   0.02170    -0.02561     0.00009     0.01242    -0.06545    -0.04022
  
  S  H  63   0.03714    -0.03403     0.00005    -0.00045     0.02931     0.06915
  
  S  H  64   0.01408    -0.01624     0.00006     0.00837    -0.00246     0.08576
  
  S  H  65   0.01303    -0.01572     0.00006     0.00983    -0.00870     0.08583
  
  S  H  66   0.02161    -0.02572     0.00009     0.01311    -0.02292     0.07405
  
  S  H  67   0.00564     0.00746     0.00414     0.09093     0.03465    -0.01567
  
  S  H  68   0.00145     0.00211     0.00888     0.07147     0.04043    -0.01862
  
  S  H  69   0.00018     0.00040     0.24201    -0.02569    -0.01621     0.00754




    ROOT NO.    7           8           9          10          11          12

           -42.27567   -41.23200   -40.06938   -39.60931   -39.08715   -37.17001
  
  
  S  C   1   0.11585     0.15054     0.25404    -0.09010     0.06399     0.22742
 PX  C   1   0.03726     0.04605     0.07243    -0.02486     0.01694     0.04918
 PY  C   1   0.02045     0.02396     0.03523    -0.01170     0.00764     0.01766
 PZ  C   1   0.00266     0.00358     0.00520    -0.00182     0.00125     0.00347
  
  S  C   2   0.18646     0.22251     0.33616    -0.11368     0.07618     0.20891
 PX  C   2  -0.00414    -0.01305    -0.03673     0.01504    -0.01229    -0.06388
 PY  C   2   0.04367     0.04355     0.04890    -0.01392     0.00714    -0.00956
 PZ  C   2   0.00073     0.00139    -0.00069     0.00029    -0.00032    -0.00365
  
  S  C   3   0.23147     0.22837     0.26476    -0.07885     0.04456     0.02901
 PX  C   3   0.03788     0.01905    -0.01523     0.01071    -0.01142    -0.07680
 PY  C   3  -0.01555    -0.04043    -0.09175     0.03461    -0.02568    -0.09081
 PZ  C   3  -0.00131     0.00206    -0.00592     0.00157    -0.00101    -0.00634
  
  S  C   4   0.23788     0.17229     0.07740    -0.00484    -0.01264    -0.19209
 PX  C   4  -0.03944    -0.04501    -0.06442     0.02094    -0.01329    -0.02392
 PY  C   4   0.03560    -0.01259    -0.09089     0.03696    -0.02846    -0.09165
 PZ  C   4  -0.00851     0.00432    -0.01144     0.00167    -0.00026    -0.00375
  
  S  N   5   0.19496     0.02382    -0.20916     0.08602    -0.06468    -0.16136
 PX  N   5  -0.02598    -0.01186     0.00359    -0.00313     0.00317     0.01306
 PY  N   5  -0.06434    -0.08698    -0.08697     0.01788    -0.00118     0.13940
 PZ  N   5  -0.02788     0.02226    -0.01953    -0.00331     0.00678     0.00553
  
  S  C   6  -0.11690     0.03859    -0.11324     0.00279     0.01422    -0.00373
 PX  C   6   0.00115    -0.00275    -0.00657     0.00273    -0.00206    -0.00417
 PY  C   6  -0.12094    -0.02672     0.02035    -0.03017     0.03389     0.12491
 PZ  C   6  -0.10705     0.07009     0.12292    -0.05097     0.03213    -0.07210
  
  S  C   7  -0.16047     0.11263     0.06346    -0.02620     0.00707    -0.16440
 PX  C   7   0.00275    -0.00289    -0.00381     0.00093    -0.00017     0.00123
 PY  C   7  -0.10813     0.02777     0.03304    -0.02700     0.02292    -0.00243
 PZ  C   7   0.00315    -0.00237     0.05093     0.00660    -0.01944    -0.02820
  
  S  C   8  -0.19431     0.11335     0.14326    -0.02365    -0.01293    -0.17586
 PX  C   8   0.00067    -0.00075    -0.00173    -0.00033     0.00076     0.00032
 PY  C   8  -0.04464     0.00397     0.00731    -0.02254     0.02644     0.03401
 PZ  C   8   0.11304    -0.03303    -0.00624     0.04772    -0.05389    -0.01367
  
  S  C   9  -0.23947     0.09330     0.11768    -0.06707     0.04991    -0.04517
 PX  C   9  -0.00247     0.00130     0.00128    -0.00024    -0.00015    -0.00253
 PY  C   9   0.06199    -0.03198    -0.03296     0.00986    -0.00125     0.04860
 PZ  C   9   0.08198    -0.01551    -0.00803     0.03229    -0.03730    -0.04874
  
  S  C  10  -0.25589     0.04696     0.07240    -0.08169     0.08235     0.11860
 PX  C  10  -0.00499     0.00126     0.00051    -0.00119     0.00121     0.00044
 PY  C  10   0.09603    -0.02320    -0.01388     0.02450    -0.02478    -0.01985
 PZ  C  10  -0.02275     0.03655     0.02940    -0.00985     0.00313    -0.07200
  
  S  C  11  -0.22448    -0.04314    -0.04466    -0.04088     0.06045     0.24345
 PX  C  11  -0.00131    -0.00052    -0.00507     0.00129    -0.00065    -0.00079
 PY  C  11  -0.01245     0.00779     0.07255    -0.02422     0.01581     0.01608
 PZ  C  11  -0.09362     0.08798     0.05514    -0.03923     0.03137    -0.07625
  
  S  C  12  -0.07967    -0.20385     0.03801    -0.01191     0.01596     0.25532
 PX  C  12   0.00013    -0.00157    -0.00795     0.00227    -0.00115     0.00165
 PY  C  12  -0.02677     0.02021     0.07379    -0.02723     0.01814     0.01086
 PZ  C  12  -0.02568     0.04336    -0.11543     0.01401     0.00534     0.06749
  
  S  C  13   0.05914    -0.14634    -0.01819     0.03226    -0.03092     0.00509
 PX  C  13   0.00001    -0.00085    -0.01323     0.00391    -0.00224    -0.00232
 PY  C  13  -0.07701    -0.08207     0.05732    -0.02222     0.01910     0.12621
 PZ  C  13   0.02363     0.00315    -0.15511     0.03831    -0.01482     0.07827
  
  S  C  14   0.02301    -0.04641     0.12482    -0.01240    -0.00977    -0.16553
 PX  C  14  -0.00008    -0.00179    -0.00477     0.00151    -0.00092    -0.00190
 PY  C  14  -0.02869    -0.04640     0.06495    -0.01401     0.00537    -0.00051
 PZ  C  14   0.02964    -0.06271     0.00116     0.00903    -0.00911     0.03612
  
  S  C  15  -0.03767     0.04529     0.13224    -0.02896     0.00644    -0.19113
 PX  C  15   0.00001    -0.00285     0.00104     0.00017    -0.00039    -0.00204
 PY  C  15  -0.01042    -0.03413     0.02899    -0.00769     0.00490     0.03616
 PZ  C  15   0.00150    -0.14650     0.10846    -0.01599     0.00194     0.03767
  
  S  C  16  -0.04522    -0.08296     0.18791    -0.04142     0.01531    -0.04292
 PX  C  16  -0.00073    -0.00256     0.00263    -0.00039     0.00003     0.00166
 PY  C  16   0.00932     0.00755    -0.04313     0.00785    -0.00082     0.04527
 PZ  C  16  -0.01056    -0.08273     0.06292    -0.01183     0.00480     0.06482
  
  S  C  17  -0.06383    -0.16609     0.18040    -0.04330     0.02341     0.13391
 PX  C  17  -0.00112    -0.00356     0.00129    -0.00020     0.00013     0.00372
 PY  C  17   0.01522     0.06395    -0.05266     0.00909    -0.00282    -0.03106
 PZ  C  17  -0.00925     0.00007    -0.04635     0.00616     0.00266     0.06966
  
  S  N  18  -0.03068     0.30736    -0.14339     0.01877    -0.00225    -0.05758
 PX  N  18  -0.00104    -0.00051     0.00135     0.00000    -0.00037    -0.00813
 PY  N  18  -0.00244    -0.00686     0.01700    -0.00409     0.00166    -0.01883
 PZ  N  18  -0.00798    -0.02480     0.08431    -0.01734     0.00362    -0.15337
  
  S  C  19  -0.00571     0.04508    -0.05354     0.00946    -0.00197     0.01935
 PX  C  19   0.00516    -0.11926     0.08758    -0.01477     0.00273    -0.08262
 PY  C  19  -0.00632     0.10879    -0.07131     0.01148    -0.00197     0.04897
 PZ  C  19  -0.00787     0.08104    -0.00987    -0.00048    -0.00012    -0.09263
  
  S  C  20   0.00267    -0.11533     0.07977    -0.01348     0.00207    -0.13339
 PX  C  20   0.00189    -0.02498     0.01583    -0.00265     0.00068    -0.00480
 PY  C  20  -0.00264     0.03531    -0.02070     0.00330    -0.00070     0.00843
 PZ  C  20  -0.00273     0.07755    -0.03467     0.00543    -0.00148     0.00580
  
  S  C  21   0.00687    -0.19361     0.11929    -0.01993     0.00406    -0.12348
 PX  C  21  -0.00200     0.05351    -0.02885     0.00457    -0.00090     0.01900
 PY  C  21   0.00116    -0.03403     0.01855    -0.00295     0.00055    -0.01554
 PZ  C  21  -0.00126     0.03344    -0.01594     0.00254    -0.00075    -0.00725
  
  S  C  22   0.00799    -0.20815     0.11925    -0.01952     0.00427    -0.07159
 PX  C  22  -0.00186     0.03946    -0.01727     0.00246    -0.00053    -0.00976
 PY  C  22   0.00177    -0.04117     0.01961    -0.00295     0.00063     0.00055
 PZ  C  22   0.00157    -0.04736     0.02808    -0.00467     0.00095    -0.03254
  
  S  C  23   0.00991    -0.19261     0.08832    -0.01297     0.00280     0.02843
 PX  C  23  -0.00025    -0.02816     0.02596    -0.00490     0.00112    -0.04623
 PY  C  23   0.00073     0.00883    -0.01471     0.00302    -0.00069     0.03641
 PZ  C  23   0.00262    -0.06135     0.02587    -0.00373     0.00081     0.00149
  
  S  C  24   0.00945    -0.08515    -0.02033     0.00709    -0.00146     0.16887
 PX  C  24  -0.00055    -0.06817     0.05400    -0.00967     0.00211    -0.06429
 PY  C  24  -0.00052     0.06576    -0.05252     0.00927    -0.00193     0.05525
 PZ  C  24  -0.00413     0.06245    -0.04925     0.00824    -0.00154     0.01874
  
  S  C  25   0.02465    -0.08106    -0.02279     0.00832    -0.00255     0.16276
 PX  C  25  -0.00969     0.06866    -0.05493     0.00924    -0.00140     0.07037
 PY  C  25   0.00643    -0.03747     0.03051    -0.00521     0.00080    -0.04740
 PZ  C  25  -0.00460     0.07834    -0.06185     0.01025    -0.00166     0.03844
  
  S  C  26   0.00886     0.04678    -0.05344     0.00908    -0.00130     0.03068
 PX  C  26  -0.01240     0.12180    -0.08776     0.01441    -0.00237     0.08034
 PY  C  26   0.00531    -0.07350     0.06399    -0.01133     0.00225    -0.07486
 PZ  C  26  -0.01775     0.10585    -0.02836     0.00155     0.00080    -0.06063
  
  S  C  27   0.01959    -0.11324     0.08014    -0.01399     0.00288    -0.12093
 PX  C  27  -0.00218     0.02777    -0.01673     0.00238    -0.00014     0.01088
 PY  C  27  -0.00151    -0.00592     0.00728    -0.00131     0.00025    -0.00609
 PZ  C  27  -0.01424     0.08004    -0.03624     0.00462    -0.00015     0.01767
  
  S  C  28   0.02942    -0.18785     0.11614    -0.01839     0.00272    -0.12972
 PX  C  28   0.00881    -0.05061     0.02741    -0.00408     0.00055    -0.02029
 PY  C  28  -0.00744     0.04265    -0.02235     0.00323    -0.00036     0.01435
 PZ  C  28  -0.00320     0.02007    -0.00829     0.00084     0.00016    -0.00508
  
  S  C  29   0.03170    -0.20124     0.11475    -0.01717     0.00205    -0.08713
 PX  C  29   0.00714    -0.04047     0.01775    -0.00221     0.00012     0.00529
 PY  C  29  -0.00375     0.02074    -0.00771     0.00079     0.00004    -0.01024
 PZ  C  29   0.00936    -0.05529     0.03140    -0.00479     0.00065    -0.03222
  
  S  C  30   0.03126    -0.18633     0.08416    -0.01079     0.00072     0.01357
 PX  C  30  -0.00294     0.02446    -0.02422     0.00440    -0.00074     0.04922
 PY  C  30   0.00439    -0.02945     0.02250    -0.00381     0.00058    -0.03628
 PZ  C  30   0.01080    -0.05303     0.01865    -0.00195    -0.00002     0.00946
  
  S  C  31   0.12117     0.00764     0.07711     0.10069    -0.13223    -0.09262
 PX  C  31  -0.00822    -0.00025    -0.00447    -0.00902     0.01266     0.00604
 PY  C  31  -0.05133     0.01309     0.00728    -0.02626     0.02832    -0.01019
 PZ  C  31   0.13080    -0.05056    -0.04371     0.04436    -0.03249     0.08494
  
  S  C  32   0.20253    -0.03346     0.02513     0.12041    -0.14254    -0.00272
 PX  C  32   0.05422    -0.01052     0.00340     0.02805    -0.03045     0.00341
 PY  C  32   0.04502    -0.00573     0.01083     0.02798    -0.03226    -0.00973
 PZ  C  32   0.07482    -0.02974    -0.02623     0.02126    -0.01457     0.06187
  
  S  C  33   0.25948    -0.07054    -0.03653     0.07886    -0.08017     0.09683
 PX  C  33   0.05032    -0.01519    -0.01298     0.00343     0.00242     0.02078
 PY  C  33   0.07492    -0.02037    -0.01088     0.02039    -0.01467     0.02369
 PZ  C  33  -0.04112     0.00414    -0.01820    -0.05400     0.06136     0.00908
  
  S  C  34   0.27768    -0.08684    -0.08773    -0.01573     0.06268     0.10785
 PX  C  34  -0.03000     0.00532    -0.00989    -0.03933     0.05696    -0.01568
 PY  C  34  -0.02327     0.00528    -0.00352    -0.02206     0.04388    -0.01992
 PZ  C  34  -0.04525     0.00327    -0.03218    -0.09386     0.10428    -0.00057
  
  S  S  35   0.16387    -0.03787    -0.01100     0.04333    -0.00703     0.01074
 PX  S  35  -0.06117     0.01193    -0.00601    -0.03369     0.04447    -0.00956
 PY  S  35  -0.08878     0.02167     0.00524    -0.03489     0.04001    -0.02412
 PZ  S  35   0.04083    -0.02227    -0.04090    -0.02753     0.06781     0.03528
  
  S  C  36   0.16753    -0.06960    -0.13873    -0.23156     0.22290     0.06070
 PX  C  36  -0.00654    -0.00076    -0.01444    -0.04457     0.04631    -0.01581
 PY  C  36   0.00988    -0.00693    -0.02336    -0.04453     0.07965    -0.01158
 PZ  C  36  -0.04726     0.01341     0.00138    -0.06186    -0.01939    -0.03036
  
  S  C  37   0.09807    -0.04846    -0.12101    -0.20525     0.32888    -0.01149
 PX  C  37  -0.02143     0.00912     0.02174     0.06475     0.01593    -0.01542
 PY  C  37  -0.01835     0.00823     0.02416     0.09943     0.06485    -0.02274
 PZ  C  37  -0.03684     0.01463     0.02365     0.00347    -0.09654    -0.00382
  
  S  C  38  -0.01194    -0.00041    -0.02484    -0.13365    -0.05086    -0.01401
 PX  C  38  -0.02384     0.01320     0.05200     0.20909     0.05251     0.01780
 PY  C  38  -0.02123     0.01329     0.06653     0.32526     0.16241     0.02808
 PZ  C  38  -0.03891     0.01779     0.03510    -0.00112    -0.19900    -0.00121
  
  S  O  39  -0.01108    -0.00345    -0.07176    -0.47741    -0.35716    -0.04938
 PX  O  39  -0.00782     0.00311     0.00440    -0.00899    -0.03662    -0.00164
 PY  O  39  -0.00998     0.00283    -0.00472    -0.06965    -0.08116    -0.00715
 PZ  O  39  -0.00533     0.00495     0.02853     0.13769     0.06022     0.01131
  
  S  O  40  -0.08087     0.03946     0.13618     0.50459     0.07663     0.05190
 PX  O  40   0.00805    -0.00331    -0.00911    -0.03210    -0.00847    -0.00084
 PY  O  40   0.01717    -0.00760    -0.02120    -0.06273     0.00958    -0.00536
 PZ  O  40  -0.01157     0.00611     0.01749     0.03227    -0.05565     0.00994
  
  S  C  41   0.07021    -0.03610    -0.08820    -0.05667     0.49583    -0.12380
 PX  C  41  -0.01229     0.00488     0.00884     0.02312     0.02066    -0.02980
 PY  C  41  -0.01671     0.00647     0.01020     0.02796     0.04696    -0.06126
 PZ  C  41  -0.00658     0.00302     0.00904     0.02028    -0.03356     0.03333
  
  S  N  42   0.03805    -0.02154    -0.05900    -0.02579     0.41831    -0.16013
 PX  N  42  -0.00904     0.00479     0.01232     0.00832    -0.07356     0.02413
 PY  N  42  -0.01714     0.00928     0.02405     0.01229    -0.15552     0.05189
 PZ  N  42   0.00675    -0.00399    -0.01074     0.00224     0.09323    -0.03293
  
  S  H  43   0.06253    -0.02620    -0.05470    -0.11060     0.05318     0.02654
  
  S  H  44   0.04968     0.06411     0.10827    -0.03836     0.02723     0.09728
  
  S  H  45   0.04101     0.05483     0.09565    -0.03440     0.02484     0.09416
  
  S  H  46   0.04942     0.06424     0.10804    -0.03834     0.02725     0.09736
  
  S  H  47   0.07700     0.09210     0.13698    -0.04623     0.03085     0.08238
  
  S  H  48   0.07778     0.09146     0.13751    -0.04619     0.03074     0.08210
  
  S  H  49   0.09805     0.09123     0.10924    -0.03169     0.01748     0.01096
  
  S  H  50   0.09346     0.09523     0.10641    -0.03212     0.01835     0.01325
  
  S  H  51   0.08875     0.07711     0.03983    -0.00607    -0.00213    -0.07673
  
  S  H  52   0.09718     0.06875     0.04436    -0.00527    -0.00350    -0.07724
  
  S  H  53  -0.01841     0.04346     0.02379     0.00274    -0.01249    -0.08539
  
  S  H  54  -0.06228     0.02768     0.04206    -0.01620     0.00936    -0.02239
  
  S  H  55  -0.07414     0.00540     0.02562    -0.02641     0.02730     0.05843
  
  S  H  56   0.02446     0.01385     0.03217    -0.00144    -0.00565    -0.09055
  
  S  H  57  -0.01456    -0.00925     0.05279    -0.01296     0.00544    -0.02677
  
  S  H  58  -0.02671    -0.04926     0.05449    -0.01611     0.01106     0.06273
  
  S  H  59   0.00086    -0.02098     0.02646    -0.00452     0.00015    -0.06803
  
  S  H  60   0.00203    -0.05750     0.03832    -0.00656     0.00132    -0.04841
  
  S  H  61   0.00235    -0.06274     0.03808    -0.00637     0.00142    -0.02657
  
  S  H  62   0.00375    -0.06067     0.02718    -0.00387     0.00081     0.01943
  
  S  H  63   0.00190    -0.02274     0.02915    -0.00606     0.00173    -0.05509
  
  S  H  64   0.00819    -0.05596     0.03751    -0.00616     0.00098    -0.04992
  
  S  H  65   0.00905    -0.06069     0.03667    -0.00562     0.00070    -0.03222
  
  S  H  66   0.00911    -0.05901     0.02602    -0.00324     0.00020     0.01454
  
  S  H  67   0.04797    -0.00242     0.01543     0.03562    -0.04627    -0.01757
  
  S  H  68   0.07668    -0.02256    -0.01662     0.01343    -0.01620     0.03657
  
  S  H  69  -0.03651     0.01779     0.05800     0.19325    -0.00790     0.02281




    ROOT NO.   13          14          15          16          17          18

           -36.26938   -35.58651   -33.91950   -33.76019   -32.75872   -32.54128
  
  
  S  C   1   0.01107    -0.15995    -0.25017     0.04803     0.12230    -0.05266
 PX  C   1   0.00209    -0.02658    -0.02521     0.00445     0.00559    -0.00161
 PY  C   1   0.00063    -0.00611     0.00214    -0.00026    -0.00557     0.00227
 PZ  C   1   0.00011    -0.00185    -0.00169    -0.00163     0.00086     0.00243
  
  S  C   2   0.00865    -0.10953    -0.10740     0.01815     0.03044    -0.00970
 PX  C   2  -0.00356     0.05538     0.10091    -0.02003    -0.05293     0.02376
 PY  C   2  -0.00122     0.02598     0.06948    -0.01345    -0.04268     0.01798
 PZ  C   2  -0.00036     0.00357     0.00693    -0.00774    -0.00200     0.00976
  
  S  C   3  -0.00103     0.04007     0.14073    -0.02941    -0.08855     0.03314
 PX  C   3  -0.00430     0.06426     0.10212    -0.02169    -0.04530     0.01734
 PY  C   3  -0.00397     0.05469     0.05960    -0.00961    -0.01823     0.00044
 PZ  C   3  -0.00113     0.00333     0.00385    -0.02260     0.00536     0.02688
  
  S  C   4  -0.01196     0.17127     0.26791    -0.06593    -0.10955     0.04677
 PX  C   4  -0.00074    -0.00036    -0.03260     0.00588     0.02806    -0.00857
 PY  C   4  -0.00382     0.03798     0.00551    -0.00533     0.01779    -0.02127
 PZ  C   4  -0.00315    -0.00406    -0.01202    -0.05274     0.02826     0.06627
  
  S  N   5  -0.00731     0.03710    -0.00615    -0.03386     0.01439    -0.05052
 PX  N   5   0.00028    -0.00898    -0.01748     0.00483     0.01168     0.00366
 PY  N   5   0.00913    -0.14022    -0.18608     0.03481     0.04869    -0.04852
 PZ  N   5  -0.01849    -0.03112    -0.01873    -0.11721     0.07980     0.16302
  
  S  C   6  -0.05357    -0.07694    -0.08565    -0.11170     0.20562     0.20890
 PX  C   6   0.00038    -0.00007    -0.00991    -0.00329     0.00711     0.00383
 PY  C   6  -0.01814    -0.08508     0.02650     0.06965    -0.01516    -0.06340
 PZ  C   6  -0.01620     0.09088     0.04444    -0.01956     0.06821     0.11507
  
  S  C   7   0.00704     0.11406    -0.17748    -0.13479     0.16016     0.27058
 PX  C   7  -0.00102    -0.00128     0.00009    -0.00012     0.00143    -0.00044
 PY  C   7  -0.01551     0.00622    -0.00061     0.02641     0.02267    -0.01703
 PZ  C   7   0.05367     0.04751    -0.08936     0.02923    -0.10420    -0.08495
  
  S  C   8   0.07327     0.15913    -0.21321    -0.00229    -0.08226    -0.06088
 PX  C   8  -0.00187     0.00039    -0.00090    -0.00085     0.00251     0.00130
 PY  C   8  -0.03423    -0.01531     0.12807     0.07603    -0.04117    -0.13841
 PZ  C   8   0.07136     0.00801    -0.09575     0.00528    -0.13101    -0.10202
  
  S  C   9  -0.02943     0.06867     0.15672     0.12760    -0.09830    -0.23938
 PX  C   9   0.00084     0.00212    -0.00503    -0.00041     0.00007    -0.00039
 PY  C   9  -0.01383    -0.04121     0.08881     0.01492    -0.01257    -0.02340
 PZ  C   9   0.05354     0.03880    -0.14535    -0.02586    -0.05399    -0.02292
  
  S  C  10  -0.08427    -0.06286     0.34699     0.11298    -0.06363    -0.13104
 PX  C  10  -0.00145    -0.00084     0.00076     0.00101     0.00271     0.00020
 PY  C  10   0.02646     0.02046    -0.02498    -0.00917    -0.04363    -0.02282
 PZ  C  10  -0.00658     0.05615     0.01570     0.04170     0.01021    -0.07976
  
  S  C  11  -0.05375    -0.18854     0.10798     0.01556    -0.01207     0.02443
 PX  C  11  -0.00076    -0.00319    -0.00922    -0.00052     0.00777     0.00190
 PY  C  11  -0.00057     0.03528     0.15086     0.02851    -0.09819    -0.04203
 PZ  C  11  -0.05432     0.03906     0.12348     0.03379     0.08855     0.00385
  
  S  C  12   0.07499    -0.04467    -0.03808    -0.03612    -0.17166     0.03763
 PX  C  12  -0.00079    -0.00659    -0.00945     0.00671     0.00450    -0.00583
 PY  C  12   0.00218     0.04491     0.11642    -0.08972    -0.06774     0.10717
 PZ  C  12  -0.04495    -0.14522    -0.00113     0.01542     0.01632    -0.02759
  
  S  C  13   0.05631     0.05093    -0.10758     0.19513    -0.03701    -0.20640
 PX  C  13  -0.00190    -0.00707    -0.00897     0.00564     0.00251    -0.00459
 PY  C  13   0.02995    -0.02830    -0.05083    -0.05293    -0.02236     0.07902
 PZ  C  13  -0.00716    -0.11936    -0.06416    -0.09795    -0.03003     0.01005
  
  S  C  14  -0.01465     0.09026    -0.01213     0.32720     0.10518    -0.15770
 PX  C  14  -0.00154    -0.00409    -0.00392     0.01585    -0.01013     0.00962
 PY  C  14   0.01017     0.02465    -0.02021    -0.00640     0.04881     0.01583
 PZ  C  14   0.05385     0.07781    -0.00818     0.00865    -0.07408    -0.07778
  
  S  C  15  -0.08899    -0.04119     0.00628     0.04991     0.23986    -0.02133
 PX  C  15   0.00076     0.00312    -0.00471     0.04975    -0.01031     0.02987
 PY  C  15   0.02140     0.02635     0.02417    -0.20207    -0.01140     0.04360
 PZ  C  15   0.07775     0.15332     0.00095     0.05591    -0.04421    -0.00051
  
  S  C  16   0.01265     0.08867     0.06654    -0.25895     0.05604     0.12797
 PX  C  16   0.00325     0.00669    -0.00140     0.01806     0.00059     0.01278
 PY  C  16   0.01405    -0.00251     0.01571    -0.04928    -0.07897     0.03755
 PZ  C  16   0.06047     0.09267     0.01492    -0.01038    -0.09737     0.07562
  
  S  C  17   0.08700     0.12225     0.08989    -0.22346    -0.17922     0.20361
 PX  C  17   0.00202     0.00121    -0.00184     0.00536    -0.00243     0.00230
 PY  C  17  -0.02782    -0.03254     0.02071    -0.01666     0.01488     0.00360
 PZ  C  17   0.00068    -0.05582    -0.00129     0.05915    -0.06688    -0.02581
  
  S  N  18  -0.08539    -0.15545    -0.01248    -0.01470     0.05864    -0.00677
 PX  N  18  -0.00353    -0.00124    -0.00930     0.12047    -0.02504     0.09207
 PY  N  18  -0.01552    -0.02011     0.01164    -0.13070     0.05479    -0.06170
 PZ  N  18  -0.09825    -0.10078     0.00244     0.04533     0.17945    -0.00953
  
  S  C  19  -0.00579    -0.03703    -0.02338     0.14706    -0.17265     0.15903
 PX  C  19  -0.05541    -0.06949    -0.00540     0.02809    -0.02938     0.05394
 PY  C  19   0.02756     0.02846     0.00122    -0.01520     0.01768    -0.02217
 PZ  C  19  -0.08028    -0.11907    -0.01490     0.09242    -0.00169     0.06376
  
  S  C  20  -0.11361    -0.17983    -0.03339     0.17330    -0.23421     0.23785
 PX  C  20  -0.00322    -0.00521     0.00264    -0.04587    -0.00243    -0.01596
 PY  C  20   0.00512     0.00699    -0.00222     0.03685     0.00602     0.01500
 PZ  C  20   0.00666     0.01479     0.00046     0.04376     0.03034    -0.00135
  
  S  C  21  -0.10199    -0.15889    -0.01565    -0.02086    -0.12438     0.07373
 PX  C  21   0.01351     0.01880     0.00216    -0.00631     0.01968    -0.01603
 PY  C  21  -0.01237    -0.01921    -0.00408     0.02172    -0.03701     0.03632
 PZ  C  21  -0.01017    -0.02177    -0.01092     0.08532    -0.09928     0.10823
  
  S  C  22  -0.04562    -0.05165     0.01382    -0.16479     0.15283    -0.17538
 PX  C  22  -0.01476    -0.03133    -0.00756     0.02390    -0.06369     0.04827
 PY  C  22   0.00493     0.01295     0.00394    -0.01597     0.02998    -0.02363
 PZ  C  22  -0.03000    -0.05202    -0.00904     0.01558    -0.09126     0.06477
  
  S  C  23   0.05210     0.11721     0.03356    -0.13686     0.29327    -0.22517
 PX  C  23  -0.04087    -0.06491    -0.00291    -0.04478    -0.00137    -0.03321
 PY  C  23   0.03253     0.05156     0.00241     0.03126    -0.00332     0.02658
 PZ  C  23   0.00321     0.00504     0.00054    -0.01367    -0.02101     0.00214
  
  S  C  24   0.14931     0.23315     0.02184    -0.00870     0.07600    -0.04931
 PX  C  24  -0.04897    -0.06791    -0.00118    -0.03634     0.01850    -0.02954
 PY  C  24   0.03762     0.04532    -0.00221     0.03187    -0.04996     0.04089
 PZ  C  24  -0.00619    -0.04024    -0.01602     0.03060    -0.16948     0.07910
  
  S  C  25   0.14791     0.23413     0.01539     0.07752     0.05056     0.03869
 PX  C  25   0.05012     0.06564     0.00570    -0.03171    -0.00790    -0.02948
 PY  C  25  -0.03814    -0.05704    -0.00538     0.00252    -0.02100     0.01306
 PZ  C  25   0.00679    -0.02511    -0.00583    -0.09501    -0.13347    -0.05548
  
  S  C  26  -0.00220    -0.03961     0.00307    -0.19913    -0.08270    -0.13334
 PX  C  26   0.05222     0.06440     0.00075     0.03408     0.00195     0.04801
 PY  C  26  -0.05373    -0.07114     0.00120    -0.05799     0.00964    -0.04408
 PZ  C  26  -0.06428    -0.10572     0.00077    -0.10124     0.04079    -0.06000
  
  S  C  27  -0.10977    -0.18303    -0.00158    -0.25583    -0.10370    -0.20481
 PX  C  27   0.00512     0.00483     0.00474    -0.04506     0.01765    -0.01872
 PY  C  27  -0.00269    -0.00126    -0.00098     0.01961    -0.00387     0.01404
 PZ  C  27   0.01013     0.01459     0.00726    -0.04012     0.03935    -0.01160
  
  S  C  28  -0.10325    -0.15835    -0.01518    -0.04024    -0.09395    -0.05148
 PX  C  28  -0.01413    -0.01998    -0.00071    -0.01814    -0.01342    -0.01731
 PY  C  28   0.00846     0.00983     0.00141    -0.00934     0.00232    -0.00540
 PZ  C  28  -0.01150    -0.02787     0.00320    -0.11245    -0.04287    -0.09834
  
  S  C  29  -0.04967    -0.04867    -0.01254     0.18510     0.05403     0.15406
 PX  C  29   0.01267     0.02963     0.00214     0.04506     0.03683     0.03578
 PY  C  29  -0.01499    -0.03161    -0.00241    -0.04254    -0.03867    -0.03560
 PZ  C  29  -0.02706    -0.04515    -0.00434    -0.03584    -0.05208    -0.04037
  
  S  C  30   0.04817     0.12018     0.00600     0.23439     0.17653     0.17764
 PX  C  30   0.04198     0.06497     0.00822    -0.02591     0.02090    -0.03514
 PY  C  30  -0.03014    -0.04632    -0.00622     0.02034    -0.01980     0.02649
 PZ  C  30   0.01227     0.02075     0.00042     0.00466    -0.01745    -0.00543
  
  S  C  31   0.16004     0.03937    -0.20486    -0.01091    -0.16478    -0.10182
 PX  C  31  -0.01680     0.00310     0.01790     0.00904     0.00143    -0.01720
 PY  C  31  -0.01992     0.02846     0.00558     0.02586    -0.03089    -0.06819
 PZ  C  31  -0.01456    -0.09833     0.13928     0.01488     0.04825     0.01482
  
  S  C  32   0.11998    -0.06446    -0.04171    -0.02366    -0.02854     0.02975
 PX  C  32   0.02105    -0.01404    -0.00290     0.00017    -0.01082    -0.00849
 PY  C  32   0.03330    -0.00174    -0.03320     0.00080    -0.03772    -0.02939
 PZ  C  32  -0.02988    -0.06436     0.13096     0.02010     0.06452     0.01751
  
  S  C  33  -0.03407    -0.10047     0.17797     0.01282     0.12266     0.07555
 PX  C  33  -0.02811    -0.00558     0.03236     0.00612     0.02055     0.00240
 PY  C  33  -0.01094    -0.01934     0.03488     0.00683     0.01274    -0.00317
 PZ  C  33  -0.08006     0.03949     0.02301     0.00709     0.03733     0.00959
  
  S  C  34  -0.17386    -0.01080     0.14917     0.02074     0.11292     0.04228
 PX  C  34  -0.02687     0.04079    -0.04729    -0.00403    -0.02756    -0.01636
 PY  C  34   0.00092     0.02757    -0.05059    -0.00275    -0.04263    -0.02879
 PZ  C  34  -0.11503     0.08037    -0.03091    -0.00547     0.01915     0.01861
  
  S  S  35   0.02694    -0.01883     0.00953     0.02262    -0.05101    -0.07943
 PX  S  35  -0.01578     0.01508    -0.00561    -0.00732     0.01962     0.02598
 PY  S  35   0.00203     0.02226    -0.02153    -0.00317    -0.00230     0.00370
 PZ  S  35  -0.06134    -0.01209     0.06323    -0.00298     0.06690     0.05239
  
  S  C  36  -0.31050     0.15575    -0.03727    -0.00447     0.02271     0.01606
 PX  C  36  -0.01416     0.03481    -0.06190    -0.00754    -0.04744    -0.02137
 PY  C  36  -0.03407     0.04390    -0.06294    -0.00725    -0.04706    -0.02243
 PZ  C  36   0.02739     0.02442    -0.07782    -0.01048    -0.06225    -0.02470
  
  S  C  37  -0.19878     0.16997    -0.17829    -0.02271    -0.11237    -0.04463
 PX  C  37   0.05761    -0.02510    -0.00152    -0.00052    -0.01195    -0.00570
 PY  C  37   0.07893    -0.03536     0.00446     0.00031    -0.00965    -0.00541
 PZ  C  37   0.02847    -0.00997    -0.01643    -0.00264    -0.02209    -0.00864
  
  S  C  38   0.00333     0.01962    -0.04980    -0.00665    -0.04300    -0.01792
 PX  C  38  -0.02773     0.00185     0.01370     0.00182     0.01123     0.00460
 PY  C  38  -0.09336     0.04362    -0.02321    -0.00297    -0.01233    -0.00447
 PZ  C  38   0.12463    -0.10081     0.10999     0.01433     0.07351     0.02868
  
  S  O  39   0.21689    -0.11565     0.07080     0.00902     0.03444     0.01181
 PX  O  39   0.02263    -0.01614     0.01491     0.00195     0.00896     0.00328
 PY  O  39   0.04424    -0.02648     0.01902     0.00245     0.00990     0.00346
 PZ  O  39  -0.02242     0.00349     0.01019     0.00142     0.00988     0.00404
  
  S  O  40  -0.09245     0.01670     0.02796     0.00380     0.02785     0.01209
 PX  O  40   0.00433    -0.00412     0.00890     0.00122     0.00901     0.00389
 PY  O  40   0.00181     0.00323    -0.00392    -0.00049    -0.00081    -0.00005
 PZ  O  40   0.01226    -0.02379     0.04374     0.00587     0.03647     0.01501
  
  S  C  41   0.25005    -0.07439    -0.01068    -0.00240    -0.01991    -0.00778
 PX  C  41   0.11934    -0.06392     0.04142     0.00472     0.02295     0.01023
 PY  C  41   0.24650    -0.13437     0.09406     0.01110     0.05533     0.02388
 PZ  C  41  -0.13778     0.08005    -0.06943    -0.00872    -0.04663    -0.01906
  
  S  N  42   0.46344    -0.20919     0.10647     0.01190     0.05590     0.02460
 PX  N  42  -0.06438     0.02754    -0.01299    -0.00148    -0.00667    -0.00276
 PY  N  42  -0.13914     0.05916    -0.02591    -0.00280    -0.01235    -0.00538
 PZ  N  42   0.08931    -0.03711     0.01235     0.00110     0.00373     0.00209
  
  S  H  43  -0.11911     0.05496    -0.00275    -0.00094     0.02099     0.01422
  
  S  H  44   0.00479    -0.06902    -0.10973     0.02249     0.05417    -0.02539
  
  S  H  45   0.00473    -0.07029    -0.11781     0.02264     0.06073    -0.02620
  
  S  H  46   0.00475    -0.06920    -0.11021     0.02013     0.05513    -0.02233
  
  S  H  47   0.00328    -0.04202    -0.03917     0.00225     0.01122     0.00285
  
  S  H  48   0.00338    -0.04152    -0.03759     0.00981     0.00810    -0.00671
  
  S  H  49   0.00028     0.01617     0.05260     0.00652    -0.03674    -0.00720
  
  S  H  50  -0.00072     0.01270     0.04709    -0.02233    -0.02604     0.02715
  
  S  H  51  -0.00590     0.07005     0.10542    -0.05564    -0.03123     0.06343
  
  S  H  52  -0.00400     0.07386     0.11848     0.00341    -0.05853    -0.00965
  
  S  H  53   0.02048     0.06083    -0.09523    -0.07810     0.04883     0.13214
  
  S  H  54   0.00185     0.03219     0.05324     0.05812    -0.07497    -0.13649
  
  S  H  55  -0.02566    -0.02652     0.15453     0.04166    -0.05787    -0.06160
  
  S  H  56  -0.02332     0.01804     0.01070     0.16640     0.03032    -0.06519
  
  S  H  57  -0.01114     0.00586     0.03323    -0.15024     0.02778     0.04474
  
  S  H  58   0.02764     0.03247     0.05809    -0.10501    -0.09281     0.09471
  
  S  H  59  -0.05373    -0.07946    -0.01538     0.10987    -0.09425     0.10941
  
  S  H  60  -0.04162    -0.06670    -0.00721    -0.00544    -0.05748     0.03586
  
  S  H  61  -0.01753    -0.02004     0.00649    -0.07408     0.07874    -0.08716
  
  S  H  62   0.02974     0.06461     0.01656    -0.05045     0.15669    -0.10401
  
  S  H  63  -0.05039    -0.08201     0.00386    -0.14252    -0.02999    -0.09842
  
  S  H  64  -0.04192    -0.06664    -0.00638    -0.02215    -0.04221    -0.02579
  
  S  H  65  -0.01909    -0.01885    -0.00534     0.08468     0.03063     0.07566
  
  S  H  66   0.02838     0.06570     0.00526     0.10340     0.10489     0.07723
  
  S  H  67   0.04964    -0.00784    -0.04646    -0.01936    -0.01412     0.02615
  
  S  H  68  -0.03082    -0.02821     0.07304     0.00439     0.06180     0.04059
  
  S  H  69  -0.02118    -0.00982     0.03580     0.00481     0.03105     0.01297




    ROOT NO.   19          20          21          22          23          24

           -31.51192   -30.78142   -30.39285   -30.11793   -29.15822   -28.40618
  
  
  S  C   1  -0.09752    -0.17479    -0.06343     0.25841     0.13184     0.02952
 PX  C   1   0.00240     0.01254     0.00620    -0.03083    -0.02613    -0.00768
 PY  C   1   0.00845     0.02068     0.00875    -0.03748    -0.02447    -0.00708
 PZ  C   1   0.00101     0.00132    -0.00002    -0.00281    -0.00315     0.00089
  
  S  C   2  -0.00445     0.01031     0.00694    -0.04287    -0.04248    -0.01180
 PX  C   2   0.04418     0.07919     0.02837    -0.11628    -0.05736    -0.01143
 PY  C   2   0.03986     0.07648     0.02883    -0.11896    -0.06299    -0.01541
 PZ  C   2   0.00556     0.00683     0.00061    -0.00996    -0.00772     0.00327
  
  S  C   3   0.08199     0.14099     0.05140    -0.22116    -0.11443    -0.03083
 PX  C   3   0.02879     0.02810     0.00579    -0.02642     0.00263     0.00294
 PY  C   3   0.00225    -0.01443    -0.00734     0.03446     0.02995     0.00449
 PZ  C   3   0.00727    -0.00026    -0.00624     0.00246    -0.00557     0.01257
  
  S  C   4   0.06573     0.03233    -0.00395    -0.00585     0.03780     0.01586
 PX  C   4  -0.03186    -0.06318    -0.02501     0.10826     0.06269     0.01899
 PY  C   4  -0.02809    -0.10423    -0.04394     0.15069     0.07752     0.00679
 PZ  C   4   0.00831    -0.00806    -0.01680     0.01978    -0.01053     0.03611
  
  S  N   5   0.01028    -0.19511    -0.09583     0.18967     0.05679    -0.03770
 PX  N   5  -0.01165    -0.00288     0.00012     0.01436     0.00841     0.00960
 PY  N   5   0.00637    -0.00618     0.00121    -0.08637    -0.09390    -0.05446
 PZ  N   5   0.02990     0.00132    -0.02973     0.02942    -0.05832     0.09537
  
  S  C   6  -0.06319     0.04455     0.02469     0.04839    -0.07365     0.14845
 PX  C   6  -0.00525    -0.01141    -0.00648     0.01223     0.00297     0.00663
 PY  C   6   0.03024     0.07683     0.05236    -0.08726    -0.05148    -0.02918
 PZ  C   6  -0.12392     0.10475     0.07258     0.00558     0.05660     0.09915
  
  S  C   7  -0.17471     0.12780     0.06471    -0.04143     0.06041     0.07496
 PX  C   7  -0.00166    -0.00771    -0.00573     0.00093    -0.00264     0.01268
 PY  C   7  -0.04163     0.00122     0.01068    -0.02578    -0.01269    -0.00579
 PZ  C   7   0.03522    -0.00761    -0.01645    -0.09646     0.03373    -0.15710
  
  S  C   8  -0.03965    -0.08616    -0.07676    -0.15384     0.01436    -0.13754
 PX  C   8  -0.00498    -0.00969    -0.00924    -0.01009    -0.01061     0.03110
 PY  C   8   0.01990    -0.13627    -0.06675     0.05108    -0.03494     0.00577
 PZ  C   8   0.12576    -0.07318    -0.07300    -0.05933    -0.03683    -0.05646
  
  S  C   9   0.00397    -0.21785    -0.10045     0.08592     0.01526    -0.09406
 PX  C   9  -0.00242    -0.00453    -0.00430    -0.00688    -0.00473     0.00859
 PY  C   9   0.04443    -0.00156     0.00983     0.08474     0.01501     0.01153
 PZ  C   9   0.02028    -0.07037    -0.07207    -0.10022    -0.03023    -0.04406
  
  S  C  10   0.08762     0.00375     0.03620     0.16750     0.04939     0.00612
 PX  C  10  -0.00219    -0.00029     0.00030    -0.00008    -0.00202     0.00376
 PY  C  10   0.02658    -0.04181    -0.03251     0.01420     0.02318    -0.03307
 PZ  C  10  -0.05994    -0.11350    -0.03921     0.06782     0.01036    -0.03282
  
  S  C  11   0.12752     0.14346     0.06354    -0.06962    -0.06312     0.02726
 PX  C  11  -0.00417    -0.00348    -0.00118     0.00137    -0.00446     0.00272
 PY  C  11   0.05269     0.01846     0.00536     0.04181     0.07708    -0.01299
 PZ  C  11  -0.07584     0.00385     0.04597     0.13149     0.01246     0.07813
  
  S  C  12   0.07041     0.08588    -0.00957    -0.18125     0.04278    -0.03657
 PX  C  12  -0.00090    -0.00206    -0.00002    -0.00107    -0.00437    -0.00295
 PY  C  12   0.05168     0.00361    -0.03474     0.04090     0.06426     0.03024
 PZ  C  12   0.11827     0.03788     0.00723    -0.05265    -0.07516    -0.04277
  
  S  C  13  -0.14428     0.02423     0.06699    -0.04637     0.06678    -0.03679
 PX  C  13  -0.00041    -0.01350    -0.00718     0.01389     0.00225    -0.00661
 PY  C  13   0.01969     0.06061     0.00394    -0.11037    -0.03683     0.02342
 PZ  C  13   0.13294    -0.10580    -0.08986    -0.02312    -0.05448    -0.11228
  
  S  C  14  -0.17606     0.16228     0.13461     0.00511     0.02828     0.09981
 PX  C  14  -0.00369    -0.00222    -0.00741     0.00787    -0.00129    -0.00368
 PY  C  14  -0.01483     0.01139     0.00899    -0.00897    -0.02366     0.02961
 PZ  C  14  -0.10685    -0.01870     0.03884     0.00734     0.08167    -0.00441
  
  S  C  15   0.10212     0.00424     0.01222     0.01898    -0.12542    -0.00211
 PX  C  15  -0.00257     0.01646    -0.02382     0.00607     0.00207     0.00681
 PY  C  15   0.03781    -0.13512    -0.03608     0.06153    -0.04053    -0.05512
 PZ  C  15  -0.18559     0.04403     0.05934     0.04857     0.02361     0.09023
  
  S  C  16   0.05632    -0.19360    -0.08599     0.16224    -0.08635    -0.04448
 PX  C  16   0.00226     0.00273    -0.00699     0.00027     0.00655     0.00558
 PY  C  16   0.00568    -0.03404    -0.04283     0.02610     0.03566    -0.02101
 PZ  C  16  -0.06842     0.01059    -0.02528     0.01294     0.08958     0.05126
  
  S  C  17   0.03773    -0.07751    -0.10911     0.04762     0.10875     0.00330
 PX  C  17  -0.00015     0.00320    -0.00060    -0.00380     0.00324     0.00171
 PY  C  17   0.03680    -0.03684    -0.02520     0.04637    -0.01057    -0.02177
 PZ  C  17   0.04298     0.09524     0.02304    -0.10867     0.04744    -0.00334
  
  S  N  18   0.18009    -0.01270    -0.05800    -0.09901     0.12957    -0.01593
 PX  N  18   0.01231     0.05376    -0.11248     0.02576    -0.00675     0.00401
 PY  N  18   0.03945    -0.08023     0.06750    -0.00355    -0.04587    -0.04236
 PZ  N  18   0.15240     0.00537    -0.02336     0.00157    -0.17874    -0.07640
  
  S  C  19  -0.07225     0.09395    -0.20186     0.07183    -0.03273    -0.01774
 PX  C  19  -0.00782    -0.02505     0.00333     0.04848    -0.16141    -0.06713
 PY  C  19   0.02793     0.00401    -0.00650    -0.04241     0.12337     0.04159
 PZ  C  19   0.08588    -0.01959     0.01140    -0.04308     0.00664    -0.01600
  
  S  C  20  -0.06941    -0.08296     0.04006     0.07780    -0.20538    -0.07774
 PX  C  20   0.00120    -0.08505     0.12888    -0.02873     0.03471     0.02000
 PY  C  20   0.00568     0.06407    -0.10243     0.02126    -0.02988    -0.01865
 PZ  C  20   0.02013     0.02173    -0.00624    -0.00695    -0.01220    -0.00185
  
  S  C  21  -0.00495    -0.21070     0.28100    -0.07039     0.11887     0.06050
 PX  C  21   0.01607    -0.02268     0.04854    -0.03028     0.06245     0.03054
 PY  C  21  -0.02327     0.01123    -0.03867     0.03798    -0.08324    -0.03694
 PZ  C  21  -0.05302    -0.02228    -0.00473     0.06748    -0.16233    -0.05909
  
  S  C  22   0.11676    -0.04179     0.12260    -0.15227     0.29333     0.10222
 PX  C  22  -0.01129    -0.07715     0.10550    -0.02872     0.07468     0.04229
 PY  C  22   0.00114     0.04295    -0.06394     0.02363    -0.05751    -0.03064
 PZ  C  22  -0.03782    -0.07470     0.08086     0.00793    -0.00106     0.01003
  
  S  C  23   0.10952     0.14687    -0.14777    -0.01419    -0.05205    -0.04555
 PX  C  23   0.02799    -0.02310     0.04458    -0.06151     0.14080     0.04579
 PY  C  23  -0.02831     0.02102    -0.04251     0.05427    -0.11581    -0.03770
 PZ  C  23  -0.03356     0.01973    -0.03833     0.03037    -0.02974    -0.00793
  
  S  C  24  -0.07241     0.11886    -0.14693     0.10056    -0.14539    -0.02990
 PX  C  24   0.01943     0.05804    -0.10328     0.01141    -0.02345    -0.03327
 PY  C  24  -0.03247    -0.04922     0.07525    -0.00614     0.04117     0.03499
 PZ  C  24  -0.08922    -0.00250    -0.02207     0.00732     0.11739     0.05324
  
  S  C  25  -0.02877    -0.10963     0.20805     0.01944    -0.11848     0.00577
 PX  C  25  -0.04918     0.06341    -0.08611     0.03257     0.01367     0.01445
 PY  C  25   0.01304    -0.04625     0.07022    -0.02623     0.01560     0.00151
 PZ  C  25  -0.13385     0.03347     0.01980    -0.01009     0.13408     0.07294
  
  S  C  26  -0.10923    -0.08211     0.23003    -0.03858    -0.00011     0.00745
 PX  C  26   0.04870    -0.02944    -0.03285    -0.02831     0.14412     0.03880
 PY  C  26  -0.01432     0.01120     0.00670     0.02299    -0.11382    -0.04713
 PZ  C  26   0.07675     0.00384    -0.06109    -0.02732     0.02041    -0.04600
  
  S  C  27  -0.19236     0.09995     0.02920     0.04939    -0.18111    -0.04910
 PX  C  27   0.02187    -0.08920     0.12765    -0.02363    -0.02937    -0.02295
 PY  C  27  -0.00486     0.05205    -0.09460     0.02194     0.01115     0.00634
 PZ  C  27   0.04189    -0.04736     0.02624    -0.00118    -0.03594    -0.03689
  
  S  C  28  -0.09793     0.22022    -0.28051     0.03871     0.10412     0.05454
 PX  C  28  -0.02573    -0.01815     0.06615     0.00058    -0.05506    -0.01253
 PY  C  28  -0.00172     0.01810    -0.03679     0.00719     0.01159     0.00259
 PZ  C  28  -0.11436     0.02969     0.07350     0.03480    -0.15289    -0.03136
  
  S  C  29   0.18587     0.02029    -0.22635    -0.04340     0.24118     0.03340
 PX  C  29   0.04630    -0.07808     0.10217    -0.01315    -0.06465    -0.02900
 PY  C  29  -0.05154     0.07275    -0.08429     0.01408     0.04830     0.02714
 PZ  C  29  -0.08036     0.06770    -0.03060     0.01851    -0.00444     0.02638
  
  S  C  30   0.24308    -0.17225     0.09251    -0.03721    -0.06608    -0.06709
 PX  C  30  -0.04203    -0.01842     0.08795     0.02413    -0.12444    -0.02040
 PY  C  30   0.02387     0.00976    -0.05204    -0.01716     0.08779     0.01816
 PZ  C  30  -0.04513    -0.01710     0.07961     0.00625    -0.04146     0.01432
  
  S  C  31   0.16666    -0.03262    -0.05218    -0.06421    -0.06760     0.04806
 PX  C  31  -0.01684    -0.05794    -0.04681    -0.03865    -0.04702     0.11877
 PY  C  31  -0.01453    -0.12461    -0.09373    -0.07156    -0.05705     0.07427
 PZ  C  31   0.02900     0.03747     0.04466     0.12244    -0.04647     0.21555
  
  S  C  32   0.12260     0.18979     0.15566     0.18145     0.09396    -0.20750
 PX  C  32   0.02155    -0.00735    -0.01021    -0.00428    -0.03438     0.10002
 PY  C  32   0.04457    -0.02407    -0.02802    -0.02535    -0.05135     0.11464
 PZ  C  32  -0.04042     0.01068     0.03235     0.08624     0.01242     0.02450
  
  S  C  33  -0.10683     0.06850     0.08485     0.10507     0.11617    -0.24722
 PX  C  33  -0.04063    -0.04851    -0.04251    -0.05592    -0.03341     0.08999
 PY  C  33  -0.01411    -0.03387    -0.02939    -0.02634    -0.04390     0.13065
 PZ  C  33  -0.11372    -0.09526    -0.08077    -0.13519     0.00410    -0.06337
  
  S  C  34  -0.18874    -0.12673    -0.10286    -0.15867    -0.03118     0.08601
 PX  C  34   0.01558    -0.02817    -0.03335    -0.04942    -0.03670     0.08131
 PY  C  34   0.05055    -0.02145    -0.02754    -0.02207    -0.06282     0.16802
 PZ  C  34  -0.09129    -0.04732    -0.04618    -0.12025     0.05265    -0.21417
  
  S  S  35   0.04626    -0.13973    -0.12318    -0.08846    -0.17366     0.43478
 PX  S  35  -0.03198     0.02096     0.01603    -0.00804     0.03830    -0.09356
 PY  S  35  -0.01373     0.00799     0.00860    -0.00343     0.04186    -0.13405
 PZ  S  35  -0.07373     0.01180     0.00890    -0.01542     0.00732     0.04948
  
  S  C  36  -0.10961    -0.07880    -0.07579    -0.16166     0.02979    -0.16893
 PX  C  36   0.08187     0.04109     0.03188     0.06130    -0.01696     0.06449
 PY  C  36   0.07807     0.03170     0.02273     0.04981    -0.02916     0.10398
 PZ  C  36   0.11622     0.08155     0.06978     0.11633     0.01688    -0.03950
  
  S  C  37   0.18067     0.11086     0.09120     0.15812    -0.00170     0.04496
 PX  C  37   0.04219     0.03539     0.03428     0.06753    -0.00284     0.04404
 PY  C  37   0.04063     0.03227     0.03156     0.06614    -0.01064     0.07536
 PZ  C  37   0.06233     0.05808     0.05596     0.09972     0.01846    -0.02613
  
  S  C  38   0.09305     0.06966     0.06369     0.11717     0.00476     0.02714
 PX  C  38  -0.01997    -0.01267    -0.01041    -0.01732    -0.00145     0.00419
 PY  C  38   0.02206     0.01780     0.01656     0.02989     0.00288     0.00547
 PZ  C  38  -0.13089    -0.09211    -0.08030    -0.13932    -0.01206     0.00076
  
  S  O  39  -0.04582    -0.03222    -0.02679    -0.04036    -0.01300     0.03713
 PX  O  39  -0.01442    -0.01038    -0.00888    -0.01433    -0.00308     0.00764
 PY  O  39  -0.01377    -0.00947    -0.00777    -0.01176    -0.00316     0.00867
 PZ  O  39  -0.02123    -0.01626    -0.01469    -0.02563    -0.00383     0.00742
  
  S  O  40  -0.06063    -0.04230    -0.03798    -0.07160     0.00299    -0.03805
 PX  O  40  -0.02366    -0.01957    -0.01894    -0.03672    -0.00036    -0.01794
 PY  O  40  -0.00397    -0.00501    -0.00583    -0.01312     0.00100    -0.01405
 PZ  O  40  -0.08070    -0.06240    -0.05795    -0.10791    -0.00365    -0.03450
  
  S  C  41   0.04995     0.03652     0.03187     0.05830    -0.00538     0.04583
 PX  C  41  -0.03120    -0.01147    -0.00767    -0.01692     0.01173    -0.04342
 PY  C  41  -0.08439    -0.04216    -0.03324    -0.06519     0.01890    -0.08423
 PZ  C  41   0.08568     0.05899     0.05214     0.09476     0.00101     0.03094
  
  S  N  42  -0.07879    -0.03723    -0.02961    -0.05980     0.01688    -0.07399
 PX  N  42   0.00988     0.00623     0.00545     0.00976     0.00084    -0.00064
 PY  N  42   0.01556     0.00741     0.00600     0.01136    -0.00067     0.00296
 PZ  N  42   0.00111     0.00651     0.00697     0.01106     0.00547    -0.01196
  
  S  H  43  -0.06474    -0.03110    -0.02769    -0.07069     0.03865    -0.16028
  
  S  H  44  -0.04505    -0.08112    -0.02922     0.12202     0.06480     0.01357
  
  S  H  45  -0.05141    -0.09604    -0.03572     0.14732     0.07946     0.01893
  
  S  H  46  -0.04436    -0.08135    -0.03010     0.12247     0.06388     0.01552
  
  S  H  47   0.00155     0.00832     0.00297    -0.02275    -0.02143    -0.00182
  
  S  H  48  -0.00039     0.00874     0.00541    -0.02382    -0.01879    -0.00735
  
  S  H  49   0.02411     0.05650     0.02611    -0.08782    -0.04117    -0.02029
  
  S  H  50   0.03194     0.05420     0.01760    -0.08444    -0.04980    -0.00604
  
  S  H  51   0.02989     0.02618    -0.00288    -0.00501     0.00977     0.03196
  
  S  H  52   0.01910     0.02651     0.01158    -0.01267     0.02556    -0.00414
  
  S  H  53  -0.05369     0.06675     0.02704    -0.01742     0.04469     0.01222
  
  S  H  54   0.02889    -0.13797    -0.07639     0.03460    -0.00200    -0.05394
  
  S  H  55   0.06626    -0.00455     0.00443     0.08013     0.03810    -0.01066
  
  S  H  56  -0.05931     0.07889     0.05327     0.00578     0.00876     0.03214
  
  S  H  57   0.05113    -0.11331    -0.04827     0.08635    -0.06483    -0.05323
  
  S  H  58   0.04679    -0.03863    -0.06151     0.02996     0.05773    -0.01041
  
  S  H  59  -0.02535    -0.03642     0.03757     0.03075    -0.10416    -0.03466
  
  S  H  60   0.00233    -0.12028     0.17050    -0.04802     0.08468     0.04542
  
  S  H  61   0.06682    -0.02981     0.08232    -0.09395     0.18717     0.07018
  
  S  H  62   0.07078     0.06203    -0.05643    -0.01473    -0.03302    -0.02681
  
  S  H  63  -0.07265     0.03946    -0.00828     0.03548    -0.10748    -0.04281
  
  S  H  64  -0.04526     0.12401    -0.17435     0.02385     0.06949     0.03164
  
  S  H  65   0.10263     0.01696    -0.14397    -0.02314     0.15086     0.01904
  
  S  H  66   0.13340    -0.07757     0.02325    -0.01490    -0.04667    -0.04854
  
  S  H  67   0.04779     0.10400     0.08222     0.07502     0.07433    -0.18580
  
  S  H  68  -0.07304     0.02830     0.03775     0.03219     0.08489    -0.22046
  
  S  H  69  -0.06810    -0.05121    -0.04717    -0.08814    -0.00141    -0.03262




    ROOT NO.   25          26          27          28          29          30

           -28.18569   -26.56781   -26.06919   -25.67464   -25.49290   -25.10410
  
  
  S  C   1   0.19732    -0.00632    -0.02269    -0.06760    -0.04704    -0.16164
 PX  C   1  -0.05695     0.00483     0.01577     0.04271     0.01919     0.18853
 PY  C   1  -0.04704    -0.00199     0.00084     0.02438     0.04419    -0.07852
 PZ  C   1  -0.00533     0.00592     0.01044     0.00996    -0.00696     0.00401
  
  S  C   2  -0.09144     0.01177     0.03001     0.06029     0.00281     0.36418
 PX  C   2  -0.07757     0.00634     0.01311     0.01435    -0.02010     0.18420
 PY  C   2  -0.09703    -0.00410    -0.00283     0.02373     0.06073    -0.18965
 PZ  C   2  -0.00896     0.01465     0.02395     0.01763    -0.02173    -0.00515
  
  S  C   3  -0.17445    -0.01007    -0.00713     0.04245     0.11247    -0.33032
 PX  C   3   0.03658     0.00400    -0.00073    -0.04665    -0.08479     0.15868
 PY  C   3   0.05626    -0.01255    -0.02385    -0.03211     0.01762    -0.23659
 PZ  C   3   0.00110     0.03492     0.05304     0.03145    -0.05346    -0.01754
  
  S  C   4   0.13609     0.01150    -0.00177    -0.10339    -0.15950     0.11723
 PX  C   4   0.10820     0.00703     0.00259    -0.03464    -0.07537     0.18509
 PY  C   4   0.10074    -0.01032    -0.01321    -0.00091     0.04290    -0.10982
 PZ  C   4   0.00489     0.08055     0.11668     0.07183    -0.10121    -0.03020
  
  S  N   5   0.04569     0.00238     0.02888     0.03345     0.05928     0.02624
 PX  N   5   0.01702     0.00732     0.00567    -0.00353    -0.02656     0.09665
 PY  N   5  -0.19766    -0.00740     0.01617     0.07484     0.10630     0.01099
 PZ  N   5  -0.01670     0.17471     0.24495     0.13496    -0.14527    -0.05438
  
  S  C   6  -0.10320     0.07701     0.08562     0.07902     0.01291    -0.00957
 PX  C   6   0.00333     0.01389     0.01159     0.00734    -0.01155     0.03248
 PY  C   6  -0.05143    -0.12542    -0.12436    -0.11941     0.09517     0.05843
 PZ  C   6   0.04290    -0.01212    -0.11628    -0.04905    -0.01306    -0.00464
  
  S  C   7   0.07767     0.00703    -0.05991     0.00633    -0.04092    -0.02729
 PX  C   7   0.00201     0.01218     0.00088    -0.00560    -0.00994     0.01151
 PY  C   7  -0.07337    -0.01763    -0.11178    -0.09697     0.08461     0.03241
 PZ  C   7   0.07674    -0.09535    -0.05940    -0.06763     0.02814     0.01805
  
  S  C   8  -0.00322     0.05479    -0.07417    -0.13548     0.01618     0.01257
 PX  C   8   0.00010     0.01694    -0.01367    -0.02390    -0.00775     0.00262
 PY  C   8  -0.15239     0.16020     0.03252    -0.00901    -0.01552    -0.00013
 PZ  C   8   0.07218    -0.00193     0.11933     0.02640    -0.04060    -0.01066
  
  S  C   9  -0.17801     0.18923     0.08630     0.08835    -0.05444    -0.02263
 PX  C   9  -0.00342     0.00877    -0.00869    -0.01516     0.00003     0.00309
 PY  C   9   0.03132    -0.02149     0.11547     0.15399    -0.05542    -0.03019
 PZ  C   9  -0.02113     0.12876     0.02948    -0.05958    -0.03959    -0.01036
  
  S  C  10   0.12113    -0.14653     0.08003     0.12256    -0.02731    -0.01580
 PX  C  10  -0.00455     0.00127    -0.00455    -0.00518     0.00246     0.00530
 PY  C  10   0.04453     0.03644     0.09152     0.09348    -0.06454    -0.03500
 PZ  C  10  -0.18182     0.11472     0.03962     0.10856    -0.01446    -0.01253
  
  S  C  11   0.12306    -0.13408    -0.01523    -0.10296     0.01701     0.02694
 PX  C  11  -0.01219     0.00399     0.00096     0.00170     0.00363     0.01421
 PY  C  11   0.20581    -0.06033     0.00272    -0.01498    -0.05373    -0.01993
 PZ  C  11  -0.05807    -0.10285    -0.04752     0.03062     0.09062     0.02644
  
  S  C  12   0.12789     0.13944     0.00394    -0.05253    -0.17802    -0.04206
 PX  C  12  -0.00934    -0.00288     0.00171     0.00224     0.00264     0.01575
 PY  C  12   0.19594     0.06777    -0.00442    -0.05063     0.02617    -0.01689
 PZ  C  12   0.07090    -0.08742     0.01191    -0.07908     0.04884     0.02082
  
  S  C  13  -0.08499    -0.08665    -0.14855     0.00255     0.01069     0.01611
 PX  C  13   0.00496    -0.00361    -0.00583    -0.00343     0.01745     0.04523
 PY  C  13  -0.05197     0.13048     0.12074     0.05793    -0.20867    -0.03555
 PZ  C  13  -0.04716     0.00916     0.00337    -0.02086     0.07313     0.01565
  
  S  C  14   0.07978    -0.01510     0.00664    -0.00046     0.05497     0.00556
[...]

          IONIZATION POTENTIAL    =          7.148188 EV
          HOMO LUMO ENERGIES (EV) =         -7.148 -1.269
          NO. OF FILLED LEVELS    =        102
          MOLECULAR WEIGHT        =        565.6882

          MOLECULAR DIMENSIONS (Angstroms)

            Atom       Atom       Distance
            H    69    H    65    21.54758
            H    45    H    55     9.35699
            H    46    H    61     7.89100


          SCF CALCULATIONS        =          2
 
          WALL-CLOCK TIME         =  7 MINUTES AND 41.312 SECONDS
          COMPUTATION TIME        =  7 MINUTES AND 51.586 SECONDS




   ATOM   CHEMICAL          X               Y               Z
  NUMBER   SYMBOL      (ANGSTROMS)     (ANGSTROMS)     (ANGSTROMS)
 
     1       C          1.00862343  *  -0.70976027  *  -0.22378088  *
     2       C          2.48043488  *  -0.34282448  *  -0.12812643  *
     3       C          2.65111814  *   1.17176072  *  -0.06340056  *
     4       C          4.14092996  *   1.53015090  *   0.03390889  *
     5       N          4.34935824  *   2.97453001  *   0.09540107  *
     6       C          4.25006775  *   3.75776617  *   1.26609250  *
     7       C          4.27288196  *   3.36136158  *   2.59909971  *
     8       C          4.22934811  *   4.36757824  *   3.55971770  *
     9       C          4.16306287  *   5.72373555  *   3.20749172  *
    10       C          4.13370898  *   6.11149622  *   1.87699778  *
    11       C          4.17199760  *   5.13002979  *   0.90039419  *
    12       C          4.14759351  *   5.18381476  *  -0.53790795  *
    13       C          4.21266176  *   3.84295841  *  -1.00625352  *
    14       C          4.17905428  *   3.53830808  *  -2.36358142  *
    15       C          4.10864098  *   4.62093700  *  -3.24016954  *
    16       C          4.06297086  *   5.95457200  *  -2.79367663  *
    17       C          4.07616442  *   6.23521992  *  -1.43713086  *
    18       N          4.08044279  *   4.36789570  *  -4.63197450  *
    19       C          4.96289301  *   3.52317635  *  -5.33675501  *
    20       C          6.05629646  *   2.79714561  *  -4.87450941  *
    21       C          6.76083798  *   2.05374202  *  -5.80943949  *
    22       C          6.39936881  *   2.03715211  *  -7.16000898  *
    23       C          5.32117517  *   2.77754995  *  -7.62270367  *
    24       C          4.59858336  *   3.52857399  *  -6.71052293  *
    25       C          3.46072971  *   4.40275620  *  -6.84726418  *
    26       C          3.15863887  *   4.90706134  *  -5.55330230  *
    27       C          2.08071057  *   5.75978505  *  -5.33575189  *
    28       C          1.32874228  *   6.12143948  *  -6.44335885  *
    29       C          1.62869236  *   5.64569065  *  -7.72352012  *
    30       C          2.69164404  *   4.77984612  *  -7.93569972  *
    31       C          4.24631959  *   3.99009650  *   4.95618826  *
    32       C          3.53654729  *   2.94789213  *   5.50008305  *
    33       C          3.77693021  *   2.82441133  *   6.89512106  *
    34       C          4.65952879  *   3.78050859  *   7.35659800  *
    35       S          5.18528608  *   4.80361412  *   6.10507354  *
    36       C          5.05924685  *   3.85433375  *   8.72788382  *
    37       C          5.82228330  *   4.82100799  *   9.28151886  *
    38       C          6.14715954  *   4.74650671  *  10.71132965  *
    39       O          5.79236176  *   3.87805419  *  11.49649351  *
    40       O          6.91714878  *   5.76223890  *  11.15135008  *
    41       C          6.33583094  *   5.92709278  *   8.56273622  *
    42       N          6.76549121  *   6.84229103  *   8.00033731  *
    43       H          4.69285980  *   3.03268863  *   9.36696252  *
    44       H          0.53031604  *  -0.28558791  *  -1.11847948  *
    45       H          0.86205790  *  -1.79847096  *  -0.27449566  *
    46       H          0.43256325  *  -0.35421604  *   0.64272597  *
    47       H          2.93812270  *  -0.82634304  *   0.76103301  *
    48       H          3.03585682  *  -0.76193138  *  -0.99401471  *
    49       H          2.19532571  *   1.65503827  *  -0.95381799  *
    50       H          2.09418093  *   1.59152973  *   0.80070938  *
    51       H          4.61042043  *   1.05859764  *   0.92785491  *
    52       H          4.70770103  *   1.12655788  *  -0.83766901  *
    53       H          4.33315575  *   2.30984913  *   2.88614753  *
    54       H          4.12413229  *   6.48706966  *   3.99029777  *
    55       H          4.08076713  *   7.16672794  *   1.59643441  *
    56       H          4.18790155  *   2.50689275  *  -2.72316554  *
    57       H          4.03625715  *   6.77603903  *  -3.51645711  *
    58       H          4.03829734  *   7.26650023  *  -1.07546604  *
    59       H          6.36092138  *   2.82243338  *  -3.82635012  *
    60       H          7.62537615  *   1.46729201  *  -5.48256453  *
    61       H          6.98198005  *   1.43404798  *  -7.86180949  *
    62       H          5.04246049  *   2.77685219  *  -8.67934436  *
    63       H          1.82556722  *   6.12023564  *  -4.33724474  *
    64       H          0.47606116  *   6.79520634  *  -6.31204556  *
    65       H          1.01007289  *   5.95965146  *  -8.56875590  *
    66       H          2.92365747  *   4.39786327  *  -8.93289105  *
    67       H          2.86097177  *   2.29795360  *   4.94952538  *
    68       H          3.30686388  *   2.06067878  *   7.51212756  *
    69       H          7.10506886  *   5.67160374  *  12.09682052  *

                             CARTESIAN COORDINATES

   1    C        1.008623432    -0.709760274    -0.223780884
   2    C        2.480434884    -0.342824475    -0.128126429
   3    C        2.651118141     1.171760721    -0.063400558
   4    C        4.140929959     1.530150898     0.033908891
   5    N        4.349358238     2.974530008     0.095401074
   6    C        4.250067747     3.757766173     1.266092495
   7    C        4.272881961     3.361361580     2.599099708
   8    C        4.229348108     4.367578240     3.559717696
   9    C        4.163062870     5.723735547     3.207491715
  10    C        4.133708976     6.111496221     1.876997783
  11    C        4.171997602     5.130029791     0.900394189
  12    C        4.147593513     5.183814764    -0.537907952
  13    C        4.212661764     3.842958410    -1.006253515
  14    C        4.179054277     3.538308085    -2.363581416
  15    C        4.108640982     4.620936996    -3.240169537
  16    C        4.062970856     5.954571997    -2.793676633
  17    C        4.076164418     6.235219919    -1.437130864
  18    N        4.080442789     4.367895701    -4.631974502
  19    C        4.962893010     3.523176354    -5.336755009
  20    C        6.056296465     2.797145608    -4.874509412
  21    C        6.760837975     2.053742017    -5.809439487
  22    C        6.399368812     2.037152111    -7.160008984
  23    C        5.321175168     2.777549949    -7.622703670
  24    C        4.598583362     3.528573990    -6.710522928
  25    C        3.460729711     4.402756195    -6.847264175
  26    C        3.158638872     4.907061338    -5.553302302
  27    C        2.080710575     5.759785050    -5.335751890
  28    C        1.328742278     6.121439481    -6.443358851
  29    C        1.628692355     5.645690652    -7.723520118
  30    C        2.691644040     4.779846118    -7.935699719
  31    C        4.246319585     3.990096503     4.956188263
  32    C        3.536547287     2.947892132     5.500083047
  33    C        3.776930211     2.824411334     6.895121062
  34    C        4.659528785     3.780508590     7.356597996
  35    S        5.185286076     4.803614120     6.105073536
  36    C        5.059246846     3.854333750     8.727883820
  37    C        5.822283299     4.821007986     9.281518861
  38    C        6.147159542     4.746506713    10.711329650
  39    O        5.792361764     3.878054190    11.496493510
  40    O        6.917148777     5.762238896    11.151350080
  41    C        6.335830940     5.927092778     8.562736218
  42    N        6.765491214     6.842291030     8.000337312
  43    H        4.692859796     3.032688635     9.366962517
  44    H        0.530316041    -0.285587908    -1.118479475
  45    H        0.862057895    -1.798470962    -0.274495655
  46    H        0.432563246    -0.354216042     0.642725971
  47    H        2.938122698    -0.826343036     0.761033008
  48    H        3.035856821    -0.761931378    -0.994014712
  49    H        2.195325708     1.655038269    -0.953817989
  50    H        2.094180928     1.591529725     0.800709380
  51    H        4.610420435     1.058597638     0.927854912
  52    H        4.707701028     1.126557885    -0.837669005
  53    H        4.333155753     2.309849128     2.886147526
  54    H        4.124132288     6.487069665     3.990297771
  55    H        4.080767134     7.166727937     1.596434414
  56    H        4.187901550     2.506892750    -2.723165536
  57    H        4.036257153     6.776039034    -3.516457109
  58    H        4.038297338     7.266500235    -1.075466040
  59    H        6.360921377     2.822433380    -3.826350120
  60    H        7.625376149     1.467292006    -5.482564529
  61    H        6.981980049     1.434047983    -7.861809493
  62    H        5.042460491     2.776852190    -8.679344359
  63    H        1.825567225     6.120235641    -4.337244735
  64    H        0.476061161     6.795206336    -6.312045560
  65    H        1.010072895     5.959651464    -8.568755896
  66    H        2.923657466     4.397863274    -8.932891051
  67    H        2.860971773     2.297953603     4.949525384
  68    H        3.306863879     2.060678777     7.512127558
  69    H        7.105068863     5.671603739    12.096820520


           Empirical Formula: C36 H27 N3 O2 S  =    69 atoms



      MOLECULAR POINT GROUP   :   C1  


                  EIGENVALUES  
 -48.86133 -48.28298 -46.74504 -43.91031 -42.95344 -42.89998 -42.27567 -41.23200
 -40.06938 -39.60931 -39.08715 -37.17001 -36.26938 -35.58651 -33.91950 -33.76019
 -32.75872 -32.54128 -31.51192 -30.78142 -30.39285 -30.11793 -29.15822 -28.40618
 -28.18569 -26.56781 -26.06919 -25.67464 -25.49290 -25.10410 -24.75415 -24.32013
 -24.01398 -23.74018 -23.43166 -22.56096 -21.93366 -21.51250 -20.67805 -20.25888
 -20.05731 -19.94014 -19.32162 -18.98761 -18.94287 -18.18908 -18.03951 -17.62013
 -17.36819 -16.96737 -16.88727 -16.63872 -16.42061 -16.34177 -16.14559 -16.03841
 -15.94655 -15.71766 -15.67590 -15.38806 -15.31101 -15.12202 -14.99194 -14.93932
 -14.60911 -14.52212 -14.50241 -13.98962 -13.92686 -13.58292 -13.52139 -13.45866
 -13.27835 -13.16092 -13.10329 -13.01626 -12.97826 -12.94454 -12.82741 -12.71155
 -12.59213 -12.44648 -12.09867 -11.94829 -11.81548 -11.79930 -11.75663 -11.58044
 -11.35864 -10.98232 -10.74694 -10.65279 -10.08517 -10.00100  -9.66800  -9.17800
  -9.03679  -8.24950  -7.79461  -7.74661  -7.63981  -7.14819  -1.26900  -0.00069
   0.19719   0.58578   0.67704   0.72493   0.92745   1.02584   1.18940   1.50302
   1.53423   1.62670   2.10453   2.14310   2.46017   2.62250   2.72024   2.76010
   2.86925   2.96060   3.01073   3.05158   3.12313   3.33642   3.41261   3.45916
   3.61563   3.73249   3.82593   3.85757   3.89058   4.13417   4.18360   4.22644
   4.24973   4.26137   4.56245   4.63769   5.03716   5.08944   5.19370   5.42570
   5.49054   5.58754   5.65458   5.74538   5.89574   6.27734   6.37388   6.44540
   6.45759   6.47015   6.58086   6.71244   6.84028   6.84273   6.99949   7.05681
   7.34292   7.81894   8.19734   8.50392   8.63165   8.66784   8.70557   8.71984
   8.80153   8.99866   9.14123   9.54861   9.76761   9.99371  10.30071  10.53624
  10.66033  10.87438  10.95291  11.03835  11.24036  11.33387  11.68401  12.01181
  12.45463  12.55567  12.75219  12.91987  13.04937  13.25896  13.66220  14.22554
  14.33764  14.90169  15.39425


              NET ATOMIC CHARGES AND DIPOLE CONTRIBUTIONS

  ATOM NO.   TYPE          CHARGE      No. of ELECS.   s-Pop       p-Pop       
    1          C          -0.026686        4.0267     1.05448     2.97221
    2          C          -0.005967        4.0060     1.04333     2.96264
    3          C          -0.000604        4.0006     1.05061     2.95000
    4          C           0.073658        3.9263     1.04910     2.87724
    5          N          -0.159185        5.1592     1.25944     3.89975
    6          C           0.076957        3.9230     1.05450     2.86855
    7          C          -0.042830        4.0428     1.07813     2.96470
    8          C           0.026543        3.9735     1.04033     2.93313
    9          C          -0.042609        4.0426     1.07907     2.96354
   10          C          -0.017994        4.0180     1.08100     2.93700
   11          C          -0.013388        4.0134     1.04773     2.96566
   12          C          -0.025306        4.0253     1.04542     2.97988
   13          C           0.080955        3.9190     1.05405     2.86500
   14          C          -0.056184        4.0562     1.07628     2.97991
   15          C           0.097519        3.9025     1.04253     2.85996
   16          C          -0.053400        4.0534     1.07800     2.97540
   17          C          -0.014711        4.0147     1.08113     2.93358
   18          N          -0.132177        5.1322     1.22875     3.90343
   19          C           0.078048        3.9220     1.05074     2.87121
   20          C          -0.042330        4.0423     1.07667     2.96566
   21          C          -0.024511        4.0245     1.08065     2.94386
   22          C          -0.044581        4.0446     1.07751     2.96707
   23          C          -0.020602        4.0206     1.07924     2.94137
   24          C          -0.016089        4.0161     1.04761     2.96848
   25          C          -0.016111        4.0161     1.04764     2.96847
   26          C           0.078154        3.9218     1.05068     2.87117
   27          C          -0.042430        4.0424     1.07670     2.96573
   28          C          -0.024746        4.0247     1.08069     2.94406
   29          C          -0.044411        4.0444     1.07751     2.96690
   30          C          -0.020467        4.0205     1.07923     2.94124
   31          C           0.084444        3.9156     1.09050     2.82506
   32          C          -0.055925        4.0559     1.08139     2.97453
   33          C           0.039694        3.9603     1.10223     2.85808
   34          C          -0.008376        4.0084     1.05868     2.94970
   35          S          -0.024365        6.0244     1.76607     4.25829
   36          C           0.123190        3.8768     1.09478     2.78203
   37          C           0.000562        3.9994     0.99987     2.99957
   38          C           0.495992        3.5040     1.04513     2.45887
   39          O          -0.616148        6.6161     1.81693     4.79922
   40          O          -0.311664        6.3117     1.68762     4.62405
   41          C           0.215994        3.7840     1.14991     2.63409
   42          N          -0.399607        5.3996     1.75363     3.64598
   43          H           0.059193        0.9408     0.94081
   44          H           0.008021        0.9920     0.99198
   45          H           0.001056        0.9989     0.99894
   46          H           0.008168        0.9918     0.99183
   47          H           0.008857        0.9911     0.99114
   48          H           0.008372        0.9916     0.99163
   49          H           0.012117        0.9879     0.98788
   50          H           0.012051        0.9879     0.98795
   51          H           0.021144        0.9789     0.97886
   52          H           0.019868        0.9801     0.98013
   53          H           0.032350        0.9676     0.96765
   54          H           0.021837        0.9782     0.97816
   55          H           0.026229        0.9738     0.97377
   56          H           0.033181        0.9668     0.96682
   57          H           0.024554        0.9754     0.97545
   58          H           0.026821        0.9732     0.97318
   59          H           0.027972        0.9720     0.97203
   60          H           0.018951        0.9810     0.98105
   61          H           0.016369        0.9836     0.98363
   62          H           0.024243        0.9758     0.97576
   63          H           0.028132        0.9719     0.97187
   64          H           0.018977        0.9810     0.98102
   65          H           0.016536        0.9835     0.98346
   66          H           0.024350        0.9757     0.97565
   67          H           0.037343        0.9627     0.96266
   68          H           0.048911        0.9511     0.95109
   69          H           0.246090        0.7539     0.75391
 DIPOLE           X         Y         Z       TOTAL
 POINT-CHG.    -3.399    -4.234    -4.258     6.900
 HYBRID        -1.744    -2.404     1.495     3.325
 SUM           -5.143    -6.638    -2.763     8.840


          ATOMIC ORBITAL ELECTRON POPULATIONS

     Atom    s        px        py        pz   
    1  C   1.05448   0.99091   0.98793   0.99336
    2  C   1.04333   0.98530   0.98940   0.98795
    3  C   1.05061   0.96902   0.98933   0.99165
    4  C   1.04910   1.00128   0.87797   0.99799
    5  N   1.25944   1.72833   1.06847   1.10295
    6  C   1.05450   0.98638   0.97065   0.91151
    7  C   1.07813   1.06048   0.94463   0.95959
    8  C   1.04033   0.99130   0.98920   0.95263
    9  C   1.07907   1.04369   0.95485   0.96499
   10  C   1.08100   0.99538   0.94864   0.99298
   11  C   1.04773   1.02901   0.97567   0.96099
   12  C   1.04542   1.04943   0.97056   0.95989
   13  C   1.05405   0.97747   0.96517   0.92236
   14  C   1.07628   1.08478   0.94045   0.95467
   15  C   1.04253   0.98162   0.99861   0.87973
   16  C   1.07800   1.06457   0.94440   0.96642
   17  C   1.08113   0.98853   0.95203   0.99302
   18  N   1.22875   1.33636   1.48589   1.08118
   19  C   1.05074   0.94758   0.94982   0.97381
   20  C   1.07667   0.99364   1.02314   0.94888
   21  C   1.08065   0.96536   0.98699   0.99151
   22  C   1.07751   0.99374   1.00286   0.97047
   23  C   1.07924   0.99405   1.00010   0.94722
   24  C   1.04761   0.98963   1.00059   0.97825
   25  C   1.04764   0.98861   1.00599   0.97387
   26  C   1.05068   0.94287   0.97550   0.95280
   27  C   1.07670   0.99519   1.01737   0.95317
   28  C   1.08069   0.96646   0.98054   0.99706
   29  C   1.07751   0.99182   1.01414   0.96094
   30  C   1.07923   0.99476   0.99457   0.95192
   31  C   1.09050   0.93395   0.95280   0.93830
   32  C   1.08139   1.01596   0.98374   0.97484
   33  C   1.10223   0.93356   0.93124   0.99328
   34  C   1.05868   1.04254   1.00005   0.90710
   35  S   1.76607   1.61564   1.48675   1.15591
   36  C   1.09478   0.86353   0.93402   0.98449
   37  C   0.99987   1.09778   0.99364   0.90815
   38  C   1.04513   0.72736   0.79624   0.93527
   39  O   1.81693   1.63441   1.49566   1.66914
   40  O   1.68762   1.69055   1.56020   1.37331
   41  C   1.14991   0.87366   0.91631   0.84413
   42  N   1.75363   1.19824   1.21675   1.23099
   43  H   0.94081
   44  H   0.99198
   45  H   0.99894
   46  H   0.99183
   47  H   0.99114
   48  H   0.99163
   49  H   0.98788
   50  H   0.98795
   51  H   0.97886
   52  H   0.98013
   53  H   0.96765
   54  H   0.97816
   55  H   0.97377
   56  H   0.96682
   57  H   0.97545
   58  H   0.97318
   59  H   0.97203
   60  H   0.98105
   61  H   0.98363
   62  H   0.97576
   63  H   0.97187
   64  H   0.98102
   65  H   0.98346
   66  H   0.97565
   67  H   0.96266
   68  H   0.95109
   69  H   0.75391

 **********************
 *                    *
 * JOB ENDED NORMALLY *
 *                    *
 **********************



 TOTAL JOB TIME:           461.41 SECONDS

 == MOPAC DONE ==
