 *******************************************************************************
 ** Site#: 4824         For non-commercial use only    Version 21.013L 64BITS **
 *******************************************************************************
 ** Cite this program as: MOPAC2016, Version: 21.013L, James J. P. Stewart,   **
 ** Stewart Computational Chemistry, web: HTTP://OpenMOPAC.net. Days left:  84**
 *******************************************************************************
 **                                                                           **
 **                                MOPAC2016                                  **
 **                                                                           **
 *******************************************************************************

                              INDO CALCULATION RESULTS

 *******************************************************************************
 *  CALCULATION DONE:                                Thu Oct 21 09:29:44 2021  *
 *  INDO       - The INDO Hamiltonian to be used
 *  CIS        - C.I. USES 1 ELECTRON EXCITATIONS ONLY
 *  EPS=  8.93 - USE ANDREAS KLAMT'S COSMO IMPLICIT SOLVATION MODEL
 *  n**2 =  1.420 for COSMO-CI
 *  T=         - A TIME OF 172800.0 SECONDS REQUESTED
 *  DUMP=N     - RESTART FILE WRITTEN EVERY 7200.0 SECONDS REQUESTED
 *******************************************************************************
INDO CIS EPS=8.93 N**2=1.42
 Dye3
 Calculo de Estados Excitados
   ATOM   CHEMICAL          X               Y               Z
  NUMBER   SYMBOL      (ANGSTROMS)     (ANGSTROMS)     (ANGSTROMS)
 
     1       C          0.00000000  *   0.00000000  *   0.00000000  *
     2       C          1.51989487  *   0.00000000  *   0.00000000  *
     3       C          2.05536073  *   1.42853242  *   0.00000000  *
     4       C          3.59114479  *   1.41475501  *  -0.00342701  *
     5       N          4.14370957  *   2.76609415  *  -0.01012294  *
     6       C          4.42380099  *   3.54678646  *   1.13134962  *
     7       C          4.53197251  *   3.16117722  *   2.46347547  *
     8       C          4.88615234  *   4.14579364  *   3.38116167  *
     9       C          5.12491550  *   5.47118992  *   2.98850777  *
    10       C          5.01063846  *   5.84995921  *   1.66012731  *
    11       C          4.65560028  *   4.89080832  *   0.72611010  *
    12       C          4.44487995  *   4.94676205  *  -0.69660328  *
    13       C          4.09287424  *   3.63526156  *  -1.11716505  *
    14       C          3.80701403  *   3.34260835  *  -2.44733661  *
    15       C          3.87662984  *   4.40785593  *  -3.34471669  *
    16       C          4.22689436  *   5.71148655  *  -2.94560722  *
    17       C          4.51918992  *   5.97859865  *  -1.61832407  *
    18       N          3.57692411  *   4.17009911  *  -4.70611381  *
    19       C          4.35711931  *   4.56949502  *  -5.81138447  *
    20       C          5.57336417  *   5.24194163  *  -5.85169258  *
    21       C          6.11845109  *   5.49235199  *  -7.10084583  *
    22       C          5.49512573  *   5.08733515  *  -8.29263881  *
    23       C          4.29143175  *   4.39523823  *  -8.23880533  *
    24       C          3.72313611  *   4.13190648  *  -7.00223198  *
    25       C          2.51886092  *   3.43798728  *  -6.61437921  *
    26       C          2.45203994  *   3.47449708  *  -5.19606503  *
    27       C          1.37845947  *   2.91658763  *  -4.51518522  *
    28       C          0.39145765  *   2.29747461  *  -5.27107381  *
    29       C          0.44936074  *   2.23192234  *  -6.66808751  *
    30       C          1.52105957  *   2.81568121  *  -7.34230135  *
    31       C         -0.61649900  *   1.55544270  *  -7.49084797  *
    32       C         -1.25407407  *   2.59182389  *  -8.42073236  *
    33       C         -1.73057567  *   0.93105056  *  -6.64866351  *
    34       C          0.02861910  *   0.43768404  *  -8.31582074  *
    35       C          6.17853184  *   5.42255129  *  -9.59279510  *
    36       C          6.33527203  *   6.94254548  *  -9.69496025  *
    37       C          5.40007925  *   4.94839882  * -10.82169416  *
    38       C          7.55394122  *   4.74998897  *  -9.61826639  *
    39       C          5.00097427  *   3.78126504  *   4.77639295  *
    40       C          4.13708565  *   2.95309834  *   5.44988453  *
    41       C          4.52968319  *   2.77925635  *   6.80448969  *
    42       C          5.67564554  *   3.48665883  *   7.10790848  *
    43       S          6.26123104  *   4.33907087  *   5.75883422  *
    44       C          6.26658847  *   3.46462804  *   8.41026381  *
    45       C          7.28573703  *   4.24327294  *   8.83234266  *
    46       C          7.78113973  *   4.09295130  *  10.20617405  *
    47       O          7.36527899  *   3.31208350  *  11.05108623  *
    48       O          8.79761968  *   4.92323376  *  10.51547660  *
    49       C          7.91699979  *   5.21970939  *   8.02489670  *
    50       N          8.45084893  *   6.02387932  *   7.38710999  *
    51       H          5.82482062  *   2.73679801  *   9.11226335  *
    52       H         -0.41712034  *   0.50511162  *  -0.88319907  *
    53       H         -0.40793764  *  -1.02124609  *   0.00066129  *
    54       H         -0.41752241  *   0.50677415  *   0.88202277  *
    55       H          1.90219804  *  -0.56080802  *   0.87930662  *
    56       H          1.90203060  *  -0.56074089  *  -0.87948583  *
    57       H          1.67235821  *   1.98931808  *  -0.87965897  *
    58       H          1.67350981  *   1.98918186  *   0.87902517  *
    59       H          3.98970208  *   0.86021422  *   0.87685216  *
    60       H          3.98327728  *   0.86758187  *  -0.89309458  *
    61       H          4.35884853  *   2.13119203  *   2.78084831  *
    62       H          5.39530315  *   6.22002261  *   3.73892461  *
    63       H          5.19415659  *   6.88152488  *   1.34829913  *
    64       H          3.56098868  *   2.32958315  *  -2.77368964  *
    65       H          4.24867011  *   6.52382463  *  -3.67870070  *
    66       H          4.79535113  *   6.98594347  *  -1.29469331  *
    67       H          6.08950644  *   5.54892649  *  -4.93955732  *
    68       H          7.07453034  *   6.02544378  *  -7.13341664  *
    69       H          3.76263234  *   4.04051523  *  -9.12606211  *
    70       H          1.29803271  *   2.97320393  *  -3.42733345  *
    71       H         -0.44536551  *   1.86234325  *  -4.71749960  *
    72       H          1.60261604  *   2.80249280  *  -8.43246290  *
    73       H         -1.67750277  *   3.43661419  *  -7.85895659  *
    74       H         -0.54528443  *   3.01901980  *  -9.14330569  *
    75       H         -2.07238021  *   2.16244718  *  -9.01718361  *
    76       H         -2.27426808  *   1.67509422  *  -6.04911471  *
    77       H         -2.48964515  *   0.43872965  *  -7.27577464  *
    78       H         -1.35711244  *   0.15627287  *  -5.96395033  *
    79       H         -0.71414753  *  -0.12513793  *  -8.90007254  *
    80       H          0.76650696  *   0.80539789  *  -9.04197202  *
    81       H          0.55055657  *  -0.28944218  *  -7.67761648  *
    82       H          5.36711443  *   7.45738713  *  -9.61681669  *
    83       H          6.98055791  *   7.36556647  *  -8.91285807  *
    84       H          6.78290676  *   7.24736290  * -10.65231754  *
    85       H          4.40168061  *   5.40364136  * -10.88898737  *
    86       H          5.91538736  *   5.21099112  * -11.75828181  *
    87       H          5.27276515  *   3.85668663  * -10.84507353  *
    88       H          8.07932023  *   4.92256109  * -10.56903908  *
    89       H          8.22828593  *   5.11276781  *  -8.83044894  *
    90       H          7.47683252  *   3.66098903  *  -9.48909762  *
    91       H          3.25167660  *   2.49131891  *   5.02007321  *
    92       H          3.97505805  *   2.16035862  *   7.50752125  *
    93       H          9.09050408  *   4.78896519  *  11.42850607  *
 


          CARTESIAN COORDINATES 

    NO.       ATOM           X           Y           Z

     1         C          0.0000      0.0000      0.0000
     2         C          1.5199      0.0000      0.0000
     3         C          2.0554      1.4285      0.0000
     4         C          3.5911      1.4148     -0.0034
     5         N          4.1437      2.7661     -0.0101
     6         C          4.4238      3.5468      1.1313
     7         C          4.5320      3.1612      2.4635
     8         C          4.8862      4.1458      3.3812
     9         C          5.1249      5.4712      2.9885
    10         C          5.0106      5.8500      1.6601
    11         C          4.6556      4.8908      0.7261
    12         C          4.4449      4.9468     -0.6966
    13         C          4.0929      3.6353     -1.1172
    14         C          3.8070      3.3426     -2.4473
    15         C          3.8766      4.4079     -3.3447
    16         C          4.2269      5.7115     -2.9456
    17         C          4.5192      5.9786     -1.6183
    18         N          3.5769      4.1701     -4.7061
    19         C          4.3571      4.5695     -5.8114
    20         C          5.5734      5.2419     -5.8517
    21         C          6.1185      5.4924     -7.1008
    22         C          5.4951      5.0873     -8.2926
    23         C          4.2914      4.3952     -8.2388
    24         C          3.7231      4.1319     -7.0022
    25         C          2.5189      3.4380     -6.6144
    26         C          2.4520      3.4745     -5.1961
    27         C          1.3785      2.9166     -4.5152
    28         C          0.3915      2.2975     -5.2711
    29         C          0.4494      2.2319     -6.6681
    30         C          1.5211      2.8157     -7.3423
    31         C         -0.6165      1.5554     -7.4908
    32         C         -1.2541      2.5918     -8.4207
    33         C         -1.7306      0.9311     -6.6487
    34         C          0.0286      0.4377     -8.3158
    35         C          6.1785      5.4226     -9.5928
    36         C          6.3353      6.9425     -9.6950
    37         C          5.4001      4.9484    -10.8217
    38         C          7.5539      4.7500     -9.6183
    39         C          5.0010      3.7813      4.7764
    40         C          4.1371      2.9531      5.4499
    41         C          4.5297      2.7793      6.8045
    42         C          5.6756      3.4867      7.1079
    43         S          6.2612      4.3391      5.7588
    44         C          6.2666      3.4646      8.4103
    45         C          7.2857      4.2433      8.8323
    46         C          7.7811      4.0930     10.2062
    47         O          7.3653      3.3121     11.0511
    48         O          8.7976      4.9232     10.5155
    49         C          7.9170      5.2197      8.0249
    50         N          8.4508      6.0239      7.3871
    51         H          5.8248      2.7368      9.1123
    52         H         -0.4171      0.5051     -0.8832
    53         H         -0.4079     -1.0212      0.0007
    54         H         -0.4175      0.5068      0.8820
    55         H          1.9022     -0.5608      0.8793
    56         H          1.9020     -0.5607     -0.8795
    57         H          1.6724      1.9893     -0.8797
    58         H          1.6735      1.9892      0.8790
    59         H          3.9897      0.8602      0.8769
    60         H          3.9833      0.8676     -0.8931
    61         H          4.3588      2.1312      2.7808
    62         H          5.3953      6.2200      3.7389
    63         H          5.1942      6.8815      1.3483
    64         H          3.5610      2.3296     -2.7737
    65         H          4.2487      6.5238     -3.6787
    66         H          4.7954      6.9859     -1.2947
    67         H          6.0895      5.5489     -4.9396
    68         H          7.0745      6.0254     -7.1334
    69         H          3.7626      4.0405     -9.1261
    70         H          1.2980      2.9732     -3.4273
    71         H         -0.4454      1.8623     -4.7175
    72         H          1.6026      2.8025     -8.4325
    73         H         -1.6775      3.4366     -7.8590
    74         H         -0.5453      3.0190     -9.1433
    75         H         -2.0724      2.1624     -9.0172
    76         H         -2.2743      1.6751     -6.0491
    77         H         -2.4896      0.4387     -7.2758
    78         H         -1.3571      0.1563     -5.9640
    79         H         -0.7141     -0.1251     -8.9001
    80         H          0.7665      0.8054     -9.0420
    81         H          0.5506     -0.2894     -7.6776
    82         H          5.3671      7.4574     -9.6168
    83         H          6.9806      7.3656     -8.9129
    84         H          6.7829      7.2474    -10.6523
    85         H          4.4017      5.4036    -10.8890
    86         H          5.9154      5.2110    -11.7583
    87         H          5.2728      3.8567    -10.8451
    88         H          8.0793      4.9226    -10.5690
    89         H          8.2283      5.1128     -8.8304
    90         H          7.4768      3.6610     -9.4891
    91         H          3.2517      2.4913      5.0201
    92         H          3.9751      2.1604      7.5075
    93         H          9.0905      4.7890     11.4285

           Empirical Formula: C44 H43 N3 O2 S  =    93 atoms



      MOLECULAR POINT GROUP   :   C1  


      RHF CALCULATION, NO. OF DOUBLY OCCUPIED LEVELS = 126

 WARNING: INDO only performs single-point calculations

 Summary of symmetry occupancy in each shell:

 SHELL     
    1  126
    v  117
 TOTAL 243




    ROOT NO.    1           2           3           4           5           6

           -48.86999   -48.29975   -46.74508   -45.20237   -44.79101   -43.86769
  
  
  S  C   1   0.01397     0.01649    -0.00022    -0.00115     0.00423    -0.02390
 PX  C   1   0.00603     0.00711    -0.00009    -0.00037     0.00160    -0.00906
 PY  C   1   0.00232     0.00258    -0.00003    -0.00018     0.00049    -0.00272
 PZ  C   1  -0.00014     0.00003     0.00000     0.00011     0.00004     0.00024
  
  S  C   2   0.03195     0.03761    -0.00046    -0.00174     0.00803    -0.04270
 PX  C   2   0.00630     0.00735    -0.00007    -0.00004     0.00099    -0.00367
 PY  C   2   0.01113     0.01279    -0.00015    -0.00049     0.00223    -0.01156
 PZ  C   2  -0.00040     0.00003     0.00001     0.00014     0.00031     0.00088
  
  S  C   3   0.07630     0.08833    -0.00097    -0.00242     0.01408    -0.06703
 PX  C   3   0.02900     0.03429    -0.00034    -0.00013     0.00461    -0.01602
 PY  C   3   0.01066     0.01172    -0.00010     0.00007     0.00038     0.00020
 PZ  C   3  -0.00203    -0.00024     0.00004     0.00046     0.00149     0.00398
  
  S  C   4   0.13742     0.16132    -0.00161    -0.00188     0.02335    -0.08627
 PX  C   4   0.00933     0.01161    -0.00007     0.00047     0.00130     0.00410
 PY  C   4   0.06241     0.07366    -0.00072    -0.00019     0.00917    -0.02848
 PZ  C   4  -0.00204     0.00088     0.00010     0.00042     0.00365     0.01023
  
  S  N   5   0.31182     0.36592    -0.00343    -0.00025     0.04330    -0.12466
 PX  N   5  -0.00632    -0.00686     0.00014     0.00055    -0.00066     0.01537
 PY  N   5   0.06535     0.07514    -0.00063     0.00104     0.00459    -0.00396
 PZ  N   5  -0.00158     0.00492     0.00022     0.00054     0.01074     0.02922
  
  S  C   6   0.23542     0.28637    -0.00084     0.00197     0.05906     0.09778
 PX  C   6  -0.01070    -0.01195     0.00035     0.00025     0.00130     0.03058
 PY  C   6   0.00711     0.00835     0.00038     0.00081     0.00428     0.05953
 PZ  C   6  -0.08386    -0.09485     0.00187     0.00004     0.00232     0.11377
  
  S  C   7   0.09614     0.12423     0.00272     0.00154     0.05082     0.23146
 PX  C   7  -0.00083    -0.00043     0.00034     0.00015     0.00249     0.02472
 PY  C   7   0.02282     0.03033     0.00080     0.00071     0.01585     0.09187
 PZ  C   7  -0.03802    -0.04619     0.00155    -0.00010    -0.00551     0.04039
  
  S  C   8   0.06390     0.08614     0.00601     0.00183     0.05308     0.34465
 PX  C   8  -0.00348    -0.00451    -0.00004    -0.00005    -0.00173    -0.00611
 PY  C   8   0.00253     0.00330    -0.00066     0.00012     0.00102    -0.00009
 PZ  C   8  -0.02575    -0.03328     0.00185    -0.00045    -0.01058    -0.01404
  
  S  C   9   0.05765     0.07682     0.00289     0.00165     0.04239     0.25205
 PX  C   9  -0.00724    -0.00953    -0.00020    -0.00017    -0.00451    -0.02321
 PY  C   9  -0.01900    -0.02548    -0.00110    -0.00050    -0.01422    -0.08344
 PZ  C   9  -0.01988    -0.02551     0.00047    -0.00043    -0.00863    -0.02803
  
  S  C  10   0.07871     0.09913     0.00104     0.00184     0.03593     0.18324
 PX  C  10  -0.00971    -0.01187     0.00000    -0.00016    -0.00282    -0.00995
 PY  C  10  -0.03669    -0.04678    -0.00038    -0.00071    -0.01671    -0.07308
 PZ  C  10  -0.01007    -0.00950     0.00062    -0.00003     0.00607     0.04310
  
  S  C  11   0.19568     0.23100    -0.00064     0.00266     0.03913     0.11107
 PX  C  11  -0.01948    -0.02175     0.00031    -0.00003     0.00013     0.01821
 PY  C  11  -0.06654    -0.08027     0.00060    -0.00032    -0.01249     0.00938
 PZ  C  11  -0.03225    -0.02795     0.00119     0.00004     0.01842     0.10550
  
  S  C  12   0.21616     0.20648    -0.00210     0.00279    -0.03148    -0.07286
 PX  C  12  -0.01334    -0.01018     0.00018     0.00013     0.00490     0.01343
 PY  C  12  -0.07090    -0.08089     0.00080     0.00016    -0.00677     0.02850
 PZ  C  12   0.01457     0.04675     0.00001    -0.00025     0.03881     0.04391
  
  S  C  13   0.26790     0.25497    -0.00292    -0.00010    -0.03177    -0.13788
 PX  C  13   0.01165     0.01641    -0.00012     0.00096     0.00224     0.00111
 PY  C  13   0.00601    -0.01004     0.00004     0.00153    -0.02188     0.00329
 PZ  C  13   0.06733     0.11366    -0.00080     0.00118     0.04237    -0.00319
  
  S  C  14   0.17150     0.04465    -0.00133    -0.00572    -0.09558    -0.09507
 PX  C  14   0.00800     0.01393    -0.00015     0.00284    -0.00296    -0.00946
 PY  C  14   0.04203     0.00019    -0.00028     0.00153    -0.03871    -0.02357
 PZ  C  14   0.01204     0.07666    -0.00058     0.00249     0.02671    -0.03041
  
  S  C  15   0.22025    -0.07966    -0.00073     0.00191    -0.17592    -0.06303
 PX  C  15  -0.00924     0.01849    -0.00010     0.00600     0.00716    -0.00793
 PY  C  15  -0.01081     0.01127    -0.00003     0.00653     0.00497    -0.00342
 PZ  C  15  -0.03441     0.09071    -0.00054    -0.00215     0.03194    -0.04275
  
  S  C  16   0.12995    -0.00458    -0.00079     0.00875    -0.10492    -0.06667
 PX  C  16  -0.00872     0.00661     0.00000     0.00128     0.00867     0.00072
 PY  C  16  -0.05026     0.00523     0.00028    -0.00078     0.04014     0.02248
 PZ  C  16   0.00355     0.04018    -0.00034    -0.00299     0.00261    -0.02470
  
  S  C  17   0.10934     0.06271    -0.00103     0.00397    -0.06190    -0.06618
 PX  C  17  -0.01111    -0.00403     0.00011    -0.00006     0.00837     0.00924
 PY  C  17  -0.04983    -0.03261     0.00051    -0.00073     0.02388     0.03191
 PZ  C  17  -0.00058     0.02077    -0.00003    -0.00142     0.01802     0.01221
  
  S  N  18   0.35599    -0.31040     0.00042     0.00123    -0.23464     0.03633
 PX  N  18  -0.01132     0.01415    -0.00006     0.02120    -0.00051    -0.00574
 PY  N  18  -0.01075     0.01269    -0.00005     0.01266     0.00040    -0.00458
 PZ  N  18  -0.05051     0.06834    -0.00032    -0.00657    -0.00207    -0.02978
  
  S  C  19   0.26066    -0.25167     0.00059     0.11246    -0.06117     0.03842
 PX  C  19  -0.07512     0.07204    -0.00015     0.03666     0.06344    -0.01930
 PY  C  19  -0.04334     0.04252    -0.00010     0.01774     0.03186    -0.01163
 PZ  C  19   0.02549    -0.01226    -0.00010    -0.04941    -0.08238    -0.00005
  
  S  C  20   0.10896    -0.10680     0.00029     0.14147     0.04656     0.00388
 PX  C  20  -0.04367     0.04177    -0.00009    -0.01900     0.01553    -0.00698
 PY  C  20  -0.02442     0.02410    -0.00006    -0.01337     0.00534    -0.00422
 PZ  C  20  -0.00924     0.01608    -0.00011    -0.06077    -0.05771     0.00089
  
  S  C  21   0.07188    -0.07892     0.00032     0.21405     0.16169    -0.01483
 PX  C  21  -0.02780     0.02983    -0.00011    -0.04835    -0.02600    -0.00230
 PY  C  21  -0.01555     0.01687    -0.00006    -0.02929    -0.01725    -0.00090
 PZ  C  21   0.00213     0.00022    -0.00003    -0.04547    -0.05591     0.01058
  
  S  C  22   0.07607    -0.08714     0.00040     0.29797     0.26154    -0.03246
 PX  C  22  -0.01112     0.01158    -0.00003     0.01292     0.02196    -0.00902
 PY  C  22  -0.00550     0.00575    -0.00002     0.00689     0.01097    -0.00456
 PZ  C  22   0.02094    -0.02159     0.00006    -0.00526    -0.02990     0.01328
  
  S  C  23   0.09090    -0.10047     0.00040     0.18716     0.15373    -0.00454
 PX  C  23   0.00340    -0.00498     0.00004     0.06532     0.05269    -0.00977
 PY  C  23   0.00392    -0.00493     0.00003     0.03881     0.03022    -0.00508
 PZ  C  23   0.04001    -0.04200     0.00013     0.02146    -0.00372     0.01151
  
  S  C  24   0.20860    -0.21521     0.00065     0.10064     0.03038     0.03705
 PX  C  24  -0.00856     0.00731     0.00000     0.07131     0.03510    -0.00719
 PY  C  24  -0.00125     0.00071     0.00001     0.04018     0.01682    -0.00323
 PZ  C  24   0.07972    -0.07652     0.00016    -0.02021    -0.06447     0.01993
  
  S  C  25   0.20960    -0.21480     0.00063    -0.10436     0.03178     0.03644
 PX  C  25   0.03919    -0.03757     0.00007     0.07136    -0.05800     0.01465
 PY  C  25   0.02699    -0.02602     0.00005     0.04012    -0.03581     0.00947
 PZ  C  25   0.06432    -0.06151     0.00013    -0.02304    -0.03614     0.01274
  
  S  C  26   0.26306    -0.24963     0.00055    -0.11158    -0.06218     0.03627
 PX  C  26   0.07523    -0.06795     0.00010     0.05197    -0.08807     0.01676
 PY  C  26   0.04340    -0.03941     0.00006     0.03073    -0.05284     0.00989
 PZ  C  26  -0.02233     0.03371    -0.00019     0.02253    -0.03430    -0.01281
  
  S  C  27   0.11211    -0.10340     0.00023    -0.13832     0.04309     0.00150
 PX  C  27   0.03522    -0.02948     0.00003     0.00693    -0.03556     0.00525
 PY  C  27   0.01688    -0.01445     0.00001     0.00844    -0.02243     0.00343
 PZ  C  27  -0.03305     0.03917    -0.00016     0.06299    -0.03963    -0.00451
  
  S  C  28   0.07221    -0.07578     0.00027    -0.20298     0.14985    -0.01287
 PX  C  28   0.02594    -0.02576     0.00007    -0.02735     0.00357     0.00485
 PY  C  28   0.01381    -0.01367     0.00004    -0.01117    -0.00209     0.00337
 PZ  C  28  -0.01418     0.01771    -0.00009     0.06501    -0.06049     0.00620
  
  S  C  29   0.07732    -0.08627     0.00037    -0.29815     0.26082    -0.03036
 PX  C  29   0.01924    -0.01972     0.00005     0.00506    -0.02328     0.01093
 PY  C  29   0.01194    -0.01223     0.00003     0.00334    -0.01505     0.00689
 PZ  C  29   0.00996    -0.00932     0.00001     0.01183    -0.02814     0.00811
  
  S  C  30   0.09317    -0.10143     0.00038    -0.19913     0.16370    -0.00558
 PX  C  30   0.01282    -0.01230     0.00002     0.05177    -0.05182     0.01341
 PY  C  30   0.00973    -0.00957     0.00002     0.02685    -0.02866     0.00811
 PZ  C  30   0.03699    -0.03879     0.00013    -0.05516     0.02549     0.00440
  
  S  C  31   0.03791    -0.04593     0.00026    -0.30103     0.30680    -0.05308
 PX  C  31   0.00673    -0.00755     0.00003    -0.01926     0.01476    -0.00029
 PY  C  31   0.00420    -0.00471     0.00002    -0.01200     0.00907    -0.00016
 PZ  C  31   0.00381    -0.00409     0.00001    -0.00930     0.00480     0.00036
  
  S  C  32   0.02053    -0.02526     0.00015    -0.17887     0.18596    -0.03313
 PX  C  32   0.00563    -0.00673     0.00004    -0.03660     0.03667    -0.00570
 PY  C  32  -0.00428     0.00542    -0.00003     0.04545    -0.04800     0.00900
 PZ  C  32   0.00574    -0.00696     0.00004    -0.04569     0.04616    -0.00793
  
  S  C  33   0.01911    -0.02346     0.00014    -0.17623     0.18214    -0.03330
 PX  C  33   0.00678    -0.00820     0.00005    -0.05434     0.05488    -0.00947
 PY  C  33   0.00393    -0.00475     0.00003    -0.03091     0.03107    -0.00532
 PZ  C  33  -0.00267     0.00353    -0.00002     0.03382    -0.03676     0.00712
  
  S  C  34   0.02056    -0.02529     0.00015    -0.17896     0.18609    -0.03315
 PX  C  34  -0.00129     0.00181    -0.00001     0.02431    -0.02652     0.00550
 PY  C  34   0.00739    -0.00898     0.00005    -0.05694     0.05824    -0.00984
 PZ  C  34   0.00516    -0.00624     0.00003    -0.04060     0.04090    -0.00700
  
  S  C  35   0.03700    -0.04603     0.00028     0.30111     0.30672    -0.05700
 PX  C  35  -0.00345     0.00394    -0.00002    -0.00677    -0.00471    -0.00064
 PY  C  35  -0.00166     0.00189    -0.00001    -0.00293    -0.00204    -0.00038
 PZ  C  35   0.00771    -0.00879     0.00004     0.02379     0.01712    -0.00057
  
  S  C  36   0.01961    -0.02474     0.00016     0.17978     0.18541    -0.03592
 PX  C  36  -0.00148     0.00179    -0.00001    -0.00821    -0.00797     0.00118
 PY  C  36  -0.00819     0.01032    -0.00006    -0.07258    -0.07455     0.01418
 PZ  C  36   0.00286    -0.00333     0.00002     0.01285     0.01088    -0.00128
  
  S  C  37   0.01943    -0.02459     0.00016     0.17459     0.18302    -0.03513
 PX  C  37   0.00231    -0.00310     0.00002     0.03208     0.03391    -0.00720
 PY  C  37   0.00152    -0.00203     0.00001     0.01981     0.02086    -0.00438
 PZ  C  37   0.00771    -0.00961     0.00006     0.06020     0.06149    -0.01108
  
  S  C  38   0.01960    -0.02473     0.00016     0.17963     0.18531    -0.03588
 PX  C  38  -0.00783     0.00982    -0.00006    -0.06637    -0.06786     0.01270
 PY  C  38   0.00320    -0.00409     0.00003     0.03193     0.03306    -0.00653
 PZ  C  38   0.00244    -0.00281     0.00001     0.00912     0.00706    -0.00055
  
  S  C  39   0.02229     0.03183     0.01544     0.00106     0.03604     0.36004
 PX  C  39  -0.00185    -0.00261    -0.00018    -0.00007    -0.00242    -0.02073
 PY  C  39   0.00094     0.00116    -0.00203     0.00000    -0.00106    -0.02561
 PZ  C  39  -0.00825    -0.01106     0.00574    -0.00016    -0.00308     0.02811
  
  S  C  40   0.01165     0.01711     0.01616     0.00070     0.02599     0.30321
 PX  C  40   0.00272     0.00414     0.00585     0.00021     0.00777     0.09693
 PY  C  40   0.00249     0.00369     0.00290     0.00016     0.00542     0.06029
 PZ  C  40  -0.00316    -0.00427     0.00360    -0.00005    -0.00104     0.01723
  
  S  C  41   0.00560     0.00868     0.02499     0.00051     0.01988     0.27112
 PX  C  41   0.00090     0.00144     0.00799     0.00010     0.00401     0.05775
 PY  C  41   0.00132     0.00207     0.00568     0.00012     0.00480     0.06492
 PZ  C  41  -0.00225    -0.00339     0.00001    -0.00016    -0.00608    -0.07365
  
  S  C  42   0.00471     0.00742     0.04769     0.00047     0.01855     0.26349
 PX  C  42  -0.00115    -0.00177     0.00668    -0.00010    -0.00400    -0.05188
 PY  C  42  -0.00020    -0.00032     0.00177    -0.00002    -0.00101    -0.01456
 PZ  C  42  -0.00185    -0.00282     0.01102    -0.00015    -0.00546    -0.06583
  
  S  S  43   0.00743     0.01106     0.02257     0.00051     0.01844     0.22450
 PX  S  43  -0.00364    -0.00545    -0.00489    -0.00025    -0.00926    -0.11137
 PY  S  43  -0.00160    -0.00250    -0.00616    -0.00015    -0.00573    -0.07694
 PZ  S  43  -0.00235    -0.00325     0.00980    -0.00007    -0.00155     0.00352
  
  S  C  44   0.00145     0.00243     0.11280     0.00017     0.00719     0.11828
 PX  C  44  -0.00027    -0.00041     0.03506    -0.00004    -0.00135    -0.01690
 PY  C  44   0.00002     0.00006     0.02112     0.00000     0.00016     0.00455
 PZ  C  44  -0.00059    -0.00093     0.02746    -0.00008    -0.00304    -0.04347
  
  S  C  45   0.00073     0.00134     0.22548     0.00005     0.00259     0.05338
 PX  C  45  -0.00014    -0.00022     0.03355    -0.00003    -0.00136    -0.02126
 PY  C  45  -0.00008    -0.00014    -0.00363    -0.00001    -0.00051    -0.00858
 PZ  C  45  -0.00012    -0.00015     0.07925    -0.00004    -0.00172    -0.02547
  
  S  C  46   0.00052     0.00114     0.51344    -0.00008    -0.00258    -0.02436
 PX  C  46  -0.00000     0.00003     0.07636    -0.00003    -0.00120    -0.01910
 PY  C  46  -0.00000     0.00000     0.02047    -0.00001    -0.00042    -0.00740
 PZ  C  46   0.00001     0.00006     0.11578    -0.00004    -0.00160    -0.02383
  
  S  O  47   0.00037     0.00084     0.41163    -0.00007    -0.00234    -0.02341
 PX  O  47   0.00005     0.00012     0.07618    -0.00002    -0.00065    -0.00842
 PY  O  47   0.00010     0.00022     0.11994    -0.00002    -0.00080    -0.00907
 PZ  O  47  -0.00011    -0.00024    -0.10380     0.00001     0.00040     0.00230
  
  S  O  48   0.00042     0.00098     0.57428    -0.00013    -0.00461    -0.06021
 PX  O  48  -0.00009    -0.00021    -0.11081     0.00002     0.00076     0.00906
 PY  O  48  -0.00009    -0.00022    -0.12439     0.00003     0.00097     0.01225
 PZ  O  48   0.00001     0.00004     0.04091    -0.00001    -0.00052    -0.00791
  
  S  C  49   0.00042     0.00077     0.11223     0.00004     0.00185     0.03726
 PX  C  49  -0.00011    -0.00020    -0.00764    -0.00002    -0.00069    -0.01151
 PY  C  49  -0.00012    -0.00022    -0.02841    -0.00001    -0.00051    -0.00931
 PZ  C  49   0.00004     0.00009     0.04600    -0.00001    -0.00031    -0.00377
  
  S  N  50   0.00016     0.00029     0.03928     0.00002     0.00087     0.01816
 PX  N  50  -0.00005    -0.00008    -0.00842    -0.00001    -0.00031    -0.00599
 PY  N  50  -0.00006    -0.00011    -0.01586    -0.00001    -0.00036    -0.00735
 PZ  N  50   0.00005     0.00009     0.01698     0.00000     0.00016     0.00367
  
  S  H  51   0.00054     0.00091     0.05234     0.00006     0.00261     0.04351
  
  S  H  52   0.00642     0.00723    -0.00010    -0.00076     0.00189    -0.01049
  
  S  H  53   0.00426     0.00509    -0.00007    -0.00039     0.00143    -0.00811
  
  S  H  54   0.00616     0.00733    -0.00009    -0.00047     0.00187    -0.01016
  
  S  H  55   0.01345     0.01614    -0.00019    -0.00063     0.00361    -0.01722
  
  S  H  56   0.01391     0.01605    -0.00020    -0.00081     0.00322    -0.01834
  
  S  H  57   0.03820     0.04014    -0.00047    -0.00199     0.00418    -0.03220
  
  S  H  58   0.03415     0.04026    -0.00040    -0.00087     0.00698    -0.02560
  
  S  H  59   0.04921     0.05926    -0.00049    -0.00056     0.01084    -0.02438
  
  S  H  60   0.05119     0.05714    -0.00062    -0.00106     0.00615    -0.03703
  
  S  H  61   0.03196     0.04118     0.00129     0.00037     0.01675     0.07493
  
  S  H  62   0.01366     0.01852     0.00132     0.00046     0.01222     0.08251
  
  S  H  63   0.02178     0.02641     0.00023     0.00057     0.00799     0.04640
  
  S  H  64   0.06560     0.00793    -0.00043    -0.00606    -0.03208    -0.03073
  
  S  H  65   0.04591    -0.01665    -0.00016     0.00688    -0.03702    -0.01509
  
  S  H  66   0.02864     0.01824    -0.00025     0.00138    -0.01486    -0.01310
  
  S  H  67   0.03816    -0.03237     0.00005     0.03698     0.00019    -0.00132
  
  S  H  68   0.01922    -0.02157     0.00010     0.08079     0.06865    -0.00963
  
  S  H  69   0.02722    -0.03070     0.00013     0.06232     0.06425    -0.00468
  
  S  H  70   0.04137    -0.02889     0.00000    -0.03583    -0.00058    -0.00414
  
  S  H  71   0.01910    -0.02005     0.00008    -0.07354     0.06103    -0.00816
  
  S  H  72   0.02798    -0.03125     0.00013    -0.07016     0.07086    -0.00543
  
  S  H  73   0.00883    -0.01075     0.00006    -0.07225     0.07437    -0.01305
  
  S  H  74   0.00980    -0.01190     0.00007    -0.07489     0.07758    -0.01327
  
  S  H  75   0.00684    -0.00855     0.00005    -0.06754     0.07132    -0.01322
  
  S  H  76   0.00844    -0.01021     0.00006    -0.07258     0.07411    -0.01335
  
  S  H  77   0.00654    -0.00817     0.00005    -0.06746     0.07097    -0.01340
  
  S  H  78   0.00844    -0.01021     0.00006    -0.07253     0.07406    -0.01334
  
  S  H  79   0.00685    -0.00856     0.00005    -0.06758     0.07138    -0.01323
  
  S  H  80   0.00983    -0.01193     0.00007    -0.07497     0.07770    -0.01328
  
  S  H  81   0.00886    -0.01078     0.00006    -0.07231     0.07445    -0.01306
  
  S  H  82   0.00852    -0.01063     0.00006     0.07254     0.07428    -0.01412
  
  S  H  83   0.00901    -0.01119     0.00007     0.07602     0.07711    -0.01463
  
  S  H  84   0.00655    -0.00841     0.00006     0.06777     0.07116    -0.01429
  
  S  H  85   0.00884    -0.01104     0.00007     0.07142     0.07468    -0.01391
  
  S  H  86   0.00657    -0.00845     0.00006     0.06696     0.07107    -0.01420
  
  S  H  87   0.00884    -0.01105     0.00007     0.07142     0.07471    -0.01391
  
  S  H  88   0.00655    -0.00841     0.00006     0.06772     0.07112    -0.01428
  
  S  H  89   0.00899    -0.01117     0.00007     0.07589     0.07701    -0.01461
  
  S  H  90   0.00850    -0.01062     0.00006     0.07245     0.07423    -0.01410
  
  S  H  91   0.00533     0.00758     0.00413     0.00024     0.00889     0.09305
  
  S  H  92   0.00137     0.00214     0.00887     0.00013     0.00526     0.07407
  
  S  H  93   0.00017     0.00040     0.24203    -0.00006    -0.00201    -0.02668




    ROOT NO.    7           8           9          10          11          12

           -42.55898   -42.27051   -41.04415   -40.57938   -39.65515   -39.53898
  
  
  S  C   1  -0.05080     0.13207    -0.00180     0.24324     0.05164     0.17461
 PX  C   1  -0.01833     0.04692    -0.00047     0.07841     0.01547     0.05192
 PY  C   1  -0.00481     0.01233    -0.00024     0.01754     0.00314     0.01021
 PZ  C   1  -0.00028    -0.00016     0.00021    -0.00002    -0.00016    -0.00019
  
  S  C   2  -0.08415     0.21233    -0.00172     0.33841     0.06501     0.21794
 PX  C   2  -0.00425     0.00737     0.00052    -0.01434    -0.00651    -0.02292
 PY  C   2  -0.01998     0.04929    -0.00033     0.06233     0.00992     0.03223
 PZ  C   2  -0.00101    -0.00057     0.00039    -0.00003    -0.00044    -0.00043
  
  S  C   3  -0.10964     0.26294    -0.00012     0.30159     0.04526     0.14716
 PX  C   3  -0.01974     0.03687     0.00208    -0.01578    -0.01132    -0.03918
 PY  C   3   0.00977    -0.02784     0.00066    -0.07811    -0.01743    -0.05979
 PZ  C   3  -0.00457    -0.00256     0.00138     0.00002    -0.00182    -0.00154
  
  S  C   4  -0.12819     0.26889     0.00593     0.15517    -0.00007    -0.00239
 PX  C   4   0.00832    -0.03463     0.00177    -0.08047    -0.01821    -0.05810
 PY  C   4  -0.03014     0.04926     0.00383    -0.04547    -0.01885    -0.06263
 PZ  C   4  -0.01209    -0.00577     0.00143     0.00182    -0.00474    -0.00390
  
  S  N   5  -0.13747     0.21882     0.01719    -0.12226    -0.05694    -0.17926
 PX  N   5   0.01348    -0.04774     0.00009    -0.03392    -0.00395    -0.00467
 PY  N   5   0.01999    -0.06462     0.00313    -0.10976    -0.01074    -0.03038
 PZ  N   5  -0.04122    -0.01653     0.00186     0.00668    -0.01854    -0.01528
  
  S  C   6  -0.15451    -0.09206     0.00338    -0.04548    -0.06801    -0.07346
 PX  C   6   0.00079    -0.04489    -0.00249     0.01277    -0.00013     0.01765
 PY  C   6   0.00852    -0.11923    -0.00481    -0.00139    -0.00115     0.04371
 PZ  C   6  -0.01408    -0.09517    -0.01074     0.13036     0.00990     0.07487
  
  S  C   7  -0.11572    -0.13658    -0.00898     0.12109    -0.01539     0.01416
 PX  C   7  -0.00186    -0.02386    -0.00164     0.01175     0.00175     0.00898
 PY  C   7  -0.03434    -0.09769    -0.00557     0.04289    -0.00799     0.02788
 PZ  C   7   0.04155     0.00138    -0.00291     0.02945     0.03302     0.02263
  
  S  C   8  -0.06706    -0.17580    -0.01530     0.17329     0.03056     0.05720
 PX  C   8   0.00522     0.00404     0.00018    -0.00341     0.00136     0.00091
 PY  C   8  -0.01467    -0.04057    -0.00182     0.00866    -0.01183     0.01876
 PZ  C   8   0.06726     0.10212     0.00389    -0.02983     0.04000    -0.02610
  
  S  C   9  -0.08660    -0.21994    -0.01489     0.14442    -0.00764     0.08232
 PX  C   9   0.01097     0.02299     0.00133    -0.01230     0.00272    -0.00649
 PY  C   9   0.02578     0.05455     0.00403    -0.04351    -0.00199    -0.01370
 PZ  C   9   0.03542     0.07304     0.00280    -0.01590     0.02189    -0.02239
  
  S  C  10  -0.08133    -0.24057    -0.01158     0.08191    -0.02763     0.08690
 PX  C  10   0.00576     0.01614     0.00038     0.00084     0.00282    -0.00280
 PY  C  10   0.04125     0.08616     0.00381    -0.02604     0.01507    -0.01783
 PZ  C  10  -0.02255    -0.01976    -0.00335     0.04650    -0.00275     0.00943
  
  S  C  11  -0.06157    -0.21796    -0.00220    -0.05873    -0.03566     0.02758
 PX  C  11  -0.00421    -0.01592    -0.00193     0.02437     0.00044     0.01451
 PY  C  11   0.03317    -0.01645    -0.00406     0.05077     0.02024     0.05345
 PZ  C  11  -0.07510    -0.07503    -0.00756     0.09784    -0.02320     0.02499
  
  S  C  12   0.19900    -0.12437     0.00247    -0.11977     0.06821     0.09790
 PX  C  12  -0.01838    -0.00674     0.00045     0.00336    -0.00625    -0.00236
 PY  C  12   0.01566    -0.02755    -0.00249     0.05916     0.01645     0.05328
 PZ  C  12  -0.13461    -0.00015     0.00337    -0.04742    -0.05835    -0.07912
  
  S  C  13   0.15775     0.02673    -0.00055    -0.10901     0.04642     0.00811
 PX  C  13   0.00440    -0.01898     0.00322    -0.02817    -0.00141    -0.00448
 PY  C  13   0.10495    -0.09738    -0.00139    -0.01737     0.03605     0.07195
 PZ  C  13  -0.12476     0.04626     0.01356    -0.10149    -0.05025    -0.10183
  
  S  C  14   0.23921    -0.01545    -0.03087     0.07436     0.04721     0.06025
 PX  C  14   0.02636    -0.00942     0.00777    -0.00920     0.01097     0.01280
 PY  C  14   0.11877    -0.05056    -0.00197     0.01876     0.02814     0.04745
 PZ  C  14   0.00005     0.02714     0.01182    -0.05490     0.03152     0.02472
  
  S  C  15   0.30179    -0.08423    -0.01551     0.17287    -0.00608     0.01830
 PX  C  15   0.02218    -0.00895     0.01850    -0.01157     0.02133     0.02974
 PY  C  15   0.02455    -0.01789     0.02164    -0.00907     0.02108     0.03388
 PZ  C  15   0.09503    -0.02148    -0.00686    -0.05077     0.09406     0.12656
  
  S  C  16   0.29303    -0.09990     0.01334     0.08506     0.07356     0.12962
 PX  C  16  -0.00644     0.00021     0.00457    -0.01174     0.00753     0.00992
 PY  C  16  -0.08957     0.02436     0.00282    -0.03458    -0.00873    -0.01666
 PZ  C  16   0.07310    -0.02681    -0.00978    -0.02598     0.05312     0.07612
  
  S  C  17   0.26955    -0.11841     0.00254     0.00026     0.10822     0.17756
 PX  C  17  -0.03039     0.00749     0.00092    -0.00418    -0.01032    -0.01493
 PY  C  17  -0.10025     0.03498     0.00151     0.00858    -0.03513    -0.05018
 PZ  C  17  -0.04644    -0.00173    -0.00272    -0.03417    -0.01390    -0.01991
  
  S  N  18   0.02807    -0.01627    -0.00983     0.18448    -0.17920    -0.23164
 PX  N  18   0.02505    -0.00964     0.05747     0.01433     0.00364     0.00791
 PY  N  18   0.02112    -0.00888     0.03500     0.01009     0.00413     0.00853
 PZ  N  18   0.10843    -0.02652    -0.02526     0.05749     0.01576     0.03328
  
  S  C  19  -0.08417     0.01138     0.22790    -0.01409    -0.01451    -0.02398
 PX  C  19   0.03282    -0.00776     0.07099    -0.02703     0.06615     0.09293
 PY  C  19   0.02432    -0.00634     0.03522    -0.00923     0.03393     0.04872
 PZ  C  19   0.05326    -0.01586    -0.08215     0.09798    -0.08302    -0.10443
  
  S  C  20  -0.02417    -0.00043     0.25811    -0.05083     0.08002     0.10953
 PX  C  20   0.01335    -0.00107    -0.05136     0.00113     0.00255     0.00403
 PY  C  20   0.01076    -0.00171    -0.03225     0.00407    -0.00063    -0.00004
 PZ  C  20   0.02722    -0.00775    -0.07948     0.05063    -0.05001    -0.06435
  
  S  C  21  -0.01072     0.00175     0.18948    -0.06640     0.09554     0.12914
 PX  C  21   0.02101    -0.00406    -0.09446     0.03668    -0.04040    -0.05288
 PY  C  21   0.01148    -0.00234    -0.05071     0.02034    -0.02213    -0.02888
 PZ  C  21  -0.01773     0.00209     0.06175    -0.01473     0.01644     0.02188
  
  S  C  22   0.01672    -0.00121     0.08031    -0.04331     0.06465     0.08703
 PX  C  22   0.02911    -0.00598    -0.07412     0.03687    -0.03314    -0.04206
 PY  C  22   0.01482    -0.00310    -0.03575     0.01860    -0.01625    -0.02051
 PZ  C  22  -0.04328     0.00802     0.15389    -0.05960     0.06408     0.08388
  
  S  C  23  -0.05107     0.01311     0.15936    -0.10234     0.09793     0.12533
 PX  C  23   0.01580    -0.00346     0.02195     0.00240     0.01063     0.01601
 PY  C  23   0.00703    -0.00158     0.01798    -0.00105     0.00818     0.01182
 PZ  C  23  -0.04404     0.00920     0.10803    -0.05093     0.04236     0.05316
  
  S  C  24  -0.14362     0.03274     0.17494    -0.12602     0.06300     0.06994
 PX  C  24   0.01008    -0.00396     0.11492    -0.01136     0.03313     0.04624
 PY  C  24   0.00471    -0.00222     0.06585    -0.00494     0.01633     0.02291
 PZ  C  24  -0.03334     0.00617    -0.01165     0.02269    -0.05190    -0.07233
  
  S  C  25  -0.14472     0.04002    -0.15115    -0.14019     0.06272     0.07078
 PX  C  25  -0.02198     0.00183     0.10396     0.02825    -0.04968    -0.07021
 PY  C  25  -0.01475     0.00147     0.05692     0.01635    -0.03024    -0.04273
 PZ  C  25  -0.02448     0.00695    -0.06093     0.00763    -0.02490    -0.03451
  
  S  C  26  -0.08988     0.02837    -0.22315    -0.03152    -0.01495    -0.02445
 PX  C  26  -0.00516    -0.00424     0.09095     0.07211    -0.09200    -0.12511
 PY  C  26  -0.00123    -0.00364     0.05272     0.04431    -0.05528    -0.07472
 PZ  C  26   0.06489    -0.01547     0.01798     0.07353    -0.03318    -0.03699
  
  S  C  27  -0.03292     0.02122    -0.25753    -0.07042     0.08127     0.11193
 PX  C  27  -0.00119     0.00091    -0.01232     0.02031    -0.02403    -0.03249
 PY  C  27   0.00019    -0.00071    -0.00001     0.01383    -0.01678    -0.02263
 PZ  C  27   0.03214    -0.00879     0.09450     0.05620    -0.04258    -0.05519
  
  S  C  28  -0.01694     0.01217    -0.19396    -0.08663     0.09986     0.13657
 PX  C  28  -0.02629     0.01053    -0.10023    -0.04558     0.04124     0.05471
 PY  C  28  -0.01563     0.00608    -0.05743    -0.02583     0.02304     0.03055
 PZ  C  28  -0.00337     0.00204     0.00408     0.01190    -0.01051    -0.01362
  
  S  C  29   0.01960    -0.00305    -0.07904    -0.05208     0.06540     0.08935
 PX  C  29  -0.04225     0.01451    -0.11374    -0.06443     0.05317     0.06939
 PY  C  29  -0.02647     0.00913    -0.07281    -0.04052     0.03376     0.04417
 PZ  C  29  -0.02768     0.01066    -0.09666    -0.04230     0.03990     0.05359
  
  S  C  30  -0.04687     0.01577    -0.13857    -0.11347     0.09563     0.12398
 PX  C  30  -0.03456     0.00967    -0.02282    -0.02594     0.00891     0.00889
 PY  C  30  -0.02210     0.00630    -0.01968    -0.01846     0.00794     0.00878
 PZ  C  30  -0.03093     0.01102    -0.10367    -0.05311     0.04396     0.05763
  
  S  C  31   0.11345    -0.03690     0.21713     0.10858    -0.08083    -0.10466
 PX  C  31  -0.00721     0.00282    -0.03359    -0.02172     0.02216     0.02968
 PY  C  31  -0.00455     0.00179    -0.02163    -0.01369     0.01406     0.01886
 PZ  C  31  -0.00530     0.00236    -0.02971    -0.01433     0.01609     0.02204
  
  S  C  32   0.07459    -0.02478     0.15898     0.07940    -0.06380    -0.08363
 PX  C  32   0.00996    -0.00318     0.01522     0.00525    -0.00239    -0.00290
 PY  C  32  -0.02163     0.00722    -0.04811    -0.02520     0.02075     0.02723
 PZ  C  32   0.01662    -0.00534     0.02940     0.01488    -0.01035    -0.01322
  
  S  C  33   0.07707    -0.02514     0.15744     0.08495    -0.06666    -0.08666
 PX  C  33   0.01984    -0.00631     0.03433     0.01760    -0.01190    -0.01511
 PY  C  33   0.01097    -0.00347     0.01820     0.00932    -0.00605    -0.00762
 PZ  C  33  -0.01816     0.00626    -0.04507    -0.02322     0.02043     0.02708
  
  S  C  34   0.07461    -0.02478     0.15925     0.07945    -0.06387    -0.08374
 PX  C  34  -0.01496     0.00506    -0.03625    -0.02030     0.01757     0.02315
 PY  C  34   0.02017    -0.00659     0.03825     0.01759    -0.01265    -0.01636
 PZ  C  34   0.01457    -0.00466     0.02527     0.01283    -0.00877    -0.01116
  
  S  C  35   0.10489    -0.01837    -0.23144     0.08977    -0.08010    -0.10257
 PX  C  35   0.00590    -0.00135    -0.02229     0.01234    -0.01359    -0.01775
 PY  C  35   0.00310    -0.00072    -0.01082     0.00626    -0.00669    -0.00870
 PZ  C  35  -0.00689     0.00147     0.04601    -0.01974     0.02626     0.03524
  
  S  C  36   0.07071    -0.01269    -0.16620     0.06795    -0.06365    -0.08195
 PX  C  36  -0.00121     0.00014     0.00091     0.00049    -0.00095    -0.00128
 PY  C  36  -0.02696     0.00477     0.06117    -0.02421     0.02195     0.02815
 PZ  C  36   0.00005     0.00004     0.01069    -0.00445     0.00714     0.00976
  
  S  C  37   0.06805    -0.01187    -0.17333     0.06546    -0.06508    -0.08472
 PX  C  37   0.01605    -0.00297    -0.04193     0.01823    -0.01823    -0.02367
 PY  C  37   0.00959    -0.00177    -0.02470     0.01066    -0.01058    -0.01373
 PZ  C  37   0.01911    -0.00323    -0.04054     0.01411    -0.01184    -0.01506
  
  S  C  38   0.07059    -0.01265    -0.16619     0.06782    -0.06360    -0.08191
 PX  C  38  -0.02350     0.00411     0.05206    -0.02011     0.01787     0.02287
 PY  C  38   0.01318    -0.00239    -0.03086     0.01294    -0.01199    -0.01540
 PZ  C  38  -0.00138     0.00030     0.01383    -0.00574     0.00828     0.01121
  
  S  C  39   0.11775     0.10802    -0.00221     0.05076     0.11257    -0.02997
 PX  C  39  -0.00313    -0.00254     0.00040    -0.00756    -0.01019     0.00284
 PY  C  39  -0.02792    -0.04263    -0.00179     0.01498    -0.01557     0.01613
 PZ  C  39   0.07971     0.11900     0.00613    -0.06461     0.02360    -0.03844
  
  S  C  40   0.15436     0.18164     0.00337    -0.01231     0.10983    -0.05810
 PX  C  40   0.05521     0.06575     0.00157    -0.01067     0.03191    -0.01906
 PY  C  40   0.02598     0.02704     0.00010     0.00319     0.02050    -0.00772
 PZ  C  40   0.04073     0.05820     0.00320    -0.03686     0.00458    -0.01664
  
  S  C  41   0.18385     0.23245     0.00788    -0.07346     0.05451    -0.05308
 PX  C  41   0.04262     0.05469     0.00216    -0.02324    -0.00492    -0.00541
 PY  C  41   0.04296     0.05354     0.00173    -0.01600     0.01324    -0.01222
 PZ  C  41  -0.03851    -0.04504    -0.00061    -0.00204    -0.05101     0.02549
  
  S  C  42   0.19300     0.24876     0.00998    -0.10896    -0.04169    -0.01643
 PX  C  42  -0.03056    -0.03655    -0.00062    -0.00057    -0.05188     0.02587
 PY  C  42  -0.01052    -0.01355    -0.00041     0.00273    -0.01108     0.00574
 PZ  C  42  -0.03225    -0.03564     0.00005    -0.01176    -0.08252     0.03933
  
  S  S  43   0.12475     0.14632     0.00377    -0.03233     0.03326    -0.02657
 PX  S  43  -0.05859    -0.06714    -0.00123     0.00527    -0.04163     0.02023
 PY  S  43  -0.05029    -0.06301    -0.00197     0.01704    -0.01960     0.01558
 PZ  S  43   0.02898     0.04685     0.00318    -0.03966    -0.03262    -0.00165
  
  S  C  44   0.10959     0.15026     0.00856    -0.11552    -0.23504     0.09239
 PX  C  44  -0.00878    -0.00968     0.00017    -0.00756    -0.05634     0.02924
 PY  C  44   0.00691     0.01040     0.00088    -0.01394    -0.03525     0.01173
 PZ  C  44  -0.03212    -0.04129    -0.00151     0.01405    -0.04056     0.03538
  
  S  C  45   0.06143     0.08810     0.00617    -0.09094    -0.21238     0.07592
 PX  C  45  -0.01940    -0.02663    -0.00156     0.02178     0.07514    -0.04403
 PY  C  45  -0.00844    -0.01177    -0.00076     0.01153     0.06980    -0.04880
 PZ  C  45  -0.02196    -0.02974    -0.00158     0.02015     0.00388     0.01499
  
  S  C  46  -0.01002    -0.01067     0.00019    -0.00862    -0.11155     0.07733
 PX  C  46  -0.02036    -0.02945    -0.00237     0.03948     0.23265    -0.14903
 PY  C  46  -0.00922    -0.01389    -0.00138     0.02587     0.22826    -0.16061
 PZ  C  46  -0.02247    -0.03130    -0.00193     0.02606    -0.01300     0.03999
  
  S  O  47  -0.00985    -0.00997     0.00070    -0.02331    -0.38652     0.29024
 PX  O  47  -0.00687    -0.00932    -0.00053     0.00697     0.00056     0.00674
 PY  O  47  -0.00577    -0.00726    -0.00022     0.00083    -0.05223     0.04312
 PZ  O  47  -0.00172    -0.00358    -0.00063     0.01281     0.11619    -0.08079
  
  S  O  48  -0.05206    -0.07251    -0.00510     0.08161     0.43853    -0.27554
 PX  O  48   0.00657     0.00874     0.00049    -0.00711    -0.03416     0.02198
 PY  O  48   0.00996     0.01363     0.00086    -0.01283    -0.04973     0.02786
 PZ  O  48  -0.00811    -0.01161    -0.00086     0.01329     0.03775    -0.01520
  
  S  C  49   0.04367     0.06310     0.00462    -0.06897    -0.09007    -0.01357
 PX  C  49  -0.01069    -0.01460    -0.00079     0.01015     0.02748    -0.01678
 PY  C  49  -0.00901    -0.01234    -0.00064     0.00778     0.01906    -0.01321
 PZ  C  49  -0.00293    -0.00401    -0.00028     0.00465     0.01637    -0.00630
  
  S  N  50   0.02315     0.03420     0.00281    -0.04399    -0.05338    -0.02037
 PX  N  50  -0.00709    -0.01030    -0.00078     0.01184     0.01671     0.00197
 PY  N  50  -0.00911    -0.01335    -0.00104     0.01597     0.01943     0.00604
 PZ  N  50   0.00501     0.00748     0.00063    -0.00988    -0.00712    -0.00911
  
  S  H  51   0.04077     0.05605     0.00323    -0.04402    -0.10665     0.04990
  
  S  H  52  -0.02150     0.05660    -0.00114     0.10357     0.02219     0.07459
  
  S  H  53  -0.01789     0.04677    -0.00064     0.09025     0.01969     0.06682
  
  S  H  54  -0.02188     0.05638    -0.00071     0.10356     0.02192     0.07425
  
  S  H  55  -0.03574     0.08778    -0.00041     0.13881     0.02612     0.08819
  
  S  H  56  -0.03450     0.08847    -0.00087     0.13885     0.02665     0.08873
  
  S  H  57  -0.03998     0.11070    -0.00265     0.12305     0.02045     0.06165
  
  S  H  58  -0.04826     0.10707     0.00038     0.12290     0.01736     0.05879
  
  S  H  59  -0.05678     0.10201     0.00250     0.07303    -0.00028     0.00410
  
  S  H  60  -0.04252     0.10819     0.00084     0.07060     0.00456     0.00830
  
  S  H  61  -0.03366    -0.01117    -0.00185     0.04452     0.00279    -0.00431
  
  S  H  62  -0.01801    -0.05752    -0.00460     0.04715     0.00431     0.02578
  
  S  H  63  -0.01424    -0.07171    -0.00323     0.02039    -0.00462     0.03317
  
  S  H  64   0.05419     0.01901    -0.02085     0.04068     0.00427     0.00325
  
  S  H  65   0.08229    -0.02993     0.01520     0.03663     0.01420     0.03041
  
  S  H  66   0.07215    -0.04171     0.00157    -0.00102     0.03213     0.05791
  
  S  H  67   0.01089    -0.00613     0.07475     0.00055     0.01889     0.02858
  
  S  H  68   0.00941    -0.00196     0.03056    -0.00825     0.02019     0.02844
  
  S  H  69  -0.01021     0.00347     0.01885    -0.02819     0.02499     0.03155
  
  S  H  70   0.00483     0.00761    -0.07738    -0.00079     0.01900     0.02867
  
  S  H  71   0.00642     0.00055    -0.03734    -0.01301     0.02277     0.03241
  
  S  H  72  -0.00654     0.00181    -0.00969    -0.02742     0.02314     0.02951
  
  S  H  73   0.02874    -0.00948     0.05907     0.02955    -0.02327    -0.03041
  
  S  H  74   0.02823    -0.00939     0.05959     0.02772    -0.02196    -0.02884
  
  S  H  75   0.03159    -0.01061     0.07201     0.03714    -0.03121    -0.04112
  
  S  H  76   0.03008    -0.00965     0.05779     0.03169    -0.02389    -0.03083
  
  S  H  77   0.03263    -0.01083     0.07252     0.03926    -0.03256    -0.04269
  
  S  H  78   0.03005    -0.00963     0.05778     0.03169    -0.02388    -0.03081
  
  S  H  79   0.03161    -0.01061     0.07213     0.03718    -0.03126    -0.04119
  
  S  H  80   0.02824    -0.00939     0.05975     0.02773    -0.02198    -0.02888
  
  S  H  81   0.02873    -0.00947     0.05918     0.02954    -0.02328    -0.03044
  
  S  H  82   0.02705    -0.00482    -0.06213     0.02504    -0.02316    -0.02978
  
  S  H  83   0.02798    -0.00505    -0.06030     0.02523    -0.02220    -0.02828
  
  S  H  84   0.02970    -0.00538    -0.07576     0.03133    -0.03103    -0.04027
  
  S  H  85   0.02573    -0.00439    -0.06507     0.02327    -0.02311    -0.03012
  
  S  H  86   0.02926    -0.00521    -0.07863     0.03104    -0.03192    -0.04170
  
  S  H  87   0.02574    -0.00439    -0.06518     0.02327    -0.02314    -0.03016
  
  S  H  88   0.02965    -0.00537    -0.07572     0.03128    -0.03100    -0.04023
  
  S  H  89   0.02790    -0.00502    -0.06029     0.02516    -0.02219    -0.02828
  
  S  H  90   0.02698    -0.00479    -0.06218     0.02498    -0.02316    -0.02979
  
  S  H  91   0.03771     0.04327     0.00026     0.00643     0.03490    -0.01526
  
  S  H  92   0.05338     0.06871     0.00258    -0.02591     0.00604    -0.01182
  
  S  H  93  -0.02347    -0.03276    -0.00229     0.03618     0.17119    -0.10211




    ROOT NO.   13          14          15          16          17          18

           -39.08591   -37.09697   -36.27473   -35.68978   -33.93638   -33.78610
  
  
  S  C   1   0.06655     0.22585     0.00994     0.15640    -0.23302     0.07139
 PX  C   1   0.01904     0.05135     0.00216     0.02705    -0.02252     0.00576
 PY  C   1   0.00344     0.00475    -0.00003    -0.00009     0.00775    -0.00166
 PZ  C   1   0.00002     0.00040     0.00020    -0.00011    -0.00061    -0.00190
  
  S  C   2   0.07914     0.20600     0.00876     0.10818    -0.10105     0.02517
 PX  C   2  -0.01064    -0.06450    -0.00292    -0.05848     0.10654    -0.03526
 PY  C   2   0.01025     0.00502    -0.00019    -0.01076     0.04015    -0.01216
 PZ  C   2   0.00011     0.00090     0.00019     0.00029    -0.00217    -0.00525
  
  S  C   3   0.04609     0.02517     0.00029    -0.03758     0.13121    -0.04295
 PX  C   3  -0.01809    -0.09556    -0.00351    -0.07510     0.10485    -0.03762
 PY  C   3  -0.02304    -0.06920    -0.00302    -0.03704     0.03211    -0.00441
 PZ  C   3   0.00061     0.00364     0.00019     0.00196    -0.00718    -0.01782
  
  S  C   4  -0.01344    -0.18992    -0.00761    -0.16927     0.24396    -0.09909
 PX  C   4  -0.02051    -0.04296    -0.00170    -0.00929    -0.03177     0.00142
 PY  C   4  -0.02540    -0.08093    -0.00293    -0.03800     0.01217    -0.00715
 PZ  C   4   0.00144     0.00264    -0.00257     0.00532    -0.01807    -0.03892
  
  S  N   5  -0.06758    -0.15271    -0.00597    -0.04106    -0.01086    -0.02946
 PX  N   5   0.00323     0.04810    -0.00066     0.04672    -0.06347     0.00813
 PY  N   5  -0.00181     0.13250     0.00579     0.13145    -0.16122     0.05589
 PZ  N   5   0.00590     0.00340    -0.01805     0.02254    -0.02771    -0.08698
  
  S  C   6   0.01272     0.00569    -0.05256     0.06633    -0.09520    -0.06794
 PX  C   6   0.01171     0.01757    -0.00658     0.00772     0.00720     0.00908
 PY  C   6   0.03423     0.11957    -0.01880     0.07779     0.04279     0.05174
 PZ  C   6   0.03150    -0.07696    -0.01309    -0.09238     0.03692    -0.02399
  
  S  C   7   0.00660    -0.16191     0.00918    -0.11050    -0.19846    -0.07900
 PX  C   7   0.00323    -0.00401     0.00255    -0.00666    -0.01055     0.00972
 PY  C   7   0.02254    -0.00254    -0.01410    -0.00834     0.00427     0.02043
 PZ  C   7  -0.01959    -0.03283     0.05254    -0.03824    -0.08583     0.03096
  
  S  C   8  -0.01224    -0.18021     0.07332    -0.14562    -0.21684     0.02265
 PX  C   8   0.00004     0.00691    -0.00065     0.00238     0.02143     0.01194
 PY  C   8   0.02553     0.03327    -0.03160     0.01040     0.13349     0.03869
 PZ  C   8  -0.05455    -0.01857     0.06977     0.00081    -0.10019     0.01336
  
  S  C   9   0.05103    -0.04622    -0.02739    -0.07081     0.17087     0.07201
 PX  C   9  -0.00577     0.00312     0.00454     0.00377    -0.00234    -0.00001
 PY  C   9  -0.00137     0.04802    -0.01364     0.03738     0.08851    -0.00049
 PZ  C   9  -0.03709    -0.05205     0.05227    -0.03142    -0.15109    -0.00153
  
  S  C  10   0.08369     0.11941    -0.08272     0.05079     0.36135     0.03878
 PX  C  10  -0.00489    -0.01505     0.00464    -0.01160    -0.00348     0.00315
 PY  C  10  -0.02441    -0.02073     0.02534    -0.01584    -0.02742    -0.00529
 PZ  C  10   0.00388    -0.06988    -0.00602    -0.05538     0.02085     0.02779
  
  S  C  11   0.06125     0.24434    -0.05558     0.17847     0.11683     0.00328
 PX  C  11   0.00805    -0.00752    -0.00797    -0.01273     0.04845     0.00132
 PY  C  11   0.01635     0.01211    -0.00005    -0.03252     0.14650    -0.00252
 PZ  C  11   0.03045    -0.07178    -0.05081    -0.04621     0.12182     0.00897
  
  S  C  12   0.01858     0.23951     0.07045     0.06240    -0.04803    -0.02471
 PX  C  12   0.00426     0.01421    -0.00667     0.01393     0.01897    -0.01562
 PY  C  12   0.01853     0.00695     0.00273    -0.04018     0.09493    -0.08706
 PZ  C  12   0.00346     0.07468    -0.04530     0.13219     0.00723     0.02041
  
  S  C  13  -0.02998    -0.00346     0.05467    -0.04235    -0.07856     0.16329
 PX  C  13   0.00075     0.04167     0.00541     0.02928    -0.03262    -0.01665
 PY  C  13   0.02042     0.11605     0.02751     0.03374    -0.05645    -0.03249
 PZ  C  13  -0.01660     0.07838    -0.01000     0.11278    -0.06860    -0.06272
  
  S  C  14  -0.00889    -0.16473    -0.01176    -0.09831     0.03815     0.25777
 PX  C  14  -0.00054     0.00758     0.01435    -0.01849    -0.00995    -0.01137
 PY  C  14   0.00600    -0.00322     0.01022    -0.02254    -0.02042    -0.00074
 PZ  C  14  -0.00812     0.02441     0.05039    -0.06128    -0.01143     0.00427
  
  S  C  15   0.00517    -0.17213    -0.08185     0.01164     0.02603     0.04592
 PX  C  15   0.00200     0.01064     0.01778    -0.02627    -0.00463    -0.05589
 PY  C  15   0.00537     0.02953     0.01945    -0.01797    -0.00758    -0.15473
 PZ  C  15   0.00481     0.01514     0.07300    -0.12856    -0.00119     0.04808
  
  S  C  16   0.01695    -0.04905     0.01416    -0.08412     0.02404    -0.21369
 PX  C  16   0.00098     0.01546     0.01003    -0.00707     0.00026    -0.02313
 PY  C  16  -0.00080     0.04128     0.01192     0.00849     0.00537    -0.04019
 PZ  C  16   0.00655     0.05052     0.05837    -0.07504     0.00304    -0.01150
  
  S  C  17   0.02682     0.11332     0.08485    -0.09563     0.04040    -0.19509
 PX  C  17  -0.00052     0.00575    -0.00642     0.01582     0.00480     0.00303
 PY  C  17  -0.00376    -0.02493    -0.02668     0.02528     0.02058    -0.01433
 PZ  C  17   0.00263     0.07010     0.00056     0.05364     0.00773     0.04748
  
  S  N  18  -0.00848    -0.01890    -0.07524     0.12795    -0.00494    -0.00770
 PX  N  18   0.00115    -0.02537    -0.01931     0.01715    -0.00182    -0.09080
 PY  N  18   0.00147    -0.01724    -0.01479     0.01455    -0.00218    -0.08189
 PZ  N  18   0.00348    -0.13960    -0.09465     0.06901     0.02534     0.06519
  
  S  C  19  -0.00169     0.02027    -0.01164     0.04923    -0.02385    -0.12886
 PX  C  19   0.00478    -0.11022    -0.08258     0.08516    -0.00033    -0.04537
 PY  C  19   0.00282    -0.06469    -0.05008     0.05260    -0.00046    -0.03869
 PZ  C  19  -0.00286    -0.01834    -0.04445     0.07190    -0.00712    -0.08764
  
  S  C  20   0.00535    -0.14256    -0.13647     0.18330    -0.02978    -0.21673
 PX  C  20   0.00023    -0.00669    -0.00404     0.00384    -0.00103     0.00119
 PY  C  20   0.00019    -0.00337    -0.00205     0.00140    -0.00015    -0.00568
 PZ  C  20  -0.00193     0.03090     0.01930    -0.02142     0.00315    -0.02937
  
  S  C  21   0.00554    -0.14457    -0.12949     0.16941    -0.02715    -0.12140
 PX  C  21  -0.00192     0.02837     0.01547    -0.01047    -0.00472    -0.03724
 PY  C  21  -0.00101     0.01491     0.00763    -0.00442    -0.00298    -0.02545
 PZ  C  21   0.00101    -0.02061    -0.02062     0.02927    -0.00660    -0.06564
  
  S  C  22   0.00344    -0.07110    -0.04274     0.03092     0.01511     0.13437
 PX  C  22  -0.00125    -0.00776    -0.02764     0.05784    -0.02329    -0.12703
 PY  C  22  -0.00058    -0.00682    -0.01770     0.03546    -0.01380    -0.07500
 PZ  C  22   0.00309    -0.05591    -0.04312     0.05249    -0.00921    -0.03286
  
  S  C  23   0.00385     0.01096     0.06691    -0.14442     0.05327     0.29111
 PX  C  23   0.00092    -0.04559    -0.04405     0.05716    -0.00185     0.02729
 PY  C  23   0.00061    -0.02623    -0.02490     0.03216    -0.00118     0.01540
 PZ  C  23   0.00149     0.00052     0.01019    -0.01662    -0.00247    -0.00289
  
  S  C  24   0.00013     0.13598     0.15271    -0.20951     0.01939     0.10803
 PX  C  24   0.00209    -0.07125    -0.06008     0.07009     0.00104     0.04557
 PY  C  24   0.00107    -0.03885    -0.03469     0.04283    -0.00101     0.01889
 PZ  C  24  -0.00347     0.05269     0.01217     0.02725    -0.02830    -0.10829
  
  S  C  25   0.00126     0.14490     0.15510    -0.20734     0.00791    -0.07136
 PX  C  25  -0.00408     0.07618     0.05525    -0.05177    -0.00275     0.06714
 PY  C  25  -0.00243     0.04560     0.03141    -0.02696    -0.00296     0.03830
 PZ  C  25  -0.00158     0.00279    -0.02544     0.06469    -0.01911     0.01684
  
  S  C  26  -0.00164     0.01460    -0.01345     0.04608    -0.00953     0.09112
 PX  C  26  -0.00616     0.08292     0.05227    -0.04558    -0.00260    -0.01326
 PY  C  26  -0.00346     0.04611     0.02595    -0.01885    -0.00279    -0.01042
 PZ  C  26  -0.00073    -0.09365    -0.09120     0.10955     0.00827     0.10489
  
  S  C  27   0.00585    -0.14871    -0.13875     0.18000    -0.00563     0.18192
 PX  C  27  -0.00180     0.01221     0.01007    -0.01469     0.00620     0.01769
 PY  C  27  -0.00114     0.01092     0.00766    -0.00919     0.00262     0.00693
 PZ  C  27  -0.00254     0.01366     0.01165    -0.01797     0.00805     0.03339
  
  S  C  28   0.00728    -0.13831    -0.12870     0.17145    -0.01901     0.08372
 PX  C  28   0.00256    -0.03029    -0.02097     0.02070     0.00115    -0.00499
 PY  C  28   0.00143    -0.01733    -0.01256     0.01317     0.00047     0.00085
 PZ  C  28  -0.00061    -0.00584    -0.01049     0.01844     0.00076     0.07351
  
  S  C  29   0.00472    -0.06137    -0.04106     0.03581    -0.00119    -0.12295
 PX  C  29   0.00308    -0.00914     0.00823    -0.02695     0.00623    -0.07273
 PY  C  29   0.00199    -0.00875     0.00119    -0.01028     0.00263    -0.03792
 PZ  C  29   0.00272    -0.05081    -0.05288     0.07905    -0.01370     0.07647
  
  S  C  30   0.00529     0.02496     0.06969    -0.13761     0.02342    -0.20842
 PX  C  30  -0.00013     0.03966     0.04258    -0.05699     0.00352     0.03739
 PY  C  30   0.00010     0.02193     0.02387    -0.03190     0.00158     0.02019
 PZ  C  30   0.00268    -0.02069    -0.01534     0.01978    -0.00637    -0.02259
  
  S  C  31  -0.00456     0.02719     0.01156    -0.00457    -0.00096     0.01743
 PX  C  31   0.00146    -0.00994     0.00135    -0.01548     0.00720    -0.09230
 PY  C  31   0.00093    -0.00761    -0.00118    -0.00599     0.00348    -0.05186
 PZ  C  31   0.00121    -0.02636    -0.02858     0.04393    -0.00991     0.03876
  
  S  C  32  -0.00385     0.03878     0.03059    -0.03852     0.00779    -0.01793
 PX  C  32  -0.00010     0.00331     0.00649    -0.01380     0.00415    -0.03906
 PY  C  32   0.00125    -0.00999    -0.00509     0.00266     0.00055    -0.01758
 PZ  C  32  -0.00054     0.00001    -0.00310     0.00721    -0.00225     0.01051
  
  S  C  33  -0.00380     0.01029    -0.01613     0.05164    -0.01913     0.17960
 PX  C  33  -0.00060    -0.00129    -0.00464     0.00905    -0.00166     0.00547
 PY  C  33  -0.00029    -0.00173    -0.00363     0.00656    -0.00121     0.00365
 PZ  C  33   0.00131    -0.01500    -0.01161     0.01351    -0.00190    -0.00344
  
  S  C  34  -0.00386     0.03951     0.03175    -0.04073     0.00851    -0.02074
 PX  C  34   0.00108    -0.00712    -0.00109    -0.00488     0.00265    -0.03497
 PY  C  34  -0.00072     0.00764     0.00791    -0.01289     0.00322    -0.02517
 PZ  C  34  -0.00045    -0.00068    -0.00349     0.00755    -0.00227     0.01050
  
  S  C  35  -0.00345     0.03692     0.01746    -0.01031    -0.00280    -0.01792
 PX  C  35  -0.00061     0.00161    -0.01009     0.02829    -0.01901    -0.10768
 PY  C  35  -0.00029    -0.00062    -0.00711     0.01790    -0.01118    -0.06264
 PZ  C  35   0.00143    -0.03696    -0.03148     0.03955    -0.00571    -0.00656
  
  S  C  36  -0.00278     0.02700     0.00326     0.01876    -0.02156    -0.12686
 PX  C  36  -0.00004    -0.00110    -0.00362     0.00853    -0.00551    -0.03116
 PY  C  36   0.00095    -0.00973    -0.00378     0.00075     0.00147     0.00866
 PZ  C  36   0.00043    -0.01387    -0.01329     0.01836    -0.00380    -0.01214
  
  S  C  37  -0.00309     0.06235     0.05670    -0.08112     0.02622     0.11468
 PX  C  37  -0.00083     0.00959     0.00230     0.00403    -0.00597    -0.03564
 PY  C  37  -0.00048     0.00548     0.00133     0.00224    -0.00335    -0.02000
 PZ  C  37  -0.00050     0.00716     0.00696    -0.01121     0.00471     0.02710
  
  S  C  38  -0.00279     0.02752     0.00412     0.01711    -0.02067    -0.12123
 PX  C  38   0.00077    -0.00848    -0.00484     0.00482    -0.00164    -0.00933
 PY  C  38  -0.00051     0.00339    -0.00190     0.00806    -0.00578    -0.03246
 PZ  C  38   0.00047    -0.01418    -0.01319     0.01785    -0.00348    -0.01025
  
  S  C  39  -0.13216    -0.09987     0.15539    -0.02142    -0.20758     0.01657
 PX  C  39   0.01469     0.01586    -0.02240     0.00116     0.04046     0.00804
 PY  C  39   0.02432    -0.01098    -0.01422    -0.02642     0.00386     0.01610
 PZ  C  39  -0.03529     0.08504    -0.01235     0.09249     0.13907    -0.00612
  
  S  C  40  -0.14292    -0.00703     0.11534     0.07236    -0.04407    -0.01142
 PX  C  40  -0.03933     0.00857     0.02320     0.02402     0.00804     0.00176
 PY  C  40  -0.02361    -0.01121     0.02595     0.00132    -0.03082     0.00437
 PZ  C  40  -0.00930     0.06308    -0.03338     0.05481     0.13546    -0.00074
  
  S  C  41  -0.08072     0.09872    -0.03418     0.09154     0.18162    -0.01122
 PX  C  41   0.00695     0.02850    -0.03947     0.00091     0.04423     0.00105
 PY  C  41  -0.01451     0.01796    -0.00405     0.01596     0.02678     0.00081
 PZ  C  41   0.06117     0.00780    -0.07220    -0.04528     0.01723     0.00170
  
  S  C  42   0.06198     0.11410    -0.16854    -0.00472     0.15276    -0.00286
 PX  C  42   0.07920    -0.01884    -0.03930    -0.05684    -0.06338     0.00313
 PY  C  42   0.02950    -0.01583     0.00685    -0.01532    -0.03816     0.00319
 PZ  C  42   0.09449     0.00570    -0.10603    -0.07873    -0.02434    -0.00157
  
  S  S  43  -0.00768     0.00959     0.02555     0.02066     0.01297     0.01562
 PX  S  43   0.06105    -0.00894    -0.02261    -0.02007    -0.00350    -0.00601
 PY  S  43   0.02877    -0.02123     0.00605    -0.01647    -0.01983     0.00115
 PZ  S  43   0.05952     0.03976    -0.05702     0.00858     0.06443    -0.00903
  
  S  C  44   0.22273     0.07052    -0.29887    -0.17256    -0.03956    -0.00002
 PX  C  44   0.05918    -0.02179    -0.01594    -0.04453    -0.08611     0.00249
 PY  C  44   0.06795    -0.00672    -0.02934    -0.03545    -0.04856     0.00164
 PZ  C  44  -0.02708    -0.02889     0.02904    -0.01437    -0.06863     0.00141
  
  S  C  45   0.32872    -0.00549    -0.19056    -0.17569    -0.18324     0.00404
 PX  C  45   0.01569    -0.02265     0.07376     0.03767    -0.00254     0.00008
 PY  C  45   0.06035    -0.02067     0.06216     0.03260     0.00513    -0.00003
 PZ  C  45  -0.09901    -0.00202     0.01775     0.00717    -0.01646     0.00025
  
  S  C  46  -0.05038    -0.01435     0.00340    -0.01785    -0.05095     0.00118
 PX  C  46   0.05664     0.02369    -0.02816     0.00057     0.02410    -0.00056
 PY  C  46   0.14844     0.02627    -0.08330    -0.04720    -0.02713     0.00051
 PZ  C  46  -0.20745    -0.00794     0.12400     0.10507     0.11056    -0.00230
  
  S  O  47  -0.35562    -0.05576     0.20877     0.12594     0.07308    -0.00133
 PX  O  47  -0.04392    -0.00235     0.02691     0.02164     0.02035    -0.00039
 PY  O  47  -0.07190    -0.00788     0.03720     0.02429     0.01591    -0.00029
 PZ  O  47   0.06600     0.01242    -0.02537    -0.00802     0.00778    -0.00019
  
  S  O  48   0.07567     0.05441    -0.08948    -0.02297     0.02845    -0.00073
 PX  O  48  -0.01375    -0.00067     0.00601     0.00655     0.01410    -0.00032
 PY  O  48   0.01155    -0.00509     0.00080    -0.00394    -0.00616     0.00012
 PZ  O  48  -0.05419     0.00979     0.01086     0.02242     0.04322    -0.00094
  
  S  C  49   0.49509    -0.12994     0.24173     0.08922    -0.01059    -0.00010
 PX  C  49   0.02573    -0.04147     0.14355     0.08642     0.05200    -0.00149
 PY  C  49   0.04112    -0.05944     0.20791     0.12780     0.08580    -0.00227
 PZ  C  49  -0.03722     0.04275    -0.15279    -0.09795    -0.07877     0.00189
  
  S  N  50   0.41761    -0.17218     0.44697     0.23261     0.10976    -0.00316
 PX  N  50  -0.09129     0.03192    -0.07696    -0.03830    -0.01693     0.00045
 PY  N  50  -0.13640     0.04881    -0.11816    -0.05838    -0.02329     0.00070
 PZ  N  50   0.10596    -0.03980     0.09709     0.04731     0.01516    -0.00055
  
  S  H  51   0.05324     0.03029    -0.11468    -0.06180    -0.00354    -0.00084
  
  S  H  52   0.02832     0.09611     0.00386     0.06799    -0.10197     0.03346
  
  S  H  53   0.02584     0.09381     0.00427     0.06846    -0.10976     0.03353
  
  S  H  54   0.02834     0.09681     0.00430     0.06759    -0.10270     0.03072
  
  S  H  55   0.03205     0.08165     0.00362     0.04138    -0.03776     0.00465
  
  S  H  56   0.03194     0.08069     0.00338     0.04108    -0.03504     0.01101
  
  S  H  57   0.01809     0.00611    -0.00120    -0.01361     0.05236     0.00354
  
  S  H  58   0.01898     0.01278    -0.00005    -0.01159     0.04292    -0.02318
  
  S  H  59  -0.00242    -0.07529    -0.00381    -0.06906     0.09013    -0.06353
  
  S  H  60  -0.00359    -0.07652    -0.00214    -0.07280     0.11205    -0.02053
  
  S  H  61  -0.01294    -0.08511     0.02112    -0.05666    -0.10863    -0.04775
  
  S  H  62   0.00978    -0.02358     0.00231    -0.03110     0.05926     0.03467
  
  S  H  63   0.02789     0.05790    -0.02540     0.02321     0.15869     0.00984
  
  S  H  64  -0.00561    -0.08753    -0.02253    -0.02471     0.03725     0.13056
  
  S  H  65   0.00563    -0.02693    -0.01121    -0.00718     0.01162    -0.12261
  
  S  H  66   0.01219     0.05571     0.02663    -0.02290     0.03600    -0.09329
  
  S  H  67   0.00219    -0.06023    -0.05991     0.07991    -0.01255    -0.12500
  
  S  H  68   0.00146    -0.05210    -0.05352     0.07704    -0.01738    -0.08935
  
  S  H  69   0.00088     0.02363     0.04692    -0.08885     0.02947     0.13635
  
  S  H  70   0.00176    -0.07016    -0.06287     0.07667     0.00400     0.11333
  
  S  H  71   0.00201    -0.05247    -0.05486     0.07926    -0.01064     0.07032
  
  S  H  72   0.00110     0.02623     0.04606    -0.08398     0.01641    -0.08638
  
  S  H  73  -0.00138     0.01258     0.00918    -0.01079     0.00210    -0.00346
  
  S  H  74  -0.00135     0.01850     0.01894    -0.02926     0.00704    -0.03584
  
  S  H  75  -0.00193     0.01952     0.01402    -0.01531     0.00243     0.01015
  
  S  H  76  -0.00130    -0.00130    -0.01264     0.03055    -0.00992     0.08532
  
  S  H  77  -0.00194     0.01083    -0.00110     0.01490    -0.00745     0.08368
  
  S  H  78  -0.00129    -0.00115    -0.01244     0.03018    -0.00983     0.08477
  
  S  H  79  -0.00193     0.01977     0.01440    -0.01603     0.00268     0.00926
  
  S  H  80  -0.00136     0.01887     0.01953    -0.03037     0.00739    -0.03713
  
  S  H  81  -0.00139     0.01302     0.00990    -0.01217     0.00254    -0.00532
  
  S  H  82  -0.00101     0.01011     0.00209     0.00475    -0.00669    -0.03969
  
  S  H  83  -0.00090     0.00240    -0.00839     0.02314    -0.01431    -0.07878
  
  S  H  84  -0.00142     0.01824     0.00693     0.00165    -0.00937    -0.06028
  
  S  H  85  -0.00112     0.02607     0.02669    -0.04148     0.01525     0.07048
  
  S  H  86  -0.00153     0.02987     0.02467    -0.03201     0.00794     0.02775
  
  S  H  87  -0.00112     0.02621     0.02689    -0.04182     0.01538     0.07119
  
  S  H  88  -0.00142     0.01838     0.00719     0.00112    -0.00905    -0.05819
  
  S  H  89  -0.00090     0.00267    -0.00796     0.02234    -0.01390    -0.07614
  
  S  H  90  -0.00101     0.01047     0.00265     0.00369    -0.00615    -0.03633
  
  S  H  91  -0.04640    -0.01947     0.04799     0.01208    -0.04925    -0.00847
  
  S  H  92  -0.01637     0.03790    -0.03013     0.02362     0.07416    -0.00543
  
  S  H  93  -0.00821     0.02339    -0.02068     0.00746     0.03661    -0.00083




    ROOT NO.   19          20          21          22          23          24

           -33.39504   -33.04238   -32.13613   -31.67945   -31.29668   -31.28913
  
  
  S  C   1  -0.12844     0.00158     0.03178    -0.14798    -0.00145     0.00098
 PX  C   1  -0.00914     0.00021     0.00002     0.00513     0.00011    -0.00005
 PY  C   1   0.00549    -0.00084    -0.00234     0.01132     0.00012    -0.00009
 PZ  C   1  -0.00002     0.00218     0.00099     0.00081     0.00003     0.00000
  
  S  C   2  -0.04519     0.00286     0.00527    -0.01137     0.00003     0.00005
 PX  C   2   0.06183     0.00081    -0.01623     0.07923     0.00080    -0.00051
 PY  C   2   0.02550    -0.00162    -0.00907     0.04133     0.00043    -0.00029
 PZ  C   2   0.00063     0.00738     0.00335     0.00260     0.00004     0.00000
  
  S  C   3   0.08105    -0.00516    -0.03177     0.11614     0.00119    -0.00076
 PX  C   3   0.05531     0.00215    -0.01427     0.04059     0.00033    -0.00017
 PY  C   3   0.01200    -0.00579    -0.00407    -0.00736    -0.00015     0.00006
 PZ  C   3   0.00242     0.02527     0.01061     0.00877     0.00011    -0.00000
  
  S  C   4   0.13068     0.01791    -0.03062     0.09002     0.00070    -0.00031
 PX  C   4  -0.02271     0.01294     0.01498    -0.05384    -0.00061     0.00042
 PY  C   4  -0.00215    -0.00107    -0.00862    -0.04264    -0.00055     0.00040
 PZ  C   4   0.00458     0.06577     0.03544     0.02328     0.00023    -0.00011
  
  S  N   5  -0.01265     0.01064    -0.05873    -0.06529    -0.00098     0.00086
 PX  N   5  -0.03091     0.02109     0.01675    -0.00912    -0.00005     0.00002
 PY  N   5  -0.07748    -0.01835    -0.02488    -0.02293    -0.00015     0.00009
 PZ  N   5  -0.00217     0.16346     0.09208     0.05606     0.00051    -0.00034
  
  S  C   6  -0.08663     0.22268     0.20174    -0.01643     0.00016    -0.00030
 PX  C   6  -0.00905    -0.00152     0.01633    -0.00597     0.00003    -0.00006
 PY  C   6  -0.02508    -0.06300    -0.04147     0.01805     0.00033    -0.00026
 PZ  C   6   0.00962     0.06872     0.15982    -0.03100     0.00008    -0.00029
  
  S  C   7  -0.01366     0.21627     0.28732    -0.02150     0.00022    -0.00057
 PX  C   7  -0.00005    -0.01681    -0.00895    -0.00869    -0.00009     0.00007
 PY  C   7  -0.01862    -0.01546     0.01743    -0.03601    -0.00023     0.00013
 PZ  C   7   0.04172    -0.09306    -0.09623     0.02791     0.00005    -0.00001
  
  S  C   8   0.04509    -0.07248    -0.05353    -0.02852    -0.00055     0.00040
 PX  C   8   0.00387    -0.03725    -0.04901    -0.00997    -0.00021     0.00024
 PY  C   8  -0.00685    -0.09934    -0.10574    -0.05666    -0.00069     0.00074
 PZ  C   8   0.04698    -0.08366    -0.16052     0.07001     0.00021     0.00002
  
  S  C   9   0.01372    -0.19511    -0.17817    -0.10934    -0.00132     0.00132
 PX  C   9   0.00378    -0.00676    -0.01621     0.00429    -0.00001     0.00004
 PY  C   9   0.00054    -0.01302    -0.03372     0.01643     0.00014    -0.00002
 PZ  C   9   0.02608    -0.02035    -0.05087     0.01351    -0.00016     0.00016
  
  S  C  10   0.00841    -0.11485    -0.11618     0.01313     0.00015     0.00009
 PX  C  10   0.00234    -0.01251    -0.01288    -0.01278    -0.00016     0.00015
 PY  C  10   0.02447    -0.02019    -0.04305     0.01327    -0.00005     0.00010
 PZ  C  10  -0.01736    -0.05323    -0.02146    -0.09902    -0.00093     0.00080
  
  S  C  11  -0.01605     0.01699    -0.03321     0.12528     0.00125    -0.00095
 PX  C  11   0.00533    -0.01078    -0.00324    -0.00383    -0.00002     0.00002
 PY  C  11   0.06395    -0.06284    -0.06575     0.05033     0.00033    -0.00019
 PZ  C  11  -0.04527     0.01831     0.07378    -0.08390    -0.00046     0.00031
  
  S  C  12   0.12503    -0.03558    -0.05533     0.14562     0.00104    -0.00079
 PX  C  12   0.00963     0.01520    -0.00910     0.02836     0.00017    -0.00014
 PY  C  12   0.09589     0.06905     0.01335     0.09716     0.00054    -0.00051
 PZ  C  12  -0.05813     0.00414    -0.06668     0.06533     0.00058    -0.00040
  
  S  C  13  -0.04072    -0.22460    -0.03614    -0.14675    -0.00095     0.00067
 PX  C  13   0.00396     0.01840    -0.01227     0.01580     0.00007     0.00003
 PY  C  13   0.03791     0.04662     0.03214     0.06578     0.00067    -0.00041
 PZ  C  13   0.00763     0.06048    -0.10095     0.07183     0.00013     0.00002
  
  S  C  14  -0.15306    -0.21309     0.09985    -0.15023    -0.00036     0.00005
 PX  C  14   0.00254    -0.00838    -0.00418    -0.03664    -0.00021     0.00044
 PY  C  14  -0.02154     0.02233     0.03686    -0.02096     0.00027     0.00023
 PZ  C  14   0.06386    -0.08610    -0.02200    -0.08271    -0.00079     0.00047
  
  S  C  15  -0.20759     0.07902     0.02170    -0.03503     0.00074     0.00056
 PX  C  15   0.02373     0.01855    -0.01984    -0.05380    -0.00091     0.00074
 PY  C  15   0.06853     0.11745    -0.04727    -0.01247    -0.00057     0.00048
 PZ  C  15   0.06719    -0.08170     0.10279    -0.08599    -0.00073    -0.00015
  
  S  C  16   0.05982     0.21687     0.00108    -0.01384    -0.00074     0.00052
 PX  C  16   0.03303     0.00154    -0.00423     0.00343    -0.00030    -0.00001
 PY  C  16   0.07080     0.01144    -0.01507     0.04599    -0.00015    -0.00043
 PZ  C  16   0.10964    -0.01642     0.06244     0.03304     0.00016    -0.00020
  
  S  C  17   0.24236     0.12639     0.01819     0.14459     0.00034    -0.00057
 PX  C  17  -0.00237    -0.00557    -0.01246     0.01168     0.00004    -0.00007
 PY  C  17  -0.01570     0.02542    -0.01922     0.01315    -0.00008    -0.00007
 PZ  C  17   0.01387    -0.06436    -0.03313     0.07377     0.00079    -0.00051
  
[...]
    74       H         -0.54528443  *   3.01901980  *  -9.14330569  *
    75       H         -2.07238021  *   2.16244718  *  -9.01718361  *
    76       H         -2.27426808  *   1.67509422  *  -6.04911471  *
    77       H         -2.48964515  *   0.43872965  *  -7.27577464  *
    78       H         -1.35711244  *   0.15627287  *  -5.96395033  *
    79       H         -0.71414753  *  -0.12513793  *  -8.90007254  *
    80       H          0.76650696  *   0.80539789  *  -9.04197202  *
    81       H          0.55055657  *  -0.28944218  *  -7.67761648  *
    82       H          5.36711443  *   7.45738713  *  -9.61681669  *
    83       H          6.98055791  *   7.36556647  *  -8.91285807  *
    84       H          6.78290676  *   7.24736290  * -10.65231754  *
    85       H          4.40168061  *   5.40364136  * -10.88898737  *
    86       H          5.91538736  *   5.21099112  * -11.75828181  *
    87       H          5.27276515  *   3.85668663  * -10.84507353  *
    88       H          8.07932023  *   4.92256109  * -10.56903908  *
    89       H          8.22828593  *   5.11276781  *  -8.83044894  *
    90       H          7.47683252  *   3.66098903  *  -9.48909762  *
    91       H          3.25167660  *   2.49131891  *   5.02007321  *
    92       H          3.97505805  *   2.16035862  *   7.50752125  *
    93       H          9.09050408  *   4.78896519  *  11.42850607  *

                             CARTESIAN COORDINATES

   1    C        0.000000000     0.000000000     0.000000000
   2    C        1.519894870     0.000000000     0.000000000
   3    C        2.055360735     1.428532416     0.000000000
   4    C        3.591144790     1.414755013    -0.003427005
   5    N        4.143709574     2.766094147    -0.010122940
   6    C        4.423800992     3.546786460     1.131349625
   7    C        4.531972511     3.161177220     2.463475470
   8    C        4.886152340     4.145793640     3.381161668
   9    C        5.124915500     5.471189924     2.988507772
  10    C        5.010638463     5.849959212     1.660127312
  11    C        4.655600283     4.890808319     0.726110100
  12    C        4.444879951     4.946762047    -0.696603281
  13    C        4.092874240     3.635261564    -1.117165053
  14    C        3.807014034     3.342608349    -2.447336608
  15    C        3.876629836     4.407855928    -3.344716690
  16    C        4.226894356     5.711486550    -2.945607224
  17    C        4.519189917     5.978598654    -1.618324073
  18    N        3.576924109     4.170099107    -4.706113813
  19    C        4.357119306     4.569495021    -5.811384471
  20    C        5.573364168     5.241941629    -5.851692582
  21    C        6.118451087     5.492351990    -7.100845834
  22    C        5.495125730     5.087335147    -8.292638807
  23    C        4.291431754     4.395238231    -8.238805330
  24    C        3.723136114     4.131906478    -7.002231984
  25    C        2.518860925     3.437987282    -6.614379213
  26    C        2.452039939     3.474497077    -5.196065026
  27    C        1.378459471     2.916587632    -4.515185222
  28    C        0.391457654     2.297474608    -5.271073814
  29    C        0.449360740     2.231922336    -6.668087508
  30    C        1.521059568     2.815681214    -7.342301345
  31    C       -0.616498999     1.555442698    -7.490847968
  32    C       -1.254074074     2.591823885    -8.420732364
  33    C       -1.730575667     0.931050556    -6.648663514
  34    C        0.028619101     0.437684040    -8.315820739
  35    C        6.178531836     5.422551287    -9.592795096
  36    C        6.335272030     6.942545481    -9.694960253
  37    C        5.400079252     4.948398823   -10.821694160
  38    C        7.553941217     4.749988975    -9.618266395
  39    C        5.000974266     3.781265040     4.776392947
  40    C        4.137085652     2.953098341     5.449884526
  41    C        4.529683192     2.779256354     6.804489685
  42    C        5.675645541     3.486658829     7.107908477
  43    S        6.261231043     4.339070871     5.758834221
  44    C        6.266588471     3.464628037     8.410263807
  45    C        7.285737033     4.243272936     8.832342656
  46    C        7.781139725     4.092951299    10.206174050
  47    O        7.365278993     3.312083502    11.051086230
  48    O        8.797619683     4.923233756    10.515476600
  49    C        7.916999791     5.219709388     8.024896701
  50    N        8.450848926     6.023879315     7.387109986
  51    H        5.824820621     2.736798011     9.112263350
  52    H       -0.417120341     0.505111618    -0.883199074
  53    H       -0.407937638    -1.021246092     0.000661289
  54    H       -0.417522409     0.506774146     0.882022773
  55    H        1.902198044    -0.560808023     0.879306621
  56    H        1.902030601    -0.560740890    -0.879485834
  57    H        1.672358206     1.989318076    -0.879658974
  58    H        1.673509811     1.989181857     0.879025169
  59    H        3.989702079     0.860214220     0.876852163
  60    H        3.983277281     0.867581869    -0.893094580
  61    H        4.358848533     2.131192034     2.780848310
  62    H        5.395303146     6.220022613     3.738924605
  63    H        5.194156590     6.881524880     1.348299130
  64    H        3.560988685     2.329583146    -2.773689639
  65    H        4.248670106     6.523824634    -3.678700700
  66    H        4.795351135     6.985943466    -1.294693315
  67    H        6.089506442     5.548926491    -4.939557315
  68    H        7.074530340     6.025443784    -7.133416643
  69    H        3.762632342     4.040515235    -9.126062114
  70    H        1.298032711     2.973203935    -3.427333448
  71    H       -0.445365510     1.862343247    -4.717499604
  72    H        1.602616037     2.802492805    -8.432462899
  73    H       -1.677502771     3.436614189    -7.858956591
  74    H       -0.545284428     3.019019801    -9.143305693
  75    H       -2.072380208     2.162447181    -9.017183611
  76    H       -2.274268079     1.675094219    -6.049114711
  77    H       -2.489645155     0.438729652    -7.275774635
  78    H       -1.357112439     0.156272871    -5.963950330
  79    H       -0.714147532    -0.125137932    -8.900072541
  80    H        0.766506962     0.805397886    -9.041972024
  81    H        0.550556572    -0.289442179    -7.677616484
  82    H        5.367114428     7.457387132    -9.616816692
  83    H        6.980557914     7.365566474    -8.912858073
  84    H        6.782906757     7.247362898   -10.652317540
  85    H        4.401680614     5.403641363   -10.888987370
  86    H        5.915387356     5.210991122   -11.758281810
  87    H        5.272765147     3.856686626   -10.845073530
  88    H        8.079320232     4.922561091   -10.569039080
  89    H        8.228285926     5.112767815    -8.830448939
  90    H        7.476832520     3.660989031    -9.489097616
  91    H        3.251676595     2.491318915     5.020073212
  92    H        3.975058048     2.160358620     7.507521246
  93    H        9.090504081     4.788965189    11.428506070


           Empirical Formula: C44 H43 N3 O2 S  =    93 atoms



      MOLECULAR POINT GROUP   :   C1  


                  EIGENVALUES  
 -48.86999 -48.29975 -46.74508 -45.20237 -44.79101 -43.86769 -42.55898 -42.27051
 -41.04415 -40.57938 -39.65515 -39.53898 -39.08591 -37.09697 -36.27473 -35.68978
 -33.93638 -33.78610 -33.39504 -33.04238 -32.13613 -31.67945 -31.29668 -31.28913
 -30.84354 -30.60978 -30.12470 -29.42495 -29.22177 -28.40072 -28.17078 -26.91521
 -26.05606 -25.83966 -25.65462 -25.08643 -24.84472 -24.34327 -24.16195 -23.87008
 -23.70441 -23.33452 -22.28159 -21.98828 -21.80504 -21.51394 -20.68056 -20.53110
 -20.26292 -20.06666 -19.65637 -19.44659 -18.94613 -18.88420 -18.87025 -18.61497
 -18.58059 -18.26413 -18.18100 -17.67321 -17.38126 -17.29713 -16.98839 -16.85050
 -16.62652 -16.47123 -16.25074 -16.17448 -16.05737 -16.03751 -15.98109 -15.94507
 -15.76676 -15.69794 -15.35997 -15.31008 -15.11836 -14.97481 -14.89703 -14.55689
 -14.50490 -14.24916 -14.12850 -14.01307 -13.94116 -13.93792 -13.91662 -13.90965
 -13.67148 -13.55383 -13.48605 -13.40042 -13.25212 -13.19649 -13.14502 -13.10369
 -13.07841 -12.99637 -12.94260 -12.86499 -12.74463 -12.56913 -12.47823 -12.25660
 -12.14343 -12.09933 -12.06648 -11.79759 -11.75090 -11.56712 -11.42261 -11.36326
 -11.21781 -10.82928 -10.75802 -10.63080 -10.04803  -9.87115  -9.63004  -9.13396
  -8.77140  -8.19048  -7.72671  -7.66191  -7.50691  -7.04790  -1.26746   0.00864
   0.21338   0.59089   0.68367   0.79787   0.93212   1.05238   1.22194   1.53484
   1.54606   1.63266   2.10433   2.15198   2.46703   2.64563   2.71473   2.75890
   2.76706   2.94798   2.96365   3.05102   3.08957   3.14194   3.34135   3.36273
   3.43635   3.47502   3.65000   3.74829   3.82379   3.85915   3.87062   4.13990
   4.18235   4.19353   4.22618   4.25579   4.41125   4.42056   4.46523   4.49803
   4.56839   4.64456   5.03667   5.08015   5.22898   5.31647   5.33874   5.42987
   5.65717   5.73853   5.90062   6.23095   6.32780   6.38604   6.44326   6.46640
   6.58366   6.63885   6.65033   6.65638   6.66808   6.70813   6.80562   6.83333
   6.85036   6.86444   6.89941   6.91286   6.99317   7.04917   7.13998   7.15830
   7.17730   7.18658   7.37134   7.37876   7.38987   7.81998   8.20445   8.49802
   8.66032   8.69662   8.80459   9.00430   9.14152   9.21952   9.36113   9.66986
   9.75315   9.81419   9.99477  10.00716  10.01028  10.36597  10.40297  10.56272
  10.86581  11.02144  11.03967  11.21027  11.45097  12.00471  12.03195  12.18781
  12.51834  12.58356  12.81896  12.93847  13.09002  13.27747  13.71485  14.29027
  14.37311  15.15121  15.44213


              NET ATOMIC CHARGES AND DIPOLE CONTRIBUTIONS

  ATOM NO.   TYPE          CHARGE      No. of ELECS.   s-Pop       p-Pop       
    1          C          -0.026840        4.0268     1.05450     2.97234
    2          C          -0.006381        4.0064     1.04343     2.96295
    3          C          -0.001268        4.0013     1.05098     2.95029
    4          C           0.074071        3.9259     1.04893     2.87700
    5          N          -0.157349        5.1573     1.25382     3.90353
    6          C           0.077754        3.9222     1.05415     2.86810
    7          C          -0.042898        4.0429     1.07804     2.96486
    8          C           0.026338        3.9737     1.04022     2.93344
    9          C          -0.043073        4.0431     1.07902     2.96406
   10          C          -0.018561        4.0186     1.08094     2.93762
   11          C          -0.013599        4.0136     1.04773     2.96587
   12          C          -0.026624        4.0266     1.04518     2.98145
   13          C           0.081378        3.9186     1.05390     2.86472
   14          C          -0.057278        4.0573     1.07618     2.98110
   15          C           0.098780        3.9012     1.04263     2.85859
   16          C          -0.055342        4.0553     1.07791     2.97743
   17          C          -0.014902        4.0149     1.08119     2.93371
   18          N          -0.136196        5.1362     1.22826     3.90794
   19          C           0.066094        3.9339     1.04826     2.88564
   20          C          -0.042746        4.0427     1.07971     2.96304
   21          C          -0.040737        4.0407     1.08352     2.95721
   22          C           0.010473        3.9895     1.05963     2.92990
   23          C          -0.043433        4.0434     1.08010     2.96333
   24          C          -0.019602        4.0196     1.05177     2.96784
   25          C          -0.017597        4.0176     1.05167     2.96593
   26          C           0.065564        3.9344     1.04838     2.88606
   27          C          -0.044747        4.0447     1.08009     2.96465
   28          C          -0.046155        4.0462     1.08163     2.96452
   29          C           0.009969        3.9900     1.05958     2.93046
   30          C          -0.039768        4.0398     1.08156     2.95821
   31          C           0.040021        3.9600     0.99638     2.96360
   32          C          -0.018384        4.0184     1.06201     2.95637
   33          C          -0.021448        4.0214     1.06289     2.95856
   34          C          -0.018719        4.0187     1.06224     2.95648
   35          C           0.040046        3.9600     0.99628     2.96367
   36          C          -0.018674        4.0187     1.06209     2.95658
   37          C          -0.021693        4.0217     1.06287     2.95883
   38          C          -0.018467        4.0185     1.06193     2.95654
   39          C           0.084041        3.9160     1.09036     2.82560
   40          C          -0.055414        4.0554     1.08147     2.97395
   41          C           0.039160        3.9608     1.10205     2.85879
   42          C          -0.008253        4.0083     1.05880     2.94945
   43          S          -0.024535        6.0245     1.76608     4.25846
   44          C           0.123320        3.8767     1.09483     2.78185
   45          C           0.000949        3.9991     0.99984     2.99921
   46          C           0.495702        3.5043     1.04518     2.45911
   47          O          -0.615882        6.6159     1.81690     4.79898
   48          O          -0.311535        6.3115     1.68766     4.62388
   49          C           0.216960        3.7830     1.14977     2.63327
   50          N          -0.400585        5.4006     1.75361     3.64698
   51          H           0.059034        0.9410     0.94097
   52          H           0.007960        0.9920     0.99204
   53          H           0.001157        0.9988     0.99884
   54          H           0.008384        0.9916     0.99162
   55          H           0.008937        0.9911     0.99106
   56          H           0.008203        0.9918     0.99180
   57          H           0.011877        0.9881     0.98812
   58          H           0.012460        0.9875     0.98754
   59          H           0.021756        0.9782     0.97824
   60          H           0.020345        0.9797     0.97965
   61          H           0.032189        0.9678     0.96781
   62          H           0.021072        0.9789     0.97893
   63          H           0.025689        0.9743     0.97431
   64          H           0.032802        0.9672     0.96720
   65          H           0.023693        0.9763     0.97631
   66          H           0.026233        0.9738     0.97377
   67          H           0.026754        0.9732     0.97325
   68          H           0.020058        0.9799     0.97994
   69          H           0.025425        0.9746     0.97457
   70          H           0.025506        0.9745     0.97449
   71          H           0.020626        0.9794     0.97937
   72          H           0.024108        0.9759     0.97589
   73          H           0.005337        0.9947     0.99466
   74          H           0.006841        0.9932     0.99316
   75          H           0.002357        0.9976     0.99764
   76          H           0.005186        0.9948     0.99481
   77          H           0.001723        0.9983     0.99828
   78          H           0.004788        0.9952     0.99521
   79          H           0.002297        0.9977     0.99770
   80          H           0.006843        0.9932     0.99316
   81          H           0.004972        0.9950     0.99503
   82          H           0.005238        0.9948     0.99476
   83          H           0.006660        0.9933     0.99334
   84          H           0.002469        0.9975     0.99753
   85          H           0.005201        0.9948     0.99480
   86          H           0.001953        0.9980     0.99805
   87          H           0.005235        0.9948     0.99477
   88          H           0.002527        0.9975     0.99747
   89          H           0.006845        0.9932     0.99316
   90          H           0.005237        0.9948     0.99476
   91          H           0.037381        0.9626     0.96262
   92          H           0.048663        0.9513     0.95134
   93          H           0.246046        0.7540     0.75395
 DIPOLE           X         Y         Z       TOTAL
 POINT-CHG.    -4.805    -3.436    -4.396     7.363
 HYBRID        -1.996    -1.932     1.626     3.219
 SUM           -6.801    -5.368    -2.770     9.096


          ATOMIC ORBITAL ELECTRON POPULATIONS

     Atom    s        px        py        pz   
    1  C   1.05450   0.98941   0.98944   0.99349
    2  C   1.04343   0.99197   0.98304   0.98794
    3  C   1.05098   0.97261   0.98590   0.99178
    4  C   1.04893   0.99129   0.88699   0.99871
    5  N   1.25382   1.66318   1.12331   1.11704
    6  C   1.05415   0.98760   0.96636   0.91414
    7  C   1.07804   1.04863   0.95287   0.96335
    8  C   1.04022   0.99328   0.98763   0.95253
    9  C   1.07902   1.03539   0.96235   0.96631
   10  C   1.08094   0.99483   0.95074   0.99205
   11  C   1.04773   1.02405   0.97813   0.96368
   12  C   1.04518   1.04667   0.97417   0.96060
   13  C   1.05390   0.98034   0.96131   0.92307
   14  C   1.07618   1.07800   0.94498   0.95813
   15  C   1.04263   0.97532   0.99736   0.88590
   16  C   1.07791   1.06195   0.94792   0.96755
   17  C   1.08119   0.98674   0.95370   0.99327
   18  N   1.22826   1.26192   1.57901   1.06701
   19  C   1.04826   0.96011   0.99663   0.92890
   20  C   1.07971   0.97785   1.02312   0.96207
   21  C   1.08352   0.96429   1.00897   0.98395
   22  C   1.05963   0.98108   0.98020   0.96862
   23  C   1.08010   0.98326   1.02277   0.95730
   24  C   1.05177   0.98528   1.01097   0.97159
   25  C   1.05167   0.97604   1.00543   0.98445
   26  C   1.04838   0.92182   0.97684   0.98740
   27  C   1.08009   0.99319   1.02916   0.94230
   28  C   1.08163   0.97512   1.02221   0.96719
   29  C   1.05958   0.97559   0.97687   0.97799
   30  C   1.08156   0.99288   1.02188   0.94345
   31  C   0.99638   0.98107   0.98520   0.99733
   32  C   1.06201   0.98920   0.98532   0.98186
   33  C   1.06289   0.98359   0.98638   0.98859
   34  C   1.06224   0.98936   0.98379   0.98333
   35  C   0.99628   0.99537   0.99021   0.97809
   36  C   1.06209   0.99040   0.97467   0.99151
   37  C   1.06287   0.98817   0.98779   0.98287
   38  C   1.06193   0.97475   0.99014   0.99165
   39  C   1.09036   0.93751   0.94049   0.94760
   40  C   1.08147   0.97675   1.01377   0.98343
   41  C   1.10205   0.96392   0.91292   0.98195
   42  C   1.05880   1.00516   1.03746   0.90683
   43  S   1.76608   1.43124   1.64258   1.18464
   44  C   1.09483   0.90999   0.89637   0.97549
   45  C   0.99984   1.03940   1.04010   0.91971
   46  C   1.04518   0.77038   0.76618   0.92256
   47  O   1.81690   1.71064   1.48681   1.60153
   48  O   1.68766   1.53152   1.66147   1.43089
   49  C   1.14977   0.86709   0.90934   0.85684
   50  N   1.75361   1.20609   1.21025   1.23065
   51  H   0.94097
   52  H   0.99204
   53  H   0.99884
   54  H   0.99162
   55  H   0.99106
   56  H   0.99180
   57  H   0.98812
   58  H   0.98754
   59  H   0.97824
   60  H   0.97965
   61  H   0.96781
   62  H   0.97893
   63  H   0.97431
   64  H   0.96720
   65  H   0.97631
   66  H   0.97377
   67  H   0.97325
   68  H   0.97994
   69  H   0.97457
   70  H   0.97449
   71  H   0.97937
   72  H   0.97589
   73  H   0.99466
   74  H   0.99316
   75  H   0.99764
   76  H   0.99481
   77  H   0.99828
   78  H   0.99521
   79  H   0.99770
   80  H   0.99316
   81  H   0.99503
   82  H   0.99476
   83  H   0.99334
   84  H   0.99753
   85  H   0.99480
   86  H   0.99805
   87  H   0.99477
   88  H   0.99747
   89  H   0.99316
   90  H   0.99476
   91  H   0.96262
   92  H   0.95134
   93  H   0.75395

 **********************
 *                    *
 * JOB ENDED NORMALLY *
 *                    *
 **********************



 TOTAL JOB TIME:           827.20 SECONDS

 == MOPAC DONE ==
