 *******************************************************************************
 ** Site#: 4824         For non-commercial use only    Version 21.013L 64BITS **
 *******************************************************************************
 ** Cite this program as: MOPAC2016, Version: 21.013L, James J. P. Stewart,   **
 ** Stewart Computational Chemistry, web: HTTP://OpenMOPAC.net. Days left:  84**
 *******************************************************************************
 **                                                                           **
 **                                MOPAC2016                                  **
 **                                                                           **
 *******************************************************************************

                              INDO CALCULATION RESULTS

 *******************************************************************************
 *  CALCULATION DONE:                                Thu Oct 21 09:29:44 2021  *
 *  INDO       - The INDO Hamiltonian to be used
 *  CIS        - C.I. USES 1 ELECTRON EXCITATIONS ONLY
 *  EPS=  8.93 - USE ANDREAS KLAMT'S COSMO IMPLICIT SOLVATION MODEL
 *  n**2 =  1.420 for COSMO-CI
 *  T=         - A TIME OF 172800.0 SECONDS REQUESTED
 *  DUMP=N     - RESTART FILE WRITTEN EVERY 7200.0 SECONDS REQUESTED
 *******************************************************************************
INDO CIS EPS=8.93 N**2=1.42
 Dye2
 Calculo de Estados Excitados
   ATOM   CHEMICAL          X               Y               Z
  NUMBER   SYMBOL      (ANGSTROMS)     (ANGSTROMS)     (ANGSTROMS)
 
     1       C          0.00000000  *   0.00000000  *   0.00000000  *
     2       C          1.51988440  *   0.00000000  *   0.00000000  *
     3       C          2.05503730  *   1.42866762  *   0.00000000  *
     4       C          3.59078834  *   1.41553119  *  -0.00196925  *
     5       N          4.14267497  *   2.76729927  *  -0.00939981  *
     6       C          4.41513531  *   3.55091442  *   1.13217277  *
     7       C          4.51866846  *   3.16711954  *   2.46545137  *
     8       C          4.86481519  *   4.15353109  *   3.38391856  *
     9       C          5.09987048  *   5.47945248  *   2.99012080  *
    10       C          4.99079471  *   5.85632490  *   1.66108825  *
    11       C          4.64403572  *   4.89468917  *   0.72622288  *
    12       C          4.43920555  *   4.94830694  *  -0.69757611  *
    13       C          4.09297361  *   3.63473120  *  -1.11766985  *
    14       C          3.81331978  *   3.33982878  *  -2.44863384  *
    15       C          3.88322762  *   4.40435784  *  -3.34664307  *
    16       C          4.22775816  *   5.70919781  *  -2.94862782  *
    17       C          4.51375640  *   5.97893336  *  -1.62009286  *
    18       N          3.58974477  *   4.16333951  *  -4.71008575  *
    19       C          4.38148207  *   4.55249047  *  -5.81023222  *
    20       C          5.60458303  *   5.21597296  *  -5.83402505  *
    21       C          6.16550901  *   5.46039090  *  -7.07831614  *
    22       C          5.53997416  *   5.05221101  *  -8.26052652  *
    23       C          4.33070086  *   4.37309428  *  -8.23417816  *
    24       C          3.74681690  *   4.11606432  *  -7.00466743  *
    25       C          2.53465719  *   3.43712781  *  -6.62112366  *
    26       C          2.45980042  *   3.47853945  *  -5.20224980  *
    27       C          1.38088789  *   2.93381546  *  -4.51235289  *
    28       C          0.39177863  *   2.32304072  *  -5.26835496  *
    29       C          0.46473063  *   2.26105843  *  -6.66324982  *
    30       C          1.53155829  *   2.82120867  *  -7.35092549  *
    31       C          4.97174338  *   3.78923754  *   4.77922279  *
    32       C          4.10549672  *   2.98035901  *   5.45839557  *
    33       C          4.49535255  *   2.80248054  *   6.82353864  *
    34       C          5.64436956  *   3.48395251  *   7.11964632  *
    35       S          6.25708529  *   4.33584423  *   5.76432501  *
    36       C          6.30780341  *   3.52247634  *   8.38193540  *
    37       C          6.98440418  *   4.59485027  *   8.91300234  *
    38       C          7.53118873  *   4.28938869  *  10.18779738  *
    39       C          7.24673841  *   2.99752949  *  10.58224469  *
    40       S          6.33574306  *   2.16996973  *   9.40881737  *
    41       C          7.69191399  *   2.46184884  *  11.83121915  *
    42       C          7.35982998  *   1.25637285  *  12.34119668  *
    43       C          7.90747532  *   0.85306600  *  13.64224087  *
    44       O          8.66042486  *   1.50588074  *  14.35173081  *
    45       O          7.50835517  *  -0.36908485  *  14.04902231  *
    46       C          6.49719192  *   0.33879931  *  11.69487863  *
    47       N          5.79534766  *  -0.42923907  *  11.18880664  *
    48       H          8.36500733  *   3.11840703  *  12.40887542  *
    49       H         -0.41734372  *   0.50579789  *  -0.88268287  *
    50       H         -0.40787706  *  -1.02128721  *   0.00003274  *
    51       H         -0.41751619  *   0.50586362  *   0.88256679  *
    52       H          1.90206909  *  -0.56049143  *   0.87957194  *
    53       H          1.90227081  *  -0.56082666  *  -0.87929142  *
    54       H          1.67252403  *   1.98913016  *  -0.88004557  *
    55       H          1.67241330  *   1.98935587  *   0.87869809  *
    56       H          3.98882259  *   0.86244817  *   0.87951795  *
    57       H          3.98418677  *   0.86740058  *  -0.89043239  *
    58       H          4.34652747  *   2.13741260  *   2.78442228  *
    59       H          5.36197971  *   6.22898143  *   3.74228432  *
    60       H          5.17074402  *   6.88816941  *   1.34857839  *
    61       H          3.57055239  *   2.32592391  *  -2.77483810  *
    62       H          4.25084236  *   6.52031396  *  -3.68298385  *
    63       H          4.78528697  *   6.98759356  *  -1.29688175  *
    64       H          6.11111171  *   5.51969968  *  -4.91570367  *
    65       H          7.12497459  *   5.98406493  *  -7.13714821  *
    66       H          6.01742234  *   5.26930337  *  -9.21998355  *
    67       H          3.84359350  *   4.04303895  *  -9.15499455  *
    68       H          1.30366431  *   2.99602906  *  -3.42489985  *
    69       H         -0.47086530  *   1.88036216  *  -4.76039118  *
    70       H         -0.33685136  *   1.76668508  *  -7.21883382  *
    71       H          1.58723065  *   2.78439331  *  -8.44167351  *
    72       H          3.21188896  *   2.52595297  *   5.03713654  *
    73       H          3.92239334  *   2.19895995  *   7.52409319  *
    74       H          7.09101734  *   5.56614117  *   8.43616512  *
    75       H          8.10202421  *   5.00792490  *  10.77367991  *
    76       H          7.89299780  *  -0.59181348  *  14.90918951  *
 


          CARTESIAN COORDINATES 

    NO.       ATOM           X           Y           Z

     1         C          0.0000      0.0000      0.0000
     2         C          1.5199      0.0000      0.0000
     3         C          2.0550      1.4287      0.0000
     4         C          3.5908      1.4155     -0.0020
     5         N          4.1427      2.7673     -0.0094
     6         C          4.4151      3.5509      1.1322
     7         C          4.5187      3.1671      2.4655
     8         C          4.8648      4.1535      3.3839
     9         C          5.0999      5.4795      2.9901
    10         C          4.9908      5.8563      1.6611
    11         C          4.6440      4.8947      0.7262
    12         C          4.4392      4.9483     -0.6976
    13         C          4.0930      3.6347     -1.1177
    14         C          3.8133      3.3398     -2.4486
    15         C          3.8832      4.4044     -3.3466
    16         C          4.2278      5.7092     -2.9486
    17         C          4.5138      5.9789     -1.6201
    18         N          3.5897      4.1633     -4.7101
    19         C          4.3815      4.5525     -5.8102
    20         C          5.6046      5.2160     -5.8340
    21         C          6.1655      5.4604     -7.0783
    22         C          5.5400      5.0522     -8.2605
    23         C          4.3307      4.3731     -8.2342
    24         C          3.7468      4.1161     -7.0047
    25         C          2.5347      3.4371     -6.6211
    26         C          2.4598      3.4785     -5.2022
    27         C          1.3809      2.9338     -4.5124
    28         C          0.3918      2.3230     -5.2684
    29         C          0.4647      2.2611     -6.6632
    30         C          1.5316      2.8212     -7.3509
    31         C          4.9717      3.7892      4.7792
    32         C          4.1055      2.9804      5.4584
    33         C          4.4954      2.8025      6.8235
    34         C          5.6444      3.4840      7.1196
    35         S          6.2571      4.3358      5.7643
    36         C          6.3078      3.5225      8.3819
    37         C          6.9844      4.5949      8.9130
    38         C          7.5312      4.2894     10.1878
    39         C          7.2467      2.9975     10.5822
    40         S          6.3357      2.1700      9.4088
    41         C          7.6919      2.4618     11.8312
    42         C          7.3598      1.2564     12.3412
    43         C          7.9075      0.8531     13.6422
    44         O          8.6604      1.5059     14.3517
    45         O          7.5084     -0.3691     14.0490
    46         C          6.4972      0.3388     11.6949
    47         N          5.7953     -0.4292     11.1888
    48         H          8.3650      3.1184     12.4089
    49         H         -0.4173      0.5058     -0.8827
    50         H         -0.4079     -1.0213      0.0000
    51         H         -0.4175      0.5059      0.8826
    52         H          1.9021     -0.5605      0.8796
    53         H          1.9023     -0.5608     -0.8793
    54         H          1.6725      1.9891     -0.8800
    55         H          1.6724      1.9894      0.8787
    56         H          3.9888      0.8624      0.8795
    57         H          3.9842      0.8674     -0.8904
    58         H          4.3465      2.1374      2.7844
    59         H          5.3620      6.2290      3.7423
    60         H          5.1707      6.8882      1.3486
    61         H          3.5706      2.3259     -2.7748
    62         H          4.2508      6.5203     -3.6830
    63         H          4.7853      6.9876     -1.2969
    64         H          6.1111      5.5197     -4.9157
    65         H          7.1250      5.9841     -7.1371
    66         H          6.0174      5.2693     -9.2200
    67         H          3.8436      4.0430     -9.1550
    68         H          1.3037      2.9960     -3.4249
    69         H         -0.4709      1.8804     -4.7604
    70         H         -0.3369      1.7667     -7.2188
    71         H          1.5872      2.7844     -8.4417
    72         H          3.2119      2.5260      5.0371
    73         H          3.9224      2.1990      7.5241
    74         H          7.0910      5.5661      8.4362
    75         H          8.1020      5.0079     10.7737
    76         H          7.8930     -0.5918     14.9092

           Empirical Formula: C40 H29 N3 O2 S2  =    76 atoms



      MOLECULAR POINT GROUP   :   C1  


      RHF CALCULATION, NO. OF DOUBLY OCCUPIED LEVELS = 114

 WARNING: INDO only performs single-point calculations

 Summary of symmetry occupancy in each shell:

 SHELL     
    1  114
    v  103
 TOTAL 217




    ROOT NO.    1           2           3           4           5           6

           -48.86101   -48.27122   -46.74820   -43.88155   -43.20103   -42.91754
  
  
  S  C   1   0.01427     0.01634    -0.00002    -0.01768     0.00131     0.02345
 PX  C   1   0.00617     0.00704    -0.00001    -0.00672     0.00049     0.00844
 PY  C   1   0.00237     0.00256    -0.00000    -0.00203     0.00020     0.00243
 PZ  C   1  -0.00014     0.00004     0.00000     0.00022    -0.00023    -0.00019
  
  S  C   2   0.03267     0.03723    -0.00004    -0.03157     0.00191     0.03877
 PX  C   2   0.00644     0.00725    -0.00001    -0.00268    -0.00010     0.00193
 PY  C   2   0.01138     0.01265    -0.00001    -0.00859     0.00061     0.00957
 PZ  C   2  -0.00039     0.00005     0.00000     0.00087    -0.00091    -0.00028
  
  S  C   3   0.07807     0.08733    -0.00009    -0.04968     0.00260     0.05180
 PX  C   3   0.02969     0.03388    -0.00003    -0.01168    -0.00056     0.00855
 PY  C   3   0.01094     0.01159    -0.00001     0.00002     0.00020    -0.00372
 PZ  C   3  -0.00202    -0.00013     0.00000     0.00395    -0.00412    -0.00096
  
  S  C   4   0.14054     0.15929    -0.00016    -0.06276    -0.00254     0.05697
 PX  C   4   0.00945     0.01133    -0.00001     0.00361    -0.00283    -0.00549
 PY  C   4   0.06385     0.07274    -0.00007    -0.02065    -0.00164     0.01292
 PZ  C   4  -0.00212     0.00092     0.00001     0.01015    -0.01061    -0.00070
  
  S  N   5   0.31876     0.36092    -0.00034    -0.08966    -0.01068     0.05591
 PX  N   5  -0.00689    -0.00730     0.00001     0.01240    -0.00495    -0.00915
 PY  N   5   0.06684     0.07404    -0.00006    -0.00284    -0.00137    -0.01025
 PZ  N   5  -0.00171     0.00495     0.00002     0.02930    -0.03340     0.00054
  
  S  C   6   0.24046     0.28244    -0.00009     0.10412    -0.13443     0.00367
 PX  C   6  -0.01068    -0.01150     0.00003     0.02566    -0.01524    -0.00758
 PY  C   6   0.00705     0.00795     0.00004     0.05154    -0.03286    -0.01967
 PZ  C   6  -0.08588    -0.09360     0.00018     0.09776    -0.05411    -0.01769
  
  S  C   7   0.09789     0.12235     0.00026     0.21415    -0.15852    -0.01636
 PX  C   7  -0.00082    -0.00039     0.00003     0.02118    -0.01225    -0.00420
 PY  C   7   0.02315     0.02979     0.00008     0.08343    -0.06267    -0.01329
 PZ  C   7  -0.03891    -0.04568     0.00015     0.03150     0.00961    -0.00811
  
  S  C   8   0.06477     0.08452     0.00058     0.30927    -0.17436    -0.03472
 PX  C   8  -0.00346    -0.00435    -0.00000    -0.00607     0.00534     0.00025
 PY  C   8   0.00256     0.00324    -0.00006     0.00033    -0.01329    -0.00291
 PZ  C   8  -0.02635    -0.03299     0.00018    -0.01672     0.05539     0.00463
  
  S  C   9   0.05861     0.07560     0.00028     0.22806    -0.16028    -0.03147
 PX  C   9  -0.00720    -0.00918    -0.00002    -0.02089     0.01641     0.00278
 PY  C   9  -0.01934    -0.02510    -0.00011    -0.07550     0.04933     0.00866
 PZ  C   9  -0.02032    -0.02523     0.00005    -0.02733     0.03842     0.00596
  
  S  C  10   0.08028     0.09770     0.00010     0.16788    -0.13904    -0.03033
 PX  C  10  -0.00974    -0.01149     0.00000    -0.00934     0.00888     0.00181
 PY  C  10  -0.03746    -0.04617    -0.00004    -0.06787     0.05894     0.00966
 PZ  C  10  -0.01033    -0.00934     0.00006     0.03900    -0.02781    -0.00208
  
  S  C  11   0.19979     0.22745    -0.00007     0.10659    -0.10752    -0.02567
 PX  C  11  -0.01958    -0.02107     0.00003     0.01517    -0.00915    -0.00256
 PY  C  11  -0.06809    -0.07929     0.00006     0.00363     0.01452    -0.00743
 PZ  C  11  -0.03302    -0.02728     0.00011     0.09725    -0.08224    -0.00550
  
  S  C  12   0.22086     0.20171    -0.00020    -0.07835     0.10327    -0.04124
 PX  C  12  -0.01348    -0.00980     0.00002     0.01318    -0.01465     0.00059
 PY  C  12  -0.07250    -0.07966     0.00008     0.02201    -0.00283    -0.00877
 PZ  C  12   0.01497     0.04727     0.00000     0.05296    -0.08816     0.01827
  
  S  C  13   0.27371     0.24923    -0.00028    -0.13222     0.12627    -0.00748
 PX  C  13   0.01162     0.01583    -0.00001     0.00136    -0.00194    -0.00469
 PY  C  13   0.00625    -0.01043     0.00000    -0.00707     0.04005    -0.02954
 PZ  C  13   0.06902     0.11349    -0.00008     0.01344    -0.06506     0.02247
  
  S  C  14   0.17452     0.03830    -0.00013    -0.11551     0.17058    -0.01921
 PX  C  14   0.00807     0.01355    -0.00001    -0.00975     0.01414    -0.01069
 PY  C  14   0.04292    -0.00163    -0.00003    -0.03504     0.06826    -0.02598
 PZ  C  14   0.01276     0.07795    -0.00006    -0.01923     0.00144     0.00239
  
  S  C  15   0.22324    -0.09100    -0.00006    -0.11061     0.21242    -0.06540
 PX  C  15  -0.00904     0.01886    -0.00001    -0.00579     0.00778    -0.01742
 PY  C  15  -0.01089     0.01210    -0.00000    -0.00275     0.00730    -0.02104
 PZ  C  15  -0.03416     0.09421    -0.00006    -0.03316     0.03844    -0.00163
  
  S  C  16   0.13210    -0.01040    -0.00007    -0.09560     0.17752    -0.07531
 PX  C  16  -0.00870     0.00699     0.00000     0.00313    -0.00677    -0.00137
 PY  C  16  -0.05119     0.00774     0.00003     0.03315    -0.05950     0.01846
 PZ  C  16   0.00399     0.04090    -0.00003    -0.02371     0.03427    -0.00239
  
  S  C  17   0.11160     0.05932    -0.00010    -0.08336     0.14585    -0.05739
 PX  C  17  -0.01116    -0.00361     0.00001     0.01110    -0.01815     0.00481
 PY  C  17  -0.05094    -0.03114     0.00005     0.03755    -0.05832     0.01783
 PZ  C  17  -0.00047     0.02131    -0.00000     0.01697    -0.03185     0.01050
  
  S  N  18   0.35863    -0.33176     0.00006    -0.02489     0.08921    -0.03470
 PX  N  18  -0.01112     0.01453    -0.00001    -0.00610     0.01260    -0.05486
 PY  N  18  -0.01053     0.01314    -0.00001    -0.00499     0.01043    -0.03352
 PZ  N  18  -0.04999     0.07098    -0.00003    -0.03313     0.05932    -0.00058
  
  S  C  19   0.25901    -0.26300     0.00007     0.02951    -0.03727    -0.21533
 PX  C  19  -0.07682     0.07817    -0.00002    -0.00215    -0.00640    -0.06815
 PY  C  19  -0.04285     0.04461    -0.00001    -0.00339     0.00138    -0.03375
 PZ  C  19   0.02766    -0.01630    -0.00001    -0.02541     0.06061     0.06578
  
  S  C  20   0.10550    -0.10750     0.00003     0.02195    -0.04128    -0.25023
 PX  C  20  -0.04381     0.04409    -0.00001    -0.00402     0.00389     0.04418
 PY  C  20  -0.02391     0.02484    -0.00001    -0.00368     0.00536     0.02806
 PZ  C  20  -0.00729     0.01389    -0.00001    -0.01696     0.03804     0.08346
  
  S  C  21   0.06206    -0.06922     0.00002     0.03091    -0.06719    -0.25341
 PX  C  21  -0.02719     0.03031    -0.00001    -0.01218     0.02556     0.08924
 PY  C  21  -0.01466     0.01650    -0.00001    -0.00691     0.01458     0.04902
 PZ  C  21   0.00634    -0.00561     0.00000    -0.00124     0.00372    -0.00695
  
  S  C  22   0.05875    -0.06740     0.00002     0.03444    -0.07593    -0.24464
 PX  C  22  -0.01460     0.01667    -0.00001    -0.00740     0.01567     0.03959
 PY  C  22  -0.00687     0.00788    -0.00000    -0.00355     0.00752     0.01758
 PZ  C  22   0.02557    -0.02879     0.00001     0.01230    -0.02604    -0.09097
  
  S  C  23   0.08162    -0.09264     0.00003     0.04045    -0.08649    -0.21328
 PX  C  23  -0.00006    -0.00042     0.00000     0.00329    -0.00829    -0.05961
 PY  C  23   0.00226    -0.00277     0.00000     0.00268    -0.00630    -0.03784
 PZ  C  23   0.04132    -0.04583     0.00001     0.01521    -0.03021    -0.07566
  
  S  C  24   0.20411    -0.22047     0.00007     0.05419    -0.10061    -0.15050
 PX  C  24  -0.01001     0.00973    -0.00000     0.00350    -0.00940    -0.12415
 PY  C  24  -0.00135     0.00115     0.00000     0.00203    -0.00474    -0.06903
 PZ  C  24   0.08099    -0.08260     0.00002     0.00374     0.00350     0.02096
  
  S  C  25   0.20484    -0.21982     0.00006     0.05093    -0.10067     0.21152
 PX  C  25   0.04081    -0.04196     0.00001     0.00054     0.00968    -0.12643
 PY  C  25   0.02773    -0.02859     0.00001     0.00078     0.00500    -0.06824
 PZ  C  25   0.06507    -0.06588     0.00002     0.00410    -0.00233     0.05371
  
  S  C  26   0.26143    -0.26112     0.00006     0.02414    -0.03706     0.23309
 PX  C  26   0.07780    -0.07516     0.00001    -0.00664     0.03011    -0.11059
 PY  C  26   0.04364    -0.04229     0.00001    -0.00435     0.01884    -0.06439
 PZ  C  26  -0.02045     0.03290    -0.00002    -0.02402     0.04985    -0.04888
  
  S  C  27   0.10877    -0.10443     0.00002     0.01531    -0.04121     0.27899
 PX  C  27   0.03616    -0.03241     0.00000    -0.00393     0.01206    -0.00399
 PY  C  27   0.01693    -0.01555     0.00000    -0.00252     0.00820    -0.01131
 PZ  C  27  -0.03112     0.03843    -0.00001    -0.01606     0.03589    -0.12144
  
  S  C  28   0.06353    -0.06780     0.00002     0.02557    -0.06729     0.30046
 PX  C  28   0.02688    -0.02818     0.00001     0.00834    -0.02085     0.09494
 PY  C  28   0.01425    -0.01497     0.00000     0.00428    -0.01060     0.04917
 PZ  C  28  -0.01014     0.01310    -0.00001    -0.00768     0.01831    -0.05836
  
  S  C  29   0.05961    -0.06662     0.00002     0.02980    -0.07607     0.29715
 PX  C  29   0.02327    -0.02585     0.00001     0.01000    -0.02415     0.08721
 PY  C  29   0.01423    -0.01581     0.00001     0.00610    -0.01478     0.05444
 PZ  C  29   0.01400    -0.01500     0.00000     0.00519    -0.01347     0.06530
  
  S  C  30   0.08234    -0.09201     0.00003     0.03637    -0.08662     0.27126
 PX  C  30   0.01659    -0.01805     0.00001     0.00354    -0.00487    -0.01956
 PY  C  30   0.01187    -0.01296     0.00000     0.00293    -0.00491    -0.00296
 PZ  C  30   0.03639    -0.03984     0.00001     0.01322    -0.03124     0.12174
  
  S  C  31   0.02210     0.03053     0.00150     0.31540    -0.03271    -0.02357
 PX  C  31  -0.00185    -0.00252    -0.00003    -0.01846     0.00589     0.00165
 PY  C  31   0.00099     0.00120    -0.00020    -0.02214    -0.01339    -0.00013
 PZ  C  31  -0.00847    -0.01103     0.00055     0.02392     0.05623     0.00356
  
  S  C  32   0.01141     0.01621     0.00161     0.26771     0.01839    -0.01545
 PX  C  32   0.00265     0.00389     0.00057     0.08578     0.01158    -0.00449
 PY  C  32   0.00240     0.00344     0.00027     0.05152    -0.00067    -0.00354
 PZ  C  32  -0.00326    -0.00430     0.00037     0.01538     0.02979     0.00172
  
  S  C  33   0.00526     0.00789     0.00269     0.24840     0.07826    -0.00709
 PX  C  33   0.00085     0.00132     0.00089     0.05729     0.02772    -0.00020
 PY  C  33   0.00122     0.00184     0.00058     0.05765     0.01667    -0.00187
 PZ  C  33  -0.00215    -0.00313     0.00012    -0.05874     0.00709     0.00539
  
  S  C  34   0.00443     0.00673     0.00526     0.26837     0.14323     0.00159
 PX  C  34  -0.00109    -0.00163     0.00071    -0.03633     0.01379     0.00516
 PY  C  34  -0.00016    -0.00026     0.00008    -0.01042    -0.00038     0.00085
 PZ  C  34  -0.00177    -0.00262     0.00163    -0.03856     0.03805     0.00905
  
  S  S  35   0.00710     0.01021     0.00204     0.20240     0.04111    -0.00811
 PX  S  35  -0.00352    -0.00510    -0.00059    -0.09854    -0.00885     0.00573
 PY  S  35  -0.00146    -0.00220    -0.00062    -0.06754    -0.01804     0.00238
 PZ  S  35  -0.00232    -0.00312     0.00087     0.01080     0.03898     0.00434
  
  S  C  36   0.00131     0.00210     0.01458     0.22305     0.29057     0.02951
 PX  C  36  -0.00029    -0.00044     0.00298     0.00697     0.04466     0.00694
 PY  C  36  -0.00000    -0.00000     0.00071     0.01175     0.02292     0.00284
 PZ  C  36  -0.00050    -0.00075     0.00533     0.00895     0.07124     0.01125
  
  S  C  37   0.00057     0.00095     0.01554     0.17884     0.28791     0.03298
 PX  C  37  -0.00013    -0.00020    -0.00027    -0.01604    -0.01480    -0.00106
 PY  C  37  -0.00018    -0.00031    -0.00614    -0.06511    -0.10689    -0.01235
 PZ  C  37  -0.00010    -0.00015     0.00395     0.01632     0.04873     0.00688
  
  S  C  38   0.00028     0.00050     0.02459     0.16082     0.29390     0.03575
 PX  C  38  -0.00007    -0.00013    -0.00302    -0.03553    -0.06167    -0.00731
 PY  C  38  -0.00007    -0.00012    -0.00913    -0.04441    -0.08291    -0.01019
 PZ  C  38  -0.00009    -0.00016     0.00095    -0.03595    -0.05831    -0.00666
  
  S  C  39   0.00025     0.00044     0.04736     0.15669     0.29547     0.03650
 PX  C  39  -0.00003    -0.00005     0.00253    -0.00850    -0.01197    -0.00125
 PY  C  39   0.00006     0.00010    -0.00686     0.03110     0.05431     0.00643
 PZ  C  39  -0.00009    -0.00016     0.01095    -0.03878    -0.06223    -0.00704
  
  S  S  40   0.00045     0.00075     0.02224     0.13717     0.22181     0.02553
 PX  S  40  -0.00002    -0.00002     0.00643     0.02372     0.05172     0.00671
 PY  S  40   0.00022     0.00037     0.00631     0.07731     0.12659     0.01461
 PZ  S  40  -0.00017    -0.00026     0.00863    -0.00705     0.01115     0.00261
  
  S  C  41   0.00008     0.00015     0.11263     0.07026     0.14854     0.01933
 PX  C  41  -0.00001    -0.00002    -0.00372    -0.01033    -0.02106    -0.00270
 PY  C  41   0.00001     0.00002    -0.03953     0.00831     0.01269     0.00137
 PZ  C  41  -0.00003    -0.00005     0.02923    -0.02449    -0.04622    -0.00570
  
  S  C  42   0.00004     0.00008     0.22541     0.03165     0.07525     0.01024
 PX  C  42   0.00000     0.00000     0.02846    -0.00195    -0.00350    -0.00043
 PY  C  42   0.00001     0.00002    -0.02966     0.01337     0.02806     0.00365
 PZ  C  42  -0.00001    -0.00001     0.07571    -0.01523    -0.03094    -0.00398
  
  S  C  43   0.00003     0.00007     0.51343    -0.01457    -0.02085    -0.00227
 PX  C  43   0.00000     0.00000     0.02607    -0.00206    -0.00351    -0.00041
 PY  C  43   0.00000    -0.00000    -0.07740     0.01197     0.02686     0.00364
 PZ  C  43   0.00000     0.00000     0.11400    -0.01420    -0.02999    -0.00394
  
  S  O  44   0.00002     0.00005     0.41154    -0.01398    -0.02065    -0.00226
 PX  O  44  -0.00001    -0.00001    -0.10702     0.00373     0.00568     0.00064
 PY  O  44  -0.00000    -0.00001    -0.11158     0.00648     0.01214     0.00152
 PZ  O  44  -0.00001    -0.00001    -0.08398     0.00062    -0.00109    -0.00027
  
  S  O  45   0.00002     0.00006     0.57451    -0.03587    -0.07084    -0.00914
 PX  O  45   0.00000     0.00001     0.08881    -0.00598    -0.01188    -0.00153
 PY  O  45   0.00001     0.00002     0.14499    -0.00749    -0.01386    -0.00174
 PZ  O  45  -0.00000     0.00000     0.02299    -0.00356    -0.00800    -0.00108
  
  S  C  46   0.00002     0.00005     0.11220     0.02210     0.05276     0.00722
 PX  C  46   0.00000     0.00001     0.03258     0.00260     0.00596     0.00079
 PY  C  46   0.00001     0.00002     0.01684     0.00818     0.01753     0.00229
 PZ  C  46   0.00000     0.00000     0.04044    -0.00288    -0.00562    -0.00072
  
  S  N  47   0.00001     0.00002     0.03926     0.01078     0.02672     0.00372
 PX  N  47   0.00000     0.00001     0.01530     0.00336     0.00838     0.00117
 PY  N  47   0.00000     0.00001     0.01321     0.00476     0.01148     0.00158
 PZ  N  47   0.00000     0.00000     0.01420     0.00152     0.00401     0.00057
  
  S  H  48   0.00003     0.00006     0.05226     0.02584     0.05499     0.00717
  
  S  H  49   0.00655     0.00717    -0.00001    -0.00778     0.00072     0.01045
  
  S  H  50   0.00435     0.00505    -0.00001    -0.00599     0.00043     0.00817
  
  S  H  51   0.00630     0.00726    -0.00001    -0.00749     0.00044     0.01000
  
  S  H  52   0.01376     0.01598    -0.00002    -0.01257     0.00014     0.01595
  
  S  H  53   0.01421     0.01586    -0.00002    -0.01367     0.00126     0.01629
  
  S  H  54   0.03902     0.03957    -0.00005    -0.02499     0.00563     0.02336
  
  S  H  55   0.03498     0.03985    -0.00004    -0.01830    -0.00156     0.02127
  
  S  H  56   0.05031     0.05855    -0.00005    -0.01590    -0.00778     0.02166
  
  S  H  57   0.05231     0.05630    -0.00006    -0.02843     0.00497     0.02239
  
  S  H  58   0.03253     0.04055     0.00012     0.06946    -0.04460    -0.00181
  
  S  H  59   0.01387     0.01821     0.00013     0.07404    -0.04475    -0.00988
  
  S  H  60   0.02224     0.02602     0.00002     0.04200    -0.03353    -0.00996
  
  S  H  61   0.06649     0.00547    -0.00004    -0.03659     0.04860     0.00871
  
  S  H  62   0.04641    -0.01888    -0.00001    -0.02543     0.05138    -0.03249
  
  S  H  63   0.02923     0.01740    -0.00002    -0.01793     0.03542    -0.01743
  
  S  H  64   0.03763    -0.03330     0.00001    -0.00009     0.00186    -0.07337
  
  S  H  65   0.01433    -0.01598     0.00001     0.00789    -0.01767    -0.07054
  
  S  H  66   0.01328    -0.01549     0.00001     0.00921    -0.02091    -0.06732
  
  S  H  67   0.02204    -0.02534     0.00001     0.01217    -0.02669    -0.05014
  
  S  H  68   0.04090    -0.02993     0.00000    -0.00354     0.00193     0.07399
  
  S  H  69   0.01484    -0.01548     0.00000     0.00633    -0.01770     0.08329
  
  S  H  70   0.01348    -0.01531     0.00001     0.00798    -0.02096     0.08201
  
  S  H  71   0.02219    -0.02521     0.00001     0.01122    -0.02673     0.06811
  
  S  H  72   0.00525     0.00723     0.00041     0.08228    -0.00274    -0.00531
  
  S  H  73   0.00129     0.00195     0.00103     0.07084     0.02925    -0.00100
  
  S  H  74   0.00023     0.00038     0.00389     0.05407     0.08052     0.00886
  
  S  H  75   0.00007     0.00012     0.00877     0.04398     0.08274     0.01020
  
  S  H  76   0.00001     0.00003     0.24216    -0.01589    -0.03170    -0.00410




    ROOT NO.    7           8           9          10          11          12

           -42.77891   -41.84240   -41.16521   -40.01987   -39.62949   -39.09036
  
  
  S  C   1  -0.07980     0.12818     0.12527     0.26855     0.04531    -0.02652
 PX  C   1  -0.02905     0.04458     0.04203     0.08308     0.01360    -0.00760
 PY  C   1  -0.00787     0.01132     0.00991     0.01747     0.00270    -0.00137
 PZ  C   1  -0.00007    -0.00014     0.00023    -0.00020    -0.00000    -0.00001
  
  S  C   2  -0.13374     0.19922     0.18457     0.35307     0.05724    -0.03158
 PX  C   2  -0.00745     0.00341    -0.00202    -0.02636    -0.00561     0.00422
 PY  C   2  -0.03265     0.04410     0.03728     0.05850     0.00866    -0.00410
 PZ  C   2  -0.00021    -0.00056     0.00065    -0.00046     0.00001    -0.00005
  
  S  C   3  -0.18040     0.22923     0.18720     0.27394     0.03985    -0.01845
 PX  C   3  -0.03384     0.02302     0.00652    -0.04212    -0.00942     0.00718
 PY  C   3   0.01275    -0.03163    -0.03715    -0.09028    -0.01556     0.00920
 PZ  C   3  -0.00088    -0.00261     0.00282    -0.00178     0.00012    -0.00027
  
  S  C   4  -0.21058     0.20853     0.14041     0.07050     0.00261     0.00522
 PX  C   4   0.01547    -0.03778    -0.03776    -0.09063    -0.01480     0.00816
 PY  C   4  -0.05273     0.02427    -0.00211    -0.07963    -0.01545     0.01011
 PZ  C   4  -0.00196    -0.00607     0.00825    -0.00350     0.00042    -0.00066
  
  S  N   5  -0.23368     0.11472     0.01734    -0.23116    -0.04345     0.02686
 PX  N   5   0.03063    -0.04061    -0.02319    -0.02111    -0.00093    -0.00132
 PY  N   5   0.02652    -0.06997    -0.06702    -0.08558    -0.00927     0.00080
 PZ  N   5  -0.00877    -0.01920     0.03000    -0.01335     0.00165    -0.00267
  
  S  C   6  -0.03495    -0.11150     0.06458    -0.09979    -0.00158    -0.00602
 PX  C   6   0.02990    -0.03138     0.00527     0.02157     0.00621    -0.00467
 PY  C   6   0.07344    -0.09419    -0.00868     0.03636     0.01515    -0.01388
 PZ  C   6   0.08176    -0.04465     0.07275     0.13697     0.02532    -0.01293
  
  S  C   7   0.06891    -0.08051     0.12044     0.07566     0.01367    -0.00332
 PX  C   7   0.01744    -0.01424     0.00590     0.01413     0.00271    -0.00134
 PY  C   7   0.05255    -0.07058     0.03864     0.04588     0.01346    -0.00932
 PZ  C   7   0.04115     0.02996    -0.01381     0.04125    -0.00343     0.00822
  
  S  C   8   0.15507    -0.06438     0.10977     0.14782     0.01301     0.00483
 PX  C   8  -0.00093     0.00253    -0.00450    -0.00100    -0.00015    -0.00015
 PY  C   8   0.00862    -0.04182     0.01326     0.01818     0.01082    -0.01040
 PZ  C   8  -0.00942     0.10777    -0.05659    -0.03214    -0.02408     0.02259
  
  S  C   9   0.12995    -0.14370     0.11263     0.14613     0.03444    -0.02095
 PX  C   9  -0.01099     0.01631    -0.01159    -0.01146    -0.00339     0.00233
 PY  C   9  -0.03719     0.02912    -0.03341    -0.03589    -0.00518     0.00078
 PZ  C   9  -0.01865     0.07063    -0.02924    -0.02337    -0.01578     0.01528
  
  S  C  10   0.11310    -0.19139     0.08047     0.11125     0.04131    -0.03429
 PX  C  10  -0.00590     0.01416    -0.00244    -0.00133    -0.00190     0.00199
 PY  C  10  -0.03535     0.06995    -0.03507    -0.02632    -0.01213     0.01015
 PZ  C  10   0.01312    -0.00676     0.03685     0.03343     0.00551    -0.00167
  
  S  C  11   0.07686    -0.20208    -0.00379    -0.01673     0.02034    -0.02509
 PX  C  11   0.01223    -0.00794     0.01436     0.02487     0.00525    -0.00321
 PY  C  11   0.03597     0.00290     0.00449     0.07598     0.01211    -0.00644
 PZ  C  11   0.02898    -0.05149     0.09551     0.06985     0.01943    -0.01283
  
  S  C  12   0.13578    -0.09166    -0.19395     0.03554     0.00563    -0.00641
 PX  C  12  -0.00421    -0.00797     0.01199    -0.00230     0.00143    -0.00177
 PY  C  12   0.03579    -0.00628     0.01781     0.07879     0.01356    -0.00740
 PZ  C  12  -0.07607    -0.03677     0.05713    -0.10920    -0.00748    -0.00200
  
  S  C  13   0.03231     0.02340    -0.15180    -0.03525    -0.01623     0.01290
 PX  C  13   0.00720    -0.01969    -0.01792    -0.01897    -0.00174    -0.00026
 PY  C  13   0.10468    -0.06081    -0.07458     0.06098     0.01103    -0.00778
 PZ  C  13  -0.11377    -0.00983     0.01726    -0.15716    -0.01958     0.00634
  
  S  C  14   0.15622     0.04768    -0.06338     0.11777     0.00672     0.00393
 PX  C  14   0.01335    -0.00425    -0.02290     0.00873     0.00022     0.00035
 PY  C  14   0.09510    -0.01303    -0.04851     0.06275     0.00695    -0.00217
 PZ  C  14  -0.04183     0.00770    -0.06103    -0.00628    -0.00468     0.00384
  
  S  C  15   0.27242     0.03191     0.02792     0.13301     0.01486    -0.00276
 PX  C  15   0.00363    -0.00565    -0.03325     0.02245     0.00207    -0.00053
 PY  C  15   0.01102    -0.01175    -0.03295     0.02743     0.00364    -0.00191
 PZ  C  15   0.02443    -0.01493    -0.14743     0.09963     0.00784    -0.00065
  
  S  C  16   0.22378    -0.00507    -0.09701     0.18552     0.02087    -0.00626
 PX  C  16  -0.00968    -0.00382    -0.01164     0.00176     0.00021    -0.00026
 PY  C  16  -0.07199    -0.00579     0.01250    -0.04152    -0.00395     0.00035
 PZ  C  16   0.03846    -0.01529    -0.08376     0.06054     0.00593    -0.00190
  
  S  C  17   0.19333    -0.04593    -0.17223     0.17819     0.02163    -0.00952
 PX  C  17  -0.01982    -0.00058     0.01499    -0.01807    -0.00154     0.00010
 PY  C  17  -0.06652     0.01135     0.06522    -0.04864    -0.00441     0.00108
 PZ  C  17  -0.02966    -0.01836     0.00431    -0.04181    -0.00297    -0.00112
  
  S  N  18   0.15894     0.04981     0.30435    -0.13285    -0.00952     0.00085
 PX  N  18   0.00402     0.00141    -0.00706     0.01800     0.00205    -0.00054
 PY  N  18   0.00711    -0.00035    -0.00784     0.01627     0.00195    -0.00063
 PZ  N  18   0.07461     0.00701    -0.03055     0.08257     0.00879    -0.00154
  
  S  C  19  -0.08823     0.00550     0.05024    -0.05103    -0.00460     0.00054
 PX  C  19  -0.04035    -0.01052    -0.11006     0.08696     0.00803    -0.00125
 PY  C  19  -0.01352    -0.00488    -0.05492     0.04797     0.00459    -0.00080
 PZ  C  19   0.11550     0.02076     0.12697    -0.04314    -0.00247    -0.00011
  
  S  C  20  -0.12574    -0.01110    -0.11288     0.07865     0.00736    -0.00131
 PX  C  20   0.01294    -0.00172    -0.01207     0.00946     0.00080    -0.00006
 PY  C  20   0.01314    -0.00033    -0.00247     0.00460     0.00047    -0.00009
 PZ  C  20   0.08238     0.01135     0.08266    -0.03719    -0.00270     0.00012
  
  S  C  21  -0.17313    -0.02169    -0.18670     0.11260     0.00970    -0.00127
 PX  C  21   0.06274     0.00738     0.05904    -0.03058    -0.00246     0.00027
 PY  C  21   0.03534     0.00417     0.03316    -0.01683    -0.00133     0.00013
 PZ  C  21   0.00493     0.00142     0.00827    -0.00175     0.00003    -0.00011
  
  S  C  22  -0.18514    -0.02456    -0.19948     0.11053     0.00907    -0.00098
 PX  C  22   0.03435     0.00451     0.03056    -0.01123    -0.00069    -0.00000
 PY  C  22   0.01609     0.00215     0.01406    -0.00462    -0.00025    -0.00002
 PZ  C  22  -0.06421    -0.00764    -0.06201     0.03329     0.00273    -0.00032
  
  S  C  23  -0.18947    -0.02621    -0.18311     0.07947     0.00569    -0.00034
 PX  C  23  -0.03055    -0.00315    -0.03936     0.03036     0.00280    -0.00039
 PY  C  23  -0.02069    -0.00218    -0.02462     0.01777     0.00161    -0.00022
 PZ  C  23  -0.06379    -0.00725    -0.04471     0.01174     0.00052     0.00007
  
  S  C  24  -0.17645    -0.01984    -0.07427    -0.02567    -0.00432     0.00117
 PX  C  24  -0.05050    -0.00315    -0.05696     0.04508     0.00413    -0.00058
 PY  C  24  -0.02660    -0.00122    -0.02663     0.02165     0.00201    -0.00030
 PZ  C  24   0.02356     0.00962     0.09304    -0.06990    -0.00623     0.00085
  
  S  C  25  -0.08630    -0.03185    -0.07960    -0.02613    -0.00415     0.00090
 PX  C  25  -0.00731     0.01504     0.09091    -0.06718    -0.00627     0.00107
 PY  C  25  -0.00334     0.00858     0.05448    -0.04064    -0.00377     0.00063
 PZ  C  25   0.01737     0.00376     0.04682    -0.03471    -0.00303     0.00043
  
  S  C  26   0.01901    -0.00422     0.04783    -0.05260    -0.00492     0.00085
 PX  C  26   0.03286     0.02402     0.14991    -0.09341    -0.00818     0.00125
 PY  C  26   0.02162     0.01376     0.08783    -0.05329    -0.00456     0.00063
 PZ  C  26   0.05833     0.01759     0.04976     0.01344     0.00226    -0.00040
  
  S  C  27  -0.00083    -0.02113    -0.11485     0.07876     0.00729    -0.00111
 PX  C  27   0.02021     0.00810     0.04528    -0.02428    -0.00213     0.00044
 PY  C  27   0.01223     0.00486     0.02995    -0.01674    -0.00144     0.00025
 PZ  C  27   0.02258     0.01882     0.07005    -0.02567    -0.00199     0.00034
  
  S  C  28  -0.03669    -0.03839    -0.19358     0.11335     0.01014    -0.00171
 PX  C  28  -0.00990    -0.01080    -0.05015     0.02584     0.00219    -0.00032
 PY  C  28  -0.00469    -0.00551    -0.02512     0.01290     0.00110    -0.00016
 PZ  C  28   0.01359     0.01070     0.04461    -0.01884    -0.00149     0.00024
  
  S  C  29  -0.04937    -0.04356    -0.20836     0.11055     0.00955    -0.00159
 PX  C  29  -0.01617    -0.01242    -0.05400     0.02296     0.00179    -0.00026
 PY  C  29  -0.00967    -0.00768    -0.03358     0.01472     0.00117    -0.00018
 PZ  C  29  -0.00585    -0.00760    -0.03746     0.02251     0.00205    -0.00035
  
  S  C  30  -0.06777    -0.04354    -0.19131     0.07917     0.00608    -0.00088
 PX  C  30  -0.00938     0.00144     0.01725    -0.02187    -0.00229     0.00045
 PY  C  30  -0.00658    -0.00027     0.00536    -0.01056    -0.00115     0.00023
 PZ  C  30  -0.01797    -0.01567    -0.06546     0.02791     0.00224    -0.00035
  
  S  C  31   0.13412     0.22807    -0.05620     0.01810    -0.05012     0.05575
 PX  C  31  -0.00899    -0.01287     0.00083    -0.00327     0.00468    -0.00600
 PY  C  31  -0.00455    -0.05040     0.02374     0.01951     0.01173    -0.01015
 PZ  C  31  -0.00436     0.12103    -0.07360    -0.06547    -0.02399     0.01592
  
  S  C  32   0.10126     0.28094    -0.10423    -0.04188    -0.06153     0.05984
 PX  C  32   0.03088     0.09485    -0.03820    -0.01810    -0.01889     0.01705
 PY  C  32   0.02128     0.04564    -0.01483    -0.00167    -0.00980     0.01009
 PZ  C  32  -0.00234     0.05623    -0.03737    -0.03505    -0.00889     0.00363
  
  S  C  33   0.06480     0.28586    -0.12990    -0.08393    -0.04250     0.02977
 PX  C  33   0.00816     0.05721    -0.02809    -0.02068    -0.00145    -0.00358
 PY  C  33   0.01595     0.06527    -0.02912    -0.01772    -0.00964     0.00671
 PZ  C  33  -0.03240    -0.08253     0.03095     0.01142     0.02682    -0.02835
  
  S  C  34   0.02538     0.24088    -0.11927    -0.08990     0.00260    -0.02443
 PX  C  34  -0.02957    -0.07493     0.03058     0.01478     0.02738    -0.02825
 PY  C  34  -0.00566    -0.02020     0.00934     0.00632     0.00603    -0.00567
 PZ  C  34  -0.04804    -0.09765     0.03574     0.01088     0.04375    -0.04753
  
  S  S  35   0.05946     0.18801    -0.07573    -0.03517    -0.02422     0.01742
 PX  S  35  -0.03755    -0.10448     0.04061     0.01652     0.02158    -0.02018
 PY  S  35  -0.01969    -0.07898     0.03469     0.02096     0.01295    -0.00991
 PZ  S  35  -0.01627     0.02312    -0.02077    -0.02722     0.00828    -0.01505
  
  S  C  36  -0.11659    -0.03429    -0.01287    -0.04337     0.11597    -0.13636
 PX  C  36  -0.03345    -0.05767     0.02256     0.01111     0.02489    -0.02348
 PY  C  36  -0.01249    -0.01368     0.00396    -0.00076     0.01633    -0.01999
 PZ  C  36  -0.05460    -0.09632     0.03813     0.02006     0.03524    -0.02969
  
  S  C  37  -0.13978    -0.11685     0.02641    -0.01420     0.12655    -0.14345
 PX  C  37   0.00304    -0.00888     0.00600     0.00700    -0.00787     0.00991
 PY  C  37   0.05260     0.04575    -0.01100     0.00363    -0.04236     0.04475
 PZ  C  37  -0.03211    -0.05011     0.01950     0.01093     0.01522    -0.01273
  
  S  C  38  -0.15632    -0.17051     0.05375     0.01635     0.07505    -0.08068
 PX  C  38   0.03155     0.03049    -0.00824     0.00120    -0.02900     0.02830
 PY  C  38   0.04477     0.05111    -0.01708    -0.00894    -0.00435    -0.00185
 PZ  C  38   0.02814     0.02154    -0.00342     0.00892    -0.05309     0.05707
  
  S  C  39  -0.16098    -0.18956     0.06591     0.04337    -0.02918     0.06410
 PX  C  39   0.00499     0.00110     0.00123     0.00505    -0.02328     0.01428
 PY  C  39  -0.02770    -0.02535     0.00561    -0.00808     0.05886    -0.08395
 PZ  C  39   0.02957     0.02011    -0.00142     0.01646    -0.09093     0.09596
  
  S  S  40  -0.10855    -0.09565     0.02489     0.00269     0.04261    -0.00808
 PX  S  40  -0.03027    -0.04009     0.01460     0.00861     0.00424     0.00386
 PY  S  40  -0.06217    -0.05362     0.01265    -0.00526     0.05214    -0.06743
 PZ  S  40  -0.01415    -0.03744     0.01830     0.02017    -0.03148     0.06382
  
  S  C  41  -0.08751    -0.12685     0.05406     0.07297    -0.25363     0.22581
 PX  C  41   0.01212     0.01657    -0.00667    -0.00679     0.00536    -0.05101
 PY  C  41  -0.00558    -0.00103    -0.00234    -0.01329     0.07209    -0.07865
 PZ  C  41   0.02510     0.02855    -0.00908     0.00039    -0.05539    -0.01784
  
  S  C  42  -0.04740    -0.07963     0.03808     0.06428    -0.22716     0.33311
 PX  C  42   0.00186     0.00199    -0.00051     0.00299    -0.05182    -0.07096
 PY  C  42  -0.01654    -0.02430     0.01063     0.01815    -0.10916    -0.03619
 PZ  C  42   0.01790     0.02505    -0.01033    -0.01104     0.00860    -0.08877
  
  S  C  43   0.00937     0.00515     0.00066     0.01434    -0.13496    -0.05204
 PX  C  43   0.00171     0.00068     0.00091     0.01415    -0.17649    -0.16224
 PY  C  43  -0.01684    -0.02996     0.01597     0.04577    -0.34918    -0.10692
 PZ  C  43   0.01797     0.02791    -0.01270    -0.01661     0.00915    -0.18275
  
  S  O  44   0.00929     0.00334     0.00330     0.04202    -0.47568    -0.36396
 PX  O  44  -0.00266    -0.00160    -0.00029    -0.00747     0.08652     0.06694
 PY  O  44  -0.00678    -0.00900     0.00358     0.00206     0.02493     0.06650
 PZ  O  44   0.00149     0.00529    -0.00369    -0.01467     0.12626     0.05553
  
  S  O  45   0.04137     0.06404    -0.03115    -0.07516     0.51729     0.07944
 PX  O  45   0.00694     0.01057    -0.00496    -0.00961     0.04827    -0.02522
 PY  O  45   0.00773     0.01062    -0.00465    -0.00900     0.05697     0.00903
 PZ  O  45   0.00500     0.00865    -0.00436    -0.00846     0.03203    -0.05120
  
  S  C  46  -0.03349    -0.05786     0.02840     0.04619    -0.07847     0.50248
 PX  C  46  -0.00359    -0.00509     0.00193     0.00123    -0.00781    -0.03784
 PY  C  46  -0.01035    -0.01476     0.00603     0.00726    -0.03724    -0.03821
 PZ  C  46   0.00322     0.00473    -0.00221    -0.00451     0.02021    -0.03073
  
  S  N  47  -0.01746    -0.03253     0.01703     0.03097    -0.04201     0.42371
 PX  N  47  -0.00546    -0.01002     0.00515     0.00892    -0.01066     0.12012
 PY  N  47  -0.00736    -0.01308     0.00658     0.01130    -0.01910     0.13294
 PZ  N  47  -0.00269    -0.00526     0.00282     0.00499    -0.00087     0.08489
  
  S  H  48  -0.03251    -0.04748     0.02037     0.02896    -0.11833     0.05374
  
  S  H  49  -0.03412     0.05483     0.05308     0.11459     0.01930    -0.01128
  
  S  H  50  -0.02790     0.04589     0.04571     0.10126     0.01729    -0.01029
  
  S  H  51  -0.03421     0.05464     0.05348     0.11422     0.01928    -0.01130
  
  S  H  52  -0.05584     0.08211     0.07655     0.14374     0.02327    -0.01280
  
  S  H  53  -0.05559     0.08278     0.07575     0.14432     0.02326    -0.01274
  
  S  H  54  -0.07301     0.09677     0.07340     0.11373     0.01611    -0.00721
  
  S  H  55  -0.07537     0.09273     0.07826     0.11028     0.01623    -0.00761
  
  S  H  56  -0.08122     0.08072     0.06456     0.03802     0.00311     0.00086
  
  S  H  57  -0.07863     0.08702     0.05512     0.04157     0.00275     0.00141
  
  S  H  58   0.01114     0.00700     0.03863     0.02099    -0.00125     0.00508
  
  S  H  59   0.04271    -0.03057     0.03029     0.04796     0.00842    -0.00378
  
  S  H  60   0.03663    -0.05726     0.01535     0.03745     0.01333    -0.01134
  
  S  H  61   0.03249     0.03293     0.00709     0.03082     0.00105     0.00222
  
  S  H  62   0.06656     0.00062    -0.01354     0.05303     0.00654    -0.00224
  
  S  H  63   0.05612    -0.02097    -0.04961     0.05542     0.00804    -0.00452
  
  S  H  64  -0.01581    -0.00086    -0.02365     0.02896     0.00312    -0.00074
  
  S  H  65  -0.04724    -0.00621    -0.05585     0.03648     0.00324    -0.00046
  
  S  H  66  -0.05171    -0.00723    -0.06035     0.03539     0.00296    -0.00033
  
  S  H  67  -0.05489    -0.00882    -0.05805     0.02431     0.00168    -0.00008
  
  S  H  68   0.01315     0.00229    -0.01986     0.03048     0.00307    -0.00044
  
  S  H  69  -0.00972    -0.01040    -0.05740     0.03730     0.00346    -0.00062
  
  S  H  70  -0.01411    -0.01269    -0.06300     0.03546     0.00313    -0.00054
  
  S  H  71  -0.02502    -0.01326    -0.06024     0.02425     0.00180    -0.00024
  
  S  H  72   0.03275     0.07643    -0.02326    -0.00479    -0.01816     0.01918
  
  S  H  73   0.01384     0.07810    -0.03727    -0.02656    -0.00846     0.00412
  
  S  H  74  -0.03675    -0.02457     0.00343    -0.00759     0.03846    -0.04608
  
  S  H  75  -0.04492    -0.05185     0.01733     0.00792     0.01140    -0.01627
  
  S  H  76   0.01861     0.02898    -0.01404    -0.03182     0.19978    -0.00736




    ROOT NO.   13          14          15          16          17          18

           -37.15519   -36.26973   -35.73852   -34.29701   -33.75217   -33.06748
  
  
  S  C   1   0.23525    -0.00781    -0.12948    -0.22212     0.07206     0.18143
 PX  C   1   0.05397    -0.00163    -0.02263    -0.02534     0.00583     0.00957
 PY  C   1   0.00520    -0.00001    -0.00008     0.00580    -0.00162    -0.00931
 PZ  C   1   0.00039    -0.00009     0.00013    -0.00036    -0.00218     0.00118
  
  S  C   2   0.21661    -0.00659    -0.09034    -0.10840     0.02502     0.05561
 PX  C   2  -0.06634     0.00242     0.04818     0.09812    -0.03587    -0.08868
 PY  C   2   0.00619     0.00019     0.00850     0.03361    -0.01216    -0.03995
 PZ  C   2   0.00084    -0.00009    -0.00019    -0.00137    -0.00651     0.00352
  
  S  C   3   0.02994     0.00016     0.02996     0.11160    -0.04328    -0.12535
 PX  C   3  -0.09895     0.00307     0.06249     0.10294    -0.03876    -0.07325
 PY  C   3  -0.07256     0.00227     0.03094     0.03534    -0.00375    -0.01605
 PZ  C   3   0.00336    -0.00006    -0.00166    -0.00468    -0.02240     0.01143
  
  S  C   4  -0.19528     0.00676     0.14024     0.24027    -0.10432    -0.16567
 PX  C   4  -0.04606     0.00125     0.00810    -0.01995    -0.00054     0.04601
 PY  C   4  -0.08534     0.00239     0.03197     0.02077    -0.00829     0.00823
 PZ  C   4   0.00191     0.00154    -0.00598    -0.01121    -0.05016     0.03221
  
  S  N   5  -0.16414     0.00474     0.03413    -0.00063    -0.03803     0.01886
 PX  N   5   0.04853    -0.00015    -0.04015    -0.06129     0.00525     0.04904
 PY  N   5   0.13466    -0.00497    -0.10923    -0.17011     0.05669     0.07943
 PZ  N   5  -0.00008     0.01091    -0.03047    -0.01425    -0.11315     0.08023
  
  S  C   6  -0.00419     0.03171    -0.08869    -0.06016    -0.09734     0.21648
 PX  C   6   0.01797     0.00384    -0.01129     0.00675     0.01122     0.00685
 PY  C   6   0.12233     0.01064    -0.08160     0.01173     0.06486    -0.05308
 PZ  C   6  -0.07761     0.00876     0.07259     0.07692    -0.02619     0.07309
  
  S  C   7  -0.16717    -0.00506     0.10995    -0.10063    -0.10784     0.26934
 PX  C   7  -0.00338    -0.00137     0.00749    -0.00649     0.01179     0.00140
 PY  C   7  -0.00345     0.00870    -0.00104     0.01420     0.02541     0.02328
 PZ  C   7  -0.02814    -0.03223     0.06983    -0.08396     0.03868    -0.05032
  
  S  C   8  -0.17828    -0.04380     0.18265    -0.15319     0.02403     0.06301
 PX  C   8   0.00747     0.00082    -0.00360     0.01505     0.01585    -0.03044
 PY  C   8   0.03276     0.01992    -0.03260     0.10921     0.05462    -0.09270
 PZ  C   8  -0.01377    -0.04304     0.04558    -0.12191     0.01451    -0.08517
  
  S  C   9  -0.04713     0.01832     0.04262     0.15711     0.10163    -0.14189
 PX  C   9   0.00366    -0.00258    -0.00077    -0.00533    -0.00000    -0.00986
 PY  C   9   0.04809     0.00801    -0.04419     0.05693     0.00290    -0.06699
 PZ  C   9  -0.04935    -0.03157     0.06434    -0.12871    -0.00708     0.03148
  
  S  C  10   0.11813     0.05046    -0.10461     0.28351     0.06543    -0.23592
 PX  C  10  -0.01457    -0.00263     0.01285    -0.00132     0.00412    -0.00263
 PY  C  10  -0.01908    -0.01540     0.03045    -0.02925    -0.00617    -0.02505
 PZ  C  10  -0.07199     0.00460     0.04470     0.03763     0.03681     0.01417
  
  S  C  11   0.24579     0.03201    -0.19459     0.04911     0.00461    -0.10102
 PX  C  11  -0.00759     0.00488     0.00504     0.04284     0.00437    -0.02430
 PY  C  11   0.01542     0.00028     0.02541     0.11809     0.00778    -0.14432
 PZ  C  11  -0.07849     0.03196     0.00612     0.13222     0.01543     0.03057
  
  S  C  12   0.26081    -0.04497    -0.01135    -0.07689    -0.02711    -0.12156
 PX  C  12   0.01327     0.00382    -0.01602     0.01119    -0.01872    -0.01873
 PY  C  12   0.01055    -0.00160     0.03545     0.08920    -0.10088    -0.07917
 PZ  C  12   0.06640     0.02680    -0.14364    -0.03338     0.01952    -0.02531
  
  S  C  13   0.00533    -0.03319     0.07089    -0.06864     0.20443     0.00233
 PX  C  13   0.04243    -0.00364    -0.02140    -0.03520    -0.02227     0.00642
 PY  C  13   0.12589    -0.01768    -0.01283    -0.05628    -0.04211     0.00831
 PZ  C  13   0.07409     0.00506    -0.10209    -0.09277    -0.08545    -0.01585
  
  S  C  14  -0.16907     0.00914     0.07450     0.05760     0.32275     0.06834
 PX  C  14   0.01012    -0.00835     0.02369    -0.00352    -0.01312     0.00975
 PY  C  14  -0.00093    -0.00568     0.02393    -0.00748    -0.00131     0.04778
 PZ  C  14   0.03577    -0.03119     0.08606     0.00052     0.01128    -0.04092
  
  S  C  15  -0.19505     0.05315    -0.06838     0.03076     0.04657     0.14757
 PX  C  15   0.01615    -0.01100     0.03360     0.00399    -0.06991     0.00446
 PY  C  15   0.03619    -0.01258     0.02896     0.00181    -0.19318    -0.00105
 PZ  C  15   0.03720    -0.04548     0.15828     0.03255     0.06883    -0.00037
  
  S  C  16  -0.04256    -0.00818     0.08014     0.05398    -0.26571     0.05122
 PX  C  16   0.01849    -0.00646     0.01320     0.00119    -0.02699    -0.01924
 PY  C  16   0.04529    -0.00832     0.00283    -0.00045    -0.04676    -0.05388
 PZ  C  16   0.06483    -0.03583     0.10151     0.01920    -0.00619    -0.04490
  
  S  C  17   0.13801    -0.05269     0.13537     0.05281    -0.23032    -0.11739
 PX  C  17   0.00417     0.00373    -0.01716    -0.00135     0.00330    -0.01125
 PY  C  17  -0.03149     0.01630    -0.03795     0.01254    -0.01920    -0.00318
 PZ  C  17   0.07081    -0.00088    -0.04650    -0.01807     0.06023    -0.06855
  
  S  N  18  -0.05979     0.05128    -0.16604    -0.03564    -0.01349     0.01372
 PX  N  18  -0.02649     0.01121    -0.02647    -0.00365    -0.13038     0.03315
 PY  N  18  -0.01879     0.00884    -0.02201    -0.00320    -0.11120     0.02455
 PZ  N  18  -0.15492     0.05784    -0.12069     0.00859     0.07040     0.09041
  
  S  C  19   0.03124     0.00132    -0.03461    -0.03201    -0.19922    -0.05514
 PX  C  19  -0.10427     0.04318    -0.10770    -0.01665    -0.06301    -0.00182
 PY  C  19  -0.06158     0.02629    -0.06639    -0.01024    -0.05105     0.00143
 PZ  C  19  -0.04268     0.03062    -0.09562    -0.02168    -0.09113     0.01058
  
  S  C  20  -0.12392     0.06576    -0.19645    -0.05800    -0.25561    -0.07455
 PX  C  20  -0.00814     0.00201    -0.00272     0.00122     0.03900    -0.00426
 PY  C  20  -0.00450     0.00114    -0.00117     0.00135     0.01248    -0.00004
 PZ  C  20   0.02011    -0.00665     0.01665     0.00483    -0.04976     0.02238
  
  S  C  21  -0.13289     0.06192    -0.17266    -0.04162    -0.03831    -0.06208
 PX  C  21   0.02133    -0.00762     0.01762     0.00214    -0.00690     0.00275
 PY  C  21   0.01113    -0.00370     0.00794     0.00040    -0.01125     0.00017
 PZ  C  21  -0.00968     0.00856    -0.03205    -0.01602    -0.11397    -0.02903
  
  S  C  22  -0.08904     0.02982    -0.05987     0.00712     0.18671     0.03124
 PX  C  22  -0.01373     0.01206    -0.04383    -0.01818    -0.05714    -0.03337
 PY  C  22  -0.00922     0.00747    -0.02662    -0.01083    -0.03402    -0.02009
 PZ  C  22  -0.03096     0.01416    -0.04042    -0.01222    -0.02456    -0.02558
  
  S  C  23   0.01434    -0.02884     0.12000     0.05837     0.23322     0.11141
 PX  C  23  -0.05277     0.02576    -0.07216    -0.01474     0.03063    -0.01835
 PY  C  23  -0.02856     0.01381    -0.03862    -0.00796     0.01655    -0.01058
 PZ  C  23   0.02060    -0.01268     0.03749     0.00675    -0.00146    -0.00328
  
  S  C  24   0.16701    -0.08865     0.25491     0.05613     0.07537     0.04633
 PX  C  24  -0.06944     0.03192    -0.08596    -0.01595     0.01299    -0.01659
 PY  C  24  -0.03653     0.01773    -0.04965    -0.01077    -0.00108    -0.01395
 PZ  C  24   0.05393    -0.01054    -0.00162    -0.02569    -0.09830    -0.07632
  
  S  C  25   0.17298    -0.08962     0.25479     0.05272    -0.01231     0.05683
 PX  C  25   0.07664    -0.03115     0.07461     0.00733     0.04739    -0.02721
 PY  C  25   0.04499    -0.01747     0.03995     0.00229     0.02605    -0.02113
 PZ  C  25   0.00390     0.01016    -0.05207    -0.02846     0.02523    -0.08889
  
  S  C  26   0.01915     0.00367    -0.03355    -0.01947     0.15175    -0.09145
 PX  C  26   0.07031    -0.02494     0.05565     0.00531    -0.01167     0.01352
 PY  C  26   0.03649    -0.01134     0.02207     0.00011    -0.01150     0.00508
 PZ  C  26  -0.11132     0.05435    -0.14606    -0.01995     0.09889    -0.01205
  
  S  C  27  -0.13641     0.06830    -0.19523    -0.04230     0.18045    -0.12684
 PX  C  27   0.00697    -0.00310     0.00974     0.00572     0.05928     0.00493
 PY  C  27   0.00742    -0.00264     0.00670     0.00249     0.02869     0.00310
 PZ  C  27   0.00500    -0.00338     0.01324     0.00832     0.03257     0.01406
  
  S  C  28  -0.12617     0.06112    -0.17315    -0.04204    -0.01751    -0.07187
 PX  C  28  -0.02293     0.01026    -0.02801    -0.00600     0.02797    -0.02291
 PY  C  28  -0.01256     0.00596    -0.01693    -0.00404     0.02042    -0.01634
 PZ  C  28  -0.00267     0.00426    -0.01718    -0.00593     0.08433    -0.04612
  
  S  C  29  -0.07340     0.02715    -0.06100    -0.00584    -0.16844     0.07099
 PX  C  29   0.00296    -0.00543     0.02199     0.00866    -0.02381     0.02656
 PY  C  29  -0.00076    -0.00169     0.00808     0.00350    -0.01259     0.01134
 PZ  C  29  -0.03464     0.01949    -0.06093    -0.01915     0.02281    -0.05441
  
  S  C  30   0.02917    -0.03150     0.11920     0.04510    -0.14419     0.15721
 PX  C  30   0.05214    -0.02718     0.07832     0.01810     0.04529     0.00617
 PY  C  30   0.02918    -0.01525     0.04390     0.00994     0.02361     0.00284
 PZ  C  30  -0.00899     0.00347    -0.00990    -0.00459    -0.02307    -0.01056
  
  S  C  31  -0.09261    -0.09668     0.12078    -0.24664     0.01480    -0.09912
 PX  C  31   0.01539     0.01481    -0.01730     0.04919     0.01112     0.00330
 PY  C  31  -0.01047     0.01029     0.01388     0.02363     0.02077    -0.00023
 PZ  C  31   0.08385     0.00562    -0.09516     0.07711    -0.00476    -0.06256
  
  S  C  32  -0.00461    -0.07701     0.00986    -0.14541    -0.01607    -0.11724
 PX  C  32   0.00931    -0.01550    -0.00815    -0.01506     0.00214    -0.02896
 PY  C  32  -0.00968    -0.01563     0.01525    -0.03808     0.00460    -0.02141
 PZ  C  32   0.06054     0.01855    -0.07433     0.10278     0.00253    -0.01923
  
  S  C  33   0.09249     0.01233    -0.10873     0.12583    -0.00927    -0.00796
 PX  C  33   0.02737     0.02383    -0.02921     0.06925     0.00254     0.04191
 PY  C  33   0.01776     0.00196    -0.01870     0.02156     0.00157    -0.00243
 PZ  C  33   0.00380     0.04412    -0.00430     0.07981     0.00308     0.08917
  
  S  C  34   0.11185     0.10360    -0.11471     0.25842     0.00107     0.15851
 PX  C  34  -0.01459     0.03036     0.02461     0.00874     0.00267     0.05722
 PY  C  34  -0.00938     0.00332     0.01507    -0.01690     0.00303     0.00262
 PZ  C  34  -0.00063     0.06331     0.00805     0.07383    -0.00171     0.11766
  
  S  S  35   0.02320    -0.00020    -0.01391     0.02126     0.01954    -0.01841
 PX  S  35  -0.00616     0.02088     0.00344     0.02346    -0.00735     0.04587
 PY  S  35  -0.01842     0.00182     0.01957    -0.01357     0.00124     0.00503
 PZ  S  35   0.04399     0.04317    -0.05046     0.10195    -0.00925     0.06891
  
  S  C  36   0.04971     0.17671    -0.01467     0.17989     0.00035     0.21658
 PX  C  36  -0.02243     0.00012     0.03455    -0.06753     0.00046    -0.03861
 PY  C  36  -0.00247     0.02266     0.01354    -0.00872     0.00111     0.01067
 PZ  C  36  -0.03787    -0.01453     0.05174    -0.11467    -0.00061    -0.08004
  
  S  C  37  -0.00379     0.12505     0.05334    -0.01256     0.00103     0.05252
 PX  C  37  -0.01192    -0.02757     0.00970    -0.04887    -0.00021    -0.05612
 PY  C  37   0.00176    -0.03399    -0.01369    -0.00194     0.00013    -0.01952
 PZ  C  37  -0.02417    -0.02893     0.02827    -0.09264    -0.00063    -0.09487
  
  S  C  38  -0.04645    -0.03822     0.05606    -0.16207    -0.00031    -0.16479
 PX  C  38   0.00371    -0.02447    -0.01501     0.01155     0.00003    -0.00486
 PY  C  38   0.01356     0.04140    -0.00154     0.03192     0.00037     0.04434
 PZ  C  38  -0.00257    -0.07750    -0.02813    -0.00042    -0.00025    -0.04133
  
  S  C  39  -0.04954    -0.18720    -0.00858    -0.10881    -0.00073    -0.15621
 PX  C  39  -0.00494    -0.04374    -0.01087    -0.01020     0.00006    -0.02904
 PY  C  39  -0.01128     0.03784     0.03601    -0.06505    -0.00014    -0.05946
 PZ  C  39  -0.00064    -0.11338    -0.04888     0.03093     0.00020    -0.00944
  
  S  S  40   0.00188     0.03373     0.00540     0.02294    -0.00112     0.03388
 PX  S  40  -0.01311    -0.02694     0.00825    -0.03421     0.00011    -0.03215
 PY  S  40  -0.00526     0.02221     0.01226    -0.00065    -0.00037     0.01621
 PZ  S  40  -0.01877    -0.06225     0.00572    -0.06079     0.00025    -0.07164
  
  S  C  41  -0.02881    -0.33412    -0.11133     0.05023     0.00016    -0.01377
 PX  C  41   0.00220     0.03080     0.01083    -0.00724     0.00000    -0.00388
 PY  C  41  -0.01039     0.02808     0.03221    -0.07507    -0.00037    -0.09575
 PZ  C  41   0.01264     0.02651    -0.01002     0.05289     0.00033     0.07628
  
  S  C  42   0.00440    -0.21369    -0.10954     0.15053     0.00077     0.15866
 PX  C  42  -0.00510    -0.03559    -0.01126     0.00791     0.00004     0.00489
 PY  C  42  -0.01170    -0.09967    -0.03001     0.00649    -0.00002    -0.01814
 PZ  C  42   0.00179     0.02838     0.00758     0.00770     0.00008     0.02451
  
  S  C  43   0.00640     0.00358    -0.01032     0.03714     0.00023     0.05625
 PX  C  43   0.00750     0.10234     0.04020    -0.04403    -0.00023    -0.04606
 PY  C  43   0.01346     0.06089     0.01101     0.00796     0.00006     0.01550
 PZ  C  43   0.00086     0.12129     0.05917    -0.08271    -0.00044    -0.09295
  
  S  O  44   0.02320     0.23316     0.08071    -0.06509    -0.00031    -0.05229
 PX  O  44  -0.00372    -0.03453    -0.01119     0.00689     0.00003     0.00354
 PY  O  44  -0.00185    -0.04209    -0.01784     0.02021     0.00011     0.01993
 PZ  O  44  -0.00473    -0.02165    -0.00328    -0.00624    -0.00004    -0.01173
  
  S  O  45  -0.02380    -0.09946    -0.01631    -0.01821    -0.00013    -0.03562
 PX  O  45  -0.00290     0.00360     0.00588    -0.01381    -0.00008    -0.01808
 PY  O  45  -0.00104    -0.00645    -0.00288     0.00746     0.00005     0.01413
 PZ  O  45  -0.00403     0.01196     0.01265    -0.03034    -0.00018    -0.04362
  
  S  C  46   0.05652     0.26920     0.06033    -0.00125     0.00009     0.02431
 PX  C  46  -0.02109    -0.19814    -0.07067     0.06751     0.00031     0.06569
 PY  C  46  -0.02449    -0.22751    -0.07937     0.06914     0.00028     0.06052
 PZ  C  46  -0.01389    -0.13311    -0.04917     0.05323     0.00026     0.05795
  
  S  N  47   0.07361     0.49866     0.15136    -0.10249    -0.00038    -0.08074
 PX  N  47   0.01842     0.11625     0.03358    -0.01918    -0.00006    -0.01231
 PY  N  47   0.01983     0.12430     0.03615    -0.02234    -0.00008    -0.01690
 PZ  N  47   0.01360     0.08653     0.02474    -0.01247    -0.00003    -0.00558
  
  S  H  48  -0.01261    -0.12822    -0.03996     0.00966     0.00004    -0.01984
  
  S  H  49   0.10013    -0.00316    -0.05635    -0.09700     0.03382     0.07956
  
  S  H  50   0.09748    -0.00335    -0.05654    -0.10294     0.03381     0.08894
  
  S  H  51   0.10080    -0.00337    -0.05593    -0.09739     0.03085     0.08117
  
  S  H  52   0.08586    -0.00266    -0.03452    -0.04048     0.00365     0.02127
  
  S  H  53   0.08496    -0.00255    -0.03434    -0.03877     0.01156     0.01689
  
  S  H  54   0.00823     0.00069     0.01043     0.04321     0.00743    -0.05405
  
  S  H  55   0.01457     0.00014     0.00900     0.03702    -0.02556    -0.03899
  
  S  H  56  -0.07757     0.00317     0.05694     0.09364    -0.07197    -0.04839
  
  S  H  57  -0.07806     0.00218     0.06083     0.10717    -0.01660    -0.08427
  
  S  H  58  -0.08661    -0.01278     0.06686    -0.06763    -0.06372     0.10679
  
  S  H  59  -0.02283    -0.00039     0.02798     0.04832     0.04839    -0.08481
  
  S  H  60   0.05875     0.01540    -0.03995     0.11768     0.02061    -0.13180
  
  S  H  61  -0.09262     0.01419     0.00739     0.03635     0.16225     0.00690
  
  S  H  62  -0.02702     0.00644     0.00030     0.01749    -0.15392     0.01780
  
  S  H  63   0.06438    -0.01680     0.03646     0.03199    -0.11045    -0.07458
  
  S  H  64  -0.05644     0.03016    -0.08869    -0.02426    -0.14284    -0.02466
  
  S  H  65  -0.05117     0.02513    -0.07209    -0.01853    -0.02131    -0.02802
  
  S  H  66  -0.03295     0.01146    -0.02322     0.00375     0.08538     0.01719
  
  S  H  67   0.01508    -0.01701     0.06624     0.03076     0.10242     0.06406
  
  S  H  68  -0.06890     0.03235    -0.08762    -0.01371     0.11330    -0.05290
  
  S  H  69  -0.04914     0.02494    -0.07243    -0.01851    -0.00377    -0.03309
  
  S  H  70  -0.02723     0.01044    -0.02370    -0.00193    -0.07584     0.03613
  
  S  H  71   0.01997    -0.01793     0.06594     0.02547    -0.05407     0.08395
  
  S  H  72  -0.01820    -0.03158     0.02157    -0.07888    -0.01198    -0.03305
  
  S  H  73   0.03388     0.01427    -0.04101     0.06345    -0.00471     0.01614
  
  S  H  74   0.00409     0.05058     0.01346     0.01232     0.00080     0.03579
  
  S  H  75  -0.01771    -0.03378     0.01432    -0.06446    -0.00009    -0.07804
  
  S  H  76  -0.01039    -0.02282     0.00372    -0.02644    -0.00016    -0.04058




    ROOT NO.   19          20          21          22          23          24

           -32.56086   -32.32003   -31.17371   -30.66464   -30.33446   -29.93759
  
  
  S  C   1   0.06592    -0.04072    -0.04886     0.20258    -0.18455     0.16474
 PX  C   1   0.00168    -0.00001     0.00337    -0.02234     0.02418    -0.02756
 PY  C   1  -0.00372     0.00203     0.00394    -0.01978     0.02024    -0.01889
 PZ  C   1  -0.00124     0.00167     0.00049    -0.00053    -0.00108    -0.00005
  
  S  C   2   0.01453    -0.00540     0.00112    -0.01791     0.02239    -0.03277
 PX  C   2  -0.03400     0.02221     0.02706    -0.11166     0.10077    -0.09070
 PY  C   2  -0.01508     0.00936     0.01464    -0.06441     0.06143    -0.05630
 PZ  C   2  -0.00495     0.00517     0.00134    -0.00065    -0.00241     0.00004
  
  S  C   3  -0.04218     0.02646     0.04553    -0.16736     0.15434    -0.14233
 PX  C   3  -0.02254     0.01470     0.01642    -0.02791     0.01434    -0.00798
 PY  C   3   0.00139    -0.00411    -0.00299     0.02642    -0.02519     0.02771
 PZ  C   3  -0.01678     0.01728     0.00479    -0.00153    -0.00706     0.00006
  
  S  C   4  -0.05787     0.04063     0.04023    -0.04072     0.00596     0.00324
 PX  C   4   0.01122    -0.00480    -0.01882     0.10134    -0.10100     0.09278
 PY  C   4   0.01657    -0.01208    -0.00114     0.09386    -0.09163     0.07562
 PZ  C   4  -0.04827     0.04628     0.00366    -0.00328    -0.01411     0.00423
  
  S  N   5   0.04246    -0.02402     0.06119     0.18052    -0.18574     0.10559
 PX  N   5  -0.00185     0.00953    -0.00321     0.00353    -0.00277    -0.00421
 PY  N   5   0.04537    -0.03164     0.02970    -0.01703     0.03372    -0.06973
 PZ  N   5  -0.11046     0.12774     0.00301    -0.00500    -0.03602     0.02307
  
  S  C   6  -0.11171     0.17409    -0.11371    -0.00379     0.00742     0.04444
 PX  C   6   0.00287     0.00586    -0.02286    -0.01491     0.02269    -0.00324
 PY  C   6   0.05990    -0.00831     0.00550    -0.07566     0.09337    -0.04786
 PZ  C   6  -0.08190     0.05443    -0.16194    -0.04335     0.06867     0.02321
  
  S  C   7  -0.21299     0.09378    -0.19846    -0.07588     0.08631    -0.01464
 PX  C   7   0.00776    -0.02135     0.00425     0.00148     0.00134    -0.01807
 PY  C   7   0.01701    -0.01687    -0.03172     0.00260     0.01745    -0.02284
 PZ  C   7   0.02064    -0.11464     0.08340    -0.03587     0.02497    -0.07491
  
  S  C   8  -0.02628    -0.18360     0.07850     0.01098    -0.02325    -0.14909
 PX  C   8   0.03198    -0.03159     0.04030     0.03328    -0.03839    -0.01620
 PY  C   8   0.11138    -0.05752     0.05871     0.10836    -0.09868     0.00915
 PZ  C   8   0.03099    -0.09589     0.17359    -0.00615    -0.03810    -0.05339
  
  S  C   9   0.17426    -0.15450     0.09150     0.18272    -0.16193     0.01364
 PX  C   9   0.00473    -0.00650     0.01703     0.00728    -0.01221    -0.00155
 PY  C   9   0.03510     0.03486     0.01320     0.01799    -0.02063     0.07118
 PZ  C   9  -0.02598    -0.08831     0.08832     0.00656    -0.03339    -0.09981
  
  S  C  10   0.14546     0.04312     0.02108     0.03838    -0.02807     0.14523
 PX  C  10   0.00951    -0.01677     0.00824     0.02241    -0.02132     0.00339
 PY  C  10   0.00042    -0.03335     0.04754     0.02218    -0.03781     0.00304
 PZ  C  10   0.06242    -0.06305    -0.01544     0.11393    -0.08339     0.02160
  
  S  C  11   0.01220     0.10768     0.04311    -0.14060     0.11432    -0.01245
 PX  C  11   0.01134     0.00555    -0.00974     0.00779    -0.00485     0.02509
 PY  C  11   0.01966    -0.01182     0.03331    -0.01552    -0.00383     0.04125
 PZ  C  11   0.03937     0.05743    -0.11390     0.05895    -0.01380     0.10315
  
  S  C  12  -0.09841    -0.05647     0.08114    -0.13672     0.07855    -0.12728
 PX  C  12  -0.01173     0.01840     0.02052    -0.01038    -0.00298     0.00325
 PY  C  12  -0.10505     0.05677     0.03399    -0.01460    -0.03976     0.02983
 PZ  C  12   0.05169     0.05038     0.08699    -0.06204     0.04201    -0.02549
  
  S  C  13   0.14280    -0.19338    -0.10327     0.00963     0.07035    -0.03137
 PX  C  13  -0.01219     0.00248     0.02816    -0.00286    -0.00543    -0.01841
 PY  C  13  -0.08071     0.02083     0.01287    -0.08015     0.05527    -0.07579
 PZ  C  13  -0.01714     0.01567     0.16664     0.03609    -0.07855    -0.03962
  
  S  C  14   0.17527    -0.06645    -0.22260    -0.06733     0.13039     0.04289
 PX  C  14   0.01956    -0.01931    -0.01735     0.01261     0.01018     0.00005
 PY  C  14   0.00007     0.02309    -0.02079    -0.00550     0.00983    -0.00476
 PZ  C  14   0.01967    -0.12112    -0.07089     0.04355     0.02022     0.00197
  
  S  C  15   0.13228     0.16237     0.05026    -0.00498     0.00941     0.02590
 PX  C  15   0.01428    -0.02353    -0.01846     0.04295     0.01349     0.01194
 PY  C  15  -0.05066     0.02134     0.07045     0.10886    -0.07524     0.02362
 PZ  C  15  -0.03996    -0.08795    -0.17901     0.01374     0.02643     0.04359
  
  S  C  16  -0.09023     0.10574     0.08092     0.17235    -0.16255     0.08713
 PX  C  16  -0.02192    -0.01903    -0.00741     0.00704    -0.00859     0.00270
 PY  C  16  -0.06602    -0.02064     0.02467     0.01783    -0.05159     0.00694
 PZ  C  16  -0.11245    -0.04105    -0.05156    -0.00570    -0.02960     0.00059
  
  S  C  17  -0.25039     0.01485     0.07138     0.03419    -0.12246     0.00709
 PX  C  17   0.00575    -0.00004     0.01048    -0.01092     0.00573    -0.00402
 PY  C  17   0.00751     0.02872     0.03464     0.02831    -0.04197     0.02865
 PZ  C  17   0.00381    -0.02490     0.02629    -0.11028     0.07927    -0.06383
  
  S  N  18   0.04790     0.09027     0.17164    -0.05469    -0.00830    -0.08538
 PX  N  18   0.11619    -0.00289     0.03060     0.08121     0.10442    -0.00256
 PY  N  18   0.06070     0.01580     0.04797     0.07010     0.03561     0.00362
 PZ  N  18   0.08091     0.15868     0.10273    -0.05005    -0.03149     0.01155
  
  S  C  19   0.06558    -0.15066    -0.06714     0.14558     0.20315     0.00109
 PX  C  19   0.05804    -0.03312    -0.04262    -0.01313     0.01450     0.03160
 PY  C  19   0.03382    -0.01139    -0.01006    -0.00147    -0.00285     0.01776
 PZ  C  19   0.06494     0.02713     0.08432    -0.03831    -0.04327    -0.03796
  
  S  C  20   0.11442    -0.21314    -0.18116    -0.04626     0.01718     0.05351
 PX  C  20  -0.01921     0.00132    -0.02783    -0.10631    -0.11731     0.00248
 PY  C  20  -0.00950     0.00517    -0.00840    -0.05014    -0.06628     0.00324
 PZ  C  20   0.03374     0.02924     0.05095     0.06505     0.04376     0.00058
  
  S  C  21  -0.00169    -0.10265    -0.11438    -0.25509    -0.23860    -0.00747
 PX  C  21   0.00552     0.00118    -0.00233    -0.03789    -0.04824    -0.00303
 PY  C  21   0.00590    -0.00462    -0.00635    -0.01846    -0.02398     0.00125
 PZ  C  21   0.05594    -0.10843    -0.11075     0.02496     0.06538     0.04707
  
  S  C  22  -0.09086     0.16414     0.16690    -0.11766    -0.17859    -0.07653
 PX  C  22   0.01346    -0.07352    -0.07137    -0.11001    -0.10216    -0.00287
 PY  C  22   0.00775    -0.04447    -0.04359    -0.06252    -0.05734    -0.00060
 PZ  C  22   0.00356    -0.05909    -0.06837    -0.03268    -0.00803     0.01419
  
  S  C  23  -0.05478     0.26086     0.22433     0.13840     0.08324    -0.01768
 PX  C  23  -0.03993     0.01368     0.03822    -0.04660    -0.05806    -0.03533
 PY  C  23  -0.02275     0.00609     0.01920    -0.02204    -0.02829    -0.01827
 PZ  C  23   0.00117    -0.03034    -0.04921     0.05697     0.07760     0.02614
  
  S  C  24  -0.01556     0.03320    -0.02372     0.16836     0.16224     0.04623
 PX  C  24  -0.02429     0.00344     0.03470     0.07189     0.09368    -0.01557
 PY  C  24  -0.01596    -0.00612     0.01532     0.04211     0.05162    -0.00901
 PZ  C  24  -0.01874    -0.15216    -0.11407    -0.02115    -0.00091    -0.00743
  
  S  C  25   0.06836    -0.00352    -0.10324    -0.11505    -0.15307     0.06276
 PX  C  25  -0.07435    -0.02676    -0.02132     0.09351     0.08710     0.00242
 PY  C  25  -0.05232    -0.02008    -0.01376     0.05528     0.04511     0.00131
 PZ  C  25  -0.13734    -0.08595    -0.05473    -0.00790    -0.04882    -0.00653
  
  S  C  26  -0.21388    -0.04114    -0.06859    -0.11826    -0.19755     0.02599
 PX  C  26   0.05210     0.00421     0.02755    -0.03530     0.02431    -0.05102
 PY  C  26   0.01889     0.00713     0.02734    -0.01244     0.00756    -0.02964
 PZ  C  26  -0.05648     0.06194     0.07590     0.00426     0.02455    -0.01891
  
  S  C  27  -0.30783    -0.03677    -0.03682     0.10761    -0.00646     0.06420
 PX  C  27  -0.00814     0.01926    -0.01858    -0.12257    -0.12247     0.00788
 PY  C  27  -0.00661     0.01263    -0.00577    -0.06515    -0.06962     0.00359
 PZ  C  27   0.01951     0.02179     0.01209    -0.00295     0.02863    -0.00542
  
  S  C  28  -0.11977    -0.04221     0.05154     0.25602     0.24216    -0.02565
 PX  C  28  -0.05828    -0.01242    -0.03034    -0.01924    -0.06414     0.03190
 PY  C  28  -0.04287    -0.00815    -0.01891    -0.00679    -0.03816     0.02123
 PZ  C  28  -0.13018    -0.01744    -0.03755     0.04314    -0.02107     0.04699
  
  S  C  29   0.22358     0.03594     0.11451     0.02611     0.16286    -0.10373
 PX  C  29   0.05349     0.01266    -0.01570    -0.08086    -0.08646     0.01663
 PY  C  29   0.02265     0.00467    -0.00896    -0.03712    -0.04358     0.00990
 PZ  C  29  -0.11188    -0.03796    -0.00915     0.11616     0.07315     0.00986
  
  S  C  30   0.32896     0.09686     0.04443    -0.19223    -0.09595    -0.01922
 PX  C  30  -0.03556     0.00515    -0.04875    -0.02218    -0.07486     0.05306
 PY  C  30  -0.02092     0.00164    -0.02860    -0.01261    -0.04458     0.03061
 PZ  C  30  -0.00723    -0.02306    -0.02361    -0.01275    -0.03086     0.00751
  
  S  C  31   0.02296    -0.10480     0.19949    -0.04165    -0.01093    -0.04166
 PX  C  31   0.01978    -0.03213     0.02425     0.04976    -0.05617    -0.05135
 PY  C  31   0.02612    -0.07824     0.05725     0.05509    -0.06451    -0.07243
 PZ  C  31   0.03869     0.12362    -0.05655     0.00837     0.00615     0.11976
  
  S  C  32   0.01490     0.13299    -0.02725    -0.09584     0.10722     0.19679
 PX  C  32   0.01468     0.00975     0.02022     0.00584    -0.01326    -0.00011
 PY  C  32   0.00890    -0.02491     0.05114    -0.00201    -0.01288    -0.01745
 PZ  C  32   0.03043     0.08550    -0.09386     0.04003    -0.00921     0.06205
  
  S  C  33   0.01494     0.15104    -0.18923     0.02755     0.02925     0.07133
 PX  C  33  -0.00660    -0.02800    -0.00694     0.03588    -0.03864    -0.08529
 PY  C  33   0.00649     0.00265     0.00428     0.01187    -0.01492    -0.00959
 PZ  C  33  -0.02804    -0.07155    -0.01569     0.03914    -0.03713    -0.13092
  
  S  C  34  -0.03800    -0.05865    -0.07080     0.07662    -0.06550    -0.16947
 PX  C  34  -0.02616    -0.09326     0.07439    -0.00880    -0.01522    -0.05875
 PY  C  34  -0.00156    -0.04107     0.06427    -0.01128    -0.00793     0.01215
 PZ  C  34  -0.05120    -0.09099    -0.00625     0.00251    -0.00168    -0.10694
  
  S  S  35   0.03343    -0.08738     0.12685     0.05333    -0.09193    -0.08010
 PX  S  35  -0.02707    -0.00010    -0.03912    -0.01349     0.02326    -0.00414
 PY  S  35  -0.00366    -0.01455     0.00300    -0.00411     0.00610     0.00203
 PZ  S  35  -0.02802     0.01540    -0.05739     0.00212     0.00793    -0.00440
  
  S  C  36  -0.08536    -0.18420     0.04740    -0.00470    -0.01044    -0.13975
 PX  C  36   0.00825    -0.00115     0.05518    -0.03856     0.02677     0.09620
 PY  C  36  -0.00738    -0.03892     0.07175    -0.03732     0.01961     0.10759
 PZ  C  36   0.02111     0.03769     0.03082    -0.04322     0.04121     0.10745
  
  S  C  37  -0.03237    -0.10617     0.15355    -0.10004     0.06729     0.24868
 PX  C  37   0.02160     0.04683    -0.00628    -0.00651     0.01023     0.06881
 PY  C  37   0.01039     0.02304    -0.00707     0.00350    -0.00169     0.03973
 PZ  C  37   0.03445     0.07679    -0.01206    -0.01481     0.02259     0.10591
  
  S  C  38   0.06189     0.12793    -0.00758    -0.01886     0.02555     0.20152
 PX  C  38   0.00538     0.01639    -0.02366     0.01879    -0.01448    -0.02677
 PY  C  38  -0.01968    -0.05286     0.05804    -0.03897     0.02739     0.10819
 PZ  C  38   0.02458     0.07034    -0.08863     0.06428    -0.04714    -0.12878
  
  S  C  39   0.06876     0.17064    -0.14168     0.09152    -0.06269    -0.17525
 PX  C  39   0.01502     0.03600    -0.02702     0.02011    -0.01514    -0.00657
 PY  C  39   0.02125     0.04211     0.00871    -0.01772     0.01879     0.11326
 PZ  C  39   0.01215     0.03614    -0.05725     0.05040    -0.04167    -0.09297
  
  S  S  40  -0.01431    -0.01067    -0.05805     0.03610    -0.02347    -0.20506
 PX  S  40   0.01158     0.02168    -0.00280     0.00193    -0.00171    -0.00647
 PY  S  40  -0.00945    -0.01821     0.00422    -0.00676     0.00684    -0.02401
 PZ  S  40   0.02874     0.05829    -0.01722     0.01107    -0.00799     0.00143
  
  S  C  41   0.01682     0.05206    -0.08610     0.07331    -0.05984    -0.16323
 PX  C  41   0.00109     0.00121     0.00514    -0.00469     0.00397     0.02564
 PY  C  41   0.04223     0.10318    -0.08181     0.05418    -0.03782    -0.07743
 PZ  C  41  -0.03471    -0.08746     0.08102    -0.05632     0.04078     0.11772
  
  S  C  42  -0.06653    -0.16162     0.13040    -0.08743     0.06223     0.16309
 PX  C  42  -0.00146    -0.00311     0.00102     0.00018    -0.00060     0.00357
 PY  C  42   0.01228     0.03547    -0.05350     0.04519    -0.03709    -0.11219
 PZ  C  42  -0.01344    -0.03700     0.04993    -0.04050     0.03253     0.10875
  
  S  C  43  -0.02675    -0.06889     0.07343    -0.05591     0.04335     0.12953
 PX  C  43   0.01977     0.04901    -0.04534     0.03273    -0.02463    -0.07358
 PY  C  43  -0.00714    -0.01783     0.01485    -0.00953     0.00641     0.01552
 PZ  C  43   0.04033     0.10008    -0.09101     0.06461    -0.04791    -0.13964
  
  S  O  44   0.02001     0.04724    -0.03472     0.02227    -0.01548    -0.04802
[...]
    17       C          4.51375640  *   5.97893336  *  -1.62009286  *
    18       N          3.58974477  *   4.16333951  *  -4.71008575  *
    19       C          4.38148207  *   4.55249047  *  -5.81023222  *
    20       C          5.60458303  *   5.21597296  *  -5.83402505  *
    21       C          6.16550901  *   5.46039090  *  -7.07831614  *
    22       C          5.53997416  *   5.05221101  *  -8.26052652  *
    23       C          4.33070086  *   4.37309428  *  -8.23417816  *
    24       C          3.74681690  *   4.11606432  *  -7.00466743  *
    25       C          2.53465719  *   3.43712781  *  -6.62112366  *
    26       C          2.45980042  *   3.47853945  *  -5.20224980  *
    27       C          1.38088789  *   2.93381546  *  -4.51235289  *
    28       C          0.39177863  *   2.32304072  *  -5.26835496  *
    29       C          0.46473063  *   2.26105843  *  -6.66324982  *
    30       C          1.53155829  *   2.82120867  *  -7.35092549  *
    31       C          4.97174338  *   3.78923754  *   4.77922279  *
    32       C          4.10549672  *   2.98035901  *   5.45839557  *
    33       C          4.49535255  *   2.80248054  *   6.82353864  *
    34       C          5.64436956  *   3.48395251  *   7.11964632  *
    35       S          6.25708529  *   4.33584423  *   5.76432501  *
    36       C          6.30780341  *   3.52247634  *   8.38193540  *
    37       C          6.98440418  *   4.59485027  *   8.91300234  *
    38       C          7.53118873  *   4.28938869  *  10.18779738  *
    39       C          7.24673841  *   2.99752949  *  10.58224469  *
    40       S          6.33574306  *   2.16996973  *   9.40881737  *
    41       C          7.69191399  *   2.46184884  *  11.83121915  *
    42       C          7.35982998  *   1.25637285  *  12.34119668  *
    43       C          7.90747532  *   0.85306600  *  13.64224087  *
    44       O          8.66042486  *   1.50588074  *  14.35173081  *
    45       O          7.50835517  *  -0.36908485  *  14.04902231  *
    46       C          6.49719192  *   0.33879931  *  11.69487863  *
    47       N          5.79534766  *  -0.42923907  *  11.18880664  *
    48       H          8.36500733  *   3.11840703  *  12.40887542  *
    49       H         -0.41734372  *   0.50579789  *  -0.88268287  *
    50       H         -0.40787706  *  -1.02128721  *   0.00003274  *
    51       H         -0.41751619  *   0.50586362  *   0.88256679  *
    52       H          1.90206909  *  -0.56049143  *   0.87957194  *
    53       H          1.90227081  *  -0.56082666  *  -0.87929142  *
    54       H          1.67252403  *   1.98913016  *  -0.88004557  *
    55       H          1.67241330  *   1.98935587  *   0.87869809  *
    56       H          3.98882259  *   0.86244817  *   0.87951795  *
    57       H          3.98418677  *   0.86740058  *  -0.89043239  *
    58       H          4.34652747  *   2.13741260  *   2.78442228  *
    59       H          5.36197971  *   6.22898143  *   3.74228432  *
    60       H          5.17074402  *   6.88816941  *   1.34857839  *
    61       H          3.57055239  *   2.32592391  *  -2.77483810  *
    62       H          4.25084236  *   6.52031396  *  -3.68298385  *
    63       H          4.78528697  *   6.98759356  *  -1.29688175  *
    64       H          6.11111171  *   5.51969968  *  -4.91570367  *
    65       H          7.12497459  *   5.98406493  *  -7.13714821  *
    66       H          6.01742234  *   5.26930337  *  -9.21998355  *
    67       H          3.84359350  *   4.04303895  *  -9.15499455  *
    68       H          1.30366431  *   2.99602906  *  -3.42489985  *
    69       H         -0.47086530  *   1.88036216  *  -4.76039118  *
    70       H         -0.33685136  *   1.76668508  *  -7.21883382  *
    71       H          1.58723065  *   2.78439331  *  -8.44167351  *
    72       H          3.21188896  *   2.52595297  *   5.03713654  *
    73       H          3.92239334  *   2.19895995  *   7.52409319  *
    74       H          7.09101734  *   5.56614117  *   8.43616512  *
    75       H          8.10202421  *   5.00792490  *  10.77367991  *
    76       H          7.89299780  *  -0.59181348  *  14.90918951  *

                             CARTESIAN COORDINATES

   1    C        0.000000000     0.000000000     0.000000000
   2    C        1.519884399     0.000000000     0.000000000
   3    C        2.055037304     1.428667624     0.000000000
   4    C        3.590788341     1.415531186    -0.001969246
   5    N        4.142674967     2.767299267    -0.009399813
   6    C        4.415135313     3.550914417     1.132172774
   7    C        4.518668459     3.167119536     2.465451366
   8    C        4.864815192     4.153531093     3.383918555
   9    C        5.099870478     5.479452478     2.990120803
  10    C        4.990794707     5.856324901     1.661088246
  11    C        4.644035722     4.894689166     0.726222884
  12    C        4.439205552     4.948306936    -0.697576107
  13    C        4.092973607     3.634731198    -1.117669854
  14    C        3.813319781     3.339828781    -2.448633839
  15    C        3.883227618     4.404357838    -3.346643072
  16    C        4.227758156     5.709197810    -2.948627820
  17    C        4.513756404     5.978933358    -1.620092863
  18    N        3.589744768     4.163339513    -4.710085748
  19    C        4.381482068     4.552490474    -5.810232217
  20    C        5.604583028     5.215972959    -5.834025053
  21    C        6.165509007     5.460390902    -7.078316143
  22    C        5.539974163     5.052211005    -8.260526524
  23    C        4.330700858     4.373094276    -8.234178163
  24    C        3.746816899     4.116064325    -7.004667435
  25    C        2.534657187     3.437127809    -6.621123663
  26    C        2.459800421     3.478539453    -5.202249801
  27    C        1.380887889     2.933815460    -4.512352894
  28    C        0.391778633     2.323040718    -5.268354961
  29    C        0.464730626     2.261058426    -6.663249823
  30    C        1.531558290     2.821208670    -7.350925486
  31    C        4.971743382     3.789237541     4.779222787
  32    C        4.105496719     2.980359006     5.458395570
  33    C        4.495352546     2.802480539     6.823538643
  34    C        5.644369558     3.483952513     7.119646320
  35    S        6.257085287     4.335844234     5.764325014
  36    C        6.307803407     3.522476345     8.381935402
  37    C        6.984404182     4.594850272     8.913002340
  38    C        7.531188726     4.289388685    10.187797380
  39    C        7.246738409     2.997529494    10.582244690
  40    S        6.335743063     2.169969729     9.408817365
  41    C        7.691913993     2.461848840    11.831219150
  42    C        7.359829981     1.256372848    12.341196680
  43    C        7.907475323     0.853066001    13.642240870
  44    O        8.660424858     1.505880736    14.351730810
  45    O        7.508355171    -0.369084850    14.049022310
  46    C        6.497191924     0.338799308    11.694878630
  47    N        5.795347658    -0.429239069    11.188806640
  48    H        8.365007330     3.118407027    12.408875420
  49    H       -0.417343722     0.505797892    -0.882682866
  50    H       -0.407877064    -1.021287213     0.000032738
  51    H       -0.417516192     0.505863617     0.882566790
  52    H        1.902069086    -0.560491434     0.879571935
  53    H        1.902270811    -0.560826657    -0.879291417
  54    H        1.672524026     1.989130161    -0.880045573
  55    H        1.672413304     1.989355870     0.878698092
  56    H        3.988822594     0.862448169     0.879517949
  57    H        3.984186774     0.867400583    -0.890432394
  58    H        4.346527470     2.137412601     2.784422278
  59    H        5.361979714     6.228981435     3.742284316
  60    H        5.170744020     6.888169408     1.348578387
  61    H        3.570552391     2.325923914    -2.774838100
  62    H        4.250842356     6.520313957    -3.682983852
  63    H        4.785286970     6.987593557    -1.296881749
  64    H        6.111111706     5.519699682    -4.915703673
  65    H        7.124974588     5.984064926    -7.137148213
  66    H        6.017422335     5.269303370    -9.219983553
  67    H        3.843593497     4.043038954    -9.154994547
  68    H        1.303664314     2.996029062    -3.424899852
  69    H       -0.470865298     1.880362158    -4.760391177
  70    H       -0.336851360     1.766685077    -7.218833823
  71    H        1.587230649     2.784393309    -8.441673509
  72    H        3.211888962     2.525952970     5.037136540
  73    H        3.922393340     2.198959949     7.524093191
  74    H        7.091017339     5.566141165     8.436165124
  75    H        8.102024206     5.007924899    10.773679910
  76    H        7.892997802    -0.591813485    14.909189510


           Empirical Formula: C40 H29 N3 O2 S2  =    76 atoms



      MOLECULAR POINT GROUP   :   C1  


                  EIGENVALUES  
 -48.86101 -48.27122 -46.74820 -43.88155 -43.20103 -42.91754 -42.77891 -41.84240
 -41.16521 -40.01987 -39.62949 -39.09036 -37.15519 -36.26973 -35.73852 -34.29701
 -33.75217 -33.06748 -32.56086 -32.32003 -31.17371 -30.66464 -30.33446 -29.93759
 -29.20725 -28.98558 -28.19115 -27.31956 -26.68553 -26.07103 -25.85942 -25.56572
 -25.05184 -24.90771 -24.64487 -23.85515 -23.76785 -23.62932 -23.15221 -22.60659
 -21.67350 -21.50802 -20.72609 -20.32645 -20.12159 -20.07918 -19.89316 -19.36536
 -19.01363 -18.92870 -18.31604 -18.12926 -17.71682 -17.44281 -17.08759 -16.91821
 -16.89308 -16.61684 -16.35461 -16.20058 -16.10351 -16.02526 -15.95387 -15.76194
 -15.68280 -15.40429 -15.33913 -15.26831 -15.02605 -14.96258 -14.78633 -14.69113
 -14.53840 -14.44491 -14.22056 -13.91945 -13.70572 -13.53679 -13.48986 -13.46580
 -13.28137 -13.15367 -13.05782 -12.98418 -12.97448 -12.95466 -12.91216 -12.79307
 -12.73110 -12.58879 -12.47200 -12.36034 -12.10372 -11.92873 -11.81296 -11.79886
 -11.71385 -11.55173 -11.42218 -10.94305 -10.74957 -10.68397 -10.11974 -10.04150
  -9.97446  -9.75819  -9.17391  -9.03704  -8.68620  -7.98779  -7.79749  -7.71518
  -7.41721  -6.97934  -1.35447  -0.21657   0.16835   0.31242   0.66959   0.71910
   0.73101   1.03102   1.04190   1.22978   1.49769   1.53894   1.62172   2.01685
   2.10605   2.24469   2.42379   2.48471   2.63286   2.72576   2.75331   2.87196
   2.96360   3.02054   3.07748   3.10717   3.33897   3.42778   3.45321   3.60070
   3.65810   3.73707   3.82977   3.88810   3.89388   4.17245   4.19898   4.21580
   4.22709   4.25841   4.52632   4.62546   4.68607   5.06134   5.09743   5.20437
   5.39384   5.48974   5.58681   5.58888   5.66238   5.75256   5.89240   6.28317
   6.39314   6.44194   6.45154   6.49478   6.58687   6.71042   6.83646   6.86225
   6.99874   7.05358   7.34180   7.77792   8.20750   8.47901   8.50398   8.63136
   8.66567   8.70249   8.71918   8.96315   9.04266   9.13979   9.21781   9.56631
   9.76589  10.01810  10.22110  10.34638  10.57862  10.66529  10.88568  10.96611
  11.07515  11.24709  11.32945  11.68199  12.02217  12.44176  12.57414  12.73304
  12.86041  13.00100  13.08247  13.57916  13.68304  14.27953  14.33413  14.89940
  15.41615


              NET ATOMIC CHARGES AND DIPOLE CONTRIBUTIONS

  ATOM NO.   TYPE          CHARGE      No. of ELECS.   s-Pop       p-Pop       
    1          C          -0.027004        4.0270     1.05452     2.97248
    2          C          -0.006566        4.0066     1.04346     2.96311
    3          C          -0.001400        4.0014     1.05101     2.95039
    4          C           0.073812        3.9262     1.04900     2.87719
    5          N          -0.157671        5.1577     1.25434     3.90333
    6          C           0.077474        3.9225     1.05485     2.86767
    7          C          -0.048870        4.0489     1.07785     2.97102
    8          C           0.029507        3.9705     1.04155     2.92895
    9          C          -0.048482        4.0485     1.07856     2.96992
   10          C          -0.019377        4.0194     1.08126     2.93812
   11          C          -0.018815        4.0188     1.04702     2.97180
   12          C          -0.025492        4.0255     1.04564     2.97985
   13          C           0.080568        3.9194     1.05371     2.86572
   14          C          -0.056112        4.0561     1.07629     2.97982
   15          C           0.096566        3.9034     1.04241     2.86102
   16          C          -0.054378        4.0544     1.07792     2.97646
   17          C          -0.016043        4.0160     1.08098     2.93506
   18          N          -0.132000        5.1320     1.22878     3.90322
   19          C           0.077888        3.9221     1.05070     2.87141
   20          C          -0.042506        4.0425     1.07671     2.96580
   21          C          -0.024604        4.0246     1.08074     2.94386
   22          C          -0.044410        4.0444     1.07756     2.96685
   23          C          -0.020430        4.0204     1.07927     2.94116
   24          C          -0.016633        4.0166     1.04767     2.96896
   25          C          -0.016506        4.0165     1.04771     2.96879
   26          C           0.077551        3.9224     1.05081     2.87164
   27          C          -0.043023        4.0430     1.07682     2.96620
   28          C          -0.024507        4.0245     1.08068     2.94383
   29          C          -0.044694        4.0447     1.07755     2.96714
   30          C          -0.020606        4.0206     1.07929     2.94131
   31          C           0.048409        3.9516     1.08380     2.86779
   32          C          -0.053959        4.0540     1.08414     2.96982
   33          C          -0.022028        4.0220     1.09015     2.93187
   34          C           0.024151        3.9758     1.06620     2.90965
   35          S          -0.048283        6.0483     1.77216     4.27612
   36          C           0.086949        3.9131     1.07934     2.83371
   37          C          -0.049715        4.0497     1.08168     2.96803
   38          C           0.040117        3.9599     1.10122     2.85866
   39          C          -0.005954        4.0060     1.05911     2.94684
   40          S          -0.025753        6.0258     1.76731     4.25844
   41          C           0.122313        3.8777     1.09460     2.78309
   42          C           0.000682        3.9993     0.99990     2.99942
   43          C           0.494881        3.5051     1.04530     2.45982
   44          O          -0.615608        6.6156     1.81689     4.79872
   45          O          -0.311589        6.3116     1.68770     4.62389
   46          C           0.215667        3.7843     1.14993     2.63440
   47          N          -0.399093        5.3991     1.75363     3.64546
   48          H           0.059339        0.9407     0.94066
   49          H           0.008062        0.9919     0.99194
   50          H           0.001292        0.9987     0.99871
   51          H           0.008394        0.9916     0.99161
   52          H           0.008990        0.9910     0.99101
   53          H           0.008420        0.9916     0.99158
   54          H           0.011956        0.9880     0.98804
   55          H           0.012343        0.9877     0.98766
   56          H           0.021670        0.9783     0.97833
   57          H           0.020468        0.9795     0.97953
   58          H           0.030492        0.9695     0.96951
   59          H           0.019301        0.9807     0.98070
   60          H           0.024616        0.9754     0.97538
   61          H           0.033114        0.9669     0.96689
   62          H           0.023920        0.9761     0.97608
   63          H           0.025946        0.9741     0.97405
   64          H           0.028272        0.9717     0.97173
   65          H           0.019246        0.9808     0.98075
   66          H           0.016814        0.9832     0.98319
   67          H           0.024528        0.9755     0.97547
   68          H           0.027615        0.9724     0.97239
   69          H           0.019127        0.9809     0.98087
   70          H           0.016612        0.9834     0.98339
   71          H           0.024401        0.9756     0.97560
   72          H           0.032022        0.9680     0.96798
   73          H           0.034815        0.9652     0.96518
   74          H           0.038548        0.9615     0.96145
   75          H           0.049375        0.9506     0.95062
   76          H           0.245877        0.7541     0.75412
 DIPOLE           X         Y         Z       TOTAL
 POINT-CHG.    -0.956     3.492    -4.125     5.488
 HYBRID        -0.271     1.050     1.772     2.077
 SUM           -1.227     4.542    -2.353     5.260


          ATOMIC ORBITAL ELECTRON POPULATIONS

     Atom    s        px        py        pz   
    1  C   1.05452   0.98935   0.98957   0.99356
    2  C   1.04346   0.99204   0.98297   0.98809
    3  C   1.05101   0.97261   0.98600   0.99179
    4  C   1.04900   0.99137   0.88704   0.99878
    5  N   1.25434   1.66414   1.12273   1.11647
    6  C   1.05485   0.98652   0.96649   0.91466
    7  C   1.07785   1.05678   0.95191   0.96233
    8  C   1.04155   0.98346   0.98784   0.95765
    9  C   1.07856   1.04295   0.96189   0.96508
   10  C   1.08126   0.99459   0.95049   0.99304
   11  C   1.04702   1.03172   0.97762   0.96246
   12  C   1.04564   1.04427   0.97419   0.96139
   13  C   1.05371   0.98155   0.96142   0.92275
   14  C   1.07629   1.07650   0.94503   0.95829
   15  C   1.04241   0.97929   0.99765   0.88408
   16  C   1.07792   1.06080   0.94799   0.96767
   17  C   1.08098   0.98856   0.95346   0.99304
   18  N   1.22878   1.25473   1.57959   1.06890
   19  C   1.05070   0.95592   0.98483   0.93066
   20  C   1.07671   0.97752   1.02958   0.95869
   21  C   1.08074   0.95803   0.98854   0.99729
   22  C   1.07756   0.99261   1.02258   0.95165
   23  C   1.07927   0.98695   0.99681   0.95739
   24  C   1.04767   0.98517   1.01665   0.96714
   25  C   1.04771   0.97551   1.01267   0.98062
   26  C   1.05081   0.91773   0.96551   0.98841
   27  C   1.07682   0.99115   1.03385   0.94120
   28  C   1.08068   0.96487   0.99356   0.98541
   29  C   1.07755   0.97556   1.01429   0.97730
   30  C   1.07929   0.99549   1.00091   0.94491
   31  C   1.08380   0.94700   0.97776   0.94303
   32  C   1.08414   0.97289   1.00911   0.98782
   33  C   1.09015   0.98770   0.96863   0.97555
   34  C   1.06620   0.99382   1.01255   0.90328
   35  S   1.77216   1.42748   1.65701   1.19164
   36  C   1.07934   0.95257   0.94760   0.93354
   37  C   1.08168   1.02730   0.94801   0.99272
   38  C   1.10122   0.91016   0.97401   0.97449
   39  C   1.05911   1.03613   0.97329   0.93742
   40  S   1.76731   1.68732   1.29809   1.27304
   41  C   1.09460   0.87106   0.95749   0.95454
   42  C   0.99990   1.06753   0.97687   0.95503
   43  C   1.04530   0.75936   0.81051   0.88994
   44  O   1.81689   1.44872   1.69622   1.65378
   45  O   1.68770   1.75714   1.40628   1.46047
   46  C   1.14993   0.90423   0.88218   0.84799
   47  N   1.75363   1.20495   1.21634   1.22416
   48  H   0.94066
   49  H   0.99194
   50  H   0.99871
   51  H   0.99161
   52  H   0.99101
   53  H   0.99158
   54  H   0.98804
   55  H   0.98766
   56  H   0.97833
   57  H   0.97953
   58  H   0.96951
   59  H   0.98070
   60  H   0.97538
   61  H   0.96689
   62  H   0.97608
   63  H   0.97405
   64  H   0.97173
   65  H   0.98075
   66  H   0.98319
   67  H   0.97547
   68  H   0.97239
   69  H   0.98087
   70  H   0.98339
   71  H   0.97560
   72  H   0.96798
   73  H   0.96518
   74  H   0.96145
   75  H   0.95062
   76  H   0.75412

 **********************
 *                    *
 * JOB ENDED NORMALLY *
 *                    *
 **********************



 TOTAL JOB TIME:           707.02 SECONDS

 == MOPAC DONE ==
