 *******************************************************************************
 ** Site#: 4824         For non-commercial use only    Version 21.013L 64BITS **
 *******************************************************************************
 ** Cite this program as: MOPAC2016, Version: 21.013L, James J. P. Stewart,   **
 ** Stewart Computational Chemistry, web: HTTP://OpenMOPAC.net. Days left:  84**
 *******************************************************************************
 **                                                                           **
 **                                MOPAC2016                                  **
 **                                                                           **
 *******************************************************************************

                              INDO CALCULATION RESULTS

 *******************************************************************************
 *  CALCULATION DONE:                                Thu Oct 21 09:30:13 2021  *
 *  INDO       - The INDO Hamiltonian to be used
 *  CIS        - C.I. USES 1 ELECTRON EXCITATIONS ONLY
 *  EPS=  8.93 - USE ANDREAS KLAMT'S COSMO IMPLICIT SOLVATION MODEL
 *  n**2 =  1.420 for COSMO-CI
 *  T=         - A TIME OF 172800.0 SECONDS REQUESTED
 *  DUMP=N     - RESTART FILE WRITTEN EVERY 7200.0 SECONDS REQUESTED
 *******************************************************************************
INDO CIS EPS=8.93 N**2=1.42
 Dye2
 Calculo de Estados Excitados
   ATOM   CHEMICAL          X               Y               Z
  NUMBER   SYMBOL      (ANGSTROMS)     (ANGSTROMS)     (ANGSTROMS)
 
     1       C          0.00000000  *   0.00000000  *   0.00000000  *
     2       C          1.51989026  *   0.00000000  *   0.00000000  *
     3       C          2.05529806  *   1.42856433  *   0.00000000  *
     4       C          3.59103226  *   1.41506058  *  -0.00633522  *
     5       N          4.14380558  *   2.76648950  *  -0.00959372  *
     6       C          4.41598533  *   3.54547367  *   1.13542090  *
     7       C          4.52548653  *   3.15512325  *   2.46620980  *
     8       C          4.87144829  *   4.13801867  *   3.38864500  *
     9       C          5.10070554  *   5.46662301  *   3.00108812  *
    10       C          4.98556141  *   5.85006799  *   1.67433073  *
    11       C          4.63876991  *   4.89222838  *   0.73574664  *
    12       C          4.42884587  *   4.95251727  *  -0.68708300  *
    13       C          4.08620458  *   3.64005162  *  -1.11304108  *
    14       C          3.80313405  *   3.35096926  *  -2.44447009  *
    15       C          3.86557431  *   4.42035037  *  -3.33755938  *
    16       C          4.20658193  *   5.72449119  *  -2.93331887  *
    17       C          4.49629673  *   5.98820893  *  -1.60453456  *
    18       N          3.56809809  *   4.18565503  *  -4.70026817  *
    19       C          4.34588300  *   4.59452075  *  -5.80344251  *
    20       C          5.55846351  *   5.27388694  *  -5.84055067  *
    21       C          6.10217001  *   5.53325248  *  -7.08840711  *
    22       C          5.48107381  *   5.13063855  *  -8.28220271  *
    23       C          4.28116701  *   4.43179010  *  -8.23174199  *
    24       C          3.71419735  *   4.15942511  *  -6.99651349  *
    25       C          2.51354439  *   3.45754891  *  -6.61194748  *
    26       C          2.44662667  *   3.48712349  *  -5.19346778  *
    27       C          1.37618569  *   2.92000117  *  -4.51509565  *
    28       C          0.39256066  *   2.29909046  *  -5.27376844  *
    29       C          0.45064453  *   2.24054005  *  -6.67118117  *
    30       C          1.51903205  *   2.83317187  *  -7.34271977  *
    31       C         -0.61151624  *   1.56184508  *  -7.49688702  *
    32       C         -1.25459130  *   2.59856115  *  -8.42261898  *
    33       C         -1.72238053  *   0.92795678  *  -6.65755819  *
    34       C          0.03978890  *   0.45106619  *  -8.32643247  *
    35       C          6.16255664  *   5.47596416  *  -9.58068576  *
    36       C          6.30936200  *   6.99739389  *  -9.67608694  *
    37       C          5.38753287  *   5.00209206  * -10.81187247  *
    38       C          7.54238988  *   4.81260500  *  -9.60893938  *
    39       C          4.98413492  *   3.76654175  *   4.78161128  *
    40       C          4.12010550  *   2.95482076  *   5.46020503  *
    41       C          4.51559373  *   2.76951799  *   6.82267132  *
    42       C          5.66628553  *   3.44882111  *   7.11766880  *
    43       S          6.27398916  *   4.30712224  *   5.76406494  *
    44       C          6.33477400  *   3.48050307  *   8.37735269  *
    45       C          7.02761577  *   4.54454801  *   8.90434821  *
    46       C          7.57521293  *   4.23374731  *  10.17743854  *
    47       C          7.27501635  *   2.94642537  *  10.57506855  *
    48       S          6.34858651  *   2.12929143  *   9.40639802  *
    49       C          7.71789903  *   2.40663516  *  11.82303670  *
    50       C          7.36788374  *   1.20846790  *  12.33827639  *
    51       C          7.91580090  *   0.79932115  *  13.63734604  *
    52       O          8.68440964  *   1.44064978  *  14.34050509  *
    53       O          7.49729626  *  -0.41428367  *  14.05018549  *
    54       C          6.48590345  *   0.30419417  *  11.69938190  *
    55       N          5.76827747  *  -0.45307324  *  11.19925084  *
    56       H          8.40530077  *   3.05316965  *  12.39509163  *
    57       H         -0.41729425  *   0.50669171  *  -0.88219558  *
    58       H         -0.40789989  *  -1.02126701  *  -0.00110665  *
    59       H         -0.41738253  *   0.50502824  *   0.88309157  *
    60       H          1.90211626  *  -0.56066134  *   0.87944316  *
    61       H          1.90213325  *  -0.56080913  *  -0.87938257  *
    62       H          1.67057066  *   1.99014762  *  -0.87837680  *
    63       H          1.67522374  *   1.98827293  *   0.88042117  *
    64       H          3.99138458  *   0.85807775  *   0.87161989  *
    65       H          3.98170615  *   0.87073993  *  -0.89831758  *
    66       H          4.35799885  *   2.12323381  *   2.78055491  *
    67       H          5.36313606  *   6.21306471  *   3.75617564  *
    68       H          5.16093957  *   6.88414017  *   1.36667065  *
    69       H          3.56389884  *   2.33768398  *  -2.77506997  *
    70       H          4.22310894  *   6.53986793  *  -3.66308040  *
    71       H          4.76505979  *   6.99614687  *  -1.27683497  *
    72       H          6.07266162  *   5.57928337  *  -4.92679858  *
    73       H          7.05527970  *   6.07172711  *  -7.11837981  *
    74       H          3.75430868  *   4.07845554  *  -9.12070537  *
    75       H          1.29584900  *   2.97086199  *  -3.42692490  *
    76       H         -0.44167531  *   1.85653173  *  -4.72217814  *
    77       H          1.60067173  *   2.82532064  *  -8.43291517  *
    78       H         -1.68452710  *   3.43768884  *  -7.85730979  *
    79       H         -0.54762326  *   3.03412515  *  -9.14196223  *
    80       H         -2.06911683  *   2.16665060  *  -9.02240885  *
    81       H         -2.26968753  *   1.66639977  *  -6.05438348  *
    82       H         -2.47905093  *   0.43484059  *  -7.28694245  *
    83       H         -1.34497987  *   0.15182511  *  -5.97653691  *
    84       H         -0.69986686  *  -0.11356533  *  -8.91287929  *
    85       H          0.77557269  *   0.82585570  *  -9.05109085  *
    86       H          0.56581914  *  -0.27571223  *  -7.69119440  *
    87       H          5.33781978  *   7.50550622  *  -9.59590276  *
    88       H          6.95161052  *   7.42113840  *  -8.89188812  *
    89       H          6.75517748  *   7.30939537  * -10.63197620  *
    90       H          4.38651189  *   5.45172506  * -10.87793679  *
    91       H          5.90179649  *   5.27136456  * -11.74713744  *
    92       H          5.26655771  *   3.90975983  * -10.83955696  *
    93       H          8.06699354  *   4.99332791  * -10.55862827  *
    94       H          8.21406259  *   5.17580732  *  -8.81904576  *
    95       H          7.47234126  *   3.72249299  *  -9.48522331  *
    96       H          3.22464498  *   2.50309046  *   5.04000633  *
    97       H          3.94514508  *   2.16261374  *   7.52236546  *
    98       H          7.14539642  *   5.51367982  *   8.42574567  *
    99       H          8.15790178  *   4.94543847  *  10.75999529  *
   100       H          7.88296161  *  -0.64132880  *  14.90875485  *
 


          CARTESIAN COORDINATES 

    NO.       ATOM           X           Y           Z

     1         C          0.0000      0.0000      0.0000
     2         C          1.5199      0.0000      0.0000
     3         C          2.0553      1.4286      0.0000
     4         C          3.5910      1.4151     -0.0063
     5         N          4.1438      2.7665     -0.0096
     6         C          4.4160      3.5455      1.1354
     7         C          4.5255      3.1551      2.4662
     8         C          4.8714      4.1380      3.3886
     9         C          5.1007      5.4666      3.0011
    10         C          4.9856      5.8501      1.6743
    11         C          4.6388      4.8922      0.7357
    12         C          4.4288      4.9525     -0.6871
    13         C          4.0862      3.6401     -1.1130
    14         C          3.8031      3.3510     -2.4445
    15         C          3.8656      4.4204     -3.3376
    16         C          4.2066      5.7245     -2.9333
    17         C          4.4963      5.9882     -1.6045
    18         N          3.5681      4.1857     -4.7003
    19         C          4.3459      4.5945     -5.8034
    20         C          5.5585      5.2739     -5.8406
    21         C          6.1022      5.5333     -7.0884
    22         C          5.4811      5.1306     -8.2822
    23         C          4.2812      4.4318     -8.2317
    24         C          3.7142      4.1594     -6.9965
    25         C          2.5135      3.4575     -6.6119
    26         C          2.4466      3.4871     -5.1935
    27         C          1.3762      2.9200     -4.5151
    28         C          0.3926      2.2991     -5.2738
    29         C          0.4506      2.2405     -6.6712
    30         C          1.5190      2.8332     -7.3427
    31         C         -0.6115      1.5618     -7.4969
    32         C         -1.2546      2.5986     -8.4226
    33         C         -1.7224      0.9280     -6.6576
    34         C          0.0398      0.4511     -8.3264
    35         C          6.1626      5.4760     -9.5807
    36         C          6.3094      6.9974     -9.6761
    37         C          5.3875      5.0021    -10.8119
    38         C          7.5424      4.8126     -9.6089
    39         C          4.9841      3.7665      4.7816
    40         C          4.1201      2.9548      5.4602
    41         C          4.5156      2.7695      6.8227
    42         C          5.6663      3.4488      7.1177
    43         S          6.2740      4.3071      5.7641
    44         C          6.3348      3.4805      8.3774
    45         C          7.0276      4.5445      8.9043
    46         C          7.5752      4.2337     10.1774
    47         C          7.2750      2.9464     10.5751
    48         S          6.3486      2.1293      9.4064
    49         C          7.7179      2.4066     11.8230
    50         C          7.3679      1.2085     12.3383
    51         C          7.9158      0.7993     13.6373
    52         O          8.6844      1.4406     14.3405
    53         O          7.4973     -0.4143     14.0502
    54         C          6.4859      0.3042     11.6994
    55         N          5.7683     -0.4531     11.1993
    56         H          8.4053      3.0532     12.3951
    57         H         -0.4173      0.5067     -0.8822
    58         H         -0.4079     -1.0213     -0.0011
    59         H         -0.4174      0.5050      0.8831
    60         H          1.9021     -0.5607      0.8794
    61         H          1.9021     -0.5608     -0.8794
    62         H          1.6706      1.9901     -0.8784
    63         H          1.6752      1.9883      0.8804
    64         H          3.9914      0.8581      0.8716
    65         H          3.9817      0.8707     -0.8983
    66         H          4.3580      2.1232      2.7806
    67         H          5.3631      6.2131      3.7562
    68         H          5.1609      6.8841      1.3667
    69         H          3.5639      2.3377     -2.7751
    70         H          4.2231      6.5399     -3.6631
    71         H          4.7651      6.9961     -1.2768
    72         H          6.0727      5.5793     -4.9268
    73         H          7.0553      6.0717     -7.1184
    74         H          3.7543      4.0785     -9.1207
    75         H          1.2958      2.9709     -3.4269
    76         H         -0.4417      1.8565     -4.7222
    77         H          1.6007      2.8253     -8.4329
    78         H         -1.6845      3.4377     -7.8573
    79         H         -0.5476      3.0341     -9.1420
    80         H         -2.0691      2.1667     -9.0224
    81         H         -2.2697      1.6664     -6.0544
    82         H         -2.4791      0.4348     -7.2869
    83         H         -1.3450      0.1518     -5.9765
    84         H         -0.6999     -0.1136     -8.9129
    85         H          0.7756      0.8259     -9.0511
    86         H          0.5658     -0.2757     -7.6912
    87         H          5.3378      7.5055     -9.5959
    88         H          6.9516      7.4211     -8.8919
    89         H          6.7552      7.3094    -10.6320
    90         H          4.3865      5.4517    -10.8779
    91         H          5.9018      5.2714    -11.7471
    92         H          5.2666      3.9098    -10.8396
    93         H          8.0670      4.9933    -10.5586
    94         H          8.2141      5.1758     -8.8190
    95         H          7.4723      3.7225     -9.4852
    96         H          3.2246      2.5031      5.0400
    97         H          3.9451      2.1626      7.5224
    98         H          7.1454      5.5137      8.4257
    99         H          8.1579      4.9454     10.7600
   100         H          7.8830     -0.6413     14.9088

           Empirical Formula: C48 H45 N3 O2 S2  =   100 atoms



      MOLECULAR POINT GROUP   :   C1  


      RHF CALCULATION, NO. OF DOUBLY OCCUPIED LEVELS = 138

 WARNING: INDO only performs single-point calculations

 Summary of symmetry occupancy in each shell:

 SHELL     
    1  138
    v  127
 TOTAL 265




    ROOT NO.    1           2           3           4           5           6

           -48.86599   -48.29429   -46.74814   -45.20163   -44.78922   -43.84826
  
  
  S  C   1   0.01387     0.01670    -0.00002    -0.00112     0.00443    -0.02093
 PX  C   1   0.00599     0.00720    -0.00001    -0.00035     0.00168    -0.00793
 PY  C   1   0.00231     0.00262    -0.00000    -0.00017     0.00051    -0.00238
 PZ  C   1  -0.00014     0.00003     0.00000     0.00011     0.00004     0.00021
  
  S  C   2   0.03173     0.03808    -0.00004    -0.00168     0.00841    -0.03736
 PX  C   2   0.00625     0.00743    -0.00001    -0.00003     0.00103    -0.00319
 PY  C   2   0.01106     0.01296    -0.00001    -0.00048     0.00234    -0.01011
 PZ  C   2  -0.00039     0.00003     0.00000     0.00014     0.00031     0.00078
  
  S  C   3   0.07581     0.08946    -0.00009    -0.00232     0.01474    -0.05858
 PX  C   3   0.02879     0.03469    -0.00003    -0.00010     0.00479    -0.01396
 PY  C   3   0.01064     0.01192    -0.00001     0.00007     0.00040     0.00019
 PZ  C   3  -0.00202    -0.00025     0.00000     0.00046     0.00146     0.00352
  
  S  C   4   0.13623     0.16296    -0.00016    -0.00172     0.02423    -0.07522
 PX  C   4   0.00906     0.01149    -0.00001     0.00048     0.00126     0.00368
 PY  C   4   0.06188     0.07440    -0.00007    -0.00013     0.00948    -0.02481
 PZ  C   4  -0.00184     0.00111     0.00001     0.00043     0.00360     0.00890
  
  S  N   5   0.30857     0.36890    -0.00033     0.00002     0.04467    -0.10833
 PX  N   5  -0.00730    -0.00818     0.00001     0.00053    -0.00092     0.01370
 PY  N   5   0.06474     0.07580    -0.00006     0.00107     0.00469    -0.00343
 PZ  N   5  -0.00131     0.00525     0.00002     0.00058     0.01054     0.02564
  
  S  C   6   0.23266     0.28824    -0.00008     0.00222     0.05852     0.08645
 PX  C   6  -0.01061    -0.01210     0.00003     0.00024     0.00100     0.02631
 PY  C   6   0.00719     0.00856     0.00004     0.00081     0.00381     0.05198
 PZ  C   6  -0.08307    -0.09576     0.00018     0.00000     0.00127     0.09968
  
  S  C   7   0.09467     0.12454     0.00026     0.00168     0.04879     0.20300
 PX  C   7  -0.00101    -0.00070     0.00003     0.00015     0.00215     0.02095
 PY  C   7   0.02257     0.03053     0.00008     0.00075     0.01512     0.08051
 PZ  C   7  -0.03754    -0.04647     0.00015    -0.00014    -0.00596     0.03556
  
  S  C   8   0.06261     0.08587     0.00058     0.00193     0.04978     0.30189
 PX  C   8  -0.00344    -0.00455    -0.00000    -0.00006    -0.00172    -0.00569
 PY  C   8   0.00260     0.00346    -0.00007     0.00013     0.00113    -0.00025
 PZ  C   8  -0.02546    -0.03355     0.00018    -0.00050    -0.01073    -0.01235
  
  S  C   9   0.05666     0.07685     0.00028     0.00175     0.04021     0.22075
 PX  C   9  -0.00697    -0.00934    -0.00002    -0.00018    -0.00421    -0.01985
 PY  C   9  -0.01862    -0.02541    -0.00011    -0.00053    -0.01345    -0.07301
 PZ  C   9  -0.01973    -0.02579     0.00005    -0.00046    -0.00858    -0.02510
  
  S  C  10   0.07765     0.09956     0.00010     0.00194     0.03455     0.16088
 PX  C  10  -0.00933    -0.01160     0.00000    -0.00016    -0.00264    -0.00836
 PY  C  10  -0.03621    -0.04702    -0.00004    -0.00076    -0.01620    -0.06436
 PZ  C  10  -0.01018    -0.00987     0.00006    -0.00002     0.00560     0.03743
  
  S  C  11   0.19337     0.23245    -0.00006     0.00281     0.03847     0.09784
 PX  C  11  -0.01882    -0.02138     0.00003    -0.00004     0.00003     0.01573
 PY  C  11  -0.06577    -0.08086     0.00006    -0.00039    -0.01271     0.00775
 PZ  C  11  -0.03233    -0.02872     0.00012     0.00008     0.01747     0.09250
  
  S  C  12   0.21433     0.20854    -0.00020     0.00270    -0.03073    -0.06394
 PX  C  12  -0.01280    -0.00981     0.00002     0.00014     0.00481     0.01161
 PY  C  12  -0.07031    -0.08181     0.00008     0.00011    -0.00721     0.02472
 PZ  C  12   0.01379     0.04643     0.00000    -0.00009     0.03853     0.03905
  
  S  C  13   0.26569     0.25765    -0.00028    -0.00015    -0.03043    -0.12081
 PX  C  13   0.01138     0.01648    -0.00001     0.00096     0.00236     0.00101
 PY  C  13   0.00590    -0.01034     0.00000     0.00143    -0.02210     0.00265
 PZ  C  13   0.06632     0.11420    -0.00008     0.00138     0.04245    -0.00223
  
  S  C  14   0.17115     0.04649    -0.00013    -0.00610    -0.09474    -0.08396
 PX  C  14   0.00757     0.01396    -0.00001     0.00282    -0.00264    -0.00815
 PY  C  14   0.04207     0.00042    -0.00003     0.00137    -0.03867    -0.02093
 PZ  C  14   0.01159     0.07681    -0.00006     0.00264     0.02681    -0.02659
  
  S  C  15   0.22099    -0.07741    -0.00007     0.00110    -0.17542    -0.05630
 PX  C  15  -0.00931     0.01830    -0.00001     0.00600     0.00713    -0.00693
 PY  C  15  -0.01077     0.01090    -0.00000     0.00660     0.00484    -0.00292
 PZ  C  15  -0.03521     0.09050    -0.00005    -0.00191     0.03229    -0.03753
  
  S  C  16   0.13009    -0.00325    -0.00008     0.00829    -0.10451    -0.05925
 PX  C  16  -0.00845     0.00648     0.00000     0.00133     0.00839     0.00054
 PY  C  16  -0.05041     0.00461     0.00003    -0.00058     0.04003     0.02006
 PZ  C  16   0.00299     0.04029    -0.00003    -0.00295     0.00300    -0.02167
  
  S  C  17   0.10887     0.06387    -0.00010     0.00373    -0.06140    -0.05858
 PX  C  17  -0.01074    -0.00393     0.00001    -0.00002     0.00813     0.00797
 PY  C  17  -0.04964    -0.03325     0.00005    -0.00064     0.02360     0.02818
 PZ  C  17  -0.00098     0.02061    -0.00000    -0.00135     0.01807     0.01100
  
  S  N  18   0.35882    -0.30716     0.00004    -0.00002    -0.23496     0.03112
 PX  N  18  -0.01147     0.01405    -0.00001     0.02114    -0.00052    -0.00505
 PY  N  18  -0.01054     0.01223    -0.00000     0.01282     0.00025    -0.00395
 PZ  N  18  -0.05124     0.06806    -0.00003    -0.00647    -0.00176    -0.02634
  
  S  C  19   0.26301    -0.24942     0.00006     0.11201    -0.06211     0.03368
 PX  C  19  -0.07558     0.07118    -0.00001     0.03691     0.06326    -0.01674
 PY  C  19  -0.04423     0.04256    -0.00001     0.01837     0.03259    -0.01024
 PZ  C  19   0.02542    -0.01181    -0.00001    -0.04970    -0.08200    -0.00043
  
  S  C  20   0.10994    -0.10587     0.00003     0.14165     0.04580     0.00358
 PX  C  20  -0.04393     0.04126    -0.00001    -0.01883     0.01567    -0.00608
 PY  C  20  -0.02483     0.02403    -0.00001    -0.01314     0.00581    -0.00374
 PZ  C  20  -0.00950     0.01613    -0.00001    -0.06110    -0.05740     0.00055
  
  S  C  21   0.07260    -0.07834     0.00003     0.21481     0.16077    -0.01254
 PX  C  21  -0.02798     0.02951    -0.00001    -0.04829    -0.02565    -0.00213
 PY  C  21  -0.01587     0.01690    -0.00001    -0.02940    -0.01696    -0.00092
 PZ  C  21   0.00205     0.00033    -0.00000    -0.04589    -0.05587     0.00916
  
  S  C  22   0.07685    -0.08653     0.00004     0.29921     0.26036    -0.02781
 PX  C  22  -0.01119     0.01145    -0.00000     0.01301     0.02191    -0.00789
 PY  C  22  -0.00571     0.00587    -0.00000     0.00707     0.01125    -0.00410
 PZ  C  22   0.02111    -0.02138     0.00001    -0.00540    -0.02995     0.01164
  
  S  C  23   0.09180    -0.09971     0.00004     0.18783     0.15285    -0.00348
 PX  C  23   0.00342    -0.00493     0.00000     0.06537     0.05229    -0.00843
 PY  C  23   0.00379    -0.00473     0.00000     0.03920     0.03037    -0.00448
 PZ  C  23   0.04041    -0.04168     0.00001     0.02159    -0.00378     0.01015
  
  S  C  24   0.21055    -0.21341     0.00006     0.10063     0.02958     0.03282
 PX  C  24  -0.00862     0.00722     0.00000     0.07127     0.03470    -0.00620
 PY  C  24  -0.00167     0.00109     0.00000     0.04074     0.01713    -0.00290
 PZ  C  24   0.08043    -0.07582     0.00002    -0.02037    -0.06446     0.01734
  
  S  C  25   0.21149    -0.21292     0.00006    -0.10435     0.03205     0.03221
 PX  C  25   0.03944    -0.03713     0.00001     0.07083    -0.05831     0.01273
 PY  C  25   0.02713    -0.02569     0.00001     0.04043    -0.03624     0.00827
 PZ  C  25   0.06501    -0.06106     0.00001    -0.02305    -0.03629     0.01114
  
  S  C  26   0.26528    -0.24725     0.00005    -0.11199    -0.06188     0.03169
 PX  C  26   0.07569    -0.06713     0.00001     0.05134    -0.08823     0.01446
 PY  C  26   0.04425    -0.03951     0.00001     0.03064    -0.05339     0.00867
 PZ  C  26  -0.02243     0.03336    -0.00002     0.02254    -0.03455    -0.01138
  
  S  C  27   0.11296    -0.10233     0.00002    -0.13815     0.04384     0.00138
 PX  C  27   0.03539    -0.02907     0.00000     0.00671    -0.03551     0.00449
 PY  C  27   0.01736    -0.01463     0.00000     0.00807    -0.02250     0.00299
 PZ  C  27  -0.03330     0.03880    -0.00002     0.06286    -0.04003    -0.00406
  
  S  C  28   0.07281    -0.07508     0.00003    -0.20227     0.15099    -0.01099
 PX  C  28   0.02608    -0.02544     0.00001    -0.02728     0.00371     0.00427
 PY  C  28   0.01414    -0.01376     0.00000    -0.01164    -0.00174     0.00296
 PZ  C  28  -0.01425     0.01751    -0.00001     0.06466    -0.06086     0.00533
  
  S  C  29   0.07799    -0.08552     0.00004    -0.29691     0.26253    -0.02614
 PX  C  29   0.01935    -0.01948     0.00001     0.00489    -0.02325     0.00956
 PY  C  29   0.01210    -0.01217     0.00000     0.00326    -0.01512     0.00607
 PZ  C  29   0.01009    -0.00928     0.00000     0.01171    -0.02830     0.00712
  
  S  C  30   0.09400    -0.10055     0.00004    -0.19841     0.16477    -0.00451
 PX  C  30   0.01289    -0.01215     0.00000     0.05135    -0.05201     0.01167
 PY  C  30   0.00971    -0.00937     0.00000     0.02724    -0.02926     0.00714
 PZ  C  30   0.03736    -0.03848     0.00001    -0.05494     0.02563     0.00398
  
  S  C  31   0.03824    -0.04555     0.00002    -0.29952     0.30860    -0.04609
 PX  C  31   0.00677    -0.00747     0.00000    -0.01914     0.01483    -0.00022
 PY  C  31   0.00426    -0.00469     0.00000    -0.01201     0.00918    -0.00012
 PZ  C  31   0.00386    -0.00408     0.00000    -0.00933     0.00488     0.00033
  
  S  C  32   0.02071    -0.02505     0.00001    -0.17795     0.18704    -0.02879
 PX  C  32   0.00570    -0.00670     0.00000    -0.03665     0.03714    -0.00498
 PY  C  32  -0.00431     0.00536    -0.00000     0.04521    -0.04826     0.00782
 PZ  C  32   0.00577    -0.00688     0.00000    -0.04527     0.04624    -0.00685
  
  S  C  33   0.01927    -0.02327     0.00001    -0.17531     0.18319    -0.02894
 PX  C  33   0.00681    -0.00810     0.00000    -0.05391     0.05505    -0.00820
 PY  C  33   0.00401    -0.00476     0.00000    -0.03118     0.03170    -0.00469
 PZ  C  33  -0.00268     0.00348    -0.00000     0.03350    -0.03682     0.00617
  
  S  C  34   0.02075    -0.02509     0.00001    -0.17805     0.18718    -0.02881
 PX  C  34  -0.00134     0.00184    -0.00000     0.02448    -0.02699     0.00484
 PY  C  34   0.00742    -0.00887     0.00000    -0.05635     0.05827    -0.00849
 PZ  C  34   0.00524    -0.00622     0.00000    -0.04064     0.04139    -0.00612
  
  S  C  35   0.03741    -0.04576     0.00003     0.30262     0.30577    -0.04940
 PX  C  35  -0.00348     0.00390    -0.00000    -0.00677    -0.00466    -0.00058
 PY  C  35  -0.00173     0.00194    -0.00000    -0.00308    -0.00212    -0.00035
 PZ  C  35   0.00778    -0.00872     0.00000     0.02385     0.01700    -0.00044
  
  S  C  36   0.01984    -0.02460     0.00002     0.18070     0.18487    -0.03116
 PX  C  36  -0.00145     0.00171    -0.00000    -0.00778    -0.00745     0.00094
 PY  C  36  -0.00831     0.01029    -0.00001    -0.07307    -0.07443     0.01230
 PZ  C  36   0.00285    -0.00327     0.00000     0.01258     0.01049    -0.00104
  
  S  C  37   0.01965    -0.02445     0.00002     0.17549     0.18247    -0.03047
 PX  C  37   0.00232    -0.00307     0.00000     0.03210     0.03366    -0.00624
 PY  C  37   0.00152    -0.00200     0.00000     0.01987     0.02076    -0.00380
 PZ  C  37   0.00781    -0.00956     0.00001     0.06060     0.06140    -0.00961
  
  S  C  38   0.01982    -0.02459     0.00002     0.18055     0.18477    -0.03113
 PX  C  38  -0.00794     0.00978    -0.00001    -0.06691    -0.06786     0.01104
 PY  C  38   0.00318    -0.00399     0.00000     0.03161     0.03249    -0.00559
 PZ  C  38   0.00248    -0.00281     0.00000     0.00929     0.00716    -0.00048
  
  S  C  39   0.02135     0.03094     0.00149     0.00106     0.03178     0.31821
 PX  C  39  -0.00182    -0.00260    -0.00002    -0.00007    -0.00224    -0.01832
 PY  C  39   0.00100     0.00128    -0.00020     0.00001    -0.00070    -0.02341
 PZ  C  39  -0.00818    -0.01119     0.00055    -0.00019    -0.00360     0.02772
  
  S  C  40   0.01101     0.01640     0.00161     0.00069     0.02245     0.27287
 PX  C  40   0.00255     0.00392     0.00057     0.00020     0.00664     0.08790
 PY  C  40   0.00233     0.00350     0.00027     0.00015     0.00461     0.05214
 PZ  C  40  -0.00315    -0.00436     0.00037    -0.00006    -0.00135     0.01725
  
  S  C  41   0.00508     0.00796     0.00269     0.00049     0.01677     0.25605
 PX  C  41   0.00081     0.00132     0.00089     0.00010     0.00347     0.05915
 PY  C  41   0.00118     0.00187     0.00058     0.00012     0.00397     0.05963
 PZ  C  41  -0.00207    -0.00316     0.00011    -0.00015    -0.00501    -0.05958
  
  S  C  42   0.00427     0.00680     0.00525     0.00046     0.01628     0.27838
 PX  C  42  -0.00106    -0.00166     0.00072    -0.00009    -0.00315    -0.03685
 PY  C  42  -0.00015    -0.00024     0.00007    -0.00002    -0.00069    -0.01049
 PZ  C  42  -0.00171    -0.00264     0.00162    -0.00013    -0.00416    -0.03812
  
  S  S  43   0.00685     0.01033     0.00204     0.00049     0.01568     0.20732
 PX  S  43  -0.00341    -0.00517    -0.00058    -0.00025    -0.00795    -0.10059
 PY  S  43  -0.00140    -0.00220    -0.00062    -0.00014    -0.00467    -0.06950
 PZ  S  43  -0.00223    -0.00315     0.00087    -0.00007    -0.00137     0.01278
  
  S  C  44   0.00126     0.00212     0.01456     0.00023     0.00894     0.23624
 PX  C  44  -0.00028    -0.00044     0.00300    -0.00002    -0.00055     0.00856
 PY  C  44  -0.00000     0.00000     0.00068     0.00001     0.00029     0.01250
 PZ  C  44  -0.00048    -0.00076     0.00531    -0.00004    -0.00103     0.01100
  
  S  C  45   0.00054     0.00095     0.01553     0.00014     0.00592     0.19088
 PX  C  45  -0.00012    -0.00021    -0.00034    -0.00002    -0.00079    -0.01768
 PY  C  45  -0.00017    -0.00031    -0.00613    -0.00005    -0.00209    -0.06928
 PZ  C  45  -0.00010    -0.00015     0.00396    -0.00000     0.00007     0.01817
  
  S  C  46   0.00027     0.00050     0.02458     0.00010     0.00461     0.17255
 PX  C  46  -0.00007    -0.00013    -0.00313    -0.00003    -0.00109    -0.03881
 PY  C  46  -0.00006    -0.00012    -0.00908    -0.00003    -0.00123    -0.04724
 PZ  C  46  -0.00009    -0.00016     0.00098    -0.00003    -0.00115    -0.03817
  
  S  C  47   0.00024     0.00044     0.04735     0.00010     0.00434     0.16835
 PX  C  47  -0.00003    -0.00005     0.00247    -0.00001    -0.00030    -0.00874
 PY  C  47   0.00005     0.00010    -0.00688     0.00002     0.00093     0.03336
 PZ  C  47  -0.00009    -0.00016     0.01097    -0.00003    -0.00125    -0.04141
  
  S  S  48   0.00043     0.00075     0.02223     0.00011     0.00455     0.14645
 PX  S  48  -0.00002    -0.00002     0.00653     0.00001     0.00053     0.02673
 PY  S  48   0.00021     0.00037     0.00624     0.00006     0.00249     0.08219
 PZ  S  48  -0.00016    -0.00027     0.00860    -0.00002    -0.00070    -0.00721
  
  S  C  49   0.00007     0.00015     0.11263     0.00003     0.00169     0.07589
 PX  C  49  -0.00001    -0.00002    -0.00425    -0.00001    -0.00026    -0.01115
 PY  C  49   0.00001     0.00002    -0.03938     0.00001     0.00028     0.00898
 PZ  C  49  -0.00003    -0.00005     0.02937    -0.00002    -0.00068    -0.02627
  
  S  C  50   0.00004     0.00008     0.22544     0.00001     0.00061     0.03440
 PX  C  50   0.00000     0.00000     0.02837    -0.00000    -0.00006    -0.00194
 PY  C  50   0.00001     0.00002    -0.02994     0.00001     0.00033     0.01442
 PZ  C  50  -0.00001    -0.00001     0.07564    -0.00001    -0.00040    -0.01644
  
  S  C  51   0.00003     0.00007     0.51344    -0.00002    -0.00061    -0.01545
 PX  C  51   0.00000     0.00000     0.02535    -0.00000    -0.00006    -0.00206
 PY  C  51   0.00000    -0.00000    -0.07751     0.00001     0.00029     0.01294
 PZ  C  51   0.00000     0.00000     0.11408    -0.00001    -0.00037    -0.01536
  
  S  O  52   0.00002     0.00005     0.41156    -0.00001    -0.00055    -0.01486
 PX  O  52  -0.00001    -0.00001    -0.10949     0.00000     0.00015     0.00410
 PY  O  52  -0.00000    -0.00001    -0.10990     0.00001     0.00020     0.00688
 PZ  O  52  -0.00000    -0.00001    -0.08302     0.00000     0.00006     0.00056
  
  S  O  53   0.00002     0.00006     0.57448    -0.00003    -0.00108    -0.03856
 PX  O  53   0.00000     0.00001     0.09152    -0.00000    -0.00018    -0.00659
 PY  O  53   0.00001     0.00002     0.14344    -0.00001    -0.00024    -0.00792
 PZ  O  53  -0.00000     0.00000     0.02202    -0.00000    -0.00009    -0.00379
  
  S  C  54   0.00002     0.00005     0.11223     0.00001     0.00044     0.02403
 PX  C  54   0.00000     0.00001     0.03310     0.00000     0.00005     0.00296
 PY  C  54   0.00001     0.00002     0.01639     0.00000     0.00019     0.00878
 PZ  C  54   0.00000     0.00000     0.04022    -0.00000    -0.00009    -0.00314
  
  S  N  55   0.00001     0.00002     0.03926     0.00000     0.00021     0.01174
 PX  N  55   0.00000     0.00001     0.01561     0.00000     0.00006     0.00376
 PY  N  55   0.00000     0.00001     0.01298     0.00000     0.00009     0.00512
 PZ  N  55   0.00000     0.00000     0.01408     0.00000     0.00002     0.00163
  
  S  H  56   0.00003     0.00006     0.05226     0.00001     0.00061     0.02792
  
  S  H  57   0.00639     0.00733    -0.00001    -0.00074     0.00198    -0.00919
  
  S  H  58   0.00423     0.00516    -0.00001    -0.00038     0.00149    -0.00711
  
  S  H  59   0.00612     0.00742    -0.00001    -0.00046     0.00195    -0.00890
  
  S  H  60   0.01335     0.01633    -0.00002    -0.00061     0.00376    -0.01506
  
  S  H  61   0.01380     0.01624    -0.00002    -0.00079     0.00338    -0.01604
  
  S  H  62   0.03796     0.04067    -0.00005    -0.00195     0.00449    -0.02816
  
  S  H  63   0.03399     0.04084    -0.00004    -0.00083     0.00725    -0.02234
  
  S  H  64   0.04875     0.05982    -0.00005    -0.00050     0.01109    -0.02122
  
  S  H  65   0.05072     0.05770    -0.00006    -0.00102     0.00650    -0.03232
  
  S  H  66   0.03147     0.04128     0.00012     0.00041     0.01604     0.06581
  
  S  H  67   0.01341     0.01850     0.00013     0.00049     0.01148     0.07237
  
  S  H  68   0.02152     0.02657     0.00002     0.00059     0.00766     0.04077
  
  S  H  69   0.06551     0.00863    -0.00004    -0.00617    -0.03177    -0.02709
  
  S  H  70   0.04609    -0.01620    -0.00002     0.00670    -0.03697    -0.01348
  
  S  H  71   0.02850     0.01855    -0.00002     0.00132    -0.01477    -0.01164
  
  S  H  72   0.03847    -0.03204     0.00000     0.03697    -0.00000    -0.00117
  
  S  H  73   0.01942    -0.02142     0.00001     0.08113     0.06835    -0.00828
  
  S  H  74   0.02749    -0.03047     0.00001     0.06261     0.06399    -0.00392
  
  S  H  75   0.04161    -0.02848     0.00000    -0.03583    -0.00034    -0.00367
  
  S  H  76   0.01926    -0.01986     0.00001    -0.07324     0.06146    -0.00705
  
  S  H  77   0.02823    -0.03099     0.00001    -0.06984     0.07126    -0.00461
  
  S  H  78   0.00890    -0.01065     0.00001    -0.07187     0.07479    -0.01134
  
  S  H  79   0.00989    -0.01180     0.00001    -0.07452     0.07804    -0.01152
  
  S  H  80   0.00690    -0.00848     0.00001    -0.06719     0.07174    -0.01150
  
  S  H  81   0.00851    -0.01012     0.00001    -0.07221     0.07454    -0.01160
  
  S  H  82   0.00659    -0.00810     0.00000    -0.06710     0.07138    -0.01165
  
  S  H  83   0.00851    -0.01012     0.00001    -0.07216     0.07449    -0.01159
  
  S  H  84   0.00691    -0.00849     0.00001    -0.06723     0.07179    -0.01150
  
  S  H  85   0.00992    -0.01183     0.00001    -0.07459     0.07815    -0.01153
  
  S  H  86   0.00894    -0.01069     0.00001    -0.07195     0.07488    -0.01135
  
  S  H  87   0.00861    -0.01057     0.00001     0.07292     0.07406    -0.01224
  
  S  H  88   0.00911    -0.01113     0.00001     0.07640     0.07687    -0.01269
  
  S  H  89   0.00663    -0.00837     0.00001     0.06813     0.07096    -0.01241
  
  S  H  90   0.00894    -0.01098     0.00001     0.07178     0.07445    -0.01205
  
  S  H  91   0.00664    -0.00840     0.00001     0.06731     0.07086    -0.01232
  
  S  H  92   0.00894    -0.01098     0.00001     0.07178     0.07448    -0.01206
  
  S  H  93   0.00663    -0.00836     0.00001     0.06808     0.07093    -0.01240
  
  S  H  94   0.00909    -0.01111     0.00001     0.07628     0.07678    -0.01267
  
  S  H  95   0.00859    -0.01055     0.00001     0.07282     0.07400    -0.01223
  
  S  H  96   0.00507     0.00732     0.00041     0.00024     0.00782     0.08332
  
  S  H  97   0.00125     0.00197     0.00102     0.00013     0.00450     0.07327
  
  S  H  98   0.00022     0.00038     0.00389     0.00005     0.00194     0.05755
  
  S  H  99   0.00007     0.00012     0.00877     0.00003     0.00122     0.04725
  
  S  H 100   0.00001     0.00002     0.24215    -0.00001    -0.00047    -0.01709




    ROOT NO.    7           8           9          10          11          12

           -43.11834   -42.46662   -41.82628   -41.04260   -40.49392   -39.63974
  
  
  S  C   1   0.02267    -0.10580     0.11078    -0.00247     0.23674    -0.03180
 PX  C   1   0.00835    -0.03798     0.03848    -0.00095     0.07591    -0.00952
 PY  C   1   0.00240    -0.01004     0.00979    -0.00009     0.01681    -0.00192
 PZ  C   1  -0.00024    -0.00014    -0.00021    -0.00021     0.00002     0.00008
  
  S  C   2   0.03845    -0.17328     0.17177    -0.00447     0.32692    -0.04002
 PX  C   2   0.00232    -0.00768     0.00274    -0.00040    -0.01523     0.00401
 PY  C   2   0.00981    -0.04097     0.03797    -0.00090     0.05936    -0.00609
 PZ  C   2  -0.00089    -0.00051    -0.00074    -0.00037     0.00008     0.00023
  
  S  C   3   0.05434    -0.22218     0.19694    -0.00598     0.28597    -0.02780
 PX  C   3   0.01023    -0.03632     0.01908    -0.00213    -0.01844     0.00695
 PY  C   3  -0.00238     0.02064    -0.02737     0.00061    -0.07682     0.01077
 PZ  C   3  -0.00400    -0.00230    -0.00332    -0.00131     0.00051     0.00094
  
  S  C   4   0.06109    -0.24468     0.17666    -0.00997     0.13885    -0.00015
 PX  C   4  -0.00631     0.02305    -0.03341    -0.00035    -0.07809     0.01106
 PY  C   4   0.01621    -0.05281     0.01949    -0.00347    -0.04807     0.01150
 PZ  C   4  -0.01015    -0.00690    -0.00746    -0.00132     0.00315     0.00243
  
  S  N   5   0.06814    -0.23643     0.09190    -0.01651    -0.13058     0.03435
 PX  N   5  -0.01399     0.03571    -0.03601     0.00086    -0.02922     0.00202
 PY  N   5  -0.00563     0.04595    -0.06073    -0.00089    -0.10304     0.00653
 PZ  N   5  -0.03134    -0.02463    -0.02492    -0.00145     0.01112     0.00947
  
  S  C   6  -0.12074    -0.07957    -0.12682    -0.00051    -0.02524     0.03549
 PX  C   6  -0.02510     0.02491    -0.02980     0.00271     0.01627    -0.00060
 PY  C   6  -0.05475     0.07001    -0.08769     0.00611     0.01003    -0.00102
 PZ  C   6  -0.08469     0.04718    -0.04756     0.00969     0.13573    -0.00789
  
  S  C   7  -0.18503    -0.00821    -0.09421     0.00855     0.12844     0.00649
 PX  C   7  -0.01791     0.01233    -0.01352     0.00159     0.01233    -0.00118
 PY  C   7  -0.08034     0.02706    -0.07269     0.00607     0.05192     0.00276
 PZ  C   7  -0.00584     0.04012     0.03454     0.00157     0.01894    -0.01676
  
  S  C   8  -0.23176     0.06470    -0.07103     0.01310     0.16773    -0.01723
 PX  C   8   0.00602     0.00168     0.00367    -0.00020    -0.00399    -0.00059
 PY  C   8  -0.01545     0.00659    -0.04300     0.00259     0.01761     0.00513
 PZ  C   8   0.05661     0.00725     0.11361    -0.00579    -0.05262    -0.01814
  
  S  C   9  -0.20554     0.05833    -0.15053     0.01508     0.16134     0.00035
 PX  C   9   0.02013    -0.00400     0.01735    -0.00141    -0.01429    -0.00102
 PY  C   9   0.06268    -0.01328     0.03130    -0.00375    -0.04473     0.00156
 PZ  C   9   0.04383    -0.00722     0.07311    -0.00402    -0.03013    -0.00960
  
  S  C  10  -0.17515     0.06420    -0.19462     0.01370     0.11132     0.00990
 PX  C  10   0.01019    -0.00362     0.01392    -0.00059    -0.00114    -0.00120
 PY  C  10   0.07059    -0.01339     0.07285    -0.00467    -0.03680    -0.00654
 PZ  C  10  -0.03341    -0.00484    -0.01034     0.00286     0.04733     0.00083
  
  S  C  11  -0.12685     0.06110    -0.19845     0.00618    -0.02948     0.01628
 PX  C  11  -0.01416     0.00588    -0.00896     0.00173     0.02536    -0.00073
 PY  C  11   0.00216     0.03807     0.00678     0.00323     0.04941    -0.01186
 PZ  C  11  -0.09488    -0.01666    -0.06227     0.00743     0.10869     0.00994
  
  S  C  12   0.06889     0.22227    -0.05346    -0.00067    -0.11892    -0.03615
 PX  C  12  -0.01375    -0.01146    -0.01046    -0.00029     0.00502     0.00314
 PY  C  12  -0.01570     0.03067    -0.00468     0.00176     0.05982    -0.01013
 PZ  C  12  -0.06343    -0.11260    -0.05364    -0.00151    -0.03537     0.03109
  
  S  C  13   0.12281     0.10858     0.04856     0.00079    -0.12071    -0.02235
 PX  C  13  -0.00335     0.01171    -0.01732    -0.00262    -0.02619     0.00104
 PY  C  13   0.00884     0.13759    -0.04161     0.00195    -0.01492    -0.02009
 PZ  C  13  -0.02586    -0.13114    -0.02496    -0.01150    -0.09495     0.02812
  
  S  C  14   0.11658     0.20580     0.07467     0.02825     0.06041    -0.02512
 PX  C  14   0.01040     0.02538    -0.00005    -0.00775    -0.01056    -0.00561
 PY  C  14   0.03668     0.12480     0.00287     0.00140     0.01582    -0.01533
 PZ  C  14   0.02132    -0.01588     0.01237    -0.01142    -0.05911    -0.01601
  
  S  C  15   0.10482     0.29643     0.05524     0.01215     0.16506     0.00186
 PX  C  15   0.00855     0.02236    -0.00099    -0.01832    -0.01323    -0.01124
 PY  C  15   0.00497     0.02912    -0.00682    -0.02165    -0.00980    -0.01125
 PZ  C  15   0.04482     0.08816     0.00978     0.00669    -0.05919    -0.04991
  
  S  C  16   0.09999     0.29529     0.03044    -0.01551     0.07482    -0.04038
 PX  C  16  -0.00208    -0.00515    -0.00327    -0.00439    -0.01162    -0.00399
 PY  C  16  -0.03321    -0.08752    -0.01488    -0.00207    -0.03153     0.00498
 PZ  C  16   0.02830     0.07303     0.00068     0.00976    -0.03013    -0.02832
  
  S  C  17   0.08838     0.28290    -0.00329    -0.00325    -0.00765    -0.05866
 PX  C  17  -0.01189    -0.02827    -0.00482    -0.00071    -0.00273     0.00539
 PY  C  17  -0.03867    -0.10007    -0.00416    -0.00129     0.01233     0.01875
 PZ  C  17  -0.02072    -0.03905    -0.02247     0.00361    -0.02990     0.00759
  
  S  N  18  -0.01012     0.03630     0.01670     0.00810     0.19481     0.09451
 PX  N  18   0.00808     0.02560     0.00149    -0.05755     0.01290    -0.00207
 PY  N  18   0.00640     0.02182     0.00062    -0.03560     0.00913    -0.00224
 PZ  N  18   0.04064     0.10447     0.02264     0.02379     0.05362    -0.00900
  
  S  C  19  -0.03974    -0.07550    -0.02308    -0.22714    -0.01310     0.00799
 PX  C  19   0.01659     0.03010     0.00157    -0.07087    -0.03275    -0.03516
 PY  C  19   0.01110     0.02290     0.00192    -0.03614    -0.01299    -0.01853
 PZ  C  19   0.01302     0.05452     0.01641     0.08081     0.10267     0.04356
  
  S  C  20  -0.00925    -0.02107    -0.01600    -0.25763    -0.05774    -0.04245
 PX  C  20   0.00674     0.01152     0.00428     0.05106     0.00107    -0.00140
 PY  C  20   0.00472     0.00979     0.00303     0.03204     0.00391     0.00015
 PZ  C  20   0.00653     0.02777     0.00915     0.07908     0.05399     0.02636
  
  S  C  21   0.00224    -0.01179    -0.01141    -0.18899    -0.07406    -0.05066
 PX  C  21   0.00650     0.02025     0.00846     0.09377     0.03955     0.02126
 PY  C  21   0.00350     0.01136     0.00467     0.05129     0.02226     0.01183
 PZ  C  21  -0.00870    -0.01575    -0.00581    -0.06127    -0.01583    -0.00863
  
  S  C  22   0.01616     0.01248    -0.00218    -0.08012    -0.04859    -0.03428
 PX  C  22   0.01087     0.02768     0.00910     0.07342     0.03892     0.01738
 PY  C  22   0.00567     0.01450     0.00470     0.03664     0.02017     0.00880
 PZ  C  22  -0.01628    -0.04088    -0.01506    -0.15298    -0.06407    -0.03378
  
  S  C  23  -0.01183    -0.05152    -0.01931    -0.15819    -0.10885    -0.05158
 PX  C  23   0.00771     0.01457     0.00223    -0.02201     0.00110    -0.00570
 PY  C  23   0.00381     0.00672     0.00070    -0.01764    -0.00168    -0.00430
 PZ  C  23  -0.01602    -0.04207    -0.01355    -0.10740    -0.05358    -0.02226
  
  S  C  24  -0.05284    -0.13787    -0.03691    -0.17282    -0.12795    -0.03263
 PX  C  24   0.00522     0.00974    -0.00238    -0.11458    -0.01491    -0.01758
 PY  C  24   0.00241     0.00493    -0.00153    -0.06653    -0.00699    -0.00892
 PZ  C  24  -0.01733    -0.02997    -0.00403     0.01142     0.02700     0.02760
  
  S  C  25  -0.05156    -0.14177    -0.02745     0.15330    -0.13859    -0.03261
 PX  C  25  -0.01232    -0.01872    -0.00528    -0.10364     0.03072     0.02644
 PY  C  25  -0.00812    -0.01270    -0.00338    -0.05775     0.01816     0.01622
 PZ  C  25  -0.01152    -0.02331    -0.00084     0.06074     0.01051     0.01331
  
  S  C  26  -0.03704    -0.08791    -0.00576     0.22386    -0.02623     0.00808
 PX  C  26  -0.00952    -0.00084     0.00002    -0.09110     0.07681     0.04871
 PY  C  26  -0.00549     0.00137    -0.00014    -0.05344     0.04741     0.02951
 PZ  C  26   0.02217     0.06290     0.01680    -0.01936     0.07355     0.01733
  
  S  C  27  -0.00633    -0.03823     0.00485     0.25801    -0.07254    -0.04329
 PX  C  27  -0.00223    -0.00090     0.00263     0.01213     0.02169     0.01269
 PY  C  27  -0.00153     0.00071     0.00088     0.00041     0.01470     0.00885
 PZ  C  27   0.01019     0.03173     0.00735    -0.09517     0.05683     0.02253
  
  S  C  28   0.00174    -0.02134    -0.00055     0.19460    -0.09033    -0.05309
 PX  C  28  -0.00766    -0.02737    -0.00252     0.10037    -0.04639    -0.02178
 PY  C  28  -0.00481    -0.01633    -0.00157     0.05827    -0.02663    -0.01235
 PZ  C  28  -0.00264    -0.00351     0.00194    -0.00394     0.01224     0.00549
  
  S  C  29   0.01574     0.01632    -0.00058     0.07933    -0.05533    -0.03474
 PX  C  29  -0.01386    -0.04271    -0.00599     0.11407    -0.06534    -0.02801
 PY  C  29  -0.00876    -0.02696    -0.00373     0.07344    -0.04139    -0.01791
 PZ  C  29  -0.00919    -0.02864    -0.00239     0.09741    -0.04338    -0.02125
  
  S  C  30  -0.00982    -0.04866    -0.01191     0.13980    -0.11645    -0.05049
 PX  C  30  -0.01355    -0.03355    -0.00562     0.02316    -0.02537    -0.00456
 PY  C  30  -0.00854    -0.02164    -0.00361     0.01962    -0.01812    -0.00403
 PZ  C  30  -0.00910    -0.03183    -0.00458     0.10434    -0.05402    -0.02327
  
  S  C  31   0.04555     0.11243     0.01189    -0.21852     0.10915     0.04270
 PX  C  31  -0.00149    -0.00763    -0.00147     0.03367    -0.02246    -0.01171
 PY  C  31  -0.00096    -0.00486    -0.00091     0.02180    -0.01426    -0.00748
 PZ  C  31  -0.00125    -0.00573    -0.00054     0.02994    -0.01496    -0.00859
  
  S  C  32   0.02921     0.07430     0.00784    -0.15996     0.08025     0.03375
 PX  C  32   0.00443     0.00987     0.00075    -0.01556     0.00521     0.00131
 PY  C  32  -0.00826    -0.02163    -0.00244     0.04845    -0.02558    -0.01099
 PZ  C  32   0.00671     0.01633     0.00175    -0.02941     0.01480     0.00541
  
  S  C  33   0.02996     0.07664     0.00897    -0.15847     0.08589     0.03522
 PX  C  33   0.00805     0.01953     0.00215    -0.03447     0.01755     0.00625
 PY  C  33   0.00457     0.01099     0.00121    -0.01870     0.00950     0.00326
 PZ  C  33  -0.00670    -0.01822    -0.00197     0.04525    -0.02361    -0.01080
  
  S  C  34   0.02923     0.07430     0.00784    -0.16019     0.08028     0.03378
 PX  C  34  -0.00548    -0.01514    -0.00188     0.03670    -0.02080    -0.00933
 PY  C  34   0.00819     0.01983     0.00191    -0.03817     0.01743     0.00661
 PZ  C  34   0.00597     0.01447     0.00156    -0.02559     0.01290     0.00465
  
  S  C  35   0.04816     0.09659     0.02891     0.23006     0.09474     0.04215
 PX  C  35   0.00171     0.00581     0.00229     0.02210     0.01327     0.00716
 PY  C  35   0.00094     0.00313     0.00120     0.01110     0.00691     0.00364
 PZ  C  35  -0.00153    -0.00689    -0.00348    -0.04579    -0.02169    -0.01390
  
  S  C  36   0.03149     0.06550     0.02017     0.16524     0.07204     0.03353
 PX  C  36  -0.00068    -0.00087    -0.00015    -0.00051     0.00074     0.00058
 PY  C  36  -0.01221    -0.02490    -0.00755    -0.06077    -0.02556    -0.01153
 PZ  C  36   0.00044    -0.00022    -0.00055    -0.01094    -0.00512    -0.00384
  
  S  C  37   0.03056     0.06285     0.01974     0.17240     0.06975     0.03432
 PX  C  37   0.00676     0.01494     0.00483     0.04152     0.01936     0.00958
 PY  C  37   0.00409     0.00897     0.00289     0.02466     0.01142     0.00562
 PZ  C  37   0.00908     0.01752     0.00512     0.04042     0.01487     0.00625
  
  S  C  38   0.03145     0.06538     0.02015     0.16522     0.07191     0.03351
 PX  C  38  -0.01081    -0.02173    -0.00652    -0.05195    -0.02131    -0.00945
 PY  C  38   0.00574     0.01210     0.00374     0.03040     0.01359     0.00627
 PZ  C  38  -0.00012    -0.00138    -0.00090    -0.01366    -0.00632    -0.00437
  
  S  C  39  -0.08961     0.08414     0.23816    -0.00433    -0.01025    -0.05376
 PX  C  39   0.00968    -0.00447    -0.01267     0.00010    -0.00283     0.00500
 PY  C  39  -0.01058    -0.00566    -0.05347     0.00270     0.02567     0.00720
 PZ  C  39   0.05425     0.01068     0.12812    -0.00757    -0.08424    -0.01045
  
  S  C  40  -0.02765     0.07338     0.29463    -0.00985    -0.07834    -0.05223
 PX  C  40  -0.00278     0.02401     0.10002    -0.00358    -0.03122    -0.01519
 PY  C  40  -0.01009     0.01458     0.04748    -0.00122    -0.00771    -0.00949
 PZ  C  40   0.02867     0.00589     0.05979    -0.00369    -0.04416    -0.00188
  
  S  C  41   0.04221     0.06053     0.30121    -0.01257    -0.12196    -0.02572
 PX  C  41   0.02115     0.01064     0.06010    -0.00271    -0.02793     0.00239
 PY  C  41   0.00796     0.01455     0.06918    -0.00279    -0.02667    -0.00630
 PZ  C  41   0.01975    -0.02204    -0.08646     0.00291     0.02313     0.02384
  
  S  C  42   0.11535     0.04224     0.25439    -0.01161    -0.11999     0.01859
 PX  C  42   0.02434    -0.01983    -0.07919     0.00292     0.02585     0.02381
 PY  C  42   0.00158    -0.00422    -0.02070     0.00090     0.00897     0.00434
 PZ  C  42   0.05294    -0.02902    -0.10216     0.00329     0.02568     0.04012
  
  S  S  43   0.01051     0.04867     0.19783    -0.00690    -0.06052    -0.01790
 PX  S  43   0.00843    -0.02821    -0.10980     0.00369     0.03095     0.01833
 PY  S  43  -0.00794    -0.01726    -0.08318     0.00336     0.03161     0.00863
 PZ  S  43   0.04181    -0.00413     0.02479    -0.00231    -0.02948     0.01343
  
  S  C  44   0.30166    -0.03990    -0.03429    -0.00163    -0.03383     0.11888
 PX  C  44   0.05311    -0.01822    -0.06103     0.00215     0.01930     0.02207
 PY  C  44   0.02451    -0.00547    -0.01368     0.00033     0.00174     0.01550
 PZ  C  44   0.08391    -0.02966    -0.10082     0.00360     0.03293     0.02990
  
  S  C  45   0.30844    -0.05822    -0.12138     0.00220     0.00575     0.12364
 PX  C  45  -0.01556    -0.00002    -0.00903     0.00060     0.00754    -0.00931
 PY  C  45  -0.11448     0.02213     0.04761    -0.00094    -0.00368    -0.04104
 PZ  C  45   0.05568    -0.01649    -0.05258     0.00185     0.01712     0.01263
  
  S  C  46   0.32004    -0.07023    -0.17801     0.00491     0.03759     0.06897
 PX  C  46  -0.06813     0.01402     0.03255    -0.00074    -0.00397    -0.02814
 PY  C  46  -0.08972     0.02021     0.05300    -0.00157    -0.01364    -0.00232
 PZ  C  46  -0.06203     0.01148     0.02209    -0.00023     0.00273    -0.05216
  
  S  C  47   0.32316    -0.07388    -0.19823     0.00617     0.05710    -0.03539
 PX  C  47  -0.01199     0.00161     0.00079     0.00015     0.00323    -0.02255
 PY  C  47   0.05878    -0.01194    -0.02632     0.00045    -0.00063     0.05789
 PZ  C  47  -0.06650     0.01191     0.02075    -0.00001     0.00719    -0.08965
  
  S  S  48   0.23788    -0.04567    -0.09944     0.00218     0.01318     0.04020
 PX  S  48   0.05923    -0.01491    -0.04286     0.00139     0.01271     0.00307
 PY  S  48   0.13512    -0.02595    -0.05523     0.00105     0.00347     0.05081
 PZ  S  48   0.01485    -0.00909    -0.03928     0.00180     0.02099    -0.03397
  
  S  C  49   0.16487    -0.04277    -0.13320     0.00530     0.06362    -0.25388
 PX  C  49  -0.02335     0.00585     0.01755    -0.00066    -0.00729     0.00761
 PY  C  49   0.01366    -0.00206    -0.00116    -0.00028    -0.00701     0.07074
 PZ  C  49  -0.05043     0.01142     0.02972    -0.00082    -0.00558    -0.05239
  
  S  C  50   0.08465    -0.02432    -0.08385     0.00381     0.05094    -0.22837
 PX  C  50  -0.00347     0.00075     0.00179    -0.00003     0.00052    -0.05057
 PY  C  50   0.03110    -0.00809    -0.02548     0.00105     0.01338    -0.10489
 PZ  C  50  -0.03429     0.00867     0.02635    -0.00101    -0.01140     0.01141
  
  S  C  51  -0.02202     0.00361     0.00526     0.00012     0.00558    -0.12928
 PX  C  51  -0.00344     0.00058     0.00029     0.00014     0.00496    -0.17331
 PY  C  51   0.03010    -0.00870    -0.03151     0.00164     0.02622    -0.33315
 PZ  C  51  -0.03345     0.00897     0.02946    -0.00126    -0.01578     0.01515
  
  S  O  52  -0.02188     0.00350     0.00332     0.00044     0.01504    -0.45255
 PX  O  52   0.00628    -0.00111    -0.00177    -0.00005    -0.00247     0.08337
 PY  O  52   0.01322    -0.00319    -0.00939     0.00034     0.00355     0.02143
 PZ  O  52  -0.00159     0.00106     0.00566    -0.00040    -0.00742     0.12056
  
  S  O  53  -0.07836     0.02040     0.06739    -0.00316    -0.04690     0.50009
 PX  O  53  -0.01346     0.00349     0.01137    -0.00051    -0.00703     0.04858
 PY  O  53  -0.01499     0.00362     0.01098    -0.00045    -0.00609     0.05444
 PZ  O  53  -0.00885     0.00254     0.00902    -0.00044    -0.00622     0.03167
  
  S  C  54   0.05944    -0.01732    -0.06097     0.00286     0.03859    -0.08637
 PX  C  54   0.00696    -0.00184    -0.00558     0.00019     0.00177    -0.00783
 PY  C  54   0.01934    -0.00502    -0.01539     0.00058     0.00653    -0.03591
 PZ  C  54  -0.00629     0.00159     0.00505    -0.00022    -0.00317     0.02022
  
  S  N  55   0.03027    -0.00924    -0.03432     0.00174     0.02481    -0.04858
 PX  N  55   0.00973    -0.00295    -0.01084     0.00054     0.00751    -0.01300
 PY  N  55   0.01281    -0.00380    -0.01362     0.00066     0.00910    -0.02089
 PZ  N  55   0.00448    -0.00142    -0.00546     0.00028     0.00409    -0.00228
  
  S  H  56   0.06108    -0.01593    -0.04986     0.00200     0.02433    -0.11709
  
  S  H  57   0.00993    -0.04514     0.04749    -0.00068     0.10077    -0.01364
  
  S  H  58   0.00783    -0.03729     0.03967    -0.00092     0.08804    -0.01212
  
  S  H  59   0.00960    -0.04533     0.04718    -0.00111     0.10079    -0.01350
  
  S  H  60   0.01539    -0.07242     0.07061    -0.00212     0.13407    -0.01611
  
  S  H  61   0.01649    -0.07179     0.07150    -0.00168     0.13398    -0.01638
  
  S  H  62   0.02681    -0.08861     0.08429     0.00009     0.11608    -0.01236
  
  S  H  63   0.02010    -0.09346     0.07907    -0.00284     0.11676    -0.01075
  
  S  H  64   0.01630    -0.09880     0.06708    -0.00420     0.06716    -0.00016
  
  S  H  65   0.02849    -0.09071     0.07522    -0.00265     0.06338    -0.00263
  
  S  H  66  -0.05043    -0.01492     0.00159     0.00105     0.04100    -0.00135
  
  S  H  67  -0.05999     0.02107    -0.03197     0.00432     0.04930    -0.00313
  
  S  H  68  -0.04489     0.02681    -0.05664     0.00390     0.02915     0.00096
  
  S  H  69   0.03588     0.03539     0.03687     0.01966     0.03583    -0.00226
  
  S  H  70   0.02588     0.08428     0.00855    -0.01592     0.03417    -0.00803
  
  S  H  71   0.01903     0.08096    -0.00883    -0.00163    -0.00208    -0.01761
  
  S  H  72   0.00266     0.01211    -0.00163    -0.07486    -0.00155    -0.01014
  
  S  H  73   0.00590     0.00833     0.00011    -0.03061    -0.01005    -0.01077
  
  S  H  74  -0.00090    -0.01098    -0.00401    -0.01854    -0.02969    -0.01315
  
  S  H  75   0.00509     0.00041     0.00944     0.07715    -0.00196    -0.01026
  
  S  H  76   0.00499     0.00476     0.00193     0.03735    -0.01419    -0.01216
  
  S  H  77   0.00010    -0.00698    -0.00356     0.00999    -0.02845    -0.01219
  
  S  H  78   0.01137     0.02858     0.00301    -0.05947     0.02984     0.01232
  
  S  H  79   0.01130     0.02806     0.00270    -0.05992     0.02791     0.01162
  
  S  H  80   0.01206     0.03158     0.00348    -0.07245     0.03770     0.01652
  
  S  H  81   0.01185     0.02981     0.00357    -0.05818     0.03196     0.01261
  
  S  H  82   0.01239     0.03259     0.00383    -0.07298     0.03986     0.01722
  
  S  H  83   0.01185     0.02977     0.00358    -0.05817     0.03197     0.01261
  
  S  H  84   0.01207     0.03160     0.00348    -0.07256     0.03773     0.01654
  
  S  H  85   0.01131     0.02807     0.00270    -0.06009     0.02793     0.01163
  
  S  H  86   0.01137     0.02856     0.00301    -0.05953     0.02980     0.01231
  
  S  H  87   0.01219     0.02501     0.00762     0.06176     0.02651     0.01220
  
  S  H  88   0.01261     0.02588     0.00774     0.05993     0.02660     0.01168
  
  S  H  89   0.01292     0.02761     0.00878     0.07533     0.03338     0.01636
  
  S  H  90   0.01179     0.02367     0.00736     0.06474     0.02479     0.01219
  
  S  H  91   0.01278     0.02716     0.00875     0.07821     0.03318     0.01685
  
  S  H  92   0.01180     0.02366     0.00736     0.06483     0.02479     0.01220
  
  S  H  93   0.01291     0.02757     0.00877     0.07530     0.03333     0.01635
  
  S  H  94   0.01258     0.02580     0.00772     0.05991     0.02654     0.01167
  
  S  H  95   0.01217     0.02494     0.00761     0.06182     0.02646     0.01220
  
  S  H  96  -0.01712     0.02119     0.07972    -0.00227    -0.01355    -0.01671
  
  S  H  97   0.02011     0.01512     0.08239    -0.00364    -0.03672    -0.00326
  
  S  H  98   0.08537    -0.01447    -0.02540     0.00023    -0.00264     0.03818
  
  S  H  99   0.09045    -0.02053    -0.05419     0.00160     0.01352     0.00958
  
  S  H 100  -0.03510     0.00920     0.03050    -0.00142    -0.02070     0.19396




    ROOT NO.   13          14          15          16          17          18

           -39.55101   -39.09036   -37.08105   -36.27109   -35.83033   -34.31950
  
  
  S  C   1  -0.18561    -0.02794     0.23035    -0.00596    -0.12873    -0.20665
 PX  C   1  -0.05527    -0.00800     0.05230    -0.00130    -0.02293    -0.02379
 PY  C   1  -0.01091    -0.00145     0.00481     0.00002    -0.00029     0.00532
 PZ  C   1   0.00022    -0.00001     0.00042    -0.00012     0.00016    -0.00036
  
  S  C   2  -0.23204    -0.03327     0.20978    -0.00526    -0.09149    -0.10162
 PX  C   2   0.02419     0.00445    -0.06594     0.00175     0.04725     0.09102
 PY  C   2  -0.03447    -0.00432     0.00497     0.00012     0.00773     0.03101
 PZ  C   2   0.00052    -0.00005     0.00093    -0.00012    -0.00018    -0.00140
  
  S  C   3  -0.15743    -0.01943     0.02507    -0.00018     0.02730     0.10297
 PX  C   3   0.04139     0.00758    -0.09757     0.00210     0.06196     0.09573
 PY  C   3   0.06352     0.00968    -0.07049     0.00182     0.03132     0.03320
 PZ  C   3   0.00196    -0.00025     0.00372    -0.00013    -0.00163    -0.00475
  
  S  C   4   0.00139     0.00554    -0.19430     0.00454     0.13869     0.22355
 PX  C   4   0.06192     0.00861    -0.04367     0.00102     0.00936    -0.01797
 PY  C   4   0.06648     0.01067    -0.08237     0.00179     0.03306     0.01994
 PZ  C   4   0.00500    -0.00059     0.00239     0.00151    -0.00532    -0.01042
  
  S  N   5   0.19087     0.02841    -0.15514     0.00376     0.03793     0.00045
 PX  N   5   0.00518    -0.00138     0.04881     0.00043    -0.03908    -0.05643
 PY  N   5   0.03333     0.00088     0.13576    -0.00340    -0.10753    -0.15873
 PZ  N   5   0.01942    -0.00244     0.00330     0.01092    -0.02727    -0.01136
  
  S  C   6   0.08848    -0.00524     0.00425     0.03199    -0.07835    -0.04676
 PX  C   6  -0.01702    -0.00479     0.01698     0.00394    -0.01015     0.00771
 PY  C   6  -0.04244    -0.01424     0.12172     0.01171    -0.07961     0.01512
 PZ  C   6  -0.07740    -0.01341    -0.07919     0.00767     0.07181     0.07316
  
  S  C   7  -0.01188    -0.00314    -0.16592    -0.00668     0.10793    -0.09984
 PX  C   7  -0.00913    -0.00134    -0.00392    -0.00156     0.00707    -0.00719
 PY  C   7  -0.02586    -0.00950    -0.00324     0.00872     0.00006     0.01584
 PZ  C   7  -0.03054     0.00792    -0.03224    -0.03240     0.06149    -0.08953
  
  S  C   8  -0.06550     0.00456    -0.18264    -0.04550     0.17063    -0.16141
 PX  C   8  -0.00101    -0.00006     0.00716     0.00068    -0.00334     0.01369
 PY  C   8  -0.01559    -0.01063     0.03339     0.02028    -0.02910     0.10951
 PZ  C   8   0.01630     0.02257    -0.01641    -0.04275     0.03704    -0.12594
  
  S  C   9  -0.08046    -0.02138    -0.04843     0.01749     0.04401     0.15133
 PX  C   9   0.00573     0.00240     0.00321    -0.00265    -0.00088    -0.00624
 PY  C   9   0.01440     0.00074     0.04906     0.00864    -0.04204     0.05816
 PZ  C   9   0.01690     0.01538    -0.05101    -0.03182     0.05702    -0.13123
  
  S  C  10  -0.07945    -0.03485     0.11888     0.05118    -0.09507     0.28220
 PX  C  10   0.00199     0.00197    -0.01494    -0.00270     0.01228    -0.00181
 PY  C  10   0.01424     0.01023    -0.01995    -0.01555     0.02675    -0.03234
 PZ  C  10  -0.00902    -0.00159    -0.07171     0.00374     0.04548     0.03645
  
  S  C  11  -0.01801    -0.02540     0.24744     0.03435    -0.18713     0.05656
 PX  C  11  -0.01410    -0.00331    -0.00802     0.00485     0.00568     0.04173
 PY  C  11  -0.05767    -0.00683     0.01239     0.00000     0.02293     0.10944
 PZ  C  11  -0.02021    -0.01279    -0.07507     0.03105     0.01399     0.13516
  
  S  C  12  -0.11131    -0.00776     0.24650    -0.04311    -0.02798    -0.08867
 PX  C  12   0.00415    -0.00170     0.01420     0.00410    -0.01579     0.01081
 PY  C  12  -0.05713    -0.00782     0.00666    -0.00188     0.03220     0.08005
 PZ  C  12   0.09189    -0.00129     0.07522     0.02802    -0.13311    -0.02142
  
  S  C  13  -0.01794     0.01251    -0.00160    -0.03341     0.06240    -0.07126
 PX  C  13   0.00549    -0.00023     0.04197    -0.00318    -0.02256    -0.03459
 PY  C  13  -0.07959    -0.00861     0.11896    -0.01696    -0.01866    -0.05867
 PZ  C  13   0.11263     0.00710     0.08063     0.00629    -0.09913    -0.08741
  
  S  C  14  -0.07104     0.00355    -0.16842     0.00712     0.08185     0.06520
 PX  C  14  -0.01472     0.00022     0.00815    -0.00877     0.02142    -0.00548
 PY  C  14  -0.05352    -0.00260    -0.00317    -0.00628     0.02356    -0.00670
 PZ  C  14  -0.03152     0.00336     0.02628    -0.03095     0.07306    -0.01100
  
  S  C  15  -0.01794    -0.00229    -0.17789     0.05013    -0.04058     0.05469
 PX  C  15  -0.03389    -0.00086     0.01104    -0.01085     0.02912     0.00017
 PY  C  15  -0.03788    -0.00228     0.03057    -0.01190     0.02215    -0.00448
 PZ  C  15  -0.14662    -0.00219     0.01730    -0.04503     0.13867     0.01675
  
  S  C  16  -0.14559    -0.00731    -0.05001    -0.00895     0.07696     0.04808
 PX  C  16  -0.01154    -0.00042     0.01572    -0.00610     0.00978    -0.00227
 PY  C  16   0.01900     0.00039     0.04239    -0.00719    -0.00359    -0.00671
 PZ  C  16  -0.08723    -0.00283     0.05311    -0.03596     0.08636     0.00395
  
  S  C  17  -0.20027    -0.01141     0.11762    -0.05230     0.11196     0.02651
 PX  C  17   0.01676     0.00023     0.00588     0.00386    -0.01604    -0.00047
 PY  C  17   0.05761     0.00164    -0.02635     0.01644    -0.03242     0.01644
 PZ  C  17   0.02345    -0.00101     0.07161    -0.00016    -0.04702    -0.01794
  
  S  N  18   0.26921     0.00382    -0.02125     0.04639    -0.13881    -0.02004
 PX  N  18  -0.00870    -0.00050    -0.02623     0.01178    -0.02180     0.00256
 PY  N  18  -0.00919    -0.00063    -0.01748     0.00890    -0.01780     0.00091
 PZ  N  18  -0.03712    -0.00155    -0.14483     0.05813    -0.09491     0.03449
  
  S  C  19   0.02740     0.00076     0.02055     0.00722    -0.04587    -0.03529
 PX  C  19  -0.10672    -0.00213    -0.11388     0.05055    -0.10247    -0.00281
 PY  C  19  -0.05712    -0.00128    -0.06763     0.03091    -0.06344    -0.00179
 PZ  C  19   0.12150     0.00131    -0.02019     0.02755    -0.07892    -0.01317
  
  S  C  20  -0.12635    -0.00239    -0.14831     0.08393    -0.20570    -0.04732
 PX  C  20  -0.00464    -0.00010    -0.00690     0.00248    -0.00466    -0.00147
 PY  C  20  -0.00025    -0.00009    -0.00370     0.00133    -0.00209    -0.00004
 PZ  C  20   0.07485     0.00089     0.03182    -0.01184     0.02477     0.00684
  
  S  C  21  -0.14932    -0.00250    -0.15017     0.07963    -0.19094    -0.04537
 PX  C  21   0.06116     0.00087     0.02915    -0.00945     0.01444    -0.00463
 PY  C  21   0.03397     0.00047     0.01561    -0.00478     0.00673    -0.00302
 PZ  C  21  -0.02513    -0.00045    -0.02137     0.01266    -0.03234    -0.00920
  
  S  C  22  -0.10074    -0.00156    -0.07343     0.02620    -0.04208     0.01453
 PX  C  22   0.04883     0.00057    -0.00848     0.01701    -0.05891    -0.03253
 PY  C  22   0.02464     0.00027    -0.00710     0.01089    -0.03653    -0.01951
 PZ  C  22  -0.09718    -0.00140    -0.05790     0.02655    -0.06013    -0.01485
  
  S  C  23  -0.14583    -0.00176     0.01267    -0.04132     0.14712     0.07766
 PX  C  23  -0.01825    -0.00041    -0.04731     0.02700    -0.06470    -0.00906
 PY  C  23  -0.01337    -0.00027    -0.02754     0.01548    -0.03696    -0.00533
 PZ  C  23  -0.06202    -0.00068     0.00072    -0.00621     0.01826    -0.00105
  
  S  C  24  -0.08273    -0.00009     0.14223    -0.09398     0.23534     0.04079
 PX  C  24  -0.05310    -0.00094    -0.07373     0.03679    -0.08147    -0.00628
 PY  C  24  -0.02704    -0.00050    -0.04100     0.02154    -0.04952    -0.00585
 PZ  C  24   0.08328     0.00156     0.05391    -0.00727    -0.01839    -0.04141
  
  S  C  25  -0.08371    -0.00057     0.15125    -0.09538     0.23420     0.03407
 PX  C  25   0.08061     0.00181     0.07876    -0.03384     0.06451    -0.00561
 PY  C  25   0.04946     0.00109     0.04764    -0.01953     0.03533    -0.00551
 PZ  C  25   0.03999     0.00072     0.00259     0.01563    -0.06381    -0.03728
  
  S  C  26   0.02757     0.00073     0.01462     0.00836    -0.04406    -0.02659
 PX  C  26   0.14422     0.00274     0.08546    -0.03199     0.05749    -0.00158
 PY  C  26   0.08701     0.00156     0.04847    -0.01634     0.02624    -0.00321
 PZ  C  26   0.04414     0.00033    -0.09741     0.05600    -0.12755    -0.00338
  
  S  C  27  -0.12939    -0.00261    -0.15469     0.08532    -0.20388    -0.03501
 PX  C  27   0.03739     0.00079     0.01257    -0.00615     0.01581     0.00826
 PY  C  27   0.02605     0.00050     0.01127    -0.00469     0.01043     0.00381
 PZ  C  27   0.06428     0.00113     0.01421    -0.00719     0.01927     0.00996
  
  S  C  28  -0.15784    -0.00323    -0.14380     0.07911    -0.19238    -0.04484
 PX  C  28  -0.06327    -0.00114    -0.03127     0.01284    -0.02520     0.00027
 PY  C  28  -0.03587    -0.00065    -0.01809     0.00776    -0.01584    -0.00047
 PZ  C  28   0.01566     0.00027    -0.00626     0.00650    -0.01958    -0.00602
  
  S  C  29  -0.10324    -0.00210    -0.06352     0.02519    -0.04568     0.00507
 PX  C  29  -0.08035    -0.00137    -0.00914    -0.00508     0.02579     0.01665
 PY  C  29  -0.05146    -0.00089    -0.00871    -0.00093     0.00972     0.00788
 PZ  C  29  -0.06231    -0.00121    -0.05294     0.03251    -0.08598    -0.03000
  
  S  C  30  -0.14412    -0.00236     0.02685    -0.04293     0.14218     0.06163
 PX  C  30  -0.01065     0.00006     0.04127    -0.02610     0.06422     0.00833
 PY  C  30  -0.01016    -0.00004     0.02321    -0.01486     0.03655     0.00432
 PZ  C  30  -0.06698    -0.00119    -0.02131     0.00936    -0.02193    -0.00865
  
  S  C  31   0.12176     0.00203     0.02797    -0.00708     0.00789    -0.00339
 PX  C  31  -0.03425    -0.00064    -0.01012    -0.00086     0.01321     0.01730
 PY  C  31  -0.02190    -0.00042    -0.00774     0.00062     0.00474     0.00900
 PZ  C  31  -0.02557    -0.00054    -0.02750     0.01757    -0.04743    -0.01882
  
  S  C  32   0.09716     0.00171     0.04020    -0.01880     0.04355     0.01332
 PX  C  32   0.00357     0.00005     0.00354    -0.00401     0.01390     0.00929
 PY  C  32  -0.03166    -0.00056    -0.01028     0.00309    -0.00402     0.00213
 PZ  C  32   0.01528     0.00024    -0.00009     0.00192    -0.00723    -0.00435
  
  S  C  33   0.10075     0.00169     0.01025     0.00996    -0.04901    -0.04198
 PX  C  33   0.01758     0.00027    -0.00140     0.00285    -0.00937    -0.00366
 PY  C  33   0.00912     0.00013    -0.00178     0.00221    -0.00688    -0.00259
 PZ  C  33  -0.03137    -0.00058    -0.01555     0.00714    -0.01569    -0.00296
  
  S  C  34   0.09726     0.00172     0.04093    -0.01949     0.04575     0.01461
 PX  C  34  -0.02698    -0.00048    -0.00735     0.00068     0.00355     0.00658
 PY  C  34   0.01884     0.00032     0.00791    -0.00487     0.01371     0.00693
 PZ  C  34   0.01309     0.00020    -0.00073     0.00213    -0.00759    -0.00436
  
  S  C  35   0.11923     0.00156     0.03794    -0.01069     0.01484    -0.00348
 PX  C  35   0.02056     0.00028     0.00146     0.00622    -0.02725    -0.02407
 PY  C  35   0.01042     0.00014    -0.00058     0.00434    -0.01752    -0.01438
 PZ  C  35  -0.04075    -0.00064    -0.03837     0.01937    -0.04509    -0.01009
  
  S  C  36   0.09523     0.00126     0.02760    -0.00196    -0.01445    -0.02661
 PX  C  36   0.00171     0.00002    -0.00112     0.00222    -0.00844    -0.00694
 PY  C  36  -0.03265    -0.00043    -0.00993     0.00229    -0.00191     0.00201
 PZ  C  36  -0.01142    -0.00020    -0.01447     0.00818    -0.02041    -0.00600
  
  S  C  37   0.09831     0.00140     0.06471    -0.03488     0.08891     0.03619
 PX  C  37   0.02738     0.00038     0.00979    -0.00139    -0.00252    -0.00742
 PY  C  37   0.01604     0.00022     0.00565    -0.00080    -0.00143    -0.00424
 PZ  C  37   0.01758     0.00023     0.00745    -0.00429     0.01191     0.00625
  
  S  C  38   0.09518     0.00127     0.02811    -0.00244    -0.01289    -0.02559
 PX  C  38  -0.02671    -0.00035    -0.00875     0.00296    -0.00568    -0.00183
 PY  C  38   0.01778     0.00023     0.00342     0.00117    -0.00741    -0.00741
 PZ  C  38  -0.01290    -0.00021    -0.01473     0.00812    -0.01999    -0.00562
  
  S  C  39   0.00168     0.05570    -0.09801    -0.09676     0.10459    -0.25428
 PX  C  39  -0.00018    -0.00595     0.01636     0.01485    -0.01530     0.05003
 PY  C  39  -0.01227    -0.01028    -0.01105     0.00995     0.01453     0.02195
 PZ  C  39   0.03261     0.01601     0.08561     0.00666    -0.08944     0.08139
  
  S  C  40   0.03113     0.05992    -0.00703    -0.07607     0.00200    -0.14641
 PX  C  40   0.01131     0.01710     0.00913    -0.01513    -0.00946    -0.01468
 PY  C  40   0.00226     0.01006    -0.01086    -0.01567     0.01310    -0.03977
 PZ  C  40   0.01606     0.00367     0.06229     0.01913    -0.06800     0.10632
  
  S  C  41   0.04270     0.02993     0.09461     0.01341    -0.10112     0.13141
 PX  C  41   0.00785    -0.00366     0.02843     0.02403    -0.02546     0.07106
 PY  C  41   0.00901     0.00690     0.01800     0.00189    -0.01752     0.02184
 PZ  C  41  -0.01133    -0.02833     0.00506     0.04350     0.00001     0.08037
  
  S  C  42   0.03190    -0.02431     0.11618     0.10361    -0.09954     0.26466
 PX  C  42  -0.01326    -0.02852    -0.01429     0.03003     0.02542     0.00805
 PY  C  42  -0.00415    -0.00542    -0.00962     0.00277     0.01409    -0.01817
 PZ  C  42  -0.01589    -0.04744     0.00089     0.06226     0.01271     0.07415
  
  S  S  43   0.01712     0.01741     0.02293     0.00008    -0.01377     0.02078
 PX  S  43  -0.01083    -0.02029    -0.00527     0.02077     0.00511     0.02443
 PY  S  43  -0.01126    -0.00985    -0.01885     0.00132     0.01891    -0.01497
 PZ  S  43   0.00911    -0.01500     0.04604     0.04315    -0.04367     0.10502
  
  S  C  44  -0.01768    -0.13635     0.05413     0.17475    -0.00124     0.18224
 PX  C  44  -0.01163    -0.02391    -0.02322     0.00004     0.03206    -0.06971
 PY  C  44  -0.00442    -0.01973    -0.00204     0.02221     0.01361    -0.00865
 PZ  C  44  -0.01787    -0.02963    -0.03904    -0.01489     0.04641    -0.11696
  
  S  C  45  -0.03183    -0.14354    -0.00188     0.12308     0.05735    -0.01406
 PX  C  45  -0.00023     0.01043    -0.01281    -0.02787     0.00678    -0.04992
 PY  C  45   0.01107     0.04462     0.00133    -0.03311    -0.01502    -0.00108
 PZ  C  45  -0.00865    -0.01288    -0.02529    -0.02869     0.02377    -0.09400
  
  S  C  46  -0.02784    -0.08084    -0.04819    -0.03824     0.04870    -0.16494
 PX  C  46   0.00828     0.02850     0.00360    -0.02378    -0.01551     0.01248
 PY  C  46   0.00441    -0.00209     0.01439     0.04112     0.00136     0.03212
 PZ  C  46   0.01251     0.05697    -0.00380    -0.07628    -0.03084     0.00019
  
  S  C  47  -0.00698     0.06389    -0.05336    -0.18492    -0.01977    -0.10992
 PX  C  47   0.00528     0.01343    -0.00585    -0.04303    -0.01255    -0.01086
 PY  C  47  -0.01425    -0.08395    -0.01099     0.03749     0.03530    -0.06616
 PZ  C  47   0.02131     0.09610    -0.00221    -0.11150    -0.05204     0.03238
  
  S  S  48  -0.01393    -0.00821     0.00267     0.03327     0.00744     0.02324
 PX  S  48  -0.00468     0.00306    -0.01401    -0.02671     0.00601    -0.03511
 PY  S  48  -0.01301    -0.06734    -0.00471     0.02212     0.01290    -0.00062
 PZ  S  48   0.00134     0.06388    -0.02029    -0.06149     0.00104    -0.06163
  
  S  C  49   0.05194     0.22569    -0.03403    -0.32922    -0.12274     0.05248
 PX  C  49   0.00180    -0.05242     0.00260     0.03099     0.01231    -0.00844
 PY  C  49  -0.01701    -0.07782    -0.01033     0.02702     0.03070    -0.07594
 PZ  C  49   0.01867    -0.01727     0.01340     0.02601    -0.00743     0.05376
  
  S  C  50   0.04346     0.33307     0.00160    -0.21027    -0.11316     0.15355
 PX  C  50   0.01851    -0.07205    -0.00579    -0.03660    -0.01295     0.00830
 PY  C  50   0.03029    -0.03519    -0.01312    -0.09756    -0.03342     0.00693
 PZ  C  50   0.00324    -0.08822     0.00241     0.02842     0.00903     0.00752
  
  S  C  51   0.04094    -0.05196     0.00666     0.00361    -0.00904     0.03759
 PX  C  51   0.05966    -0.16508     0.00922     0.10258     0.04351    -0.04531
 PY  C  51   0.10127    -0.10440     0.01431     0.05862     0.01315     0.00849
 PZ  C  51   0.00712    -0.18143     0.00234     0.11861     0.06108    -0.08406
  
  S  O  52   0.15240    -0.36367     0.02666     0.22977     0.08795    -0.06678
 PX  O  52  -0.02820     0.06839    -0.00432    -0.03488    -0.01271     0.00744
 PY  O  52  -0.01038     0.06542    -0.00238    -0.04090    -0.01865     0.02050
 PZ  O  52  -0.03790     0.05488    -0.00508    -0.02105    -0.00421    -0.00636
  
  S  O  53  -0.14692     0.07924    -0.02540    -0.09817    -0.02090    -0.01822
 PX  O  53  -0.01224    -0.02536    -0.00293     0.00346     0.00560    -0.01407
 PY  O  53  -0.01574     0.00931    -0.00106    -0.00639    -0.00301     0.00768
 PZ  O  53  -0.00614    -0.05109    -0.00394     0.01172     0.01218    -0.03071
  
  S  C  54  -0.00349     0.50234     0.06042     0.26566     0.07120    -0.00194
 PX  C  54   0.00317    -0.03858    -0.02439    -0.19981    -0.07824     0.07058
 PY  C  54   0.01054    -0.03763    -0.02732    -0.22120    -0.08510     0.06980
 PZ  C  54  -0.00443    -0.03041    -0.01547    -0.12949    -0.05220     0.05376
  
  S  N  55  -0.00792     0.42349     0.08064     0.49164     0.16817    -0.10532
 PX  N  55  -0.00277     0.12279     0.02052     0.11718     0.03849    -0.02024
 PY  N  55  -0.00108     0.13103     0.02128     0.12083     0.03988    -0.02268
 PZ  N  55  -0.00365     0.08384     0.01467     0.08438     0.02750    -0.01274
  
  S  H  56   0.02740     0.05371    -0.01465    -0.12635    -0.04462     0.01041
  
  S  H  57  -0.07932    -0.01189     0.09801    -0.00230    -0.05606    -0.09021
  
  S  H  58  -0.07098    -0.01084     0.09571    -0.00256    -0.05601    -0.09568
  
  S  H  59  -0.07890    -0.01190     0.09875    -0.00258    -0.05557    -0.09060
  
  S  H  60  -0.09386    -0.01347     0.08314    -0.00218    -0.03503    -0.03808
  
  S  H  61  -0.09452    -0.01343     0.08215    -0.00203    -0.03487    -0.03633
  
  S  H  62  -0.06630    -0.00763     0.00606     0.00074     0.00935     0.04019
  
  S  H  63  -0.06271    -0.00800     0.01274     0.00002     0.00810     0.03407
  
  S  H  64  -0.00451     0.00096    -0.07716     0.00222     0.05636     0.08688
  
  S  H  65  -0.00970     0.00146    -0.07833     0.00128     0.05988     0.09990
  
  S  H  66   0.00289     0.00520    -0.08666    -0.01355     0.06375    -0.06903
  
  S  H  67  -0.02686    -0.00394    -0.02391    -0.00071     0.02684     0.04463
  
  S  H  68  -0.03163    -0.01160     0.05828     0.01581    -0.03748     0.11538
  
  S  H  69  -0.00449     0.00231    -0.08987     0.01382     0.01307     0.04143
  
  S  H  70  -0.03354    -0.00241    -0.02784     0.00681     0.00155     0.01774
  
  S  H  71  -0.06457    -0.00515     0.05749    -0.01641     0.02791     0.02121
  
  S  H  72  -0.03258    -0.00096    -0.06277     0.03685    -0.09005    -0.01888
  
  S  H  73  -0.03276    -0.00065    -0.05429     0.03294    -0.08488    -0.02645
  
  S  H  74  -0.03678    -0.00040     0.02509    -0.02893     0.09239     0.04436
  
  S  H  75  -0.03286    -0.00079    -0.07294     0.03865    -0.08840    -0.00896
  
  S  H  76  -0.03728    -0.00089    -0.05466     0.03373    -0.08718    -0.02540
  
  S  H  77  -0.03435    -0.00049     0.02768    -0.02836     0.08789     0.03730
  
  S  H  78   0.03537     0.00062     0.01303    -0.00564     0.01241     0.00339
  
  S  H  79   0.03348     0.00060     0.01925    -0.01165     0.03149     0.01374
  
  S  H  80   0.04774     0.00086     0.02022    -0.00862     0.01806     0.00309
  
  S  H  81   0.03587     0.00058    -0.00155     0.00779    -0.03019    -0.02137
  
  S  H  82   0.04957     0.00087     0.01106     0.00070    -0.01272    -0.01685
  
  S  H  83   0.03585     0.00058    -0.00139     0.00767    -0.02980    -0.02118
  
  S  H  84   0.04781     0.00086     0.02046    -0.00883     0.01876     0.00351
  
  S  H  85   0.03354     0.00060     0.01963    -0.01200     0.03260     0.01435
  
  S  H  86   0.03535     0.00062     0.01347    -0.00607     0.01380     0.00421
  
  S  H  87   0.03461     0.00046     0.01036    -0.00127    -0.00317    -0.00816
  
  S  H  88   0.03290     0.00041     0.00228     0.00518    -0.02250    -0.01842
  
  S  H  89   0.04676     0.00064     0.01876    -0.00424     0.00128    -0.01090
  
  S  H  90   0.03495     0.00050     0.02712    -0.01643     0.04462     0.02081
  
  S  H  91   0.04838     0.00069     0.03096    -0.01517     0.03596     0.01144
  
  S  H  92   0.03498     0.00051     0.02726    -0.01655     0.04496     0.02099
  
  S  H  93   0.04672     0.00064     0.01889    -0.00438     0.00177    -0.01054
  
[...]

   1    C        0.000000000     0.000000000     0.000000000
   2    C        1.519890265     0.000000000     0.000000000
   3    C        2.055298057     1.428564328     0.000000000
   4    C        3.591032258     1.415060578    -0.006335222
   5    N        4.143805582     2.766489495    -0.009593722
   6    C        4.415985332     3.545473671     1.135420902
   7    C        4.525486529     3.155123255     2.466209801
   8    C        4.871448290     4.138018673     3.388645003
   9    C        5.100705539     5.466623009     3.001088122
  10    C        4.985561405     5.850067990     1.674330734
  11    C        4.638769909     4.892228382     0.735746635
  12    C        4.428845872     4.952517268    -0.687082997
  13    C        4.086204584     3.640051624    -1.113041078
  14    C        3.803134051     3.350969257    -2.444470089
  15    C        3.865574311     4.420350368    -3.337559381
  16    C        4.206581932     5.724491187    -2.933318874
  17    C        4.496296732     5.988208930    -1.604534559
  18    N        3.568098090     4.185655032    -4.700268167
  19    C        4.345882999     4.594520748    -5.803442507
  20    C        5.558463508     5.273886942    -5.840550665
  21    C        6.102170013     5.533252483    -7.088407115
  22    C        5.481073808     5.130638554    -8.282202712
  23    C        4.281167014     4.431790097    -8.231741989
  24    C        3.714197352     4.159425107    -6.996513493
  25    C        2.513544392     3.457548914    -6.611947482
  26    C        2.446626667     3.487123485    -5.193467784
  27    C        1.376185693     2.920001167    -4.515095650
  28    C        0.392560664     2.299090465    -5.273768439
  29    C        0.450644525     2.240540048    -6.671181167
  30    C        1.519032050     2.833171872    -7.342719769
  31    C       -0.611516243     1.561845082    -7.496887019
  32    C       -1.254591296     2.598561151    -8.422618982
  33    C       -1.722380527     0.927956777    -6.657558188
  34    C        0.039788903     0.451066192    -8.326432467
  35    C        6.162556639     5.475964156    -9.580685760
  36    C        6.309361998     6.997393885    -9.676086935
  37    C        5.387532868     5.002092058   -10.811872470
  38    C        7.542389880     4.812604996    -9.608939382
  39    C        4.984134921     3.766541749     4.781611275
  40    C        4.120105504     2.954820759     5.460205030
  41    C        4.515593728     2.769517986     6.822671325
  42    C        5.666285530     3.448821112     7.117668800
  43    S        6.273989160     4.307122235     5.764064944
  44    C        6.334774000     3.480503066     8.377352692
  45    C        7.027615767     4.544548006     8.904348209
  46    C        7.575212934     4.233747308    10.177438540
  47    C        7.275016350     2.946425373    10.575068550
  48    S        6.348586508     2.129291434     9.406398015
  49    C        7.717899029     2.406635162    11.823036700
  50    C        7.367883735     1.208467902    12.338276390
  51    C        7.915800899     0.799321152    13.637346040
  52    O        8.684409642     1.440649783    14.340505090
  53    O        7.497296260    -0.414283674    14.050185490
  54    C        6.485903447     0.304194171    11.699381900
  55    N        5.768277471    -0.453073240    11.199250840
  56    H        8.405300772     3.053169652    12.395091630
  57    H       -0.417294245     0.506691708    -0.882195576
  58    H       -0.407899889    -1.021267012    -0.001106648
  59    H       -0.417382530     0.505028236     0.883091569
  60    H        1.902116265    -0.560661338     0.879443162
  61    H        1.902133254    -0.560809128    -0.879382573
  62    H        1.670570660     1.990147622    -0.878376800
  63    H        1.675223741     1.988272926     0.880421167
  64    H        3.991384581     0.858077753     0.871619886
  65    H        3.981706151     0.870739929    -0.898317579
  66    H        4.357998849     2.123233808     2.780554910
  67    H        5.363136064     6.213064714     3.756175638
  68    H        5.160939566     6.884140174     1.366670652
  69    H        3.563898841     2.337683979    -2.775069967
  70    H        4.223108939     6.539867931    -3.663080403
  71    H        4.765059790     6.996146871    -1.276834973
  72    H        6.072661616     5.579283370    -4.926798575
  73    H        7.055279701     6.071727108    -7.118379807
  74    H        3.754308677     4.078455544    -9.120705372
  75    H        1.295849001     2.970861991    -3.426924905
  76    H       -0.441675309     1.856531729    -4.722178137
  77    H        1.600671731     2.825320642    -8.432915172
  78    H       -1.684527100     3.437688843    -7.857309789
  79    H       -0.547623255     3.034125151    -9.141962233
  80    H       -2.069116827     2.166650603    -9.022408849
  81    H       -2.269687525     1.666399770    -6.054383481
  82    H       -2.479050933     0.434840589    -7.286942448
  83    H       -1.344979874     0.151825105    -5.976536911
  84    H       -0.699866856    -0.113565329    -8.912879290
  85    H        0.775572694     0.825855704    -9.051090854
  86    H        0.565819143    -0.275712226    -7.691194395
  87    H        5.337819782     7.505506217    -9.595902764
  88    H        6.951610520     7.421138398    -8.891888118
  89    H        6.755177477     7.309395369   -10.631976200
  90    H        4.386511893     5.451725058   -10.877936790
  91    H        5.901796489     5.271364560   -11.747137440
  92    H        5.266557709     3.909759834   -10.839556960
  93    H        8.066993537     4.993327911   -10.558628270
  94    H        8.214062586     5.175807321    -8.819045764
  95    H        7.472341259     3.722492988    -9.485223310
  96    H        3.224644977     2.503090462     5.040006326
  97    H        3.945145076     2.162613743     7.522365460
  98    H        7.145396424     5.513679822     8.425745675
  99    H        8.157901780     4.945438473    10.759995290
 100    H        7.882961605    -0.641328799    14.908754850


           Empirical Formula: C48 H45 N3 O2 S2  =   100 atoms



      MOLECULAR POINT GROUP   :   C1  


                  EIGENVALUES  
 -48.86599 -48.29429 -46.74814 -45.20163 -44.78922 -43.84826 -43.11834 -42.46662
 -41.82628 -41.04260 -40.49392 -39.63974 -39.55101 -39.09036 -37.08105 -36.27109
 -35.83033 -34.31950 -33.78277 -33.41920 -33.07619 -32.74751 -31.94397 -31.41292
 -31.29317 -31.29135 -30.76273 -30.44877 -29.95385 -29.41745 -29.23960 -29.00884
 -28.20901 -27.28635 -26.94864 -26.27583 -25.81415 -25.71481 -25.10471 -24.96285
 -24.72391 -23.99755 -23.91358 -23.72485 -23.47618 -23.22088 -22.25402 -21.94371
 -21.63171 -21.49699 -20.71909 -20.56011 -20.25701 -20.16647 -20.02244 -19.67200
 -19.43537 -18.94082 -18.88235 -18.87027 -18.78703 -18.57792 -18.26420 -18.13602
 -17.96346 -17.43229 -17.31203 -17.09850 -16.93873 -16.82812 -16.61266 -16.31100
 -16.24817 -16.12007 -16.05604 -16.02404 -15.96218 -15.93321 -15.73522 -15.71271
 -15.41780 -15.33157 -15.30260 -15.01484 -14.99776 -14.69331 -14.53509 -14.45870
 -14.34305 -14.22422 -14.11674 -13.93759 -13.93522 -13.90950 -13.87013 -13.71482
 -13.65602 -13.52694 -13.47792 -13.38568 -13.27283 -13.19582 -13.13969 -13.10172
 -13.02249 -12.98456 -12.94861 -12.92249 -12.84805 -12.74292 -12.59160 -12.47480
 -12.40427 -12.24434 -12.14178 -12.10312 -12.03861 -11.78964 -11.71335 -11.54541
 -11.42200 -11.36194 -11.19485 -10.82320 -10.75069 -10.68210 -10.11784  -9.97407
  -9.87123  -9.72823  -9.12575  -8.77257  -8.67186  -7.88656  -7.72233  -7.65712
  -7.27558  -6.94132  -1.35551  -0.21221   0.18907   0.31902   0.67510   0.73423
   0.79836   1.04289   1.06309   1.25719   1.53542   1.54627   1.62420   2.01862
   2.10658   2.24784   2.42959   2.49083   2.65533   2.72561   2.75414   2.76177
   2.95625   2.96610   3.06561   3.09326   3.14537   3.34465   3.36947   3.44299
   3.47563   3.62248   3.67517   3.75107   3.82716   3.87564   3.89570   4.16587
   4.18744   4.20566   4.22279   4.23782   4.41450   4.41802   4.46771   4.49755
   4.53067   4.63444   4.68803   5.06822   5.09918   5.22981   5.31846   5.33826
   5.39529   5.59164   5.66626   5.74548   5.90104   6.23595   6.32842   6.39994
   6.44274   6.48961   6.58766   6.64254   6.64823   6.66014   6.66611   6.71124
   6.81050   6.83775   6.85780   6.86940   6.90368   6.91224   6.99973   7.05455
   7.14211   7.15837   7.18092   7.18441   7.37267   7.38256   7.38792   7.77899
   8.21205   8.48212   8.50735   8.66084   8.70325   8.96543   9.04425   9.14177
   9.21232   9.22174   9.36893   9.68471   9.75746   9.81281   9.99786  10.00474
  10.02786  10.22539  10.40082  10.43071  10.58943  10.87718  11.02699  11.07137
  11.21733  11.45170  12.01992  12.03028  12.18428  12.49415  12.59363  12.80224
  12.87789  13.02438  13.11253  13.59541  13.72030  14.31972  14.37838  15.15288
  15.45427


              NET ATOMIC CHARGES AND DIPOLE CONTRIBUTIONS

  ATOM NO.   TYPE          CHARGE      No. of ELECS.   s-Pop       p-Pop       
    1          C          -0.027060        4.0271     1.05453     2.97253
    2          C          -0.006596        4.0066     1.04347     2.96313
    3          C          -0.001440        4.0014     1.05102     2.95042
    4          C           0.073733        3.9263     1.04900     2.87726
    5          N          -0.158070        5.1581     1.25523     3.90284
    6          C           0.077251        3.9227     1.05491     2.86783
    7          C          -0.048887        4.0489     1.07785     2.97104
    8          C           0.029373        3.9706     1.04151     2.92912
    9          C          -0.048521        4.0485     1.07854     2.96998
   10          C          -0.019692        4.0197     1.08124     2.93845
   11          C          -0.018730        4.0187     1.04711     2.97162
   12          C          -0.026504        4.0265     1.04552     2.98099
   13          C           0.080386        3.9196     1.05391     2.86571
   14          C          -0.057186        4.0572     1.07625     2.98093
   15          C           0.097765        3.9022     1.04252     2.85972
   16          C          -0.055636        4.0556     1.07794     2.97770
   17          C          -0.016364        4.0164     1.08106     2.93530
   18          N          -0.136159        5.1362     1.22822     3.90794
   19          C           0.066090        3.9339     1.04826     2.88565
   20          C          -0.042973        4.0430     1.07969     2.96328
   21          C          -0.040857        4.0409     1.08350     2.95736
   22          C           0.010399        3.9896     1.05959     2.93001
   23          C          -0.043394        4.0434     1.08011     2.96329
   24          C          -0.019610        4.0196     1.05179     2.96782
   25          C          -0.017715        4.0177     1.05166     2.96606
   26          C           0.065560        3.9344     1.04838     2.88606
   27          C          -0.044815        4.0448     1.08009     2.96472
   28          C          -0.046097        4.0461     1.08166     2.96444
   29          C           0.009997        3.9900     1.05956     2.93044
   30          C          -0.039752        4.0398     1.08155     2.95820
   31          C           0.040026        3.9600     0.99638     2.96359
   32          C          -0.018435        4.0184     1.06203     2.95641
   33          C          -0.021511        4.0215     1.06289     2.95862
   34          C          -0.018764        4.0188     1.06225     2.95652
   35          C           0.040044        3.9600     0.99629     2.96367
   36          C          -0.018688        4.0187     1.06210     2.95659
   37          C          -0.021719        4.0217     1.06287     2.95885
   38          C          -0.018503        4.0185     1.06195     2.95656
   39          C           0.048802        3.9512     1.08387     2.86732
   40          C          -0.054174        4.0542     1.08407     2.97011
   41          C          -0.021625        4.0216     1.09029     2.93134
   42          C           0.023825        3.9762     1.06615     2.91002
   43          S          -0.048477        6.0485     1.77216     4.27632
   44          C           0.086474        3.9135     1.07923     2.83429
   45          C          -0.049621        4.0496     1.08176     2.96786
   46          C           0.039669        3.9603     1.10112     2.85921
   47          C          -0.005672        4.0057     1.05921     2.94647
   48          S          -0.025910        6.0259     1.76732     4.25859
   49          C           0.122109        3.8779     1.09457     2.78332
   50          C           0.001049        3.9990     0.99994     2.99901
   51          C           0.494910        3.5051     1.04528     2.45981
   52          O          -0.615492        6.6155     1.81689     4.79860
   53          O          -0.311521        6.3115     1.68768     4.62384
   54          C           0.216901        3.7831     1.14975     2.63335
   55          N          -0.400117        5.4001     1.75365     3.64647
   56          H           0.059306        0.9407     0.94069
   57          H           0.008059        0.9919     0.99194
   58          H           0.001321        0.9987     0.99868
   59          H           0.008416        0.9916     0.99158
   60          H           0.009003        0.9910     0.99100
   61          H           0.008358        0.9916     0.99164
   62          H           0.012032        0.9880     0.98797
   63          H           0.012334        0.9877     0.98767
   64          H           0.021605        0.9784     0.97840
   65          H           0.020374        0.9796     0.97963
   66          H           0.030452        0.9695     0.96955
   67          H           0.019293        0.9807     0.98071
   68          H           0.024560        0.9754     0.97544
   69          H           0.032806        0.9672     0.96719
   70          H           0.023563        0.9764     0.97644
   71          H           0.025680        0.9743     0.97432
   72          H           0.026602        0.9734     0.97340
   73          H           0.019946        0.9801     0.98005
   74          H           0.025474        0.9745     0.97453
   75          H           0.025529        0.9745     0.97447
   76          H           0.020729        0.9793     0.97927
   77          H           0.024141        0.9759     0.97586
   78          H           0.005325        0.9947     0.99467
   79          H           0.006828        0.9932     0.99317
   80          H           0.002380        0.9976     0.99762
   81          H           0.005204        0.9948     0.99480
   82          H           0.001757        0.9982     0.99824
   83          H           0.004856        0.9951     0.99514
   84          H           0.002317        0.9977     0.99768
   85          H           0.006836        0.9932     0.99316
   86          H           0.005026        0.9950     0.99497
   87          H           0.005243        0.9948     0.99476
   88          H           0.006602        0.9934     0.99340
   89          H           0.002470        0.9975     0.99753
   90          H           0.005222        0.9948     0.99478
   91          H           0.001953        0.9980     0.99805
   92          H           0.005283        0.9947     0.99472
   93          H           0.002521        0.9975     0.99748
   94          H           0.006793        0.9932     0.99321
   95          H           0.005270        0.9947     0.99473
   96          H           0.031995        0.9680     0.96801
   97          H           0.034887        0.9651     0.96511
   98          H           0.038473        0.9615     0.96153
   99          H           0.049203        0.9508     0.95080
  100          H           0.245895        0.7541     0.75411
 DIPOLE           X         Y         Z       TOTAL
 POINT-CHG.    -0.924     3.431    -4.884     6.040
 HYBRID        -0.230     1.026     1.601     1.916
 SUM           -1.154     4.457    -3.282     5.654


          ATOMIC ORBITAL ELECTRON POPULATIONS

     Atom    s        px        py        pz   
    1  C   1.05453   0.98938   0.98959   0.99356
    2  C   1.04347   0.99203   0.98301   0.98808
    3  C   1.05102   0.97264   0.98596   0.99181
    4  C   1.04900   0.99133   0.88722   0.99871
    5  N   1.25523   1.66356   1.12196   1.11732
    6  C   1.05491   0.98666   0.96695   0.91422
    7  C   1.07785   1.05684   0.95150   0.96270
    8  C   1.04151   0.98368   0.98775   0.95769
    9  C   1.07854   1.04306   0.96190   0.96502
   10  C   1.08124   0.99503   0.95030   0.99311
   11  C   1.04711   1.03130   0.97768   0.96264
   12  C   1.04552   1.04570   0.97389   0.96140
   13  C   1.05391   0.98118   0.96092   0.92361
   14  C   1.07625   1.07799   0.94469   0.95825
   15  C   1.04252   0.97665   0.99748   0.88558
   16  C   1.07794   1.06233   0.94767   0.96770
   17  C   1.08106   0.98869   0.95347   0.99314
   18  N   1.22822   1.26488   1.57627   1.06679
   19  C   1.04826   0.96043   0.99594   0.92928
   20  C   1.07969   0.97830   1.02310   0.96187
   21  C   1.08350   0.96468   1.00875   0.98392
   22  C   1.05959   0.98110   0.98028   0.96863
   23  C   1.08011   0.98362   1.02244   0.95722
   24  C   1.05179   0.98554   1.01067   0.97162
   25  C   1.05166   0.97635   1.00529   0.98442
   26  C   1.04838   0.92234   0.97649   0.98724
   27  C   1.08009   0.99353   1.02891   0.94228
   28  C   1.08166   0.97553   1.02164   0.96727
   29  C   1.05956   0.97565   0.97688   0.97791
   30  C   1.08155   0.99313   1.02160   0.94346
   31  C   0.99638   0.98111   0.98517   0.99732
   32  C   1.06203   0.98916   0.98530   0.98194
   33  C   1.06289   0.98361   0.98638   0.98863
   34  C   1.06225   0.98932   0.98392   0.98328
   35  C   0.99629   0.99531   0.99022   0.97814
   36  C   1.06210   0.99046   0.97464   0.99149
   37  C   1.06287   0.98818   0.98785   0.98282
   38  C   1.06195   0.97469   0.99025   0.99161
   39  C   1.08387   0.94646   0.97755   0.94331
   40  C   1.08407   0.97262   1.00936   0.98812
   41  C   1.09029   0.98764   0.96807   0.97563
   42  C   1.06615   0.99391   1.01239   0.90372
   43  S   1.77216   1.42592   1.65605   1.19434
   44  C   1.07923   0.95391   0.94700   0.93339
   45  C   1.08176   1.02624   0.94887   0.99275
   46  C   1.10112   0.91111   0.97376   0.97435
   47  C   1.05921   1.03378   0.97463   0.93805
   48  S   1.76732   1.68080   1.30299   1.27479
   49  C   1.09457   0.87391   0.95530   0.95411
   50  C   0.99994   1.06315   0.97987   0.95599
   51  C   1.04528   0.76228   0.80855   0.88897
   52  O   1.81689   1.44381   1.69807   1.65672
   53  O   1.68768   1.75148   1.41184   1.46051
   54  C   1.14975   0.90541   0.88094   0.84700
   55  N   1.75365   1.20585   1.21609   1.22453
   56  H   0.94069
   57  H   0.99194
   58  H   0.99868
   59  H   0.99158
   60  H   0.99100
   61  H   0.99164
   62  H   0.98797
   63  H   0.98767
   64  H   0.97840
   65  H   0.97963
   66  H   0.96955
   67  H   0.98071
   68  H   0.97544
   69  H   0.96719
   70  H   0.97644
   71  H   0.97432
   72  H   0.97340
   73  H   0.98005
   74  H   0.97453
   75  H   0.97447
   76  H   0.97927
   77  H   0.97586
   78  H   0.99467
   79  H   0.99317
   80  H   0.99762
   81  H   0.99480
   82  H   0.99824
   83  H   0.99514
   84  H   0.99768
   85  H   0.99316
   86  H   0.99497
   87  H   0.99476
   88  H   0.99340
   89  H   0.99753
   90  H   0.99478
   91  H   0.99805
   92  H   0.99472
   93  H   0.99748
   94  H   0.99321
   95  H   0.99473
   96  H   0.96801
   97  H   0.96511
   98  H   0.96153
   99  H   0.95080
  100  H   0.75411

 **********************
 *                    *
 * JOB ENDED NORMALLY *
 *                    *
 **********************



 TOTAL JOB TIME:           645.68 SECONDS

 == MOPAC DONE ==
