 *******************************************************************************
 ** Site#: 4824         For non-commercial use only    Version 21.013L 64BITS **
 *******************************************************************************
 ** Cite this program as: MOPAC2016, Version: 21.013L, James J. P. Stewart,   **
 ** Stewart Computational Chemistry, web: HTTP://OpenMOPAC.net. Days left:  84**
 *******************************************************************************
 **                                                                           **
 **                                MOPAC2016                                  **
 **                                                                           **
 *******************************************************************************

                              INDO CALCULATION RESULTS

 *******************************************************************************
 *  CALCULATION DONE:                                Thu Oct 21 09:30:28 2021  *
 *  INDO       - The INDO Hamiltonian to be used
 *  CIS        - C.I. USES 1 ELECTRON EXCITATIONS ONLY
 *  EPS= 37.50 - USE ANDREAS KLAMT'S COSMO IMPLICIT SOLVATION MODEL
 *  n**2 =  1.340 for COSMO-CI
 *  T=         - A TIME OF 172800.0 SECONDS REQUESTED
 *  DUMP=N     - RESTART FILE WRITTEN EVERY 7200.0 SECONDS REQUESTED
 *******************************************************************************
INDO CIS EPS=37.5 N**2=1.34
 Dye6
 Calculo de Estados Excitados
   ATOM   CHEMICAL          X               Y               Z
  NUMBER   SYMBOL      (ANGSTROMS)     (ANGSTROMS)     (ANGSTROMS)
 
     1       C          0.00000000  *   0.00000000  *   0.00000000  *
     2       C          1.52000185  *   0.00000000  *   0.00000000  *
     3       C          2.06114491  *   1.42753778  *   0.00000000  *
     4       C          3.58798794  *   1.42854485  *  -0.00000285  *
     5       C          4.12608548  *   2.85733001  *  -0.00244613  *
     6       C          5.65531800  *   2.85575599  *  -0.00007916  *
     7       C          6.16104322  *   4.24875279  *   0.00135629  *
     8       C          5.99983982  *   5.11200806  *   1.13821140  *
     9       C          6.52586822  *   6.35112126  *   0.91692807  *
    10       S          7.21753665  *   6.49274829  *  -0.64812055  *
    11       C          6.80229917  *   4.87271642  *  -1.02729536  *
    12       C          7.14480776  *   4.29799141  *  -2.30973325  *
    13       C          6.50745860  *   4.76268705  *  -3.46958284  *
    14       C          6.80121682  *   4.23475840  *  -4.71619946  *
    15       C          7.74964195  *   3.21698650  *  -4.77102374  *
    16       C          8.41198498  *   2.75136010  *  -3.60208474  *
    17       C          8.10423760  *   3.29157370  *  -2.36550184  *
    18       C          9.34309896  *   1.73242686  *  -4.01685784  *
    19       C         10.24002237  *   0.93872782  *  -3.32064110  *
    20       C         10.99905991  *   0.02189080  *  -4.03276159  *
    21       C         10.86050835  *  -0.11089278  *  -5.41819497  *
    22       C          9.97063922  *   0.66934590  *  -6.14028414  *
    23       C          9.22257358  *   1.60126278  *  -5.42683187  *
    24       N          8.24695440  *   2.51090691  *  -5.88318836  *
    25       C          7.84052813  *   2.68684032  *  -7.22749390  *
    26       C          8.80664279  *   2.87034967  *  -8.22053176  *
    27       C          8.39654706  *   3.03449486  *  -9.53679194  *
    28       C          7.04479311  *   3.03031565  *  -9.85992722  *
    29       C          6.09183863  *   2.85391844  *  -8.86370719  *
    30       C          6.47899345  *   2.67393469  *  -7.54257544  *
    31       C          6.53694479  *   7.44980779  *   1.82949076  *
    32       S          5.10865313  *   7.92653649  *   2.65219583  *
    33       C          5.93948723  *   9.19708960  *   3.45282382  *
    34       C          7.26047355  *   9.25020280  *   3.10592532  *
    35       C          7.60657909  *   8.23166783  *   2.15543018  *
    36       C          8.26045705  *  10.22605590  *   3.59879828  *
    37       C          9.29465790  *   9.51823755  *   4.47548012  *
    38       C         10.33011307  *  10.51366796  *   4.99319815  *
    39       C         11.36669642  *   9.80877756  *   5.86492327  *
    40       C         12.40170521  *  10.80239553  *   6.38665965  *
    41       C         13.43380421  *  10.09953741  *   7.25331212  *
    42       C          5.27210427  *  10.05082221  *   4.38305117  *
    43       C          5.66545757  *  10.27756555  *   5.67862325  *
    44       C          4.79526937  *  11.18790577  *   6.33800408  *
    45       C          3.77174126  *  11.61788359  *   5.51833272  *
    46       S          3.87783578  *  10.92785545  *   3.96652252  *
    47       C          2.76962224  *  12.53593972  *   5.96367524  *
    48       C          1.70239102  *  12.95614806  *   5.25120083  *
    49       C          0.76468650  *  13.90770537  *   5.86011952  *
    50       O          0.83833580  *  14.38945033  *   6.98226730  *
    51       O         -0.26349281  *  14.25242793  *   5.05859149  *
    52       C          1.41824960  *  12.53149617  *   3.93108786  *
    53       N          1.16077909  *  12.20277164  *   2.85215222  *
    54       H          2.90870041  *  12.91791399  *   6.98968399  *
    55       H         -0.41701827  *   0.50641359  *  -0.88243924  *
    56       H         -0.40930617  *  -1.02063489  *  -0.00002669  *
    57       H         -0.41710088  *   0.50639335  *   0.88241403  *
    58       H          1.90230184  *  -0.56138633  *   0.87872611  *
    59       H          1.90227997  *  -0.56129123  *  -0.87880791  *
    60       H          1.67388216  *   1.98490620  *  -0.87903699  *
    61       H          1.67330961  *   1.98495683  *   0.87875910  *
    62       H          3.97443942  *   0.87185632  *   0.87986144  *
    63       H          3.97405410  *   0.86913072  *  -0.87833306  *
    64       H          3.74833965  *   3.41455963  *  -0.88547075  *
    65       H          3.73803437  *   3.41987338  *   0.87274977  *
    66       H          6.04974663  *   2.31460779  *   0.88720307  *
    67       H          6.04740892  *   2.29040907  *  -0.87258869  *
    68       H          5.52124448  *   4.78730162  *   2.05916449  *
    69       H          5.75968692  *   5.55821916  *  -3.38761451  *
    70       H          6.31505897  *   4.61381297  *  -5.61757167  *
    71       H          8.60829412  *   2.93560435  *  -1.46329508  *
    72       H         10.33870114  *   1.03931567  *  -2.23697254  *
    73       H         11.71606190  *  -0.61268405  *  -3.50460709  *
    74       H         11.46918888  *  -0.85250196  *  -5.94529138  *
    75       H          9.85492637  *   0.54553934  *  -7.21882431  *
    76       H          9.87173808  *   2.89875785  *  -7.96940654  *
    77       H          9.14518488  *   3.17499505  * -10.32264545  *
    78       H          6.73072236  *   3.16597834  * -10.89880839  *
    79       H          5.02797152  *   2.84978430  *  -9.12054458  *
    80       H          5.72433387  *   2.51133071  *  -6.76645960  *
    81       H          8.61169648  *   8.11624843  *   1.75630949  *
    82       H          8.75086345  *  10.72194114  *   2.73261453  *
    83       H          7.77348827  *  11.05498677  *   4.15529967  *
    84       H          8.79112658  *   9.00409122  *   5.32124081  *
    85       H          9.79011593  *   8.70284706  *   3.90737066  *
    86       H         10.82641303  *  11.03041563  *   4.14461573  *
    87       H          9.83351106  *  11.32604209  *   5.56494138  *
    88       H         10.87142890  *   9.28967899  *   6.71261353  *
    89       H         11.86670131  *   8.99844404  *   5.29332322  *
    90       H         12.90179457  *  11.32291128  *   5.54258183  *
    91       H         11.90754236  *  11.61348385  *   6.96236088  *
    92       H         13.97975322  *   9.32003357  *   6.70250554  *
    93       H         14.18892860  *  10.79959035  *   7.63927274  *
    94       H         12.98099360  *   9.61117032  *   8.12824972  *
    95       H          6.52858606  *   9.81843506  *   6.15501607  *
    96       H          4.93560679  *  11.49477160  *   7.37305217  *
    97       H         -0.85389430  *  14.87943595  *   5.50094584  *
 


          CARTESIAN COORDINATES 

    NO.       ATOM           X           Y           Z

     1         C          0.0000      0.0000      0.0000
     2         C          1.5200      0.0000      0.0000
     3         C          2.0611      1.4275      0.0000
     4         C          3.5880      1.4285     -0.0000
     5         C          4.1261      2.8573     -0.0024
     6         C          5.6553      2.8558     -0.0001
     7         C          6.1610      4.2488      0.0014
     8         C          5.9998      5.1120      1.1382
     9         C          6.5259      6.3511      0.9169
    10         S          7.2175      6.4927     -0.6481
    11         C          6.8023      4.8727     -1.0273
    12         C          7.1448      4.2980     -2.3097
    13         C          6.5075      4.7627     -3.4696
    14         C          6.8012      4.2348     -4.7162
    15         C          7.7496      3.2170     -4.7710
    16         C          8.4120      2.7514     -3.6021
    17         C          8.1042      3.2916     -2.3655
    18         C          9.3431      1.7324     -4.0169
    19         C         10.2400      0.9387     -3.3206
    20         C         10.9991      0.0219     -4.0328
    21         C         10.8605     -0.1109     -5.4182
    22         C          9.9706      0.6693     -6.1403
    23         C          9.2226      1.6013     -5.4268
    24         N          8.2470      2.5109     -5.8832
    25         C          7.8405      2.6868     -7.2275
    26         C          8.8066      2.8703     -8.2205
    27         C          8.3965      3.0345     -9.5368
    28         C          7.0448      3.0303     -9.8599
    29         C          6.0918      2.8539     -8.8637
    30         C          6.4790      2.6739     -7.5426
    31         C          6.5369      7.4498      1.8295
    32         S          5.1087      7.9265      2.6522
    33         C          5.9395      9.1971      3.4528
    34         C          7.2605      9.2502      3.1059
    35         C          7.6066      8.2317      2.1554
    36         C          8.2605     10.2261      3.5988
    37         C          9.2947      9.5182      4.4755
    38         C         10.3301     10.5137      4.9932
    39         C         11.3667      9.8088      5.8649
    40         C         12.4017     10.8024      6.3867
    41         C         13.4338     10.0995      7.2533
    42         C          5.2721     10.0508      4.3831
    43         C          5.6655     10.2776      5.6786
    44         C          4.7953     11.1879      6.3380
    45         C          3.7717     11.6179      5.5183
    46         S          3.8778     10.9279      3.9665
    47         C          2.7696     12.5359      5.9637
    48         C          1.7024     12.9561      5.2512
    49         C          0.7647     13.9077      5.8601
    50         O          0.8383     14.3895      6.9823
    51         O         -0.2635     14.2524      5.0586
    52         C          1.4182     12.5315      3.9311
    53         N          1.1608     12.2028      2.8522
    54         H          2.9087     12.9179      6.9897
    55         H         -0.4170      0.5064     -0.8824
    56         H         -0.4093     -1.0206     -0.0000
    57         H         -0.4171      0.5064      0.8824
    58         H          1.9023     -0.5614      0.8787
    59         H          1.9023     -0.5613     -0.8788
    60         H          1.6739      1.9849     -0.8790
    61         H          1.6733      1.9850      0.8788
    62         H          3.9744      0.8719      0.8799
    63         H          3.9741      0.8691     -0.8783
    64         H          3.7483      3.4146     -0.8855
    65         H          3.7380      3.4199      0.8727
    66         H          6.0497      2.3146      0.8872
    67         H          6.0474      2.2904     -0.8726
    68         H          5.5212      4.7873      2.0592
    69         H          5.7597      5.5582     -3.3876
    70         H          6.3151      4.6138     -5.6176
    71         H          8.6083      2.9356     -1.4633
    72         H         10.3387      1.0393     -2.2370
    73         H         11.7161     -0.6127     -3.5046
    74         H         11.4692     -0.8525     -5.9453
    75         H          9.8549      0.5455     -7.2188
    76         H          9.8717      2.8988     -7.9694
    77         H          9.1452      3.1750    -10.3226
    78         H          6.7307      3.1660    -10.8988
    79         H          5.0280      2.8498     -9.1205
    80         H          5.7243      2.5113     -6.7665
    81         H          8.6117      8.1162      1.7563
    82         H          8.7509     10.7219      2.7326
    83         H          7.7735     11.0550      4.1553
    84         H          8.7911      9.0041      5.3212
    85         H          9.7901      8.7028      3.9074
    86         H         10.8264     11.0304      4.1446
    87         H          9.8335     11.3260      5.5649
    88         H         10.8714      9.2897      6.7126
    89         H         11.8667      8.9984      5.2933
    90         H         12.9018     11.3229      5.5426
    91         H         11.9075     11.6135      6.9624
    92         H         13.9798      9.3200      6.7025
    93         H         14.1889     10.7996      7.6393
    94         H         12.9810      9.6112      8.1282
    95         H          6.5286      9.8184      6.1550
    96         H          4.9356     11.4948      7.3731
    97         H         -0.8539     14.8794      5.5009

           Empirical Formula: C46 H44 N2 O2 S3  =    97 atoms



      MOLECULAR POINT GROUP   :   C1  


      RHF CALCULATION, NO. OF DOUBLY OCCUPIED LEVELS = 134

 WARNING: INDO only performs single-point calculations

 Summary of symmetry occupancy in each shell:

 SHELL     
    1  134
    v  122
 TOTAL 256




    ROOT NO.    1           2           3           4           5           6

           -48.62875   -46.80660   -44.69767   -44.31924   -43.79900   -42.80521
  
  
  S  C   1   0.00042     0.00001     0.02461    -0.02350     0.02137     0.06829
 PX  C   1   0.00019     0.00000     0.00974    -0.00917     0.00817     0.02498
 PY  C   1   0.00006     0.00000     0.00298    -0.00275     0.00239     0.00688
 PZ  C   1  -0.00000     0.00000    -0.00000     0.00000     0.00000     0.00001
  
  S  C   2   0.00099     0.00002     0.04690    -0.04376     0.03844     0.11455
 PX  C   2   0.00021     0.00000     0.00560    -0.00475     0.00353     0.00659
 PY  C   2   0.00032     0.00000     0.01315    -0.01198     0.01018     0.02807
 PZ  C   2  -0.00001     0.00000    -0.00001     0.00002     0.00000     0.00004
  
  S  C   3   0.00209     0.00003     0.07530    -0.06772     0.05650     0.15034
 PX  C   3   0.00075     0.00001     0.01866    -0.01578     0.01187     0.02380
 PY  C   3   0.00013     0.00000    -0.00134     0.00206    -0.00266    -0.01305
 PZ  C   3  -0.00003     0.00000    -0.00003     0.00007     0.00003     0.00018
  
  S  C   4   0.00437     0.00005     0.10989    -0.09464     0.07327     0.16482
 PX  C   4   0.00088     0.00001     0.00499    -0.00263    -0.00050    -0.01414
 PY  C   4   0.00132     0.00002     0.02529    -0.02044     0.01442     0.02382
 PZ  C   4  -0.00017     0.00000    -0.00024     0.00036     0.00008     0.00073
  
  S  C   5   0.00851     0.00010     0.15879    -0.12839     0.09179     0.16239
 PX  C   5   0.00304     0.00003     0.03477    -0.02566     0.01484     0.00875
 PY  C   5   0.00031     0.00001    -0.00363     0.00590    -0.00591    -0.02312
 PZ  C   5  -0.00063     0.00000    -0.00011     0.00085     0.00071     0.00350
  
  S  C   6   0.01590     0.00015     0.20286    -0.15754     0.10054     0.12902
 PX  C   6   0.00187     0.00000    -0.00762     0.00766    -0.01021    -0.03270
 PY  C   6   0.00376     0.00005     0.04864    -0.03367     0.02077     0.01460
 PZ  C   6  -0.00319     0.00000    -0.00672     0.00735     0.00027     0.01077
  
  S  C   7   0.02256     0.00030     0.29494    -0.20272     0.13094     0.12777
 PX  C   7   0.00261     0.00002     0.01085    -0.00536    -0.00025    -0.01553
 PY  C   7   0.00049     0.00008     0.03726    -0.01246     0.01421     0.01188
 PZ  C   7  -0.00607     0.00001    -0.01230     0.01672     0.00088     0.02666
  
  S  C   8   0.01070     0.00042     0.23408    -0.12129     0.10164     0.12847
 PX  C   8   0.00157     0.00007     0.03221    -0.01435     0.01239     0.01230
 PY  C   8  -0.00066     0.00012     0.00936     0.01647    -0.00233     0.00068
 PZ  C   8  -0.00460    -0.00005    -0.07638     0.05463    -0.03618    -0.03609
  
  S  C   9   0.00815     0.00077     0.22435    -0.05406     0.07734     0.11150
 PX  C   9  -0.00026     0.00001    -0.00717     0.00763    -0.00487    -0.00631
 PY  C   9  -0.00321     0.00017    -0.04303     0.06123    -0.03065    -0.02474
 PZ  C   9  -0.00214     0.00018    -0.01533     0.03994    -0.01546    -0.00511
  
  S  S  10   0.01195     0.00031     0.15923    -0.08069     0.05936     0.04855
 PX  S  10  -0.00232    -0.00007    -0.04461     0.02373    -0.01877    -0.01992
 PY  S  10  -0.00724    -0.00005    -0.07414     0.05483    -0.03072    -0.01537
 PZ  S  10  -0.00089     0.00016     0.04584    -0.00757     0.01874     0.03737
  
  S  C  11   0.03667     0.00025     0.26494    -0.19142     0.09442     0.01456
 PX  C  11   0.00186    -0.00003    -0.02527     0.01489    -0.01620    -0.02923
 PY  C  11  -0.00815     0.00001    -0.02170     0.02590    -0.00404     0.01644
 PZ  C  11  -0.01035     0.00009     0.04347    -0.01436     0.03313     0.08188
  
  S  C  12   0.10062     0.00011     0.21616    -0.19776     0.01816    -0.21112
 PX  C  12   0.01129    -0.00001    -0.00453    -0.00022    -0.01233    -0.02256
 PY  C  12  -0.01892     0.00001    -0.00877     0.01312     0.01035     0.03132
 PZ  C  12  -0.03329     0.00003     0.01142     0.00374     0.02801     0.08990
  
  S  C  13   0.09648     0.00005     0.14005    -0.13797     0.00051    -0.22542
 PX  C  13   0.03121     0.00001     0.03241    -0.03406    -0.00671    -0.06409
 PY  C  13  -0.03419    -0.00001    -0.03204     0.03415     0.00630     0.06691
 PZ  C  13  -0.00635     0.00002     0.02802    -0.02203     0.00655     0.00850
  
  S  C  14   0.15088     0.00002     0.08305    -0.08830     0.00475    -0.22167
 PX  C  14   0.04945    -0.00000     0.01107    -0.01357    -0.00687    -0.04062
 PY  C  14  -0.05052     0.00000    -0.00323     0.00507     0.00116     0.02894
 PZ  C  14   0.01359     0.00002     0.04860    -0.05106    -0.01969    -0.07744
  
  S  C  15   0.36576    -0.00001     0.04322    -0.05784    -0.04247    -0.19894
 PX  C  15   0.08307    -0.00001    -0.02059     0.01600    -0.03383     0.03341
 PY  C  15  -0.09036     0.00002     0.03205    -0.02851     0.02445    -0.04867
 PZ  C  15  -0.03406     0.00002     0.05712    -0.06166    -0.04392    -0.06981
  
  S  C  16   0.29694     0.00000     0.07617    -0.09447    -0.11395    -0.15652
 PX  C  16  -0.00372    -0.00001    -0.03292     0.03208    -0.01808     0.08173
 PY  C  16  -0.01596     0.00002     0.03804    -0.03640     0.02254    -0.08789
 PZ  C  16  -0.11280     0.00002     0.02953    -0.02339     0.02847    -0.01514
  
  S  C  17   0.12716     0.00006     0.14908    -0.14829    -0.03088    -0.19198
 PX  C  17  -0.01024    -0.00002    -0.04245     0.03854    -0.01195     0.04696
 PY  C  17  -0.00042     0.00002     0.03438    -0.03028     0.01417    -0.03925
 PZ  C  17  -0.05866     0.00001    -0.01329     0.02191     0.02978     0.07299
  
  S  C  18   0.29452    -0.00003    -0.01722    -0.00371    -0.19254     0.14948
 PX  C  18  -0.05893     0.00000    -0.00856     0.01061    -0.01139     0.08111
 PY  C  18   0.04345    -0.00000     0.01242    -0.01378     0.01790    -0.09195
 PZ  C  18  -0.08867     0.00001     0.02097    -0.01715     0.03025    -0.04453
  
  S  C  19   0.12015    -0.00001    -0.01724     0.00521    -0.15319     0.21080
 PX  C  19  -0.02633     0.00000    -0.00122     0.00318     0.01408     0.00223
 PY  C  19   0.01728    -0.00000     0.00359    -0.00472    -0.00281    -0.02052
 PZ  C  19  -0.05140     0.00001     0.01269    -0.00800     0.06109    -0.09567
  
  S  C  20   0.08673    -0.00001    -0.02386     0.01453    -0.13903     0.23691
 PX  C  20  -0.02980     0.00000     0.00687    -0.00393     0.03991    -0.06222
 PY  C  20   0.02695    -0.00000    -0.00577     0.00307    -0.03583     0.05402
 PZ  C  20  -0.01883     0.00000     0.00672    -0.00509     0.02595    -0.05025
  
  S  C  21   0.09043    -0.00002    -0.02848     0.02021    -0.12979     0.24152
 PX  C  21  -0.02788     0.00000     0.00781    -0.00572     0.02985    -0.05380
 PY  C  21   0.03233    -0.00001    -0.00893     0.00633    -0.03704     0.06525
 PZ  C  21   0.01674    -0.00000    -0.00368     0.00130    -0.03254     0.04747
  
  S  C  22   0.14809    -0.00002    -0.04226     0.03517    -0.10492     0.22714
 PX  C  22  -0.03067     0.00000     0.00591    -0.00632    -0.01344     0.01525
 PY  C  22   0.04247    -0.00001    -0.00880     0.00840     0.00273     0.00334
 PZ  C  22   0.04850    -0.00001    -0.01014     0.00488    -0.06710     0.09406
  
  S  C  23   0.36382    -0.00005    -0.06036     0.04481    -0.13455     0.18143
 PX  C  23  -0.08235     0.00001     0.00602    -0.00569    -0.03218     0.07590
 PY  C  23   0.09041    -0.00001    -0.00474     0.00325     0.02237    -0.07464
 PZ  C  23   0.03890    -0.00000     0.00888    -0.01673    -0.07404     0.02505
  
  S  N  24   0.48493    -0.00006    -0.07954     0.07521     0.04613    -0.01751
 PX  N  24   0.02470    -0.00000    -0.00464     0.00104    -0.03811     0.03266
 PY  N  24  -0.01016     0.00000     0.00699    -0.00554     0.02119    -0.03546
 PZ  N  24   0.08139    -0.00000     0.01530    -0.02772    -0.09676    -0.02170
  
  S  C  25   0.23475    -0.00004    -0.09363     0.12445     0.32485     0.00900
 PX  C  25   0.02455    -0.00000    -0.00253    -0.00140    -0.03616     0.01299
 PY  C  25  -0.01056     0.00000     0.00161     0.00008     0.01604    -0.00755
 PZ  C  25   0.08123    -0.00001     0.00487    -0.01829    -0.10648    -0.01790
  
  S  C  26   0.11469    -0.00002    -0.07243     0.10375     0.30329     0.03007
 PX  C  26  -0.03194     0.00001     0.02580    -0.03913    -0.12883    -0.00370
 PY  C  26  -0.00948     0.00000     0.00297    -0.00307    -0.00127    -0.00431
 PZ  C  26   0.04055    -0.00001    -0.00498     0.00158    -0.02504     0.00054
  
  S  C  27   0.05562    -0.00001    -0.05821     0.09016     0.30145     0.02332
 PX  C  27  -0.01275     0.00000     0.01574    -0.02510    -0.08858    -0.00383
 PY  C  27  -0.00418     0.00000     0.00353    -0.00522    -0.01595    -0.00192
 PZ  C  27   0.02429    -0.00000    -0.01987     0.02962     0.09293     0.00753
  
  S  C  28   0.04733    -0.00001    -0.05529     0.08721     0.30130     0.01893
 PX  C  28   0.00688    -0.00000    -0.00737     0.01130     0.03679     0.00371
 PY  C  28  -0.00297     0.00000     0.00310    -0.00479    -0.01599    -0.00110
 PZ  C  28   0.02278    -0.00000    -0.02340     0.03634     0.12284     0.00683
  
  S  C  29   0.05565    -0.00001    -0.05627     0.08813     0.30355     0.01335
 PX  C  29   0.02419    -0.00001    -0.02423     0.03747     0.12580     0.00742
 PY  C  29  -0.00075     0.00000     0.00028    -0.00027     0.00002    -0.00020
 PZ  C  29   0.01358    -0.00000    -0.00690     0.00998     0.03156    -0.00199
  
  S  C  30   0.11474    -0.00002    -0.06588     0.09698     0.30992    -0.00058
 PX  C  30   0.04944    -0.00001    -0.02434     0.03361     0.09415     0.00309
 PY  C  30   0.00195    -0.00000    -0.00212     0.00393     0.01768    -0.00197
 PZ  C  30   0.01743    -0.00000     0.01248    -0.02252    -0.08716    -0.01394
  
  S  C  31   0.00241     0.00210     0.20600     0.12912     0.01287     0.07985
 PX  C  31   0.00003     0.00016     0.01489     0.01703    -0.00179     0.00486
 PY  C  31  -0.00084     0.00069     0.02132     0.06725    -0.01745    -0.00389
 PZ  C  31  -0.00061     0.00054     0.01643     0.05002    -0.01281    -0.00279
  
  S  S  32   0.00081     0.00235     0.13419     0.12485    -0.00641     0.03266
 PX  S  32   0.00043     0.00108     0.07915     0.07472    -0.00388     0.02375
 PY  S  32  -0.00016     0.00086     0.02312     0.04094    -0.00839    -0.00463
 PZ  S  32  -0.00023     0.00042    -0.00293     0.01169    -0.00539    -0.01022
  
  S  C  33   0.00050     0.00641     0.20866     0.25405    -0.03390     0.00216
 PX  C  33   0.00013     0.00010     0.05005     0.05666    -0.00579     0.01984
 PY  C  33  -0.00011     0.00121    -0.00805     0.00314    -0.00459    -0.02223
 PZ  C  33  -0.00012     0.00129    -0.01597    -0.00643    -0.00349    -0.02607
  
  S  C  34   0.00061     0.00488     0.24603     0.29464    -0.03705     0.03895
 PX  C  34  -0.00009    -0.00084    -0.02390    -0.02304     0.00130     0.00093
 PY  C  34  -0.00016     0.00013    -0.02341    -0.01485    -0.00218    -0.01589
 PZ  C  34  -0.00010     0.00056    -0.00399     0.00613    -0.00419    -0.01287
  
  S  C  35   0.00108     0.00271     0.20328     0.19867    -0.01293     0.06093
 PX  C  35  -0.00034    -0.00080    -0.06007    -0.05452     0.00199    -0.01888
 PY  C  35  -0.00026     0.00047     0.01418     0.03677    -0.00950    -0.00388
 PZ  C  35  -0.00010     0.00068     0.03264     0.05037    -0.00899     0.00293
  
  S  C  36   0.00025     0.00355     0.16894     0.22562    -0.03551     0.01965
 PX  C  36  -0.00004    -0.00078    -0.01652    -0.01837     0.00190     0.00435
 PY  C  36  -0.00008    -0.00060    -0.03812    -0.04740     0.00641    -0.00772
 PZ  C  36  -0.00002     0.00025     0.00281     0.00808    -0.00258    -0.00275
  
  S  C  37   0.00016     0.00232     0.13397     0.18723    -0.03190     0.02384
 PX  C  37  -0.00004    -0.00056    -0.01860    -0.02208     0.00263     0.00104
 PY  C  37   0.00001     0.00030     0.01607     0.02443    -0.00471     0.00229
 PZ  C  37  -0.00004    -0.00027    -0.01577    -0.01865     0.00218    -0.00242
  
  S  C  38   0.00007     0.00133     0.09251     0.13745    -0.02584     0.02252
 PX  C  38  -0.00002    -0.00032    -0.01307    -0.01694     0.00245     0.00008
 PY  C  38  -0.00002    -0.00023    -0.01664    -0.02420     0.00440    -0.00400
 PZ  C  38  -0.00001    -0.00012    -0.00535    -0.00612     0.00061     0.00021
  
  S  C  39   0.00004     0.00074     0.06329     0.09824    -0.01976     0.02057
 PX  C  39  -0.00001    -0.00018    -0.01023    -0.01435     0.00242    -0.00134
 PY  C  39   0.00000     0.00009     0.00820     0.01313    -0.00276     0.00298
 PZ  C  39  -0.00001    -0.00013    -0.00879    -0.01260     0.00222    -0.00173
  
  S  C  40   0.00002     0.00039     0.03933     0.06333    -0.01344     0.01559
 PX  C  40  -0.00000    -0.00010    -0.00837    -0.01282     0.00252    -0.00238
 PY  C  40  -0.00000    -0.00007    -0.00744    -0.01194     0.00252    -0.00293
 PZ  C  40  -0.00000    -0.00006    -0.00433    -0.00651     0.00124    -0.00111
  
  S  C  41   0.00001     0.00018     0.02063     0.03399    -0.00746     0.00930
 PX  C  41  -0.00000    -0.00006    -0.00672    -0.01088     0.00233    -0.00274
 PY  C  41   0.00000     0.00001     0.00160     0.00267    -0.00059     0.00075
 PZ  C  41  -0.00000    -0.00005    -0.00503    -0.00816     0.00175    -0.00209
  
  S  C  42   0.00017     0.01497     0.15551     0.22679    -0.04391    -0.10435
 PX  C  42   0.00005    -0.00188     0.02136     0.02361    -0.00193     0.01702
 PY  C  42  -0.00004     0.00338    -0.00221     0.00527    -0.00384    -0.02804
 PZ  C  42  -0.00003     0.00431     0.00699     0.02030    -0.00729    -0.03939
  
  S  C  43   0.00009     0.01570     0.12201     0.18883    -0.04017    -0.11845
 PX  C  43  -0.00000    -0.00569    -0.02063    -0.03671     0.00947     0.04253
 PY  C  43  -0.00001     0.00331     0.00705     0.01487    -0.00450    -0.02352
 PZ  C  43  -0.00004    -0.00261    -0.03561    -0.05139     0.00968     0.01941
  
  S  C  44   0.00004     0.02419     0.09170     0.15104    -0.03532    -0.13097
 PX  C  44   0.00000    -0.00611    -0.00151    -0.00411     0.00154     0.01106
 PY  C  44  -0.00001     0.00170    -0.01296    -0.02008     0.00424     0.01167
 PZ  C  44  -0.00002    -0.00702    -0.03762    -0.06112     0.01399     0.04937
  
  S  C  45   0.00004     0.04648     0.08413     0.14099    -0.03387    -0.13462
 PX  C  45   0.00001    -0.01014     0.02458     0.03934    -0.00876    -0.02810
 PY  C  45  -0.00001     0.00791    -0.01848    -0.02938     0.00647     0.02025
 PZ  C  45  -0.00000     0.00186    -0.00160    -0.00182     0.00014    -0.00172
  
  S  S  46   0.00005     0.02181     0.07763     0.12303    -0.02729    -0.09309
 PX  S  46   0.00003    -0.00066     0.03246     0.04917    -0.01010    -0.02771
 PY  S  46  -0.00001     0.00473    -0.00973    -0.01280     0.00195     0.00010
 PZ  S  46   0.00001     0.01124     0.03390     0.05682    -0.01360    -0.05263
  
  S  C  47   0.00001     0.11169     0.03319     0.05898    -0.01537    -0.07266
 PX  C  47   0.00000    -0.04140     0.01025     0.01678    -0.00389    -0.01386
 PY  C  47  -0.00000     0.02278    -0.00973    -0.01629     0.00391     0.01540
 PZ  C  47  -0.00000    -0.01379    -0.00506    -0.00902     0.00237     0.01141
  
  S  C  48   0.00001     0.22430     0.01244     0.02434    -0.00704    -0.03927
 PX  C  48   0.00000    -0.05878     0.00828     0.01427    -0.00362    -0.01669
 PY  C  48  -0.00000     0.05557    -0.00582    -0.00991     0.00248     0.01122
 PZ  C  48   0.00000     0.02983     0.00010     0.00042    -0.00018    -0.00134
  
  S  C  49   0.00000     0.51365    -0.01067    -0.01507     0.00293     0.00763
 PX  C  49  -0.00000    -0.11029     0.00740     0.01278    -0.00332    -0.01696
 PY  C  49   0.00000     0.08557    -0.00534    -0.00909     0.00232     0.01129
 PZ  C  49   0.00000     0.01621    -0.00022    -0.00012    -0.00007    -0.00149
  
  S  O  50   0.00000     0.41340    -0.00979    -0.01417     0.00284     0.00761
 PX  O  50  -0.00000    -0.03179     0.00198     0.00339    -0.00088    -0.00440
 PY  O  50  -0.00000    -0.05572     0.00060     0.00055     0.00000     0.00115
 PZ  O  50  -0.00000    -0.16436     0.00420     0.00622    -0.00130    -0.00413
  
  S  O  51   0.00000     0.57371    -0.01998    -0.03203     0.00762     0.03415
 PX  O  51   0.00000     0.08531    -0.00213    -0.00314     0.00066     0.00215
 PY  O  51  -0.00000     0.01028    -0.00101    -0.00180     0.00049     0.00270
 PZ  O  51   0.00000     0.14849    -0.00527    -0.00846     0.00201     0.00888
  
  S  C  52   0.00000     0.11172     0.00870     0.01688    -0.00488    -0.02775
 PX  C  52   0.00000    -0.00958     0.00332     0.00582    -0.00151    -0.00706
 PY  C  52   0.00000     0.02830    -0.00129    -0.00211     0.00051     0.00225
 PZ  C  52   0.00000     0.04549     0.00223     0.00425    -0.00117    -0.00578
  
  S  N  53   0.00000     0.03915     0.00402     0.00794    -0.00237    -0.01448
 PX  N  53   0.00000     0.00156     0.00097     0.00183    -0.00052    -0.00293
 PY  N  53   0.00000     0.00961     0.00028     0.00061    -0.00020    -0.00134
 PZ  N  53   0.00000     0.02262     0.00206     0.00407    -0.00120    -0.00721
  
  S  H  54   0.00000     0.05202     0.01214     0.02168    -0.00568    -0.02704
  
  S  H  55   0.00018     0.00000     0.01062    -0.01012     0.00919     0.02926
  
  S  H  56   0.00013     0.00000     0.00821    -0.00791     0.00727     0.02381
  
  S  H  57   0.00018     0.00000     0.01061    -0.01012     0.00919     0.02927
  
  S  H  58   0.00043     0.00001     0.01988    -0.01850     0.01618     0.04784
  
  S  H  59   0.00044     0.00001     0.01990    -0.01852     0.01618     0.04779
  
  S  H  60   0.00094     0.00001     0.03221    -0.02887     0.02395     0.06310
  
  S  H  61   0.00089     0.00001     0.03218    -0.02878     0.02399     0.06334
  
  S  H  62   0.00184     0.00002     0.04638    -0.03985     0.03086     0.06929
  
  S  H  63   0.00211     0.00002     0.04677    -0.04037     0.03075     0.06828
  
  S  H  64   0.00419     0.00004     0.06919    -0.05584     0.03910     0.06673
  
  S  H  65   0.00334     0.00005     0.06965    -0.05487     0.04027     0.07183
  
  S  H  66   0.00548     0.00006     0.07834    -0.06052     0.04005     0.05573
  
  S  H  67   0.01152     0.00006     0.08919    -0.07207     0.03941     0.04004
  
  S  H  68   0.00304     0.00016     0.07465    -0.03564     0.03243     0.04599
  
  S  H  69   0.02329     0.00002     0.04736    -0.04417     0.00581    -0.06090
  
  S  H  70   0.05061     0.00000     0.01552    -0.01549     0.01888    -0.06103
  
  S  H  71   0.03563     0.00003     0.05369    -0.05057    -0.00731    -0.04244
  
  S  H  72   0.03272    -0.00000    -0.00091    -0.00251    -0.04316     0.05208
  
  S  H  73   0.01974    -0.00000    -0.00596     0.00360    -0.03718     0.06569
  
  S  H  74   0.02086    -0.00000    -0.00761     0.00566    -0.03366     0.06736
  
  S  H  75   0.04992    -0.00001    -0.01694     0.01682    -0.01045     0.06281
  
  S  H  76   0.04824    -0.00001    -0.02372     0.03176     0.07872     0.01575
  
  S  H  77   0.01343    -0.00000    -0.01524     0.02378     0.08011     0.00708
  
  S  H  78   0.01081    -0.00000    -0.01425     0.02280     0.08032     0.00525
  
  S  H  79   0.01344    -0.00000    -0.01445     0.02296     0.08097     0.00302
  
  S  H  80   0.04828    -0.00001    -0.01800     0.02592     0.08431    -0.00937
  
  S  H  81   0.00044     0.00081     0.06592     0.06137    -0.00324     0.02103
  
  S  H  82   0.00010     0.00124     0.06522     0.08685    -0.01358     0.00972
  
  S  H  83   0.00009     0.00211     0.07297     0.10000    -0.01661     0.00101
  
  S  H  84   0.00007     0.00115     0.05906     0.08236    -0.01402     0.00876
  
  S  H  85   0.00008     0.00093     0.05874     0.08035    -0.01323     0.01204
  
  S  H  86   0.00003     0.00055     0.03897     0.05778    -0.01083     0.00964
  
  S  H  87   0.00003     0.00061     0.03942     0.05863    -0.01105     0.00890
  
  S  H  88   0.00002     0.00033     0.02712     0.04195    -0.00840     0.00858
  
  S  H  89   0.00002     0.00032     0.02705     0.04178    -0.00835     0.00877
  
  S  H  90   0.00001     0.00017     0.01668     0.02677    -0.00566     0.00653
  
  S  H  91   0.00001     0.00017     0.01669     0.02680    -0.00567     0.00648
  
  S  H  92   0.00000     0.00008     0.00890     0.01464    -0.00321     0.00399
  
  S  H  93   0.00000     0.00006     0.00688     0.01143    -0.00254     0.00324
  
  S  H  94   0.00000     0.00008     0.00890     0.01464    -0.00321     0.00398
  
  S  H  95   0.00004     0.00413     0.04523     0.06736    -0.01340    -0.03071
  
  S  H  96   0.00001     0.00862     0.02448     0.04081    -0.00971    -0.03741
  
  S  H  97   0.00000     0.24182    -0.00874    -0.01410     0.00338     0.01536




    ROOT NO.    7           8           9          10          11          12

           -42.65827   -42.04668   -41.68564   -41.09164   -39.69424   -39.15841
  
  
  S  C   1   0.04814     0.15900    -0.11377    -0.08542    -0.02136     0.05278
 PX  C   1   0.01749     0.05598    -0.03926    -0.02845    -0.00643     0.01518
 PY  C   1   0.00476     0.01457    -0.00993    -0.00680    -0.00130     0.00282
 PZ  C   1   0.00000    -0.00001    -0.00000     0.00002     0.00000    -0.00000
  
  S  C   2   0.07990     0.25172    -0.17486    -0.12482    -0.02723     0.06345
 PX  C   2   0.00417     0.00708    -0.00220     0.00178     0.00249    -0.00805
 PY  C   2   0.01931     0.05725    -0.03820    -0.02522    -0.00427     0.00862
 PZ  C   2   0.00001    -0.00002    -0.00001     0.00007     0.00000     0.00000
  
  S  C   3   0.10285     0.29813    -0.19632    -0.12669    -0.02042     0.04050
 PX  C   3   0.01539     0.03238    -0.01578    -0.00329     0.00354    -0.01221
 PY  C   3  -0.00970    -0.03745     0.02865     0.02382     0.00666    -0.01678
 PZ  C   3   0.00003    -0.00007    -0.00005     0.00028     0.00000     0.00001
  
  S  C   4   0.10984     0.27666    -0.16375    -0.08541    -0.00253    -0.00771
 PX  C   4  -0.01069    -0.04684     0.03778     0.03083     0.00838    -0.01985
 PY  C   4   0.01466     0.02261    -0.00681     0.00530     0.00527    -0.01517
 PZ  C   4   0.00013    -0.00020    -0.00026     0.00105     0.00000     0.00004
  
  S  C   5   0.10182     0.19111    -0.08629    -0.00851     0.01691    -0.05117
 PX  C   5   0.00323    -0.02411     0.02829     0.02983     0.00838    -0.01826
 PY  C   5  -0.01758    -0.05845     0.03834     0.02816     0.00234    -0.00136
 PZ  C   5   0.00082    -0.00055    -0.00107     0.00436     0.00007     0.00003
  
  S  C   6   0.07725     0.07683     0.00653     0.05253     0.02718    -0.06593
 PX  C   6  -0.02022    -0.05139     0.03294     0.00876    -0.00173     0.00861
 PY  C   6   0.00412    -0.03108     0.03075     0.03683     0.00556    -0.00803
 PZ  C   6   0.00228     0.00000    -0.00588     0.01302    -0.00006     0.00055
  
  S  C   7   0.04976    -0.09430     0.11046     0.17390     0.02499    -0.03774
 PX  C   7  -0.01082    -0.03400     0.02221     0.00694    -0.00237     0.00961
 PY  C   7  -0.01066    -0.07537     0.03427     0.06376    -0.00449     0.02134
 PZ  C   7   0.00458    -0.00287    -0.01520     0.03283    -0.00115     0.00350
  
  S  C   8   0.02067    -0.14368     0.06959     0.19850     0.00351     0.01073
 PX  C   8  -0.00240    -0.03445     0.01607     0.03173    -0.00137     0.00735
 PY  C   8  -0.01640    -0.04378    -0.00489     0.01548    -0.01111     0.02610
 PZ  C   8  -0.01267     0.03964    -0.04076    -0.06554    -0.00731     0.00732
  
  S  C   9  -0.02061    -0.19314     0.02051     0.16630    -0.02305     0.06018
 PX  C   9  -0.00381     0.00334    -0.00451    -0.01115    -0.00153     0.00161
 PY  C   9  -0.02224     0.01925    -0.05680    -0.06821    -0.01416     0.01738
 PZ  C   9  -0.01490     0.00307    -0.04183    -0.03300    -0.01101     0.01494
  
  S  S  10  -0.00428    -0.11846     0.06209     0.10252    -0.00362     0.02133
 PX  S  10  -0.00157     0.03415    -0.01825    -0.03847     0.00002    -0.00481
 PY  S  10  -0.00519     0.04489    -0.04661    -0.04578    -0.00497     0.00199
 PZ  S  10  -0.00222    -0.04711     0.00233     0.05551    -0.00529     0.01499
  
  S  C  11   0.00784    -0.11660     0.13683     0.07005     0.01296    -0.01143
 PX  C  11  -0.00975     0.00903    -0.00605    -0.03650    -0.00363     0.00556
 PY  C  11  -0.00339    -0.02033    -0.00840     0.03405    -0.00439     0.01336
 PZ  C  11   0.01869    -0.04501     0.01225     0.11580     0.00479    -0.00118
  
  S  C  12  -0.04800    -0.02445     0.11387    -0.20649    -0.00218     0.00052
 PX  C  12  -0.00700     0.00506    -0.00241    -0.02429    -0.00236     0.00351
 PY  C  12   0.00683    -0.01299     0.00179     0.03661     0.00148     0.00002
 PZ  C  12   0.02608    -0.02517     0.01366     0.08923     0.00850    -0.01226
  
  S  C  13  -0.05666     0.00341     0.06456    -0.21190    -0.00914     0.01235
 PX  C  13  -0.01665     0.00411     0.01209    -0.05731    -0.00299     0.00404
 PY  C  13   0.01704    -0.00778    -0.00888     0.05924     0.00310    -0.00372
 PZ  C  13   0.00420    -0.01290     0.02301    -0.00099     0.00278    -0.00456
  
  S  C  14  -0.05935     0.02887     0.00177    -0.14292    -0.01009     0.01464
 PX  C  14  -0.01153     0.00953    -0.01206    -0.00648    -0.00130     0.00194
 PY  C  14   0.00850    -0.01004     0.01765    -0.01029     0.00045    -0.00070
 PZ  C  14  -0.01940     0.00140     0.02841    -0.09571    -0.00452     0.00597
  
  S  C  15  -0.05809     0.05608    -0.09012     0.02262    -0.00482     0.00800
 PX  C  15   0.00695     0.00637    -0.03324     0.07470     0.00286    -0.00363
 PY  C  15  -0.01069    -0.00740     0.04355    -0.10406    -0.00430     0.00562
 PZ  C  15  -0.01646    -0.00563     0.05338    -0.14595    -0.00675     0.00888
  
  S  C  16  -0.04318     0.02698    -0.00745    -0.10529    -0.00809     0.01124
 PX  C  16   0.02128    -0.01085     0.00045     0.04314     0.00250    -0.00314
 PY  C  16  -0.02258     0.00800     0.00920    -0.06198    -0.00320     0.00413
 PZ  C  16  -0.00057    -0.01546     0.05475    -0.09418    -0.00207     0.00163
  
  S  C  17  -0.04574     0.00070     0.07278    -0.20437    -0.00631     0.00587
 PX  C  17   0.01024     0.00060    -0.01873     0.03979     0.00002     0.00118
 PY  C  17  -0.00924    -0.00496     0.01912    -0.03220    -0.00015    -0.00006
 PZ  C  17   0.02102    -0.01391     0.00569     0.06001     0.00567    -0.00868
  
  S  C  18   0.04026    -0.03590     0.06981    -0.07750    -0.00248     0.00354
 PX  C  18   0.02441    -0.03084     0.06575    -0.07019    -0.00073     0.00048
 PY  C  18  -0.02720     0.03190    -0.06507     0.06341     0.00032     0.00010
 PZ  C  18  -0.01068     0.00121     0.01435    -0.04821    -0.00223     0.00283
  
  S  C  19   0.06089    -0.07041     0.15228    -0.17956    -0.00397     0.00474
 PX  C  19   0.00096    -0.00215     0.00449    -0.00343     0.00017    -0.00030
 PY  C  19  -0.00618     0.00773    -0.01573     0.01483    -0.00001     0.00016
 PZ  C  19  -0.02722     0.02907    -0.05820     0.05907     0.00084    -0.00089
  
  S  C  20   0.06880    -0.08013     0.17053    -0.19219    -0.00348     0.00382
 PX  C  20  -0.01787     0.01987    -0.04118     0.04448     0.00075    -0.00081
 PY  C  20   0.01551    -0.01726     0.03593    -0.03933    -0.00071     0.00081
 PZ  C  20  -0.01446     0.01597    -0.03213     0.03183     0.00027    -0.00013
  
  S  C  21   0.06995    -0.07974     0.16573    -0.17671    -0.00243     0.00220
 PX  C  21  -0.01535     0.01623    -0.03182     0.02989     0.00019    -0.00002
 PY  C  21   0.01867    -0.02008     0.04003    -0.03931    -0.00038     0.00025
 PZ  C  21   0.01377    -0.01626     0.03535    -0.04211    -0.00097     0.00121
  
  S  C  22   0.06445    -0.06514     0.12144    -0.09838     0.00060    -0.00190
 PX  C  22   0.00518    -0.01030     0.02838    -0.04515    -0.00148     0.00190
 PY  C  22   0.00010     0.00479    -0.01763     0.03497     0.00139    -0.00184
 PZ  C  22   0.02677    -0.02884     0.05847    -0.06094    -0.00094     0.00101
  
  S  C  23   0.04685    -0.02527     0.01334     0.06114     0.00441    -0.00602
 PX  C  23   0.02392    -0.03683     0.08996    -0.12162    -0.00290     0.00332
 PY  C  23  -0.02365     0.03636    -0.08809     0.11646     0.00252    -0.00273
 PZ  C  23   0.00682    -0.00906     0.02556    -0.04832    -0.00254     0.00380
  
  S  N  24  -0.01279     0.05585    -0.17829     0.31488     0.01081    -0.01370
 PX  N  24   0.00844    -0.00471     0.00298     0.01064     0.00088    -0.00127
 PY  N  24  -0.00962     0.00687    -0.00774    -0.00680    -0.00105     0.00163
 PZ  N  24  -0.00831     0.01388    -0.02873     0.01958    -0.00132     0.00264
  
  S  C  25   0.00475    -0.00238    -0.01081     0.05686     0.00405    -0.00605
 PX  C  25   0.00227     0.00459    -0.02034     0.04485     0.00207    -0.00291
 PY  C  25  -0.00152    -0.00158     0.00827    -0.01951    -0.00093     0.00130
 PZ  C  25  -0.00963     0.02947    -0.08644     0.14054     0.00450    -0.00566
  
  S  C  26   0.01333    -0.02559     0.05887    -0.06228    -0.00016    -0.00059
 PX  C  26  -0.00339     0.01061    -0.02858     0.03995     0.00093    -0.00105
 PY  C  26  -0.00105    -0.00015     0.00267    -0.00836    -0.00048     0.00071
 PZ  C  26  -0.00162     0.01056    -0.03544     0.06656     0.00270    -0.00369
  
  S  C  27   0.01307    -0.03517     0.09562    -0.13978    -0.00381     0.00461
 PX  C  27  -0.00306     0.01014    -0.02904     0.04549     0.00146    -0.00190
 PY  C  27  -0.00085     0.00176    -0.00433     0.00538     0.00008    -0.00007
 PZ  C  27   0.00383    -0.00887     0.02226    -0.02801    -0.00042     0.00032
  
  S  C  28   0.01209    -0.03603     0.10112    -0.15492    -0.00476     0.00609
 PX  C  28   0.00183    -0.00438     0.01148    -0.01577    -0.00034     0.00036
 PY  C  28  -0.00064     0.00176    -0.00477     0.00690     0.00018    -0.00022
 PZ  C  28   0.00449    -0.01312     0.03605    -0.05305    -0.00145     0.00176
  
  S  C  29   0.01024    -0.03271     0.09225    -0.14127    -0.00431     0.00551
 PX  C  29   0.00470    -0.01343     0.03670    -0.05365    -0.00145     0.00175
 PY  C  29  -0.00002    -0.00022     0.00087    -0.00192    -0.00010     0.00014
 PZ  C  29  -0.00020    -0.00047     0.00100     0.00013     0.00015    -0.00027
  
  S  C  30   0.00469    -0.01833     0.04909    -0.06635    -0.00142     0.00157
 PX  C  30   0.00185    -0.00295     0.00418     0.00346     0.00072    -0.00118
 PY  C  30  -0.00012    -0.00166     0.00587    -0.01116    -0.00045     0.00062
 PZ  C  30  -0.00665     0.01737    -0.04875     0.07572     0.00236    -0.00299
  
  S  C  31  -0.09521    -0.18466    -0.15352    -0.00394    -0.06104     0.10075
 PX  C  31  -0.01441    -0.00977    -0.01496    -0.00752    -0.00703     0.00902
 PY  C  31  -0.03040    -0.00790    -0.06202    -0.05686    -0.01173     0.00962
 PZ  C  31  -0.02106    -0.00500    -0.04583    -0.04179    -0.00752     0.00528
  
  S  S  32  -0.04763    -0.10646    -0.12399    -0.03976    -0.02624     0.04270
 PX  S  32  -0.04206    -0.06534    -0.08022    -0.02802    -0.02310     0.03420
 PY  S  32  -0.00201    -0.00899    -0.02891    -0.02425     0.00320    -0.00634
 PZ  S  32   0.01092     0.01162     0.00053    -0.01047     0.00966    -0.01559
  
  S  C  33  -0.01882    -0.09244    -0.15476    -0.08837     0.01428    -0.02348
 PX  C  33  -0.05960    -0.02171    -0.04739    -0.02874    -0.01979     0.01837
 PY  C  33   0.04387     0.03140     0.03710     0.01016     0.02909    -0.04092
 PZ  C  33   0.05633     0.03469     0.04620     0.01652     0.03330    -0.04426
  
  S  C  34  -0.13994    -0.07981    -0.17316    -0.10955    -0.02576     0.01086
 PX  C  34  -0.02233     0.04864     0.05160     0.01708    -0.00017    -0.00842
 PY  C  34   0.02120     0.04700     0.05120     0.01398     0.02288    -0.03739
 PZ  C  34   0.01606     0.03283     0.03253     0.00638     0.02034    -0.03246
  
  S  C  35  -0.13092    -0.13283    -0.17579    -0.06822    -0.05854     0.07719
 PX  C  35   0.02818     0.06073     0.07063     0.02296     0.01997    -0.03182
 PY  C  35  -0.01789     0.01570    -0.01126    -0.02412     0.00251    -0.01271
 PZ  C  35  -0.02636    -0.00248    -0.02873    -0.02678    -0.00369    -0.00207
  
  S  C  36  -0.14550     0.07089    -0.00032    -0.04609     0.00422    -0.04409
 PX  C  36  -0.02560     0.04065     0.04708     0.02070    -0.00428     0.00402
 PY  C  36   0.03242     0.00273     0.01989     0.01668     0.00534    -0.00050
 PZ  C  36  -0.00775     0.03019     0.03144     0.01060     0.00688    -0.01143
  
  S  C  37  -0.18645     0.16552     0.11691     0.01096     0.00093    -0.03197
 PX  C  37  -0.01105     0.03555     0.04834     0.02638    -0.00186     0.00980
 PY  C  37  -0.02781     0.03452     0.02952     0.00692     0.00224    -0.00729
 PZ  C  37   0.00436     0.01905     0.02961     0.01748     0.00215     0.00332
  
  S  C  38  -0.19555     0.23573     0.21944     0.07131    -0.00023    -0.00527
 PX  C  38  -0.00088     0.01685     0.02835     0.01942    -0.00216     0.01488
 PY  C  38   0.03217    -0.03525    -0.03098    -0.00871     0.00034     0.00210
 PZ  C  38  -0.00572     0.01942     0.02670     0.01547    -0.00053     0.00861
  
  S  C  39  -0.18233     0.25208     0.26012     0.10564    -0.00398     0.02810
 PX  C  39   0.01060    -0.00427     0.00304     0.00709    -0.00113     0.01111
 PY  C  39  -0.02738     0.04019     0.04281     0.01835    -0.00065     0.00600
 PZ  C  39   0.01347    -0.01117    -0.00656     0.00121    -0.00037     0.00617
  
  S  C  40  -0.14118     0.21224     0.23110     0.10352    -0.00512     0.04351
 PX  C  40   0.02099    -0.02677    -0.02577    -0.00884     0.00001     0.00100
 PY  C  40   0.02636    -0.03929    -0.04261    -0.01895     0.00096    -0.00776
 PZ  C  40   0.00942    -0.01072    -0.00934    -0.00232    -0.00011     0.00219
  
  S  C  41  -0.08501     0.13392     0.15018     0.07080    -0.00405     0.03618
 PX  C  41   0.02491    -0.03778    -0.04135    -0.01866     0.00094    -0.00797
 PY  C  41  -0.00694     0.01111     0.01255     0.00598    -0.00034     0.00311
 PZ  C  41   0.01890    -0.02874    -0.03153    -0.01430     0.00074    -0.00625
  
  S  C  42   0.24537     0.00353     0.00886    -0.00935     0.11595    -0.13576
 PX  C  42  -0.05148    -0.00996    -0.02947    -0.02063    -0.00481    -0.00380
 PY  C  42   0.07182     0.01883     0.03709     0.02019     0.01901    -0.01639
 PZ  C  42   0.09914     0.02298     0.04449     0.02289     0.03484    -0.03620
  
  S  C  43   0.28391     0.03057     0.05789     0.01931     0.12085    -0.14036
 PX  C  43  -0.11108    -0.00947    -0.02922    -0.01692    -0.03106     0.02876
 PY  C  43   0.06116     0.00930     0.02242     0.01300     0.01347    -0.01158
 PZ  C  43  -0.04291    -0.00034     0.00234     0.00584    -0.02603     0.03112
  
  S  C  44   0.32830     0.03918     0.09089     0.04677     0.06664    -0.07044
 PX  C  44  -0.03065    -0.00325    -0.01168    -0.00887     0.02554    -0.03302
 PY  C  44  -0.02731    -0.00262    -0.00380     0.00032    -0.03435     0.03818
 PZ  C  44  -0.12278    -0.01362    -0.03094    -0.01469    -0.03912     0.03629
  
  S  C  45   0.34251     0.04104     0.10262     0.05938    -0.03336     0.07194
 PX  C  45   0.06826     0.00683     0.01310     0.00307     0.08148    -0.10084
 PY  C  45  -0.04903    -0.00436    -0.00827    -0.00129    -0.06548     0.07122
 PZ  C  45   0.00517     0.00153     0.00410     0.00316    -0.01540    -0.00257
  
  S  S  46   0.23281     0.01995     0.05169     0.02599     0.04037    -0.00334
 PX  S  46   0.06654     0.00299     0.00657    -0.00023     0.04782    -0.07469
 PY  S  46   0.00165     0.00450     0.00995     0.00772    -0.02720     0.04879
 PZ  S  46   0.13283     0.01614     0.03828     0.02049     0.01934    -0.00946
  
  S  C  47   0.19030     0.02600     0.07143     0.05001    -0.25036     0.22813
 PX  C  47   0.03437     0.00359     0.00760     0.00234     0.07452    -0.04189
 PY  C  47  -0.03906    -0.00454    -0.01099    -0.00566    -0.04252    -0.00914
 PZ  C  47  -0.03002    -0.00413    -0.01156    -0.00828     0.02196    -0.08277
  
  S  C  48   0.10527     0.01578     0.04611     0.03585    -0.21905     0.32962
 PX  C  48   0.04363     0.00593     0.01627     0.01142    -0.07769     0.02236
 PY  C  48  -0.02925    -0.00390    -0.01061    -0.00723     0.00992    -0.06077
 PZ  C  48   0.00370     0.00063     0.00199     0.00187    -0.09537    -0.09483
  
  S  C  49  -0.01796    -0.00133    -0.00185     0.00113    -0.13593    -0.04744
 PX  C  49   0.04526     0.00679     0.02011     0.01645    -0.24001     0.02602
 PY  C  49  -0.02987    -0.00427    -0.01224    -0.00918     0.01835    -0.12399
 PZ  C  49   0.00452     0.00111     0.00419     0.00515    -0.31886    -0.22258
  
  S  O  50  -0.01779    -0.00106    -0.00034     0.00413    -0.48938    -0.34623
 PX  O  50   0.01171     0.00174     0.00510     0.00408    -0.04806     0.01665
 PY  O  50  -0.00347    -0.00077    -0.00270    -0.00281     0.09131     0.03439
 PZ  O  50   0.01013     0.00097     0.00192     0.00016     0.12042     0.09698
  
  S  O  51  -0.08976    -0.01279    -0.03705    -0.02975     0.52497     0.06831
 PX  O  51  -0.00534    -0.00058    -0.00140    -0.00079     0.02322     0.03128
 PY  O  51  -0.00728    -0.00113    -0.00339    -0.00280     0.01962    -0.03669
 PZ  O  51  -0.02325    -0.00324    -0.00922    -0.00707     0.07573    -0.03083
  
  S  C  52   0.07472     0.01140     0.03387     0.02698    -0.06686     0.49155
 PX  C  52   0.01847     0.00252     0.00686     0.00473    -0.03582    -0.00908
 PY  C  52  -0.00587    -0.00081    -0.00228    -0.00173     0.01613    -0.01970
 PZ  C  52   0.01515     0.00202     0.00538     0.00338    -0.01927    -0.05574
  
  S  N  53   0.03946     0.00633     0.01947     0.01647    -0.03288     0.41390
 PX  N  53   0.00789     0.00121     0.00357     0.00283    -0.01149     0.04502
 PY  N  53   0.00369     0.00062     0.00194     0.00169     0.00149     0.05374
 PZ  N  53   0.01958     0.00310     0.00940     0.00778    -0.01391     0.18047
  
  S  H  54   0.07085     0.00977     0.02683     0.01888    -0.11811     0.05612
  
  S  H  55   0.02062     0.06800    -0.04862    -0.03646    -0.00911     0.02250
  
  S  H  56   0.01685     0.05655    -0.04086    -0.03119    -0.00812     0.02042
  
  S  H  57   0.02062     0.06799    -0.04862    -0.03644    -0.00910     0.02250
  
  S  H  58   0.03332     0.10443    -0.07232    -0.05135    -0.01106     0.02564
  
  S  H  59   0.03332     0.10447    -0.07231    -0.05144    -0.01106     0.02564
  
  S  H  60   0.04314     0.12442    -0.08167    -0.05253    -0.00839     0.01660
  
  S  H  61   0.04318     0.12432    -0.08173    -0.05216    -0.00838     0.01661
  
  S  H  62   0.04606     0.11555    -0.06835    -0.03526    -0.00103    -0.00320
  
  S  H  63   0.04586     0.11574    -0.06798    -0.03664    -0.00105    -0.00323
  
  S  H  64   0.04221     0.07857    -0.03445    -0.00428     0.00690    -0.02068
  
  S  H  65   0.04330     0.07735    -0.03582     0.00202     0.00694    -0.02047
  
  S  H  66   0.03256     0.03516    -0.00206     0.02208     0.01079    -0.02662
  
  S  H  67   0.02932     0.03568     0.00584     0.00320     0.01077    -0.02725
  
  S  H  68   0.00838    -0.03729     0.01222     0.05893     0.00061     0.00238
  
  S  H  69  -0.01495    -0.00401     0.02523    -0.05920    -0.00203     0.00296
  
  S  H  70  -0.01652     0.00932    -0.00474    -0.02985    -0.00259     0.00396
  
  S  H  71  -0.00850    -0.00552     0.03192    -0.05873    -0.00038    -0.00101
  
  S  H  72   0.01532    -0.01921     0.04440    -0.05788    -0.00152     0.00184
  
  S  H  73   0.01922    -0.02309     0.05014    -0.05845    -0.00115     0.00129
  
  S  H  74   0.01964    -0.02299     0.04849    -0.05288    -0.00075     0.00068
  
  S  H  75   0.01786    -0.01726     0.02979    -0.01692     0.00081    -0.00152
  
  S  H  76   0.00539    -0.00651     0.01098    -0.00237     0.00077    -0.00134
  
  S  H  77   0.00380    -0.01011     0.02767    -0.04105    -0.00117     0.00144
  
  S  H  78   0.00338    -0.01033     0.02947    -0.04642    -0.00153     0.00201
  
  S  H  79   0.00265    -0.00911     0.02628    -0.04167    -0.00138     0.00182
  
  S  H  80  -0.00165    -0.00070     0.00325    -0.00549    -0.00016     0.00021
  
  S  H  81  -0.04666    -0.03550    -0.04522    -0.01560    -0.01862     0.02344
  
  S  H  82  -0.06389     0.03145     0.00340    -0.01663    -0.00086    -0.01456
  
  S  H  83  -0.04403     0.03463     0.00735    -0.01647     0.01103    -0.02978
  
  S  H  84  -0.07500     0.06843     0.04792     0.00405     0.00217    -0.01523
  
  S  H  85  -0.08257     0.06654     0.04547     0.00357    -0.00241    -0.00925
  
  S  H  86  -0.08242     0.09845     0.09145     0.02964    -0.00040    -0.00180
  
  S  H  87  -0.08068     0.09874     0.09186     0.02971     0.00071    -0.00323
  
  S  H  88  -0.07633     0.10521     0.10825     0.04375    -0.00153     0.01138
  
  S  H  89  -0.07680     0.10514     0.10815     0.04374    -0.00184     0.01180
  
  S  H  90  -0.05894     0.08811     0.09563     0.04262    -0.00210     0.01762
  
  S  H  91  -0.05881     0.08808     0.09561     0.04260    -0.00203     0.01751
  
  S  H  92  -0.03644     0.05728     0.06418     0.03023    -0.00174     0.01545
  
  S  H  93  -0.02976     0.04763     0.05393     0.02585    -0.00154     0.01399
  
  S  H  94  -0.03640     0.05727     0.06417     0.03022    -0.00172     0.01542
  
  S  H  95   0.06724     0.01143     0.01318     0.00059     0.03762    -0.04806
  
  S  H  96   0.09428     0.01194     0.02798     0.01513     0.00888    -0.01301
  
  S  H  97  -0.04043    -0.00578    -0.01676    -0.01337     0.20155    -0.01075




    ROOT NO.   13          14          15          16          17          18

           -38.74107   -38.17689   -36.63771   -36.31790   -35.33851   -34.20136
  
  
  S  C   1  -0.21359    -0.23482    -0.01887     0.03992    -0.17551     0.00994
 PX  C   1  -0.05904    -0.06116    -0.00399     0.00797    -0.02843     0.00106
 PY  C   1  -0.01011    -0.00910    -0.00024     0.00032     0.00173    -0.00019
 PZ  C   1   0.00000     0.00000     0.00002    -0.00000     0.00005     0.00008
  
  S  C   2  -0.24453    -0.25045    -0.01607     0.03204    -0.11594     0.00443
 PX  C   2   0.03844     0.05081     0.00582    -0.01312     0.06688    -0.00463
 PY  C   2  -0.02878    -0.02259     0.00016    -0.00115     0.01625    -0.00141
 PZ  C   2  -0.00001     0.00000     0.00009    -0.00001     0.00019     0.00027
  
  S  C   3  -0.13377    -0.10419     0.00019    -0.00344     0.05608    -0.00438
 PX  C   3   0.05918     0.07780     0.00816    -0.01780     0.08155    -0.00464
 PY  C   3   0.06829     0.07479     0.00568    -0.01133     0.04374    -0.00078
 PZ  C   3  -0.00005    -0.00001     0.00032    -0.00003     0.00066     0.00090
  
  S  C   4   0.06946     0.12458     0.01629    -0.03695     0.17037    -0.01191
 PX  C   4   0.07562     0.07331     0.00226    -0.00396    -0.00835    -0.00058
 PY  C   4   0.06582     0.07558     0.00557    -0.01063     0.03344     0.00080
 PZ  C   4  -0.00021    -0.00006     0.00109    -0.00010     0.00229     0.00298
  
  S  C   5   0.22496     0.25828     0.01868    -0.03385     0.10086     0.00607
 PX  C   5   0.06255     0.04751    -0.00224     0.00624    -0.05830     0.00288
 PY  C   5  -0.00807    -0.02762    -0.00371     0.01210    -0.05580     0.01190
 PZ  C   5  -0.00029     0.00031     0.00434    -0.00039     0.00831     0.01029
  
  S  C   6   0.24711     0.22334    -0.00134     0.00060    -0.09558    -0.00894
 PX  C   6  -0.04745    -0.06879    -0.01094     0.01553    -0.06672    -0.01408
 PY  C   6   0.01295    -0.01475    -0.00470     0.01352    -0.05885     0.01492
 PZ  C   6  -0.00185     0.00114     0.01273    -0.00193     0.02861     0.03230
  
  S  C   7   0.07438    -0.02847    -0.00055     0.04121    -0.14998     0.06112
 PX  C   7  -0.04846    -0.06399    -0.01001     0.00893    -0.02707    -0.02061
 PY  C   7  -0.10749    -0.13097     0.01648     0.00963     0.05299     0.05807
 PZ  C   7  -0.01059     0.00258     0.04181    -0.00685     0.08818     0.08267
  
  S  C   8  -0.08130    -0.10505     0.07092     0.00636     0.11796     0.14124
 PX  C   8  -0.03694    -0.04411     0.00831     0.00260     0.01703     0.01263
 PY  C   8  -0.08714    -0.05051     0.01835    -0.01584     0.09915    -0.01220
 PZ  C   8   0.00413     0.05082    -0.00415    -0.01857     0.03699    -0.04633
  
  S  C   9  -0.20615    -0.11661     0.08151    -0.03928     0.26144     0.02523
 PX  C   9   0.00067     0.00281    -0.00583    -0.00278    -0.00955    -0.02011
 PY  C   9  -0.00867     0.07675    -0.00883    -0.03136     0.03726    -0.10095
 PZ  C   9  -0.01424     0.05759     0.00887    -0.02576     0.06056    -0.04943
  
  S  S  10  -0.10803    -0.13132     0.00183     0.00450     0.03781     0.00282
 PX  S  10   0.02955     0.03867    -0.00689    -0.00274    -0.01889    -0.02029
 PY  S  10   0.02453     0.06979     0.01573    -0.01830     0.04809    -0.01090
 PZ  S  10  -0.05312    -0.03408     0.03806    -0.00981     0.08567     0.03062
  
  S  C  11  -0.02282    -0.12691    -0.08840     0.04152    -0.21560    -0.09720
 PX  C  11  -0.01232    -0.00078    -0.00726    -0.00360    -0.00232    -0.04036
 PY  C  11  -0.05394    -0.04809     0.02298    -0.00506     0.08661     0.06231
 PZ  C  11  -0.02056    -0.04564     0.06327     0.01265     0.04386     0.11303
  
  S  C  12  -0.00291    -0.02481    -0.15136     0.00184    -0.15865    -0.20390
 PX  C  12  -0.00651     0.00478     0.04388     0.00346    -0.00011    -0.02445
 PY  C  12  -0.01044    -0.02523    -0.04225    -0.00107    -0.00160     0.01719
 PZ  C  12   0.02111    -0.01968     0.00850     0.02589    -0.13439    -0.07706
  
  S  C  13  -0.02708    -0.00817    -0.19845    -0.04221     0.09704     0.04732
 PX  C  13  -0.00776     0.00183    -0.01230    -0.00564     0.01648    -0.00549
 PY  C  13   0.00446    -0.00855     0.01319     0.00878    -0.03412    -0.01660
 PZ  C  13   0.00778    -0.01174    -0.00267     0.01698    -0.11739    -0.12738
  
  S  C  14  -0.02939     0.00801    -0.17597    -0.05931     0.24375     0.24827
 PX  C  14  -0.00349     0.00317     0.01177    -0.00207     0.02168     0.02140
 PY  C  14   0.00066    -0.00352    -0.01184     0.00128    -0.01912    -0.02998
 PZ  C  14  -0.01091     0.00410    -0.01155    -0.00773     0.02556    -0.01592
  
  S  C  15  -0.01608     0.01127     0.03989    -0.01391     0.13547     0.17555
 PX  C  15   0.00673    -0.00031     0.12620     0.02839    -0.07698    -0.06962
 PY  C  15  -0.01042     0.00232    -0.10765    -0.02740     0.08151     0.05996
 PZ  C  15  -0.01466     0.01351     0.11388     0.00909     0.01484    -0.02782
  
  S  C  16  -0.01769     0.02574     0.32506     0.03993    -0.01065    -0.01781
 PX  C  16   0.00493    -0.00312     0.07242     0.01745    -0.04337    -0.01791
 PY  C  16  -0.00729     0.00199    -0.08294    -0.01918     0.04208     0.00571
 PZ  C  16  -0.00034     0.00285    -0.05417    -0.00694    -0.02322    -0.06506
  
  S  C  17  -0.00341     0.01469     0.08033     0.01923    -0.10950    -0.17534
 PX  C  17  -0.00489    -0.00010     0.07074     0.00725     0.02011     0.03264
 PY  C  17  -0.00172    -0.00972    -0.08403    -0.00766    -0.02319    -0.03849
 PZ  C  17   0.01726    -0.00971    -0.06819     0.00334    -0.06825    -0.04310
  
  S  C  18  -0.00563     0.01203     0.30297     0.04775    -0.05112     0.00484
 PX  C  18  -0.00089    -0.00327    -0.09099    -0.01517     0.02285     0.02565
 PY  C  18  -0.00016     0.00399     0.09795     0.01564    -0.02104    -0.02342
 PZ  C  18  -0.00417     0.00541     0.03084     0.00119     0.01317     0.02521
  
  S  C  19  -0.00770     0.00665     0.09071     0.00968     0.02086     0.09476
 PX  C  19   0.00026    -0.00265    -0.07135    -0.01229     0.02182     0.02141
 PY  C  19  -0.00002     0.00275     0.07629     0.01329    -0.02466    -0.02565
 PZ  C  19   0.00170     0.00057     0.01560     0.00343    -0.01139    -0.01695
  
  S  C  20  -0.00669    -0.00033    -0.09966    -0.02263     0.07168     0.11620
 PX  C  20   0.00136    -0.00039    -0.00233     0.00020    -0.00405    -0.01122
 PY  C  20  -0.00135     0.00077     0.01472     0.00189     0.00137     0.01299
 PZ  C  20   0.00029     0.00204     0.06277     0.01059    -0.01340     0.00994
  
  S  C  21  -0.00387    -0.00503    -0.20569    -0.03729     0.06528     0.02777
 PX  C  21  -0.00002     0.00133     0.02998     0.00418     0.00123     0.01941
 PY  C  21  -0.00040    -0.00119    -0.02962    -0.00449     0.00202    -0.01087
 PZ  C  21  -0.00218     0.00116     0.01018    -0.00048     0.01790     0.05212
  
  S  C  22   0.00355    -0.01034    -0.23247    -0.03298     0.00092    -0.10953
 PX  C  22  -0.00338     0.00177    -0.00946    -0.00513     0.02730     0.03727
 PY  C  22   0.00326    -0.00204     0.00461     0.00445    -0.02732    -0.03992
 PZ  C  22  -0.00184    -0.00017    -0.01151    -0.00296     0.01196     0.02067
  
  S  C  23   0.01027    -0.00860    -0.01216     0.00949    -0.07485    -0.12203
 PX  C  23  -0.00552     0.00146    -0.04788    -0.01151     0.02827     0.00976
 PY  C  23   0.00443    -0.00000     0.08258     0.01648    -0.03031    -0.00565
 PZ  C  23  -0.00684     0.00909     0.19136     0.02580     0.00434     0.06814
  
  S  N  24   0.02268    -0.01903    -0.18317    -0.01537    -0.03797    -0.03109
 PX  N  24   0.00251    -0.00049     0.05675     0.01450    -0.05535    -0.09627
 PY  N  24  -0.00329     0.00166    -0.01954    -0.00855     0.04685     0.07664
 PZ  N  24  -0.00535     0.00869     0.22151     0.03131    -0.00304     0.04972
  
  S  C  25   0.01104    -0.01243    -0.24883    -0.03326     0.00159    -0.02655
 PX  C  25   0.00528    -0.00467    -0.04892    -0.00165    -0.04532    -0.13273
 PY  C  25  -0.00234     0.00199     0.02066     0.00105     0.01216     0.01964
 PZ  C  25   0.00912    -0.00943    -0.13725    -0.01803     0.01194     0.03161
  
  S  C  26   0.00215    -0.00227    -0.05714    -0.00389    -0.05150    -0.19332
 PX  C  26   0.00153    -0.00157    -0.01444    -0.00144    -0.00273    -0.01343
 PY  C  26  -0.00128     0.00137     0.02287     0.00260     0.00362     0.00894
 PZ  C  26   0.00634    -0.00698    -0.12367    -0.01622     0.00210     0.00528
  
  S  C  27  -0.00711     0.00828     0.14821     0.02284    -0.04192    -0.13411
 PX  C  27   0.00316    -0.00358    -0.06446    -0.00838    -0.00436    -0.03648
 PY  C  27   0.00005    -0.00005     0.00081    -0.00001     0.00184     0.00580
 PZ  C  27  -0.00021     0.00005    -0.01358    -0.00154    -0.00867    -0.03765
  
  S  C  28  -0.00995     0.01150     0.21476     0.02998    -0.01197     0.01489
 PX  C  28  -0.00044     0.00057     0.01022     0.00244    -0.01597    -0.06784
 PY  C  28   0.00034    -0.00037    -0.00517    -0.00063    -0.00056    -0.00465
 PZ  C  28  -0.00276     0.00291     0.03977     0.00480     0.00300     0.02076
  
  S  C  29  -0.00911     0.00978     0.15628     0.01848     0.02824     0.15282
 PX  C  29  -0.00272     0.00299     0.04612     0.00630    -0.00430    -0.00693
 PY  C  29  -0.00026     0.00030     0.00694     0.00102    -0.00107    -0.00404
 PZ  C  29   0.00049    -0.00113    -0.04268    -0.00770     0.01742     0.04274
  
  S  C  30  -0.00248     0.00110    -0.04209    -0.01175     0.05884     0.17947
 PX  C  30   0.00230    -0.00261    -0.05755    -0.00750    -0.00457    -0.02956
 PY  C  30  -0.00112     0.00091     0.00982     0.00051     0.00615     0.01228
 PZ  C  30   0.00479    -0.00581    -0.10963    -0.01591     0.01169    -0.00638
  
  S  C  31  -0.19976     0.11452     0.04010    -0.09322     0.21769    -0.17346
 PX  C  31  -0.00300     0.00476     0.00137    -0.01572     0.00986    -0.02339
 PY  C  31   0.01629     0.07598    -0.02633    -0.00441    -0.08074    -0.04218
 PZ  C  31   0.01398     0.05905    -0.01964     0.00081    -0.06389    -0.02254
  
  S  S  32  -0.10596     0.12996    -0.00642    -0.00859     0.02516    -0.07839
 PX  S  32  -0.05856     0.07772    -0.00217    -0.02186     0.01852    -0.06016
 PY  S  32   0.00182     0.03633    -0.01779     0.02455    -0.06083     0.01248
 PZ  S  32   0.01903     0.00536    -0.01305     0.02688    -0.05328     0.03061
  
  S  C  33  -0.02888     0.12544    -0.04974     0.10424    -0.16406     0.09552
 PX  C  33   0.02928     0.00284    -0.00417    -0.02106    -0.03743     0.01930
 PY  C  33   0.03604    -0.04789    -0.00474     0.04825    -0.03231     0.08222
 PZ  C  33   0.02585    -0.04598    -0.00312     0.05277    -0.01656     0.06916
  
  S  C  34   0.08441     0.02822    -0.03080     0.01204    -0.15871     0.10822
 PX  C  34   0.08104    -0.10604     0.01811    -0.03179     0.03076     0.02499
 PY  C  34   0.06859    -0.08252     0.00007     0.03554    -0.03476     0.10190
 PZ  C  34   0.04930    -0.05516    -0.00319     0.03820    -0.03312     0.07926
  
  S  C  35  -0.06846     0.10365     0.00505    -0.08175     0.04956    -0.11772
 PX  C  35   0.06618    -0.08205     0.00322     0.01761    -0.01882     0.06384
 PY  C  35   0.05882    -0.01349    -0.01477     0.01431    -0.08240     0.05502
 PZ  C  35   0.03467     0.00749    -0.01224     0.00589    -0.06080     0.02783
  
  S  C  36   0.25366    -0.22050     0.00626     0.00100    -0.07654     0.17191
 PX  C  36   0.02631    -0.05278     0.01778    -0.03419     0.07120    -0.06479
 PY  C  36  -0.03585     0.01923     0.00183     0.00581     0.02351    -0.02288
 PZ  C  36   0.02558    -0.04025     0.00689     0.00137     0.02790    -0.01255
  
  S  C  37   0.22993    -0.25329     0.03528    -0.04937     0.08824    -0.03594
 PX  C  37  -0.04043     0.01979     0.00772    -0.01524     0.06163    -0.09526
 PY  C  37   0.03596    -0.04487     0.00702    -0.00618     0.02203    -0.01124
 PZ  C  37  -0.03626     0.02324     0.00228     0.00003     0.03350    -0.05497
  
  S  C  38   0.06902    -0.12057     0.03300    -0.04834     0.15290    -0.18147
 PX  C  38  -0.08405     0.08379    -0.00847     0.00885    -0.00923    -0.02232
 PY  C  38  -0.02269     0.03109    -0.00697     0.01096    -0.02871     0.03142
 PZ  C  38  -0.05424     0.05221    -0.00495     0.00657    -0.00195    -0.01934
  
  S  C  39  -0.13831     0.10362    -0.00003    -0.00458     0.04903    -0.10566
 PX  C  39  -0.07346     0.08586    -0.01606     0.02282    -0.06722     0.07714
 PY  C  39  -0.03313     0.02886    -0.00213     0.00259    -0.00017    -0.00838
 PZ  C  39  -0.04468     0.05421    -0.01095     0.01624    -0.04750     0.05665
  
  S  C  40  -0.25091     0.24640    -0.03185     0.04281    -0.10348     0.09670
 PX  C  40  -0.01266     0.02320    -0.00795     0.01236    -0.04704     0.07277
 PY  C  40   0.04398    -0.04250     0.00513    -0.00666     0.01511    -0.01196
 PZ  C  40  -0.01784     0.02492    -0.00665     0.01023    -0.03616     0.05368
  
  S  C  41  -0.21880     0.23061    -0.03743     0.05308    -0.15641     0.19640
 PX  C  41   0.04597    -0.04503     0.00562    -0.00744     0.01657    -0.01214
 PY  C  41  -0.01895     0.01999    -0.00322     0.00457    -0.01303     0.01552
 PZ  C  41   0.03609    -0.03564     0.00459    -0.00609     0.01424    -0.01161
  
  S  C  42  -0.03771     0.02848    -0.03338     0.17971    -0.06288     0.10440
 PX  C  42   0.02748    -0.00319    -0.01098     0.02933    -0.05554     0.06558
 PY  C  42  -0.00998    -0.01900     0.01028    -0.01246     0.05006    -0.03827
 PZ  C  42  -0.01487    -0.02246     0.00882     0.01104     0.05898    -0.03505
  
  S  C  43  -0.03997    -0.01202    -0.01046     0.12953     0.03575     0.01796
 PX  C  43   0.03375    -0.00773    -0.00444    -0.00401    -0.04221     0.04522
 PY  C  43  -0.01538    -0.00382     0.00736    -0.01602     0.03851    -0.04246
 PZ  C  43  -0.00052    -0.00305     0.01100    -0.05291     0.03326    -0.05134
  
  S  C  44  -0.05738    -0.00839     0.01905    -0.03971     0.09697    -0.10576
 PX  C  44   0.00080    -0.00316    -0.00897     0.06900     0.00091     0.02291
 PY  C  44   0.01011     0.00130     0.00599    -0.05881    -0.01311    -0.00711
 PZ  C  44   0.02224     0.00140    -0.00148    -0.02046    -0.02811     0.01868
  
  S  C  45  -0.02402    -0.00200     0.03219    -0.19178     0.03643    -0.08458
 PX  C  45  -0.03698    -0.00186    -0.00440     0.08540     0.05759    -0.03853
 PY  C  45   0.02631     0.00000     0.00617    -0.08219    -0.04055     0.02076
 PZ  C  45  -0.00282    -0.00190     0.00738    -0.04940     0.00487    -0.02046
  
  S  S  46  -0.02850     0.01264    -0.00209     0.02908     0.01717    -0.01449
 PX  S  46  -0.02583     0.00602    -0.00580     0.04559     0.00167     0.01109
 PY  S  46   0.01345    -0.00762     0.00768    -0.04575     0.00782    -0.01660
 PZ  S  46  -0.01893    -0.00239     0.00808    -0.02726     0.02769    -0.03052
  
  S  C  47   0.05123    -0.00038     0.03652    -0.34142    -0.09907     0.03230
 PX  C  47  -0.02455    -0.00097     0.00426     0.00634     0.04555    -0.05699
 PY  C  47   0.00854     0.00044    -0.00486     0.01804    -0.02093     0.03188
 PZ  C  47  -0.01931    -0.00039    -0.00371     0.04684     0.02478    -0.01930
  
  S  C  48   0.09192     0.00123     0.01576    -0.22082    -0.13160     0.10933
 PX  C  48   0.00548    -0.00012     0.00941    -0.08233    -0.01791    -0.00176
 PY  C  48  -0.01217    -0.00008    -0.00279     0.02531     0.00375     0.00495
 PZ  C  48  -0.01763    -0.00027     0.00828    -0.07041    -0.01894     0.00771
  
  S  C  49   0.00371     0.00037    -0.00243     0.00180    -0.02035     0.02854
 PX  C  49   0.02662     0.00070    -0.00095    -0.02346    -0.03400     0.03557
 PY  C  49  -0.02974    -0.00032    -0.00665     0.08687     0.05048    -0.04376
 PZ  C  49  -0.02308     0.00039    -0.01538     0.14786     0.05573    -0.03930
  
  S  O  50  -0.03358     0.00073    -0.02558     0.23556     0.07745    -0.04553
 PX  O  50   0.00781     0.00015     0.00098    -0.01783    -0.01331     0.01242
 PY  O  50  -0.00038    -0.00017     0.00213    -0.01341     0.00110    -0.00431
 PZ  O  50   0.01081    -0.00015     0.00593    -0.05474    -0.01747     0.00939
  
  S  O  51  -0.02975    -0.00134     0.01502    -0.09862    -0.00248    -0.01498
 PX  O  51   0.00658     0.00009     0.00030    -0.01104    -0.01260     0.01568
 PY  O  51  -0.01112    -0.00020     0.00024     0.00954     0.01408    -0.01675
 PZ  O  51  -0.01364    -0.00029     0.00096     0.00364     0.01091    -0.01197
  
  S  C  52   0.13472     0.00253    -0.03791     0.27020     0.03593     0.00294
 PX  C  52  -0.00346    -0.00022     0.00962    -0.08613    -0.02585     0.01263
 PY  C  52  -0.00788    -0.00024     0.00928    -0.08691    -0.03328     0.02532
 PZ  C  52  -0.02201    -0.00079     0.03399    -0.31251    -0.10902     0.07242
  
  S  N  53   0.12036     0.00265    -0.06117     0.50482     0.13346    -0.06942
 PX  N  53   0.01293     0.00024    -0.00494     0.03973     0.01035    -0.00608
 PY  N  53   0.01514     0.00032    -0.00712     0.05711     0.01316    -0.00500
 PZ  N  53   0.05123     0.00106    -0.02242     0.17998     0.04320    -0.01958
  
  S  H  54   0.01375    -0.00044     0.01453    -0.13089    -0.03333     0.00604
  
  S  H  55  -0.09110    -0.10024    -0.00810     0.01715    -0.07582     0.00434
  
  S  H  56  -0.08376    -0.09384    -0.00798     0.01707    -0.07806     0.00459
  
  S  H  57  -0.09110    -0.10023    -0.00807     0.01714    -0.07575     0.00444
  
  S  H  58  -0.09841    -0.10022    -0.00629     0.01255    -0.04479     0.00164
  
  S  H  59  -0.09841    -0.10022    -0.00640     0.01257    -0.04503     0.00130
  
  S  H  60  -0.05479    -0.04275    -0.00011    -0.00126     0.02169    -0.00173
  
  S  H  61  -0.05486    -0.04278     0.00031    -0.00128     0.02252    -0.00058
  
  S  H  62   0.02866     0.05119     0.00702    -0.01493     0.06861    -0.00432
  
  S  H  63   0.02880     0.05112     0.00568    -0.01478     0.06564    -0.00808
  
  S  H  64   0.09016     0.10223     0.00500    -0.01321     0.03748     0.00019
  
  S  H  65   0.08916     0.10227     0.01133    -0.01372     0.04885     0.01342
  
  S  H  66   0.10170     0.09562     0.00474    -0.00144    -0.02711     0.00422
  
  S  H  67   0.10428     0.09531    -0.00828     0.00087    -0.06035    -0.03483
  
  S  H  68  -0.01396    -0.00779     0.02838    -0.00370     0.05586     0.04737
  
  S  H  69  -0.00882    -0.00934    -0.08632    -0.01407     0.02282     0.01376
  
  S  H  70  -0.00858     0.00077    -0.08873    -0.02537     0.10035     0.12184
  
  S  H  71   0.00607     0.00505     0.04212     0.01438    -0.07587    -0.08825
  
  S  H  72  -0.00276     0.00371     0.05343     0.00680     0.00260     0.03476
  
  S  H  73  -0.00229    -0.00002    -0.03762    -0.00877     0.02950     0.05112
  
  S  H  74  -0.00120    -0.00190    -0.08230    -0.01503     0.02666     0.00983
  
  S  H  75   0.00282    -0.00510    -0.11050    -0.01487    -0.00713    -0.06945
  
  S  H  76   0.00272    -0.00293    -0.05302    -0.00488    -0.02711    -0.10366
  
  S  H  77  -0.00225     0.00271     0.05366     0.00859    -0.01834    -0.06328
  
  S  H  78  -0.00337     0.00401     0.08212     0.01169    -0.00490     0.00679
  
  S  H  79  -0.00310     0.00336     0.05723     0.00665     0.01373     0.07217
  
  S  H  80  -0.00054    -0.00061    -0.04337    -0.00984     0.03860     0.10054
  
  S  H  81  -0.00940     0.00722     0.00771    -0.03408     0.03253    -0.03472
  
  S  H  82   0.10477    -0.09393     0.00504    -0.00784    -0.02293     0.06208
  
  S  H  83   0.10423    -0.09414     0.00043     0.01763    -0.03668     0.08658
  
  S  H  84   0.09194    -0.10057     0.01313    -0.01536     0.03295    -0.01199
  
  S  H  85   0.09181    -0.10018     0.01503    -0.02594     0.03900    -0.02269
  
  S  H  86   0.02857    -0.04956     0.01351    -0.02030     0.06158    -0.07243
  
  S  H  87   0.02838    -0.04948     0.01303    -0.01757     0.06011    -0.06958
  
  S  H  88  -0.05664     0.04247    -0.00017    -0.00142     0.01891    -0.04103
  
  S  H  89  -0.05668     0.04255    -0.00003    -0.00223     0.01933    -0.04191
  
  S  H  90  -0.10103     0.09865    -0.01252     0.01673    -0.03996     0.03644
  
  S  H  91  -0.10099     0.09860    -0.01256     0.01694    -0.04008     0.03670
  
  S  H  92  -0.09334     0.09846    -0.01605     0.02276    -0.06755     0.08563
  
  S  H  93  -0.08579     0.09214    -0.01581     0.02270    -0.06953     0.09165
  
  S  H  94  -0.09332     0.09843    -0.01605     0.02281    -0.06757     0.08568
  
  S  H  95   0.00256    -0.01372    -0.00567     0.05264    -0.00104     0.02689
  
  S  H  96  -0.01523    -0.00354     0.00890    -0.03442     0.03084    -0.04130
  
  S  H  97  -0.02050    -0.00064     0.00499    -0.02189     0.01264    -0.02036




    ROOT NO.   19          20          21          22          23          24

           -33.75515   -33.24952   -33.24400   -32.71715   -31.83547   -30.85844
  
  
  S  C   1   0.28629    -0.17910    -0.05538    -0.02948     0.04540    -0.10776
 PX  C   1   0.02569    -0.01129    -0.00351    -0.00098    -0.00094     0.00964
 PY  C   1  -0.01139     0.00878     0.00280     0.00175    -0.00358     0.01066
 PZ  C   1   0.00002    -0.00011     0.00001    -0.00006     0.00008     0.00011
  
  S  C   2   0.12064    -0.06106    -0.01911    -0.00759     0.00557     0.00376
 PX  C   2  -0.13071     0.08570     0.02634     0.01468    -0.02364     0.05811
 PY  C   2  -0.05369     0.03835     0.01201     0.00712    -0.01295     0.03479
 PZ  C   2   0.00009    -0.00036     0.00003    -0.00018     0.00024     0.00034
  
  S  C   3  -0.17515     0.12154     0.03824     0.02188    -0.03792     0.09578
 PX  C   3  -0.12446     0.07347     0.02260     0.01107    -0.01351     0.02036
 PY  C   3  -0.04528     0.02100     0.00713     0.00224    -0.00079    -0.00686
 PZ  C   3   0.00031    -0.00120     0.00011    -0.00061     0.00079     0.00104
  
  S  C   4  -0.25138     0.14680     0.04380     0.02147    -0.02308     0.02679
 PX  C   4   0.07651    -0.05733    -0.01925    -0.01131     0.02283    -0.06233
 PY  C   4  -0.00351    -0.01040    -0.00238    -0.00364     0.00956    -0.03330
 PZ  C   4   0.00085    -0.00374     0.00038    -0.00179     0.00216     0.00297
  
  S  C   5   0.00132    -0.03880    -0.00816    -0.01090     0.02385    -0.07842
 PX  C   5   0.14062    -0.08877    -0.02866    -0.01371     0.01908    -0.03624
 PY  C   5   0.09185    -0.05981    -0.01393    -0.00870     0.00521     0.00414
 PZ  C   5   0.00319    -0.01271     0.00121    -0.00641     0.00795     0.00949
  
  S  C   6   0.26390    -0.15497    -0.05795    -0.02145     0.03274    -0.07344
 PX  C   6   0.02439     0.01701    -0.00296     0.00713    -0.01265     0.03643
 PY  C   6   0.06590    -0.03658    -0.00561     0.00010    -0.01520     0.03881
[...]
    90       H         12.90179457  *  11.32291128  *   5.54258183  *
    91       H         11.90754236  *  11.61348385  *   6.96236088  *
    92       H         13.97975322  *   9.32003357  *   6.70250554  *
    93       H         14.18892860  *  10.79959035  *   7.63927274  *
    94       H         12.98099360  *   9.61117032  *   8.12824972  *
    95       H          6.52858606  *   9.81843506  *   6.15501607  *
    96       H          4.93560679  *  11.49477160  *   7.37305217  *
    97       H         -0.85389430  *  14.87943595  *   5.50094584  *

                             CARTESIAN COORDINATES

   1    C        0.000000000     0.000000000     0.000000000
   2    C        1.520001852     0.000000000     0.000000000
   3    C        2.061144914     1.427537777     0.000000000
   4    C        3.587987941     1.428544850    -0.000002845
   5    C        4.126085476     2.857330008    -0.002446131
   6    C        5.655318004     2.855755985    -0.000079161
   7    C        6.161043220     4.248752787     0.001356292
   8    C        5.999839824     5.112008061     1.138211403
   9    C        6.525868221     6.351121264     0.916928073
  10    S        7.217536647     6.492748287    -0.648120545
  11    C        6.802299168     4.872716421    -1.027295356
  12    C        7.144807763     4.297991410    -2.309733253
  13    C        6.507458604     4.762687049    -3.469582836
  14    C        6.801216818     4.234758404    -4.716199456
  15    C        7.749641952     3.216986498    -4.771023743
  16    C        8.411984980     2.751360105    -3.602084735
  17    C        8.104237603     3.291573697    -2.365501839
  18    C        9.343098960     1.732426862    -4.016857845
  19    C       10.240022370     0.938727815    -3.320641101
  20    C       10.999059910     0.021890799    -4.032761593
  21    C       10.860508350    -0.110892779    -5.418194967
  22    C        9.970639221     0.669345898    -6.140284137
  23    C        9.222573576     1.601262779    -5.426831868
  24    N        8.246954396     2.510906913    -5.883188364
  25    C        7.840528130     2.686840323    -7.227493899
  26    C        8.806642790     2.870349666    -8.220531764
  27    C        8.396547058     3.034494861    -9.536791939
  28    C        7.044793110     3.030315654    -9.859927216
  29    C        6.091838625     2.853918438    -8.863707195
  30    C        6.478993448     2.673934689    -7.542575445
  31    C        6.536944786     7.449807792     1.829490758
  32    S        5.108653127     7.926536489     2.652195830
  33    C        5.939487235     9.197089601     3.452823816
  34    C        7.260473552     9.250202804     3.105925320
  35    C        7.606579086     8.231667827     2.155430178
  36    C        8.260457052    10.226055900     3.598798284
  37    C        9.294657897     9.518237553     4.475480124
  38    C       10.330113070    10.513667960     4.993198152
  39    C       11.366696420     9.808777558     5.864923271
  40    C       12.401705210    10.802395530     6.386659653
  41    C       13.433804210    10.099537410     7.253312119
  42    C        5.272104272    10.050822210     4.383051167
  43    C        5.665457572    10.277565550     5.678623249
  44    C        4.795269369    11.187905770     6.338004085
  45    C        3.771741257    11.617883590     5.518332716
  46    S        3.877835781    10.927855450     3.966522517
  47    C        2.769622239    12.535939720     5.963675243
  48    C        1.702391023    12.956148060     5.251200830
  49    C        0.764686504    13.907705370     5.860119524
  50    O        0.838335796    14.389450330     6.982267305
  51    O       -0.263492808    14.252427930     5.058591490
  52    C        1.418249600    12.531496170     3.931087859
  53    N        1.160779093    12.202771640     2.852152224
  54    H        2.908700412    12.917913990     6.989683993
  55    H       -0.417018266     0.506413591    -0.882439242
  56    H       -0.409306169    -1.020634893    -0.000026689
  57    H       -0.417100882     0.506393349     0.882414034
  58    H        1.902301840    -0.561386328     0.878726107
  59    H        1.902279971    -0.561291225    -0.878807913
  60    H        1.673882165     1.984906198    -0.879036994
  61    H        1.673309614     1.984956826     0.878759103
  62    H        3.974439424     0.871856324     0.879861440
  63    H        3.974054102     0.869130719    -0.878333058
  64    H        3.748339649     3.414559628    -0.885470749
  65    H        3.738034372     3.419873382     0.872749769
  66    H        6.049746628     2.314607788     0.887203075
  67    H        6.047408923     2.290409073    -0.872588688
  68    H        5.521244478     4.787301620     2.059164486
  69    H        5.759686917     5.558219158    -3.387614509
  70    H        6.315058967     4.613812972    -5.617571674
  71    H        8.608294121     2.935604350    -1.463295082
  72    H       10.338701140     1.039315668    -2.236972537
  73    H       11.716061900    -0.612684054    -3.504607092
  74    H       11.469188880    -0.852501963    -5.945291380
  75    H        9.854926370     0.545539341    -7.218824314
  76    H        9.871738081     2.898757850    -7.969406541
  77    H        9.145184881     3.174995053   -10.322645450
  78    H        6.730722358     3.165978337   -10.898808390
  79    H        5.027971523     2.849784304    -9.120544580
  80    H        5.724333873     2.511330707    -6.766459599
  81    H        8.611696481     8.116248431     1.756309494
  82    H        8.750863455    10.721941140     2.732614529
  83    H        7.773488273    11.054986770     4.155299670
  84    H        8.791126580     9.004091225     5.321240806
  85    H        9.790115935     8.702847058     3.907370664
  86    H       10.826413030    11.030415630     4.144615726
  87    H        9.833511063    11.326042090     5.564941379
  88    H       10.871428900     9.289678991     6.712613527
  89    H       11.866701310     8.998444037     5.293323224
  90    H       12.901794570    11.322911280     5.542581826
  91    H       11.907542360    11.613483850     6.962360880
  92    H       13.979753220     9.320033568     6.702505543
  93    H       14.188928600    10.799590350     7.639272737
  94    H       12.980993600     9.611170317     8.128249723
  95    H        6.528586058     9.818435059     6.155016074
  96    H        4.935606791    11.494771600     7.373052172
  97    H       -0.853894300    14.879435950     5.500945841


           Empirical Formula: C46 H44 N2 O2 S3  =    97 atoms



      MOLECULAR POINT GROUP   :   C1  


                  EIGENVALUES  
 -48.62875 -46.80660 -44.69767 -44.31924 -43.79900 -42.80521 -42.65827 -42.04668
 -41.68564 -41.09164 -39.69424 -39.15841 -38.74107 -38.17689 -36.63771 -36.31790
 -35.33851 -34.20136 -33.75515 -33.24952 -33.24400 -32.71715 -31.83547 -30.85844
 -30.40508 -29.74089 -28.89409 -28.82136 -28.58164 -27.95558 -27.59435 -26.71698
 -26.05563 -25.86573 -25.57494 -25.25893 -25.09240 -24.72338 -24.57752 -24.42806
 -24.32257 -23.74919 -23.72777 -23.25419 -22.92970 -22.65120 -22.07251 -21.57377
 -21.13869 -20.82261 -20.60259 -20.41337 -20.31831 -20.07180 -19.44173 -18.87251
 -18.71047 -18.68165 -18.52777 -18.35421 -18.23291 -18.08010 -17.85000 -17.60412
 -17.42372 -17.23082 -17.07645 -16.81120 -16.55133 -16.39302 -16.19035 -16.03037
 -15.99250 -15.85902 -15.70476 -15.67123 -15.48782 -15.36778 -15.24197 -15.15383
 -15.00529 -14.90677 -14.79985 -14.71895 -14.66955 -14.55440 -14.29697 -14.06893
 -14.00617 -13.92588 -13.68511 -13.54220 -13.52653 -13.49258 -13.44262 -13.31439
 -13.28000 -13.26165 -13.19056 -13.03359 -12.98474 -12.88596 -12.80239 -12.77700
 -12.72215 -12.55699 -12.47964 -12.45777 -12.41003 -12.40472 -12.36635 -12.21586
 -12.17714 -12.11743 -11.86059 -11.76737 -11.62515 -11.57695 -11.55743 -11.16375
 -10.81037 -10.66033 -10.00685  -9.92001  -9.77772  -9.43911  -9.14017  -8.96564
  -8.90866  -8.51561  -7.85210  -7.69662  -7.37406  -7.04172  -1.26202  -0.08363
   0.15790   0.48179   0.67993   0.69704   0.78399   0.88109   1.15707   1.30262
   1.49735   1.55638   2.01323   2.10029   2.20118   2.25409   2.27317   2.47793
   2.59193   2.70017   2.71263   2.77394   2.98574   3.01938   3.19796   3.23125
   3.29431   3.36939   3.43996   3.58475   3.69866   3.78995   3.82584   3.87957
   3.92430   3.94776   4.05504   4.13794   4.16864   4.26041   4.28523   4.33331
   4.43775   4.50132   4.60607   4.68412   4.84870   5.01621   5.07513   5.14904
   5.18611   5.32527   5.36412   5.49056   5.52305   5.59866   5.77789   5.87665
   6.16189   6.22497   6.29136   6.40470   6.41147   6.67923   6.74710   6.76329
   6.77878   6.79398   6.80798   6.82079   6.86702   6.88064   6.98845   7.01225
   7.01922   7.03152   7.09481   7.11634   7.33894   7.77118   8.33728   8.48146
   8.52811   8.55636   8.63048   8.66043   8.66315   8.67573   8.69599   8.80299
   8.83734   9.01384   9.07102   9.13466   9.18531   9.21611   9.28956   9.64860
   9.84674  10.15154  10.38478  10.50234  10.75957  10.87412  10.94856  11.05056
  11.21041  11.47218  11.63694  11.68074  11.95402  12.13504  12.55157  12.74137
  12.74388  13.00823  13.09415  13.42100  13.92147  14.27773  14.65702  15.10196


              NET ATOMIC CHARGES AND DIPOLE CONTRIBUTIONS

  ATOM NO.   TYPE          CHARGE      No. of ELECS.   s-Pop       p-Pop       
    1          C          -0.028036        4.0280     1.05495     2.97309
    2          C          -0.006968        4.0070     1.04476     2.96221
    3          C          -0.008626        4.0086     1.05050     2.95812
    4          C          -0.011233        4.0112     1.05249     2.95874
    5          C          -0.004339        4.0043     1.05067     2.95367
    6          C           0.002547        3.9975     1.04373     2.95372
    7          C          -0.011880        4.0119     1.05594     2.95594
    8          C          -0.047823        4.0478     1.08807     2.95976
    9          C           0.032661        3.9673     1.07186     2.89548
   10          S          -0.066636        6.0666     1.77414     4.29250
   11          C           0.004884        3.9951     1.07916     2.91596
   12          C           0.019650        3.9804     1.04058     2.93977
   13          C          -0.034495        4.0345     1.07970     2.95480
   14          C          -0.038806        4.0388     1.07939     2.95941
   15          C           0.069280        3.9307     1.04862     2.88210
   16          C          -0.014536        4.0145     1.05122     2.96332
   17          C          -0.031486        4.0315     1.07913     2.95235
   18          C          -0.017402        4.0174     1.04761     2.96980
   19          C          -0.020495        4.0205     1.07940     2.94109
   20          C          -0.045836        4.0458     1.07755     2.96829
   21          C          -0.024582        4.0246     1.08080     2.94378
   22          C          -0.042484        4.0425     1.07668     2.96581
   23          C           0.078299        3.9217     1.05085     2.87085
   24          N          -0.133078        5.1331     1.22780     3.90527
   25          C           0.098294        3.9017     1.03915     2.86256
   26          C          -0.032001        4.0320     1.07934     2.95266
   27          C          -0.016360        4.0164     1.08099     2.93537
   28          C          -0.031973        4.0320     1.07709     2.95488
   29          C          -0.016983        4.0170     1.08104     2.93595
   30          C          -0.032672        4.0327     1.07932     2.95336
   31          C           0.051914        3.9481     1.07487     2.87321
   32          S          -0.058785        6.0588     1.77386     4.28492
   33          C          -0.004577        4.0046     1.06368     2.94090
   34          C           0.020783        3.9792     1.06144     2.91778
   35          C          -0.052080        4.0521     1.08525     2.96683
   36          C           0.004205        3.9958     1.04371     2.95209
   37          C          -0.003641        4.0036     1.05037     2.95327
   38          C          -0.010429        4.0104     1.05225     2.95818
   39          C          -0.008190        4.0082     1.05040     2.95779
   40          C          -0.006777        4.0068     1.04474     2.96204
   41          C          -0.027774        4.0278     1.05495     2.97282
   42          C           0.098203        3.9018     1.08213     2.81966
   43          C          -0.055193        4.0552     1.08095     2.97424
   44          C           0.048876        3.9511     1.10277     2.84836
   45          C          -0.008589        4.0086     1.05812     2.95047
   46          S          -0.026297        6.0263     1.76773     4.25857
   47          C           0.127650        3.8724     1.09525     2.77710
   48          C          -0.003525        4.0035     0.99871     3.00481
   49          C           0.495024        3.5050     1.04654     2.45843
   50          O          -0.626954        6.6270     1.81697     4.80998
   51          O          -0.311875        6.3119     1.68738     4.62449
   52          C           0.221989        3.7780     1.15033     2.62768
   53          N          -0.411590        5.4116     1.75371     3.65788
   54          H           0.060635        0.9394     0.93936
   55          H           0.007830        0.9922     0.99217
   56          H           0.000246        0.9998     0.99975
   57          H           0.007885        0.9921     0.99211
   58          H           0.006467        0.9935     0.99353
   59          H           0.006339        0.9937     0.99366
   60          H           0.007003        0.9930     0.99300
   61          H           0.007210        0.9928     0.99279
   62          H           0.007736        0.9923     0.99226
   63          H           0.007405        0.9926     0.99259
   64          H           0.007774        0.9922     0.99223
   65          H           0.009880        0.9901     0.99012
   66          H           0.012717        0.9873     0.98728
   67          H           0.008313        0.9917     0.99169
   68          H           0.032966        0.9670     0.96703
   69          H           0.020562        0.9794     0.97944
   70          H           0.028587        0.9714     0.97141
   71          H           0.026315        0.9737     0.97368
   72          H           0.024568        0.9754     0.97543
   73          H           0.016231        0.9838     0.98377
   74          H           0.019231        0.9808     0.98077
   75          H           0.029066        0.9709     0.97093
   76          H           0.029563        0.9704     0.97044
   77          H           0.023879        0.9761     0.97612
   78          H           0.022126        0.9779     0.97787
   79          H           0.023812        0.9762     0.97619
   80          H           0.029162        0.9708     0.97084
   81          H           0.034498        0.9655     0.96550
   82          H           0.014467        0.9855     0.98553
   83          H           0.010415        0.9896     0.98958
   84          H           0.010211        0.9898     0.98979
   85          H           0.011124        0.9889     0.98888
   86          H           0.007445        0.9926     0.99255
   87          H           0.008250        0.9917     0.99175
   88          H           0.007441        0.9926     0.99256
   89          H           0.007002        0.9930     0.99300
   90          H           0.006023        0.9940     0.99398
   91          H           0.006517        0.9935     0.99348
   92          H           0.007587        0.9924     0.99241
   93          H          -0.000302        1.0003     1.00030
   94          H           0.007810        0.9922     0.99219
   95          H           0.038705        0.9613     0.96130
   96          H           0.052908        0.9471     0.94709
   97          H           0.247135        0.7529     0.75287
 DIPOLE           X         Y         Z       TOTAL
 POINT-CHG.     6.309    -4.179    -0.029     7.567
 HYBRID         1.392    -0.069     3.465     3.735
 SUM            7.701    -4.247     3.437     9.442


          ATOMIC ORBITAL ELECTRON POPULATIONS

     Atom    s        px        py        pz   
    1  C   1.05495   0.99099   0.98884   0.99326
    2  C   1.04476   0.99070   0.98549   0.98602
    3  C   1.05050   0.99070   0.98021   0.98721
    4  C   1.05249   0.99034   0.98099   0.98742
    5  C   1.05067   0.98105   0.98449   0.98813
    6  C   1.04373   0.99220   0.97586   0.98566
    7  C   1.05594   1.00032   0.96870   0.98692
    8  C   1.08807   1.01480   0.99074   0.95421
    9  C   1.07186   1.00781   0.98328   0.90439
   10  S   1.77414   1.75333   1.27857   1.26060
   11  C   1.07916   1.03485   0.90253   0.97858
   12  C   1.04058   0.98699   0.98874   0.96404
   13  C   1.07970   0.98987   0.98321   0.98172
   14  C   1.07939   1.00057   0.99635   0.96250
   15  C   1.04862   0.98440   0.97036   0.92734
   16  C   1.05122   0.99788   0.99607   0.96937
   17  C   1.07913   1.00056   0.99586   0.95593
   18  C   1.04761   0.99283   0.99549   0.98147
   19  C   1.07940   0.99819   0.99708   0.94582
   20  C   1.07755   0.99257   0.99660   0.97911
   21  C   1.08080   0.98531   0.97413   0.98434
   22  C   1.07668   1.01568   1.00657   0.94356
   23  C   1.05085   0.93568   0.94496   0.99021
   24  N   1.22780   1.42207   1.40540   1.07780
   25  C   1.03915   0.99392   0.98164   0.88700
   26  C   1.07934   0.94149   1.02952   0.98164
   27  C   1.08099   0.97547   0.98637   0.97352
   28  C   1.07709   0.99083   1.01580   0.94825
   29  C   1.08104   0.95019   0.98863   0.99713
   30  C   1.07932   0.95369   1.03062   0.96904
   31  C   1.07487   0.93907   0.97414   0.96000
   32  S   1.77386   1.26844   1.44918   1.56730
   33  C   1.06368   0.95566   0.96453   1.02071
   34  C   1.06144   0.96391   0.97341   0.98045
   35  C   1.08525   0.94062   1.00114   1.02507
   36  C   1.04371   0.99383   0.96969   0.98857
   37  C   1.05037   0.98836   0.97694   0.98798
   38  C   1.05225   0.99312   0.97511   0.98995
   39  C   1.05040   0.99301   0.97482   0.98997
   40  C   1.04474   0.99705   0.97521   0.98977
   41  C   1.05495   0.98912   0.99179   0.99191
   42  C   1.08213   0.91479   0.91913   0.98575
   43  C   1.08095   0.97424   1.02315   0.97686
   44  C   1.10277   0.96954   0.93304   0.94578
   45  C   1.05812   1.00578   1.02593   0.91876
   46  S   1.76773   1.40313   1.57268   1.28276
   47  C   1.09525   0.93558   0.87845   0.96308
   48  C   0.99871   1.00491   1.06186   0.93804
   49  C   1.04654   0.82019   0.78681   0.85144
   50  O   1.81697   1.85476   1.63351   1.32171
   51  O   1.68738   1.39623   1.65349   1.57476
   52  C   1.15033   0.82961   0.85529   0.94278
   53  N   1.75371   1.21786   1.21178   1.22823
   54  H   0.93936
   55  H   0.99217
   56  H   0.99975
   57  H   0.99211
   58  H   0.99353
   59  H   0.99366
   60  H   0.99300
   61  H   0.99279
   62  H   0.99226
   63  H   0.99259
   64  H   0.99223
   65  H   0.99012
   66  H   0.98728
   67  H   0.99169
   68  H   0.96703
   69  H   0.97944
   70  H   0.97141
   71  H   0.97368
   72  H   0.97543
   73  H   0.98377
   74  H   0.98077
   75  H   0.97093
   76  H   0.97044
   77  H   0.97612
   78  H   0.97787
   79  H   0.97619
   80  H   0.97084
   81  H   0.96550
   82  H   0.98553
   83  H   0.98958
   84  H   0.98979
   85  H   0.98888
   86  H   0.99255
   87  H   0.99175
   88  H   0.99256
   89  H   0.99300
   90  H   0.99398
   91  H   0.99348
   92  H   0.99241
   93  H   1.00030
   94  H   0.99219
   95  H   0.96130
   96  H   0.94709
   97  H   0.75287

 **********************
 *                    *
 * JOB ENDED NORMALLY *
 *                    *
 **********************



 TOTAL JOB TIME:           730.47 SECONDS

 == MOPAC DONE ==
