 *******************************************************************************
 ** Site#: 4824         For non-commercial use only    Version 21.013L 64BITS **
 *******************************************************************************
 ** Cite this program as: MOPAC2016, Version: 21.013L, James J. P. Stewart,   **
 ** Stewart Computational Chemistry, web: HTTP://OpenMOPAC.net. Days left:  87**
 *******************************************************************************
 **                                                                           **
 **                                MOPAC2016                                  **
 **                                                                           **
 *******************************************************************************

                              RM1 CALCULATION RESULTS

 *******************************************************************************
 *  CALCULATION DONE:                                Mon Oct 18 08:48:23 2021  *
 *  RM1        - The RM1 Hamiltonian to be used
 *  POLAR      - CALCULATE FIRST, SECOND AND THIRD-ORDER POLARIZABILITIES
 *  PRECISE    - TIGHTER CRITERIA TO BE USED
 *  T=         - A TIME OF 172800.0 SECONDS REQUESTED
 *  DUMP=N     - RESTART FILE WRITTEN EVERY 7200.0 SECONDS REQUESTED
 *  GNORM      - EXIT WHEN GRADIENT NORM DROPS BELOW 0.100
 *******************************************************************************
RM1 PRECISE POLAR GNORM=0.1


  ATOM    CHEMICAL      BOND LENGTH      BOND ANGLE     TWIST ANGLE 
 NUMBER    SYMBOL       (ANGSTROMS)      (DEGREES)       (DEGREES) 
   (I)                     NA:I           NB:NA:I       NC:NB:NA:I       NA    NB    NC 
     1       C          0.00000000       0.0000000       0.0000000        0     0     0
     2       C          1.54760000  *    0.0000000       0.0000000        1     0     0
     3       C          1.55120000  *  111.4521000  *    0.0000000        2     1     0
     4       C          1.55240000  *  111.4675000  *  179.3298000  *     3     2     1
     5       C          1.55290000  *  110.8178000  *  179.8828000  *     4     3     2
     6       C          1.55960000  *  113.6069000  * -176.4056000  *     5     4     3
     7       N          1.46740000  *  112.3862000  *  167.9008000  *     6     5     4
     8       C          1.44930000  *  123.7709000  * -160.2099000  *     7     6     5
     9       C          1.46440000  *  127.3590000  *   17.8095000  *     8     7     6
    10       C          1.34600000  *  120.9148000  *   53.2463000  *     9     8     7
    11       C          1.46880000  *  120.2942000  * -178.4148000  *    10     9     8
    12       C          1.34800000  *  120.5129000  *   -0.6764000  *    11    10     9
    13       C          1.47420000  *  119.1337000  *   -1.0868000  *    12    11    10
    14       C          1.34460000  *  120.3343000  *    1.5428000  *    13    12    11
    15       C          1.47370000  *  120.9886000  *  177.2964000  *    12    11    10
    16       C          1.35060000  *  120.2116000  *  -50.8562000  *    15    12    11
    17       C          1.47110000  *  120.9506000  * -178.1319000  *    16    15    12
    18       C          1.34190000  *  118.5193000  *   -0.9881000  *    17    16    15
    19       C          1.45680000  *  120.9674000  *   -1.1283000  *    18    17    16
    20       C          1.34350000  *  121.0197000  *    3.1573000  *    19    18    17
    21       N          1.42180000  *  107.7009000  * -177.7894000  *    19    18    17
    22       C          1.46690000  *  124.5953000  *  -26.0674000  *    21    19    20
    23       C          1.55740000  *  108.9396000  *   84.6518000  *    22    21    19
    24       C          1.55300000  *  112.6954000  *  160.1126000  *    23    22    21
    25       C          1.55150000  *  111.2168000  * -163.5467000  *    24    23    22
    26       C          1.55120000  *  111.3200000  *  175.4696000  *    25    24    23
    27       C          1.54760000  *  111.3905000  * -176.9317000  *    26    25    24
    28       C          1.55880000  *  114.2240000  *  -42.7390000  *    22    21    19
    29       C          1.54910000  *  112.2186000  *  -57.2473000  *    28    22    21
    30       C          1.44390000  *  106.6728000  *  173.8124000  *    21    19    20
    31       C          1.35340000  *  110.9689000  *    4.5603000  *    30    21    19
    32       C          1.47870000  *  122.7533000  * -177.9015000  *    31    30    21
    33       C          1.46680000  *  119.3107000  *  178.7730000  *    32    31    30
    34       C          1.34760000  *  120.2880000  *  -90.2901000  *    33    32    31
    35       C          1.46970000  *  120.0743000  *  175.5330000  *    34    33    32
    36       C          1.34480000  *  120.0569000  *    0.2106000  *    35    34    33
    37       C          1.46940000  *  120.0194000  *    0.2694000  *    36    35    34
    38       C          1.34480000  *  120.0797000  *   -0.5583000  *    37    36    35
    39       C          1.35010000  *  116.8984000  *    0.2286000  *    32    31    30
    40       C          1.47480000  *  120.4981000  * -176.1990000  *    39    32    33
    41       C          1.34860000  *  122.9277000  *   -2.8560000  *    40    39    32
    42       C          1.46830000  *  120.9650000  *  177.3083000  *    41    40    39
    43       C          1.34750000  *  120.5809000  *  -95.9503000  *    42    41    40
    44       C          1.46980000  *  120.1103000  *  179.1331000  *    43    42    41
    45       C          1.34490000  *  120.0944000  *    0.0000000  *    44    43    42
    46       C          1.46950000  *  120.0195000  *    0.0000000  *    45    44    43
    47       C          1.34480000  *  119.9999000  *   -0.0879000  *    46    45    44
    48       C          1.46720000  *  105.8571000  *  175.4422000  *    40    39    32
    49       C          1.34650000  *  108.5937000  *  179.5815000  *    48    40    41
    50       N          1.43240000  *  111.4937000  *   -0.3662000  *    49    48    40
    51       C          1.46760000  *  124.8066000  *  170.6375000  *    50    49    48
    52       C          1.56130000  *  109.1274000  *   73.8757000  *    51    50    49
    53       C          1.55400000  *  115.6383000  *  175.9128000  *    52    51    50
    54       C          1.55040000  *  113.0302000  *  -69.0816000  *    53    52    51
    55       C          1.55060000  *  111.4658000  * -177.5965000  *    54    53    52
    56       C          1.54740000  *  111.3182000  *  179.7580000  *    55    54    53
    57       C          1.56140000  *  110.8729000  *  -53.1270000  *    51    50    49
    58       C          1.54940000  *  112.7796000  * -131.4810000  *    57    51    50
    59       C          1.47120000  *  119.9283000  *  179.5730000  *    49    48    40
    60       C          1.34550000  *  119.4143000  *    0.6914000  *    59    49    48
    61       C          1.47130000  *  120.3927000  *    0.3264000  *    60    59    49
    62       C          1.34560000  *  120.3608000  *   -0.6712000  *    61    60    59
    63       C          1.33860000  *  107.5958000  * -165.6783000  *     8     7     6
    64       C          1.42410000  *  110.6680000  *   -2.0984000  *    63     8     7
    65       C          1.44520000  *  125.3598000  *   35.4978000  *     7     6     5
    66       O          1.22940000  *  125.1595000  *  149.4639000  *    65     7     8
    67       C          1.33810000  *  110.8233000  * -169.8131000  *    64    63     8
    68       N          1.45590000  *  107.7865000  *   -3.7000000  *    67    64    63
    69       C          1.45150000  *  140.0314000  * -170.2406000  *    63     8     7
    70       O          1.23040000  *  119.5982000  *   25.9123000  *    69    63     8
    71       C          1.47870000  *  126.8498000  * -177.6811000  *    68    67    64
    72       C          1.56780000  *  111.9061000  *  -20.9103000  *    71    68    69
    73       C          1.55480000  *  114.6455000  *  171.7414000  *    72    71    68
    74       C          1.55290000  *  110.6044000  *  178.2600000  *    73    72    71
    75       C          1.55100000  *  111.5314000  *  177.0537000  *    74    73    72
    76       C          1.54790000  *  111.3820000  *  176.8689000  *    75    74    73
    77       C          1.56780000  *  112.9922000  * -144.1599000  *    71    68    69
    78       C          1.55070000  *  112.2862000  * -125.7557000  *    77    71    68
    79       C          1.46450000  *  122.0491000  *  170.9629000  *    67    64    63
    80       C          1.34650000  *  119.8413000  *   66.2948000  *    79    67    64
    81       C          1.46720000  *  120.4186000  * -175.4129000  *    80    79    67
    82       C          1.34760000  *  120.5946000  *    0.9088000  *    81    80    79
    83       C          1.47710000  *  118.8330000  *   -0.7108000  *    82    81    80
    84       C          1.34540000  *  120.5825000  *    0.3777000  *    83    82    81
    85       C          1.46870000  *  120.1700000  *  177.5030000  *    82    81    80
    86       C          1.34910000  *  127.5889000  *  156.4707000  *    85    82    81
    87       C          1.48750000  *  115.8988000  *  179.1675000  *    86    85    82
    88       C          1.34840000  *  116.0588000  *   -1.4546000  *    87    86    85
    89       S          1.82070000  *  106.8839000  *    1.8315000  *    88    87    86
    90       C          1.46750000  *  125.2211000  *  178.0996000  *    88    87    86
    91       C          1.34980000  *  125.1266000  *  151.5562000  *    90    88    87
    92       C          1.47450000  *  120.7479000  * -179.8254000  *    91    90    88
    93       O          1.23220000  *  121.2179000  *   -2.7287000  *    92    91    90
    94       O          1.35550000  *  119.7954000  *  178.0335000  *    92    91    90
    95       C          1.42850000  *  122.0152000  *   -1.8020000  *    91    90    88
    96       N          1.15830000  *  179.3944000  *  177.8841000  *    95    91    90
    97       C          1.56010000  *  114.0121000  *  -65.4339000  *     6     5     4
    98       C          1.54870000  *  114.7021000  *   62.2212000  *    97     6     7
    99       H          1.05330000  *  116.5683000  *  -27.1529000  *    90    88    87
   100       H          1.09110000  *  110.0609000  *  -60.4586000  *     1     2     3
   101       H          1.09120000  *  110.0580000  *   60.0313000  *     1     2     3
   102       H          1.09090000  *  109.4956000  *  179.7959000  *     1     2     3
   103       H          1.09240000  *  108.8218000  *   60.3264000  *     2     1   100
   104       H          1.09230000  *  108.8725000  *   58.9978000  *     2     1   102
   105       H          1.09260000  *  109.0938000  *  179.6014000  *     3     2   103
   106       H          1.09260000  *  109.1262000  *  179.2371000  *     3     2   104
   107       H          1.09140000  *  108.7797000  *  179.9149000  *     4     3   105
   108       H          1.09220000  *  109.2331000  *  179.9736000  *     4     3   106
   109       H          1.09380000  *  107.8100000  * -176.8767000  *     5     4   107
   110       H          1.09120000  *  108.8666000  *  -59.4855000  *     5     4   107
   111       H          1.09400000  *  105.8341000  *  -68.1707000  *     6     5   109
   112       H          1.05130000  *  120.4525000  *    0.7703000  *    10     9     8
   113       H          1.05160000  *  119.0522000  *  178.3093000  *    11    10     9
   114       H          1.05180000  *  120.1004000  * -179.3703000  *    13    12    11
   115       H          1.05160000  *  119.6314000  *  179.2817000  *    14    13    12
   116       H          1.05180000  *  120.2782000  *   -0.1477000  *    16    15    12
   117       H          1.04570000  *  119.2702000  *  177.3729000  *    17    16    15
   118       H          1.04860000  *  121.1653000  *   -0.5776000  *    20    19    21
   119       H          1.08760000  *  108.1489000  * -159.0832000  *    22    21    19
   120       H          1.09120000  *  110.2469000  *  -77.5413000  *    23    22    21
   121       H          1.09290000  *  107.9634000  *  -76.4771000  *    23    22   119
   122       H          1.09150000  *  109.3885000  * -166.3637000  *    24    23   120
   123       H          1.09180000  *  109.4425000  *  -47.3484000  *    24    23   120
   124       H          1.09240000  *  109.2631000  *  175.9313000  *    25    24   122
   125       H          1.09280000  *  109.1483000  *  -65.1718000  *    25    24   122
   126       H          1.09260000  *  109.4736000  * -177.5864000  *    26    25   124
   127       H          1.09240000  *  109.4502000  *  -58.4344000  *    26    25   124
   128       H          1.09080000  *  110.0792000  *  179.3581000  *    27    26   126
   129       H          1.09120000  *  110.0220000  * -178.5872000  *    27    26   127
   130       H          1.09110000  *  109.5026000  *  -58.8994000  *    27    26   127
   131       H          1.08920000  *  110.8793000  * -176.6097000  *    28    22   119
   132       H          1.09260000  *  108.8030000  *  -58.0660000  *    28    22   119
   133       H          1.09110000  *  109.3607000  *   60.9445000  *    29    28   131
   134       H          1.09120000  *  110.0607000  * -179.4591000  *    29    28   131
   135       H          1.09020000  *  110.4612000  *  -58.7507000  *    29    28   131
   136       H          1.05130000  *  120.3860000  *   -2.3592000  *    34    33    32
   137       H          1.05110000  *  119.8437000  * -179.4381000  *    35    34    33
   138       H          1.05100000  *  120.1088000  * -179.7662000  *    36    35    34
   139       H          1.05100000  *  119.8365000  *  179.8069000  *    37    36    35
   140       H          1.05130000  *  119.9302000  * -179.5879000  *    38    37    36
   141       H          1.05140000  *  120.4055000  *   -0.5207000  *    43    42    41
   142       H          1.05080000  *  119.8229000  *  179.8349000  *    44    43    42
   143       H          1.05090000  *  120.1369000  *  179.8374000  *    45    44    43
   144       H          1.05080000  *  119.9237000  * -179.9164000  *    46    45    44
   145       H          1.05140000  *  119.8489000  * -179.8942000  *    47    46    45
   146       H          1.08470000  *  108.4335000  * -169.9576000  *    51    50    49
   147       H          1.09100000  *  109.3665000  *  -62.6860000  *    52    51    50
   148       H          1.09400000  *  108.3812000  *  -63.0503000  *    52    51   146
   149       H          1.09080000  *  109.9499000  *  -68.3890000  *    53    52   147
   150       H          1.09360000  *  107.7317000  *   48.9212000  *    53    52   147
   151       H          1.09190000  *  108.9135000  *  179.4901000  *    54    53   149
   152       H          1.09060000  *  109.6055000  *  -61.2513000  *    54    53   149
   153       H          1.09230000  *  109.4646000  *  179.9363000  *    55    54   151
   154       H          1.09230000  *  109.4773000  * -179.6522000  *    55    54   152
   155       H          1.09120000  *  109.5139000  *   59.6497000  *    56    55   153
   156       H          1.09120000  *  110.0472000  *  179.4019000  *    56    55   153
   157       H          1.09110000  *  110.0234000  *  -60.0901000  *    56    55   153
   158       H          1.09280000  *  109.4414000  *  105.5369000  *    57    51   146
   159       H          1.09120000  *  110.2994000  * -135.6341000  *    57    51   146
   160       H          1.08950000  *  110.6585000  *  179.8650000  *    58    57   158
   161       H          1.09120000  *  109.9083000  * -176.0417000  *    58    57   159
   162       H          1.09110000  *  109.3255000  *  -56.6639000  *    58    57   159
   163       H          1.04810000  *  121.2582000  * -178.7888000  *    59    49    48
   164       H          1.05080000  *  119.9456000  * -179.7418000  *    60    59    49
   165       H          1.05150000  *  119.7172000  *  179.0270000  *    61    60    59
   166       H          1.04670000  *  119.2274000  *  179.2931000  *    62    61    60
   167       H          1.09450000  *  106.2169000  *   96.2549000  *    71    68    69
   168       H          1.09350000  *  108.8486000  *  -65.4180000  *    72    71    68
   169       H          1.08990000  *  109.4449000  *  -63.5241000  *    72    71   167
   170       H          1.09230000  *  109.0150000  *  176.0800000  *    73    72   168
   171       H          1.09040000  *  110.3278000  *  179.1335000  *    73    72   169
   172       H          1.09280000  *  108.9254000  *  177.4772000  *    74    73   170
   173       H          1.09240000  *  109.3763000  *  177.4382000  *    74    73   171
   174       H          1.09240000  *  109.3653000  *  176.9007000  *    75    74   172
   175       H          1.09210000  *  109.5631000  *  177.3320000  *    75    74   173
   176       H          1.09130000  *  110.0260000  *  177.7650000  *    76    75   174
   177       H          1.09110000  *  110.1148000  *  179.8242000  *    76    75   175
   178       H          1.09120000  *  109.4935000  *  -60.3513000  *    76    75   175
   179       H          1.08720000  *  110.9426000  *  113.9338000  *    77    71   167
   180       H          1.09230000  *  110.2949000  * -128.7103000  *    77    71   167
   181       H          1.09100000  *  109.4748000  *   55.4704000  *    78    77   179
   182       H          1.09020000  *  110.3215000  *  175.2688000  *    78    77   179
   183       H          1.08910000  *  110.3892000  *  -64.3151000  *    78    77   179
   184       H          1.05180000  *  120.3108000  *    3.1567000  *    80    79    67
   185       H          1.05090000  *  118.7192000  *  179.9221000  *    81    80    79
   186       H          1.05110000  *  120.2177000  *  179.2586000  *    83    82    81
   187       H          1.05120000  *  119.8051000  *  179.0548000  *    84    83    82
   188       H          1.04840000  *  122.7163000  *   -1.1888000  *    86    85    82
   189       H          1.04920000  *  121.5597000  *  178.7275000  *    87    86    85
   190       H          0.94020000  *  121.0996000  *    0.3642000  *    94    92    93
   191       H          1.09170000  *  109.3917000  *  -59.4481000  *    97     6   111
   192       H          1.09320000  *  108.5230000  *   57.3387000  *    97     6   111
   193       H          1.08990000  *  110.5610000  *  -61.7912000  *    98    97   191
   194       H          1.09160000  *  109.1150000  *   57.6370000  *    98    97   191
   195       H          1.09020000  *  110.3936000  *  176.9363000  *    98    97   191
 


          CARTESIAN COORDINATES 

    NO.       ATOM           X           Y           Z

     1         C          0.0000      0.0000      0.0000
     2         C          1.5476      0.0000      0.0000
     3         C          2.1149      1.4437      0.0000
     4         C          3.6672      1.4442      0.0169
     5         C          4.2188      2.8958      0.0137
     6         C          5.7747      2.9726     -0.0594
     7         N          6.2545      4.3296     -0.3454
     8         C          7.5735      4.6241     -0.8688
     9         C          8.4947      3.6971     -1.5295
    10         C          8.0976      2.9622     -2.5850
    11         C          9.0223      2.0112     -3.2156
    12         C         10.2815      1.8729     -2.7547
    13         C         10.7274      2.7065     -1.6235
    14         C          9.8779      3.5704     -1.0404
    15         C         11.1994      0.8802     -3.3412
    16         C         10.8092     -0.4048     -3.4847
    17         C         11.7262     -1.4175     -4.0303
    18         C         12.9568     -1.0333     -4.4028
    19         C         13.3722      0.3589     -4.2948
    20         C         12.5580      1.2850     -3.7613
    21         N         14.6939      0.4568     -4.8095
    22         C         15.2831      1.6801     -5.3645
    23         C         15.8606      2.5368     -4.1992
    24         C         16.9123      3.5729     -4.6812
    25         C         17.7547      4.1114     -3.4949
    26         C         18.8794      5.0599     -3.9865
    27         C         19.7680      5.5377     -2.8129
    28         C         14.3268      2.4850     -6.2960
    29         C         13.8124      1.6337     -7.4836
    30         C         15.1208     -0.8887     -5.1136
    31         C         14.1161     -1.7728     -4.9119
    32         C         14.2827     -3.2298     -5.1008
    33         C         13.1497     -4.1226     -4.8347
    34         C         12.9704     -4.6453     -3.6057
    35         C         11.7811     -5.4595     -3.3179
    36         C         10.8717     -5.6877     -4.2820
    37         C         11.0692     -5.1281     -5.6262
    38         C         12.1534     -4.3779     -5.8914
    39         C         15.5029     -3.6602     -5.4865
    40         C         16.6147     -2.7058     -5.6541
    41         C         16.4690     -1.3749     -5.4923
    42         C         17.6183     -0.4690     -5.6124
    43         C         18.2914     -0.0666     -4.5166
    44         C         19.4521      0.8251     -4.6503
    45         C         19.8456      1.2421     -5.8669
    46         C         19.1151      0.8063     -7.0652
    47         C         18.0539     -0.0110     -6.9456
    48         C         17.7966     -3.5177     -5.9646
    49         C         17.4278     -4.8118     -6.0135
    50         N         16.0301     -4.9697     -5.7430
    51         C         15.2804     -6.2202     -5.9109
    52         C         15.6599     -7.2028     -4.7585
    53         C         14.8758     -8.5443     -4.7332
    54         C         13.3823     -8.3670     -4.3569
    55         C         12.6496     -9.7316     -4.2840
    56         C         11.1609     -9.5512     -3.9023
    57         C         15.4791     -6.7994     -7.3472
    58         C         14.1431     -7.1961     -8.0242
    59         C         18.4261     -5.8485     -6.3185
    60         C         19.7056     -5.4913     -6.5324
    61         C         20.1066     -4.0778     -6.4554
    62         C         19.1951     -3.1261     -6.1835
    63         C          7.7874      5.9362     -0.7120
    64         C          6.6445      6.5673     -0.1431
    65         C          5.6468      5.5499      0.1341
    66         O          4.4403      5.7862      0.1375
    67         C          6.7654      7.8992     -0.1871
    68         N          8.0803      8.2087     -0.7300
    69         C          8.7333      6.9641     -1.1064
    70         O          9.3838      6.8263     -2.1417
    71         C          8.6692      9.5523     -0.9158
    72         C         10.2290      9.4923     -1.0618
    73         C         10.8952     10.8394     -1.4603
    74         C         12.4386     10.6846     -1.5357
    75         C         13.1202     11.9970     -2.0032
    76         C         14.6623     11.8633     -2.0023
    77         C          8.3074     10.5450      0.2425
    78         C          7.6667     11.8552     -0.2845
    79         C          5.6549      8.7919      0.1516
    80         C          5.1897      8.8332      1.4145
    81         C          4.0147      9.6464      1.7471
    82         C          3.3737     10.3484      0.7919
    83         C          3.8844     10.2975     -0.5931
    84         C          4.9659      9.5571     -0.8972
    85         C          2.1663     11.1156      1.1246
    86         C          1.6600     12.1793      0.4671
    87         C          0.4040     12.7496      1.0238
    88         C         -0.1039     12.1219      2.1037
    89         S          1.0427     10.7694      2.5171
    90         C         -1.3069     12.5357      2.8352
    91         C         -2.1241     11.7066      3.5184
    92         C         -3.3130     12.2275      4.2178
    93         O         -3.5639     13.4337      4.2393
    94         O         -4.1424     11.3725      4.8647
    95         C         -1.9056     10.2956      3.5635
    96         N         -1.7382      9.1504      3.6076
    97         C          6.4987      2.3915      1.1944
    98         C          6.2503      3.1758      2.5066
    99         H         -1.5507     13.5598      2.7999
   100         H         -0.3743      0.5053      0.8917
   101         H         -0.3743      0.5120     -0.8880
   102         H         -0.3641     -1.0283     -0.0037
   103         H          1.9000     -0.5292      0.8883
   104         H          1.9009     -0.5292     -0.8878
   105         H          1.7648      1.9653     -0.8940
   106         H          1.7476      1.9727      0.8827
   107         H          4.0090      0.9231      0.9129
   108         H          4.0368      0.9154     -0.8644
   109         H          3.8135      3.4058     -0.8650
   110         H          3.8609      3.4112      0.9065
   111         H          6.0651      2.3442     -0.9065
   112         H          7.1193      3.0526     -2.9593
   113         H          8.6833      1.4276     -4.0221
   114         H         11.7097      2.6181     -1.2581
   115         H         10.2043      4.1515     -0.2270
   116         H          9.8493     -0.7051     -3.1769
   117         H         11.4109     -2.4126     -4.0915
   118         H         12.8651      2.2822     -3.6572
   119         H         16.1183      1.3956     -6.0004
   120         H         15.0555      3.0574     -3.6782
   121         H         16.3423      1.8595     -3.4895
   122         H         17.5831      3.1002     -5.4009
   123         H         16.4039      4.4059     -5.1708
   124         H         17.1017      4.6498     -2.8042
   125         H         18.2092      3.2696     -2.9667
   126         H         19.5079      4.5354     -4.7101
   127         H         18.4340      5.9306     -4.4732
   128         H         19.1641      6.0754     -2.0808
   129         H         20.2414      4.6812     -2.3301
   130         H         20.5443      6.2042     -3.1917
   131         H         13.4756      2.8719     -5.7374
   132         H         14.8725      3.3363     -6.7099
   133         H         13.2117      2.2605     -8.1445
   134         H         14.6549      1.2307     -8.0479
   135         H         13.1948      0.8108     -7.1233
   136         H         13.6607     -4.4476     -2.8378
   137         H         11.6404     -5.8580     -2.3555
   138         H         10.0191     -6.2667     -4.0761
   139         H         10.3582     -5.3109     -6.3783
   140         H         12.2891     -3.9734     -6.8522
   141         H         17.9955     -0.3911     -3.5613
   142         H         19.9722      1.1382     -3.7926
   143         H         20.6738      1.8818     -5.9631
   144         H         19.4246      1.1320     -8.0151
   145         H         17.5339     -0.3226     -7.8047
   146         H         14.2229     -6.0028     -5.8059
   147         H         16.7214     -7.4458     -4.8250
   148         H         15.5010     -6.6927     -3.8038
   149         H         14.9572     -9.0412     -5.7009
   150         H         15.3437     -9.1895     -3.9843
   151         H         13.3184     -7.8771     -3.3831
   152         H         12.8886     -7.7431     -5.1028
   153         H         12.7077    -10.2283     -5.2551
   154         H         13.1314    -10.3642     -3.5351
   155         H         10.6765    -10.5277     -3.8524
   156         H         11.0807     -9.0654     -2.9285
   157         H         10.6542     -8.9419     -4.6523
   158         H         15.9497     -6.0445     -7.9819
   159         H         16.1331     -7.6723     -7.3162
   160         H         13.6242     -7.9527     -7.4366
   161         H         13.5035     -6.3179     -8.1270
   162         H         14.3474     -7.6008     -9.0167
   163         H         18.1583     -6.8600     -6.3803
   164         H         20.4247     -6.2245     -6.7548
   165         H         21.1123     -3.8122     -6.6093
   166         H         19.5019     -2.1273     -6.1219
   167         H          8.2631      9.9365     -1.8568
   168         H         10.6586      9.1398     -0.1200
   169         H         10.4930      8.7827     -1.8457
   170         H         10.5131     11.1508     -2.4351
   171         H         10.6614     11.6098     -0.7250
   172         H         12.8167     10.4170     -0.5459
   173         H         12.6887      9.8839     -2.2354
   174         H         12.7861     12.2381     -3.0150
   175         H         12.8371     12.8139     -1.3360
   176         H         15.0193     11.6613     -0.9911
   177         H         14.9687     11.0494     -2.6612
   178         H         15.1086     12.7940     -2.3562
   179         H          7.6230     10.0837      0.9501
   180         H          9.2028     10.8061      0.8111
   181         H          7.4107     12.4993      0.5580
   182         H          8.3652     12.3840     -0.9333
   183         H          6.7604     11.6349     -0.8468
   184         H          5.6517      8.2646      2.1693
   185         H          3.6736      9.6581      2.7411
   186         H          3.3945     10.8273     -1.3574
   187         H          5.3100      9.5179     -1.8897
   188         H          2.1175     12.5912     -0.3816
   189         H         -0.0554     13.5893      0.5941
   190         H         -4.9026     11.6853      5.3210
   191         H          6.1901      1.3550      1.3432
   192         H          7.5749      2.3863      1.0027
   193         H          5.1898      3.1753      2.7579
   194         H          6.8016      2.6978      3.3185
   195         H          6.5995      4.2037      2.4066

  H: (RM1): G.B. ROCHA, R.O. FREIRE, A.M.SIMAS, J.J.P. STEWART, J. COMP. CHEM. 27, 1101 (2006)
  C: (RM1): G.B. ROCHA, R.O. FREIRE, A.M.SIMAS, J.J.P. STEWART, J. COMP. CHEM. 27, 1101 (2006)
  N: (RM1): G.B. ROCHA, R.O. FREIRE, A.M.SIMAS, J.J.P. STEWART, J. COMP. CHEM. 27, 1101 (2006)
  O: (RM1): G.B. ROCHA, R.O. FREIRE, A.M.SIMAS, J.J.P. STEWART, J. COMP. CHEM. 27, 1101 (2006)
  S: (RM1): G.B. ROCHA, R.O. FREIRE, A.M.SIMAS, J.J.P. STEWART, J. COMP. CHEM. 27, 1101 (2006)

           Empirical Formula: C88 H97 N5 O4 S  =   195 atoms



      MOLECULAR POINT GROUP   :   C1  


      RHF CALCULATION, NO. OF DOUBLY OCCUPIED LEVELS = 252


          Geometry optimization using L-BFGS
 CYCLE:     1 TIME:   1.785 TIME LEFT:  2.00D  GRAD.:   771.670 HEAT:  144.8284
 CYCLE:     2 TIME:   0.770 TIME LEFT:  2.00D  GRAD.:   685.636 HEAT:  139.2048
 CYCLE:     3 TIME:   1.152 TIME LEFT:  2.00D  GRAD.:   524.146 HEAT:  109.4392
 CYCLE:     4 TIME:   0.830 TIME LEFT:  2.00D  GRAD.:   687.060 HEAT:  139.2041
 CYCLE:     5 TIME:   0.879 TIME LEFT:  2.00D  GRAD.:   526.204 HEAT:  109.4555
 CYCLE:     6 TIME:   0.832 TIME LEFT:  2.00D  GRAD.:   484.139 HEAT:  97.58658
 CYCLE:     7 TIME:   1.049 TIME LEFT:  2.00D  GRAD.:  1260.543 HEAT:  61.96337
 CYCLE:     8 TIME:   1.225 TIME LEFT:  2.00D  GRAD.:   760.303 HEAT:  53.45119
 CYCLE:     9 TIME:   0.896 TIME LEFT:  2.00D  GRAD.:   328.717 HEAT:  31.95217
 CYCLE:    10 TIME:   1.262 TIME LEFT:  2.00D  GRAD.:   199.698 HEAT:  28.15812
 CYCLE:    11 TIME:   3.518 TIME LEFT:  2.00D  GRAD.:   126.936 HEAT:  26.54843
 CYCLE:    12 TIME:   0.936 TIME LEFT:  2.00D  GRAD.:   117.576 HEAT:  23.68202
 CYCLE:    13 TIME:   1.025 TIME LEFT:  2.00D  GRAD.:   110.594 HEAT:  21.16572
 CYCLE:    14 TIME:   0.891 TIME LEFT:  2.00D  GRAD.:   239.734 HEAT:  19.32080
 CYCLE:    15 TIME:   0.781 TIME LEFT:  2.00D  GRAD.:   120.933 HEAT:  16.93836
 CYCLE:    16 TIME:   0.836 TIME LEFT:  2.00D  GRAD.:   101.187 HEAT:  15.39800
 CYCLE:    17 TIME:   0.832 TIME LEFT:  2.00D  GRAD.:   114.952 HEAT:  13.19432
 CYCLE:    18 TIME:   0.973 TIME LEFT:  2.00D  GRAD.:   357.890 HEAT:  14.03812
 CYCLE:    19 TIME:   0.936 TIME LEFT:  2.00D  GRAD.:    98.411 HEAT:  11.40325
 CYCLE:    20 TIME:   0.842 TIME LEFT:  2.00D  GRAD.:    62.268 HEAT:  10.82954
 CYCLE:    21 TIME:   0.924 TIME LEFT:  2.00D  GRAD.:    78.000 HEAT:  9.800730
 CYCLE:    22 TIME:   0.977 TIME LEFT:  2.00D  GRAD.:    80.203 HEAT:  8.972630
 CYCLE:    23 TIME:   0.967 TIME LEFT:  2.00D  GRAD.:   285.158 HEAT:  10.00981
 CYCLE:    24 TIME:   0.867 TIME LEFT:  2.00D  GRAD.:    55.261 HEAT:  8.074385
 CYCLE:    25 TIME:   0.697 TIME LEFT:  2.00D  GRAD.:    42.770 HEAT:  7.858218
 CYCLE:    26 TIME:   0.893 TIME LEFT:  2.00D  GRAD.:    56.074 HEAT:  7.266179
 CYCLE:    27 TIME:   0.783 TIME LEFT:  2.00D  GRAD.:   100.085 HEAT:  7.009526
 CYCLE:    28 TIME:   0.920 TIME LEFT:  2.00D  GRAD.:    43.656 HEAT:  6.678216
 CYCLE:    29 TIME:   0.828 TIME LEFT:  2.00D  GRAD.:    39.099 HEAT:  6.460336
 CYCLE:    30 TIME:   0.918 TIME LEFT:  2.00D  GRAD.:    55.549 HEAT:  6.182809
 CYCLE:    31 TIME:   0.754 TIME LEFT:  2.00D  GRAD.:    61.850 HEAT:  5.787186
 CYCLE:    32 TIME:   0.828 TIME LEFT:  2.00D  GRAD.:   195.753 HEAT:  6.242198
 CYCLE:    33 TIME:   0.793 TIME LEFT:  2.00D  GRAD.:    38.694 HEAT:  5.387153
 CYCLE:    34 TIME:   0.809 TIME LEFT:  2.00D  GRAD.:    30.469 HEAT:  5.285386
 CYCLE:    35 TIME:   0.857 TIME LEFT:  2.00D  GRAD.:    55.631 HEAT:  4.996159
 CYCLE:    36 TIME:   0.926 TIME LEFT:  2.00D  GRAD.:    74.660 HEAT:  4.688897
 CYCLE:    37 TIME:   0.844 TIME LEFT:  2.00D  GRAD.:    99.094 HEAT:  4.355404
 CYCLE:    38 TIME:   1.064 TIME LEFT:  2.00D  GRAD.:    55.340 HEAT:  3.923696
 CYCLE:    39 TIME:   0.791 TIME LEFT:  2.00D  GRAD.:    41.100 HEAT:  3.673378
 CYCLE:    40 TIME:   0.734 TIME LEFT:  2.00D  GRAD.:    66.848 HEAT:  3.317345
 CYCLE:    41 TIME:   0.754 TIME LEFT:  2.00D  GRAD.:    71.471 HEAT:  3.061827
 CYCLE:    42 TIME:   1.504 TIME LEFT:  2.00D  GRAD.:    50.074 HEAT:  2.672966
 CYCLE:    43 TIME:   2.898 TIME LEFT:  2.00D  GRAD.:    50.952 HEAT:  2.404969
 CYCLE:    44 TIME:   0.990 TIME LEFT:  2.00D  GRAD.:    44.138 HEAT:  2.171631
 CYCLE:    45 TIME:   0.656 TIME LEFT:  2.00D  GRAD.:    45.267 HEAT:  1.944647
 CYCLE:    46 TIME:   0.816 TIME LEFT:  2.00D  GRAD.:    66.313 HEAT:  1.760088
 CYCLE:    47 TIME:   0.781 TIME LEFT:  2.00D  GRAD.:    33.964 HEAT:  1.561351
 CYCLE:    48 TIME:   0.713 TIME LEFT:  2.00D  GRAD.:    31.946 HEAT:  1.426324
 CYCLE:    49 TIME:   0.787 TIME LEFT:  2.00D  GRAD.:    39.626 HEAT:  1.219746
 CYCLE:    50 TIME:   0.963 TIME LEFT:  2.00D  GRAD.:    55.070 HEAT:  1.020317
 CYCLE:    51 TIME:   0.889 TIME LEFT:  2.00D  GRAD.:    31.019 HEAT: 0.8269203
 CYCLE:    52 TIME:   0.727 TIME LEFT:  2.00D  GRAD.:    30.754 HEAT: 0.6757468
 CYCLE:    53 TIME:   0.770 TIME LEFT:  2.00D  GRAD.:    50.953 HEAT: 0.4739481
 CYCLE:    54 TIME:   0.932 TIME LEFT:  2.00D  GRAD.:    53.055 HEAT: 0.2964827
 CYCLE:    55 TIME:   0.705 TIME LEFT:  2.00D  GRAD.:    32.592 HEAT: 0.1497972
 CYCLE:    56 TIME:   0.762 TIME LEFT:  2.00D  GRAD.:    34.046 HEAT:-0.3297282E-01
 CYCLE:    57 TIME:   0.787 TIME LEFT:  2.00D  GRAD.:    41.622 HEAT:-0.1232150
 CYCLE:    58 TIME:   0.973 TIME LEFT:  2.00D  GRAD.:    30.520 HEAT:-0.2411383
 CYCLE:    59 TIME:   0.822 TIME LEFT:  2.00D  GRAD.:    24.275 HEAT:-0.4066296
 CYCLE:    60 TIME:   0.898 TIME LEFT:  2.00D  GRAD.:    42.072 HEAT:-0.5329184
 CYCLE:    61 TIME:   0.750 TIME LEFT:  2.00D  GRAD.:    35.187 HEAT:-0.6585002
 CYCLE:    62 TIME:   0.738 TIME LEFT:  2.00D  GRAD.:    25.748 HEAT:-0.7567844
 CYCLE:    63 TIME:   0.883 TIME LEFT:  2.00D  GRAD.:    38.472 HEAT:-0.8627265
 CYCLE:    64 TIME:   0.811 TIME LEFT:  2.00D  GRAD.:    28.022 HEAT:-0.9457018
 CYCLE:    65 TIME:   0.717 TIME LEFT:  2.00D  GRAD.:    27.246 HEAT: -1.040195
 CYCLE:    66 TIME:   0.902 TIME LEFT:  2.00D  GRAD.:    45.271 HEAT: -1.169372
 CYCLE:    67 TIME:   0.748 TIME LEFT:  2.00D  GRAD.:    44.407 HEAT: -1.237921
 CYCLE:    68 TIME:   0.633 TIME LEFT:  2.00D  GRAD.:    21.437 HEAT: -1.302558
 CYCLE:    69 TIME:   0.838 TIME LEFT:  2.00D  GRAD.:    21.237 HEAT: -1.367896
 CYCLE:    70 TIME:   0.691 TIME LEFT:  2.00D  GRAD.:    24.680 HEAT: -1.439669
 CYCLE:    71 TIME:   0.744 TIME LEFT:  2.00D  GRAD.:    33.165 HEAT: -1.548428
 CYCLE:    72 TIME:   0.766 TIME LEFT:  2.00D  GRAD.:    36.192 HEAT: -1.635336
 CYCLE:    73 TIME:   0.719 TIME LEFT:  2.00D  GRAD.:    20.624 HEAT: -1.717739
 CYCLE:    74 TIME:   0.902 TIME LEFT:  2.00D  GRAD.:    22.075 HEAT: -1.778932
 CYCLE:    75 TIME:   0.795 TIME LEFT:  2.00D  GRAD.:    29.466 HEAT: -1.849628
 CYCLE:    76 TIME:   1.412 TIME LEFT:  2.00D  GRAD.:    50.896 HEAT: -1.890951
 CYCLE:    77 TIME:   2.395 TIME LEFT:  2.00D  GRAD.:    19.525 HEAT: -1.966905
 CYCLE:    78 TIME:   0.900 TIME LEFT:  2.00D  GRAD.:    19.598 HEAT: -2.013503
 CYCLE:    79 TIME:   0.977 TIME LEFT:  2.00D  GRAD.:    23.126 HEAT: -2.063043
 CYCLE:    80 TIME:   0.744 TIME LEFT:  2.00D  GRAD.:    34.086 HEAT: -2.150753
 CYCLE:    81 TIME:   0.906 TIME LEFT:  2.00D  GRAD.:    35.550 HEAT: -2.235972
 CYCLE:    82 TIME:   1.320 TIME LEFT:  2.00D  GRAD.:    16.228 HEAT: -2.301961
 CYCLE:    83 TIME:   0.867 TIME LEFT:  2.00D  GRAD.:    18.398 HEAT: -2.346752
 CYCLE:    84 TIME:   0.840 TIME LEFT:  2.00D  GRAD.:    20.729 HEAT: -2.401598
 CYCLE:    85 TIME:   0.906 TIME LEFT:  2.00D  GRAD.:    58.174 HEAT: -2.436596
 CYCLE:    86 TIME:   0.812 TIME LEFT:  2.00D  GRAD.:    17.164 HEAT: -2.538557
 CYCLE:    87 TIME:   0.732 TIME LEFT:  2.00D  GRAD.:    14.027 HEAT: -2.564030
 CYCLE:    88 TIME:   0.779 TIME LEFT:  2.00D  GRAD.:    20.347 HEAT: -2.618164
 CYCLE:    89 TIME:   0.840 TIME LEFT:  2.00D  GRAD.:    47.026 HEAT: -2.644119
 CYCLE:    90 TIME:   0.732 TIME LEFT:  2.00D  GRAD.:    21.032 HEAT: -2.705031
 CYCLE:    91 TIME:   0.766 TIME LEFT:  2.00D  GRAD.:    13.159 HEAT: -2.750076
 CYCLE:    92 TIME:   0.738 TIME LEFT:  2.00D  GRAD.:    14.054 HEAT: -2.777295
 CYCLE:    93 TIME:   0.938 TIME LEFT:  2.00D  GRAD.:    27.445 HEAT: -2.826316
 CYCLE:    94 TIME:   0.707 TIME LEFT:  2.00D  GRAD.:    21.034 HEAT: -2.881800
 CYCLE:    95 TIME:   0.666 TIME LEFT:  2.00D  GRAD.:    14.288 HEAT: -2.921434
 CYCLE:    96 TIME:   0.812 TIME LEFT:  2.00D  GRAD.:    17.003 HEAT: -2.959357
 CYCLE:    97 TIME:   0.984 TIME LEFT:  2.00D  GRAD.:    29.990 HEAT: -2.987894
 CYCLE:    98 TIME:   0.701 TIME LEFT:  2.00D  GRAD.:    19.114 HEAT: -3.025340
 CYCLE:    99 TIME:   0.688 TIME LEFT:  2.00D  GRAD.:    14.588 HEAT: -3.086328
 CYCLE:   100 TIME:   0.863 TIME LEFT:  2.00D  GRAD.:    14.859 HEAT: -3.112280
 CYCLE:   101 TIME:   0.791 TIME LEFT:  2.00D  GRAD.:    21.827 HEAT: -3.179422
 CYCLE:   102 TIME:   0.729 TIME LEFT:  2.00D  GRAD.:    28.503 HEAT: -3.212532
 CYCLE:   103 TIME:   0.760 TIME LEFT:  2.00D  GRAD.:    14.104 HEAT: -3.240351
 CYCLE:   104 TIME:   0.850 TIME LEFT:  2.00D  GRAD.:    11.214 HEAT: -3.261255
 CYCLE:   105 TIME:   0.932 TIME LEFT:  2.00D  GRAD.:    13.380 HEAT: -3.284146
 CYCLE:   106 TIME:   0.754 TIME LEFT:  2.00D  GRAD.:    29.731 HEAT: -3.331948
 CYCLE:   107 TIME:   0.734 TIME LEFT:  2.00D  GRAD.:    32.013 HEAT: -3.362574
 CYCLE:   108 TIME:   0.648 TIME LEFT:  2.00D  GRAD.:    14.913 HEAT: -3.394503
 CYCLE:   109 TIME:   0.705 TIME LEFT:  2.00D  GRAD.:    11.955 HEAT: -3.416866
 CYCLE:   110 TIME:   0.711 TIME LEFT:  2.00D  GRAD.:    15.353 HEAT: -3.440470
 CYCLE:   111 TIME:   0.840 TIME LEFT:  2.00D  GRAD.:    25.823 HEAT: -3.496085
 CYCLE:   112 TIME:   0.709 TIME LEFT:  2.00D  GRAD.:    37.292 HEAT: -3.524914
 CYCLE:   113 TIME:   0.814 TIME LEFT:  2.00D  GRAD.:    15.659 HEAT: -3.563771
 CYCLE:   114 TIME:   0.896 TIME LEFT:  2.00D  GRAD.:    12.969 HEAT: -3.587555
 CYCLE:   115 TIME:   0.934 TIME LEFT:  2.00D  GRAD.:    16.110 HEAT: -3.610524
 CYCLE:   116 TIME:   0.877 TIME LEFT:  2.00D  GRAD.:    19.535 HEAT: -3.660213
 CYCLE:   117 TIME:   0.793 TIME LEFT:  2.00D  GRAD.:    60.456 HEAT: -3.632407
 CYCLE:   118 TIME:   0.650 TIME LEFT:  2.00D  GRAD.:    14.268 HEAT: -3.713022
 CYCLE:   119 TIME:   0.668 TIME LEFT:  2.00D  GRAD.:    11.149 HEAT: -3.729345
 CYCLE:   120 TIME:   0.686 TIME LEFT:  2.00D  GRAD.:    14.434 HEAT: -3.761388
 CYCLE:   121 TIME:   0.764 TIME LEFT:  2.00D  GRAD.:    25.499 HEAT: -3.799763
 CYCLE:   122 TIME:   0.801 TIME LEFT:  2.00D  GRAD.:    14.927 HEAT: -3.828824
 CYCLE:   123 TIME:   0.648 TIME LEFT:  2.00D  GRAD.:    12.029 HEAT: -3.852473
 CYCLE:   124 TIME:   0.701 TIME LEFT:  2.00D  GRAD.:    15.508 HEAT: -3.877908
 CYCLE:   125 TIME:   0.684 TIME LEFT:  2.00D  GRAD.:    21.195 HEAT: -3.906835
 CYCLE:   126 TIME:   0.738 TIME LEFT:  2.00D  GRAD.:    15.105 HEAT: -3.938356
 CYCLE:   127 TIME:   0.852 TIME LEFT:  2.00D  GRAD.:    17.117 HEAT: -3.967340
 CYCLE:   128 TIME:   0.664 TIME LEFT:  2.00D  GRAD.:    13.985 HEAT: -3.986022
 CYCLE:   129 TIME:   0.719 TIME LEFT:  2.00D  GRAD.:    12.838 HEAT: -4.003232
 CYCLE:   130 TIME:   0.725 TIME LEFT:  2.00D  GRAD.:    17.837 HEAT: -4.061362
 CYCLE:   131 TIME:   0.764 TIME LEFT:  2.00D  GRAD.:    63.350 HEAT: -4.032233
 CYCLE:   132 TIME:   0.773 TIME LEFT:  2.00D  GRAD.:    15.239 HEAT: -4.112797
 CYCLE:   133 TIME:   0.789 TIME LEFT:  2.00D  GRAD.:    11.340 HEAT: -4.129140
 CYCLE:   134 TIME:   0.662 TIME LEFT:  2.00D  GRAD.:    13.552 HEAT: -4.164239
 CYCLE:   135 TIME:   0.770 TIME LEFT:  2.00D  GRAD.:    15.039 HEAT: -4.204388
 CYCLE:   136 TIME:   0.932 TIME LEFT:  2.00D  GRAD.:    40.733 HEAT: -4.217532
 CYCLE:   137 TIME:   0.688 TIME LEFT:  2.00D  GRAD.:    12.189 HEAT: -4.266244
 CYCLE:   138 TIME:   0.693 TIME LEFT:  2.00D  GRAD.:    12.046 HEAT: -4.289581
 CYCLE:   139 TIME:   0.791 TIME LEFT:  2.00D  GRAD.:    16.405 HEAT: -4.321243
 CYCLE:   140 TIME:   0.805 TIME LEFT:  2.00D  GRAD.:    33.072 HEAT: -4.354376
 CYCLE:   141 TIME:   0.703 TIME LEFT:  2.00D  GRAD.:    12.981 HEAT: -4.395967
 CYCLE:   142 TIME:   0.920 TIME LEFT:  2.00D  GRAD.:    11.134 HEAT: -4.418446
 CYCLE:   143 TIME:   0.949 TIME LEFT:  2.00D  GRAD.:    13.700 HEAT: -4.441466
 CYCLE:   144 TIME:   0.830 TIME LEFT:  2.00D  GRAD.:    31.932 HEAT: -4.458193
 CYCLE:   145 TIME:   0.795 TIME LEFT:  2.00D  GRAD.:    13.854 HEAT: -4.490130
 CYCLE:   146 TIME:   0.725 TIME LEFT:  2.00D  GRAD.:    11.169 HEAT: -4.517645
 CYCLE:   147 TIME:   0.871 TIME LEFT:  2.00D  GRAD.:    15.482 HEAT: -4.543518
 CYCLE:   148 TIME:   0.725 TIME LEFT:  2.00D  GRAD.:    20.331 HEAT: -4.576504
 CYCLE:   149 TIME:   0.725 TIME LEFT:  2.00D  GRAD.:    25.098 HEAT: -4.613246
 CYCLE:   150 TIME:   0.654 TIME LEFT:  2.00D  GRAD.:    11.696 HEAT: -4.646614
 CYCLE:   151 TIME:   0.738 TIME LEFT:  2.00D  GRAD.:    14.628 HEAT: -4.668645
 CYCLE:   152 TIME:   0.719 TIME LEFT:  2.00D  GRAD.:    17.776 HEAT: -4.696611
 CYCLE:   153 TIME:   0.834 TIME LEFT:  2.00D  GRAD.:    49.705 HEAT: -4.685879
 CYCLE:   154 TIME:   0.770 TIME LEFT:  2.00D  GRAD.:    13.961 HEAT: -4.738609
 CYCLE:   155 TIME:   0.842 TIME LEFT:  2.00D  GRAD.:     9.597 HEAT: -4.752065
 CYCLE:   156 TIME:   0.881 TIME LEFT:  2.00D  GRAD.:    12.195 HEAT: -4.770295
 CYCLE:   157 TIME:   0.760 TIME LEFT:  2.00D  GRAD.:    13.846 HEAT: -4.796916
 CYCLE:   158 TIME:   0.906 TIME LEFT:  2.00D  GRAD.:    45.049 HEAT: -4.793914
 CYCLE:   159 TIME:   0.664 TIME LEFT:  2.00D  GRAD.:    12.258 HEAT: -4.851320
 CYCLE:   160 TIME:   0.836 TIME LEFT:  2.00D  GRAD.:     7.818 HEAT: -4.866045
 CYCLE:   161 TIME:   0.824 TIME LEFT:  2.00D  GRAD.:    13.776 HEAT: -4.884549
 CYCLE:   162 TIME:   0.740 TIME LEFT:  2.00D  GRAD.:    21.487 HEAT: -4.898160
 CYCLE:   163 TIME:   0.686 TIME LEFT:  2.00D  GRAD.:    14.199 HEAT: -4.916964
 CYCLE:   164 TIME:   0.693 TIME LEFT:  2.00D  GRAD.:     9.936 HEAT: -4.956549
 CYCLE:   165 TIME:   0.752 TIME LEFT:  2.00D  GRAD.:    10.973 HEAT: -4.976000
 CYCLE:   166 TIME:   0.742 TIME LEFT:  2.00D  GRAD.:    27.546 HEAT: -4.988333
 CYCLE:   167 TIME:   0.639 TIME LEFT:  2.00D  GRAD.:     9.274 HEAT: -5.010379
 CYCLE:   168 TIME:   0.711 TIME LEFT:  2.00D  GRAD.:     9.176 HEAT: -5.019578
 CYCLE:   169 TIME:   0.662 TIME LEFT:  2.00D  GRAD.:    10.821 HEAT: -5.035424
 CYCLE:   170 TIME:   0.771 TIME LEFT:  2.00D  GRAD.:    17.694 HEAT: -5.058560
 CYCLE:   171 TIME:   0.721 TIME LEFT:  2.00D  GRAD.:    16.805 HEAT: -5.085435
 CYCLE:   172 TIME:   0.707 TIME LEFT:  2.00D  GRAD.:    12.232 HEAT: -5.111244
 CYCLE:   173 TIME:   0.725 TIME LEFT:  2.00D  GRAD.:    11.511 HEAT: -5.132074
 CYCLE:   174 TIME:   0.771 TIME LEFT:  2.00D  GRAD.:    15.131 HEAT: -5.153620
 CYCLE:   175 TIME:   0.859 TIME LEFT:  2.00D  GRAD.:    16.518 HEAT: -5.191233
 CYCLE:   176 TIME:   0.703 TIME LEFT:  2.00D  GRAD.:    14.709 HEAT: -5.224470
 CYCLE:   177 TIME:   0.742 TIME LEFT:  2.00D  GRAD.:    14.124 HEAT: -5.246450
 CYCLE:   178 TIME:   0.742 TIME LEFT:  2.00D  GRAD.:     9.993 HEAT: -5.264081
 CYCLE:   179 TIME:   0.713 TIME LEFT:  2.00D  GRAD.:    11.867 HEAT: -5.293545
 CYCLE:   180 TIME:   0.754 TIME LEFT:  2.00D  GRAD.:    28.837 HEAT: -5.309075
 CYCLE:   181 TIME:   0.773 TIME LEFT:  2.00D  GRAD.:    10.310 HEAT: -5.335228
 CYCLE:   182 TIME:   0.730 TIME LEFT:  2.00D  GRAD.:     9.206 HEAT: -5.346367
 CYCLE:   183 TIME:   0.729 TIME LEFT:  2.00D  GRAD.:    12.655 HEAT: -5.364324
 CYCLE:   184 TIME:   0.732 TIME LEFT:  2.00D  GRAD.:    21.855 HEAT: -5.392742
 CYCLE:   185 TIME:   0.676 TIME LEFT:  2.00D  GRAD.:    17.306 HEAT: -5.428336
 CYCLE:   186 TIME:   0.785 TIME LEFT:  2.00D  GRAD.:    11.538 HEAT: -5.456989
 CYCLE:   187 TIME:   0.775 TIME LEFT:  2.00D  GRAD.:    13.056 HEAT: -5.486278
 CYCLE:   188 TIME:   0.752 TIME LEFT:  2.00D  GRAD.:    23.774 HEAT: -5.511211
 CYCLE:   189 TIME:   0.686 TIME LEFT:  2.00D  GRAD.:    16.875 HEAT: -5.543741
 CYCLE:   190 TIME:   0.697 TIME LEFT:  2.00D  GRAD.:    13.442 HEAT: -5.588617
 CYCLE:   191 TIME:   0.695 TIME LEFT:  2.00D  GRAD.:    20.494 HEAT: -5.606367
 CYCLE:   192 TIME:   0.662 TIME LEFT:  2.00D  GRAD.:    13.339 HEAT: -5.624895
 CYCLE:   193 TIME:   0.986 TIME LEFT:  2.00D  GRAD.:    16.390 HEAT: -5.660322
 CYCLE:   194 TIME:   0.797 TIME LEFT:  2.00D  GRAD.:    17.059 HEAT: -5.689505
 CYCLE:   195 TIME:   0.762 TIME LEFT:  2.00D  GRAD.:    22.631 HEAT: -5.719900
 CYCLE:   196 TIME:   1.039 TIME LEFT:  2.00D  GRAD.:    12.896 HEAT: -5.750619
 CYCLE:   197 TIME:   0.941 TIME LEFT:  2.00D  GRAD.:    14.612 HEAT: -5.779941
 CYCLE:   198 TIME:   0.844 TIME LEFT:  2.00D  GRAD.:    18.293 HEAT: -5.805017
 CYCLE:   199 TIME:   0.699 TIME LEFT:  2.00D  GRAD.:    17.910 HEAT: -5.832581
 CYCLE:   200 TIME:   0.865 TIME LEFT:  2.00D  GRAD.:    11.332 HEAT: -5.857717
 CYCLE:   201 TIME:   0.996 TIME LEFT:  2.00D  GRAD.:    17.371 HEAT: -5.889864
 CYCLE:   202 TIME:   0.799 TIME LEFT:  2.00D  GRAD.:    16.721 HEAT: -5.911590
 CYCLE:   203 TIME:   0.691 TIME LEFT:  2.00D  GRAD.:    17.281 HEAT: -5.935918
 CYCLE:   204 TIME:   0.809 TIME LEFT:  2.00D  GRAD.:    11.744 HEAT: -5.958103
 CYCLE:   205 TIME:   0.730 TIME LEFT:  2.00D  GRAD.:    12.447 HEAT: -5.978589
 CYCLE:   206 TIME:   0.668 TIME LEFT:  2.00D  GRAD.:    22.864 HEAT: -6.006473
 CYCLE:   207 TIME:   0.660 TIME LEFT:  2.00D  GRAD.:    16.228 HEAT: -6.030805
 CYCLE:   208 TIME:   0.648 TIME LEFT:  2.00D  GRAD.:     9.476 HEAT: -6.045595
 CYCLE:   209 TIME:   0.715 TIME LEFT:  2.00D  GRAD.:    10.851 HEAT: -6.063902
 CYCLE:   210 TIME:   0.838 TIME LEFT:  2.00D  GRAD.:    14.389 HEAT: -6.084259
 CYCLE:   211 TIME:   0.826 TIME LEFT:  2.00D  GRAD.:    13.955 HEAT: -6.114005
 CYCLE:   212 TIME:   0.725 TIME LEFT:  2.00D  GRAD.:    15.174 HEAT: -6.135209
 CYCLE:   213 TIME:   0.697 TIME LEFT:  2.00D  GRAD.:    12.634 HEAT: -6.154030
 CYCLE:   214 TIME:   0.875 TIME LEFT:  2.00D  GRAD.:    10.720 HEAT: -6.170612
 CYCLE:   215 TIME:   0.738 TIME LEFT:  2.00D  GRAD.:    15.503 HEAT: -6.192256
 CYCLE:   216 TIME:   0.914 TIME LEFT:  2.00D  GRAD.:    16.440 HEAT: -6.216230
 CYCLE:   217 TIME:   0.635 TIME LEFT:  2.00D  GRAD.:    12.093 HEAT: -6.238564
 CYCLE:   218 TIME:   0.656 TIME LEFT:  2.00D  GRAD.:    11.191 HEAT: -6.267149
 CYCLE:   219 TIME:   0.650 TIME LEFT:  2.00D  GRAD.:    29.959 HEAT: -6.282650
 CYCLE:   220 TIME:   0.645 TIME LEFT:  2.00D  GRAD.:    12.793 HEAT: -6.309186
 CYCLE:   221 TIME:   0.633 TIME LEFT:  2.00D  GRAD.:    10.228 HEAT: -6.324831
 CYCLE:   222 TIME:   0.686 TIME LEFT:  2.00D  GRAD.:    12.221 HEAT: -6.339876
 CYCLE:   223 TIME:   0.682 TIME LEFT:  2.00D  GRAD.:    17.617 HEAT: -6.371498
 CYCLE:   224 TIME:   0.689 TIME LEFT:  2.00D  GRAD.:    44.057 HEAT: -6.369842
 CYCLE:   225 TIME:   0.635 TIME LEFT:  2.00D  GRAD.:    12.718 HEAT: -6.417907
 CYCLE:   226 TIME:   0.654 TIME LEFT:  2.00D  GRAD.:     9.455 HEAT: -6.433017
 CYCLE:   227 TIME:   0.646 TIME LEFT:  2.00D  GRAD.:    12.444 HEAT: -6.456647
 CYCLE:   228 TIME:   0.660 TIME LEFT:  2.00D  GRAD.:    30.929 HEAT: -6.474843
 CYCLE:   229 TIME:   0.668 TIME LEFT:  2.00D  GRAD.:    15.580 HEAT: -6.503371
 CYCLE:   230 TIME:   0.691 TIME LEFT:  2.00D  GRAD.:     9.537 HEAT: -6.525783
 CYCLE:   231 TIME:   0.658 TIME LEFT:  2.00D  GRAD.:    10.635 HEAT: -6.537766
 CYCLE:   232 TIME:   0.650 TIME LEFT:  2.00D  GRAD.:    21.679 HEAT: -6.555359
 CYCLE:   233 TIME:   0.717 TIME LEFT:  2.00D  GRAD.:    11.970 HEAT: -6.573195
 CYCLE:   234 TIME:   0.639 TIME LEFT:  2.00D  GRAD.:     9.164 HEAT: -6.584214
 CYCLE:   235 TIME:   0.635 TIME LEFT:  2.00D  GRAD.:     9.041 HEAT: -6.598774
 CYCLE:   236 TIME:   0.787 TIME LEFT:  2.00D  GRAD.:    21.852 HEAT: -6.611595
 CYCLE:   237 TIME:   0.744 TIME LEFT:  2.00D  GRAD.:    11.775 HEAT: -6.628314
 CYCLE:   238 TIME:   0.805 TIME LEFT:  2.00D  GRAD.:     9.362 HEAT: -6.644202
 CYCLE:   239 TIME:   0.762 TIME LEFT:  2.00D  GRAD.:    10.323 HEAT: -6.656979
 CYCLE:   240 TIME:   0.910 TIME LEFT:  2.00D  GRAD.:    24.312 HEAT: -6.665411
 CYCLE:   241 TIME:   0.785 TIME LEFT:  2.00D  GRAD.:     8.689 HEAT: -6.683181
 CYCLE:   242 TIME:   0.787 TIME LEFT:  2.00D  GRAD.:     6.963 HEAT: -6.690659
 CYCLE:   243 TIME:   0.879 TIME LEFT:  2.00D  GRAD.:     7.668 HEAT: -6.699754
 CYCLE:   244 TIME:   0.783 TIME LEFT:  2.00D  GRAD.:    10.248 HEAT: -6.713762
 CYCLE:   245 TIME:   0.820 TIME LEFT:  2.00D  GRAD.:    19.334 HEAT: -6.722641
 CYCLE:   246 TIME:   0.658 TIME LEFT:  2.00D  GRAD.:     6.930 HEAT: -6.737428
 CYCLE:   247 TIME:   0.828 TIME LEFT:  2.00D  GRAD.:     6.220 HEAT: -6.741955
 CYCLE:   248 TIME:   0.691 TIME LEFT:  2.00D  GRAD.:     9.887 HEAT: -6.751325
 CYCLE:   249 TIME:   0.838 TIME LEFT:  2.00D  GRAD.:    23.921 HEAT: -6.753363
 CYCLE:   250 TIME:   0.693 TIME LEFT:  2.00D  GRAD.:     7.870 HEAT: -6.766323
 CYCLE:   251 TIME:   0.645 TIME LEFT:  2.00D  GRAD.:     5.526 HEAT: -6.773477
 CYCLE:   252 TIME:   0.641 TIME LEFT:  2.00D  GRAD.:     5.893 HEAT: -6.778596
 CYCLE:   253 TIME:   0.678 TIME LEFT:  2.00D  GRAD.:     9.988 HEAT: -6.787678
 CYCLE:   254 TIME:   0.668 TIME LEFT:  2.00D  GRAD.:    11.213 HEAT: -6.795882
 CYCLE:   255 TIME:   0.645 TIME LEFT:  2.00D  GRAD.:     5.161 HEAT: -6.802247
 CYCLE:   256 TIME:   0.727 TIME LEFT:  2.00D  GRAD.:     4.640 HEAT: -6.805399
 CYCLE:   257 TIME:   0.678 TIME LEFT:  2.00D  GRAD.:     6.830 HEAT: -6.809529
 CYCLE:   258 TIME:   0.773 TIME LEFT:  2.00D  GRAD.:     7.585 HEAT: -6.816455
 CYCLE:   259 TIME:   0.688 TIME LEFT:  2.00D  GRAD.:     7.800 HEAT: -6.823311
 CYCLE:   260 TIME:   0.635 TIME LEFT:  2.00D  GRAD.:     5.745 HEAT: -6.829209
 CYCLE:   261 TIME:   0.680 TIME LEFT:  2.00D  GRAD.:     6.523 HEAT: -6.836605
 CYCLE:   262 TIME:   0.709 TIME LEFT:  2.00D  GRAD.:    14.846 HEAT: -6.841447
 CYCLE:   263 TIME:   0.586 TIME LEFT:  2.00D  GRAD.:     5.719 HEAT: -6.849338
 CYCLE:   264 TIME:   0.611 TIME LEFT:  2.00D  GRAD.:     4.654 HEAT: -6.852807
 CYCLE:   265 TIME:   0.736 TIME LEFT:  2.00D  GRAD.:     5.890 HEAT: -6.857594
 CYCLE:   266 TIME:   0.887 TIME LEFT:  2.00D  GRAD.:    17.700 HEAT: -6.860523
 CYCLE:   267 TIME:   0.604 TIME LEFT:  2.00D  GRAD.:     6.604 HEAT: -6.868879
 CYCLE:   268 TIME:   0.598 TIME LEFT:  2.00D  GRAD.:     3.976 HEAT: -6.872994
 CYCLE:   269 TIME:   0.762 TIME LEFT:  2.00D  GRAD.:     4.956 HEAT: -6.876236
 CYCLE:   270 TIME:   0.717 TIME LEFT:  2.00D  GRAD.:     8.885 HEAT: -6.880277
 CYCLE:   271 TIME:   0.812 TIME LEFT:  2.00D  GRAD.:     6.384 HEAT: -6.886475
 CYCLE:   272 TIME:   0.791 TIME LEFT:  2.00D  GRAD.:     5.360 HEAT: -6.892005
 CYCLE:   273 TIME:   0.684 TIME LEFT:  2.00D  GRAD.:    13.458 HEAT: -6.893384
 CYCLE:   274 TIME:   0.754 TIME LEFT:  2.00D  GRAD.:     4.109 HEAT: -6.897791
 CYCLE:   275 TIME:   0.660 TIME LEFT:  2.00D  GRAD.:     4.178 HEAT: -6.899805
 CYCLE:   276 TIME:   0.762 TIME LEFT:  2.00D  GRAD.:     7.065 HEAT: -6.905213
 CYCLE:   277 TIME:   1.043 TIME LEFT:  2.00D  GRAD.:     6.898 HEAT: -6.910513
 CYCLE:   278 TIME:   0.738 TIME LEFT:  2.00D  GRAD.:    20.859 HEAT: -6.906875
 CYCLE:   279 TIME:   0.793 TIME LEFT:  2.00D  GRAD.:     4.182 HEAT: -6.916694
 CYCLE:   280 TIME:   0.664 TIME LEFT:  2.00D  GRAD.:     3.934 HEAT: -6.918815
 CYCLE:   281 TIME:   0.715 TIME LEFT:  2.00D  GRAD.:     6.374 HEAT: -6.924489
 CYCLE:   282 TIME:   0.768 TIME LEFT:  2.00D  GRAD.:     8.778 HEAT: -6.929510
 CYCLE:   283 TIME:   0.699 TIME LEFT:  2.00D  GRAD.:     9.379 HEAT: -6.932820
 CYCLE:   284 TIME:   0.670 TIME LEFT:  2.00D  GRAD.:     4.884 HEAT: -6.936389
 CYCLE:   285 TIME:   0.738 TIME LEFT:  2.00D  GRAD.:     7.113 HEAT: -6.940888
 CYCLE:   286 TIME:   0.758 TIME LEFT:  2.00D  GRAD.:     7.341 HEAT: -6.944236
 CYCLE:   287 TIME:   0.662 TIME LEFT:  2.00D  GRAD.:    20.458 HEAT: -6.942757
 CYCLE:   288 TIME:   0.680 TIME LEFT:  2.00D  GRAD.:     4.550 HEAT: -6.952091
 CYCLE:   289 TIME:   0.754 TIME LEFT:  2.00D  GRAD.:     3.508 HEAT: -6.954009
 CYCLE:   290 TIME:   0.754 TIME LEFT:  2.00D  GRAD.:     4.961 HEAT: -6.957565
 CYCLE:   291 TIME:   0.725 TIME LEFT:  2.00D  GRAD.:     8.533 HEAT: -6.960402
 CYCLE:   292 TIME:   0.707 TIME LEFT:  2.00D  GRAD.:     5.273 HEAT: -6.963630
 CYCLE:   293 TIME:   0.600 TIME LEFT:  2.00D  GRAD.:     4.168 HEAT: -6.967040
 CYCLE:   294 TIME:   0.697 TIME LEFT:  2.00D  GRAD.:     4.763 HEAT: -6.969452
 CYCLE:   295 TIME:   0.750 TIME LEFT:  2.00D  GRAD.:     5.685 HEAT: -6.972675
 CYCLE:   296 TIME:   0.658 TIME LEFT:  2.00D  GRAD.:     7.021 HEAT: -6.975308
 CYCLE:   297 TIME:   0.682 TIME LEFT:  2.00D  GRAD.:     4.461 HEAT: -6.978099
 CYCLE:   298 TIME:   0.830 TIME LEFT:  2.00D  GRAD.:     4.236 HEAT: -6.980626
 CYCLE:   299 TIME:   0.781 TIME LEFT:  2.00D  GRAD.:     5.463 HEAT: -6.983742
 CYCLE:   300 TIME:   0.695 TIME LEFT:  2.00D  GRAD.:    11.944 HEAT: -6.986045
 CYCLE:   301 TIME:   0.643 TIME LEFT:  2.00D  GRAD.:     5.008 HEAT: -6.990705
 CYCLE:   302 TIME:   0.750 TIME LEFT:  2.00D  GRAD.:     4.760 HEAT: -6.994421
 CYCLE:   303 TIME:   0.650 TIME LEFT:  2.00D  GRAD.:     6.210 HEAT: -6.997521
 CYCLE:   304 TIME:   0.725 TIME LEFT:  2.00D  GRAD.:    12.918 HEAT: -7.000339
 CYCLE:   305 TIME:   0.717 TIME LEFT:  2.00D  GRAD.:     5.752 HEAT: -7.005127
 CYCLE:   306 TIME:   0.682 TIME LEFT:  2.00D  GRAD.:     4.867 HEAT: -7.008303
 CYCLE:   307 TIME:   0.736 TIME LEFT:  2.00D  GRAD.:     6.632 HEAT: -7.011676
 CYCLE:   308 TIME:   0.717 TIME LEFT:  2.00D  GRAD.:     6.877 HEAT: -7.016594
 CYCLE:   309 TIME:   0.768 TIME LEFT:  2.00D  GRAD.:    16.296 HEAT: -7.017865
 CYCLE:   310 TIME:   0.605 TIME LEFT:  2.00D  GRAD.:     5.271 HEAT: -7.024828
 CYCLE:   311 TIME:   0.779 TIME LEFT:  2.00D  GRAD.:     3.982 HEAT: -7.028049
 CYCLE:   312 TIME:   0.738 TIME LEFT:  2.00D  GRAD.:     7.308 HEAT: -7.032199
 CYCLE:   313 TIME:   0.697 TIME LEFT:  2.00D  GRAD.:     6.375 HEAT: -7.035865
 CYCLE:   314 TIME:   0.801 TIME LEFT:  2.00D  GRAD.:     6.651 HEAT: -7.041585
 CYCLE:   315 TIME:   0.721 TIME LEFT:  2.00D  GRAD.:     7.761 HEAT: -7.044987
 CYCLE:   316 TIME:   0.770 TIME LEFT:  2.00D  GRAD.:     5.850 HEAT: -7.047608
 CYCLE:   317 TIME:   0.721 TIME LEFT:  2.00D  GRAD.:     4.653 HEAT: -7.051477
 CYCLE:   318 TIME:   0.756 TIME LEFT:  2.00D  GRAD.:     6.270 HEAT: -7.053892
 CYCLE:   319 TIME:   0.816 TIME LEFT:  2.00D  GRAD.:     5.444 HEAT: -7.056905
 CYCLE:   320 TIME:   0.930 TIME LEFT:  2.00D  GRAD.:     7.025 HEAT: -7.062878
 CYCLE:   321 TIME:   0.816 TIME LEFT:  2.00D  GRAD.:    16.980 HEAT: -7.060547
 CYCLE:   322 TIME:   0.738 TIME LEFT:  2.00D  GRAD.:     3.979 HEAT: -7.067036
 CYCLE:   323 TIME:   0.688 TIME LEFT:  2.00D  GRAD.:     3.421 HEAT: -7.068127
 CYCLE:   324 TIME:   0.721 TIME LEFT:  2.00D  GRAD.:     5.597 HEAT: -7.072173
 CYCLE:   325 TIME:   0.826 TIME LEFT:  2.00D  GRAD.:     3.767 HEAT: -7.074947
 CYCLE:   326 TIME:   0.791 TIME LEFT:  2.00D  GRAD.:     4.969 HEAT: -7.077879
 CYCLE:   327 TIME:   0.840 TIME LEFT:  2.00D  GRAD.:     5.515 HEAT: -7.079628
 CYCLE:   328 TIME:   0.732 TIME LEFT:  2.00D  GRAD.:     4.830 HEAT: -7.081560
 CYCLE:   329 TIME:   0.762 TIME LEFT:  2.00D  GRAD.:     7.265 HEAT: -7.084484
 CYCLE:   330 TIME:   0.738 TIME LEFT:  2.00D  GRAD.:     3.892 HEAT: -7.086543
 CYCLE:   331 TIME:   0.650 TIME LEFT:  2.00D  GRAD.:     3.256 HEAT: -7.087687
 CYCLE:   332 TIME:   0.891 TIME LEFT:  2.00D  GRAD.:     4.415 HEAT: -7.090864
 CYCLE:   333 TIME:   0.830 TIME LEFT:  2.00D  GRAD.:     9.423 HEAT: -7.092167
 CYCLE:   334 TIME:   0.703 TIME LEFT:  2.00D  GRAD.:     3.041 HEAT: -7.094512
 CYCLE:   335 TIME:   0.732 TIME LEFT:  2.00D  GRAD.:     2.851 HEAT: -7.095562
 CYCLE:   336 TIME:   0.693 TIME LEFT:  2.00D  GRAD.:     3.944 HEAT: -7.097746
 CYCLE:   337 TIME:   0.795 TIME LEFT:  2.00D  GRAD.:     5.504 HEAT: -7.100606
 CYCLE:   338 TIME:   0.875 TIME LEFT:  2.00D  GRAD.:     5.760 HEAT: -7.103488
 CYCLE:   339 TIME:   0.742 TIME LEFT:  2.00D  GRAD.:     3.464 HEAT: -7.105885
 CYCLE:   340 TIME:   0.789 TIME LEFT:  2.00D  GRAD.:     3.539 HEAT: -7.107351
 CYCLE:   341 TIME:   0.666 TIME LEFT:  2.00D  GRAD.:     5.130 HEAT: -7.109431
 CYCLE:   342 TIME:   0.654 TIME LEFT:  2.00D  GRAD.:     5.182 HEAT: -7.111402
 CYCLE:   343 TIME:   0.643 TIME LEFT:  2.00D  GRAD.:     2.864 HEAT: -7.112951
 CYCLE:   344 TIME:   0.688 TIME LEFT:  2.00D  GRAD.:     3.152 HEAT: -7.114402
 CYCLE:   345 TIME:   0.760 TIME LEFT:  2.00D  GRAD.:     4.759 HEAT: -7.115826
 CYCLE:   346 TIME:   0.639 TIME LEFT:  2.00D  GRAD.:     3.140 HEAT: -7.117475
 CYCLE:   347 TIME:   0.723 TIME LEFT:  2.00D  GRAD.:     2.907 HEAT: -7.119371
 CYCLE:   348 TIME:   0.637 TIME LEFT:  2.00D  GRAD.:     5.711 HEAT: -7.120329
 CYCLE:   349 TIME:   0.594 TIME LEFT:  2.00D  GRAD.:     3.088 HEAT: -7.121642
 CYCLE:   350 TIME:   0.803 TIME LEFT:  2.00D  GRAD.:     2.485 HEAT: -7.123479
 CYCLE:   351 TIME:   0.727 TIME LEFT:  2.00D  GRAD.:     2.456 HEAT: -7.124398
 CYCLE:   352 TIME:   0.793 TIME LEFT:  2.00D  GRAD.:     6.355 HEAT: -7.125243
 CYCLE:   353 TIME:   0.633 TIME LEFT:  2.00D  GRAD.:     2.404 HEAT: -7.126717
 CYCLE:   354 TIME:   0.672 TIME LEFT:  2.00D  GRAD.:     1.895 HEAT: -7.127366
 CYCLE:   355 TIME:   0.686 TIME LEFT:  2.00D  GRAD.:     2.897 HEAT: -7.128325
 CYCLE:   356 TIME:   0.779 TIME LEFT:  2.00D  GRAD.:     5.688 HEAT: -7.128741
 CYCLE:   357 TIME:   0.709 TIME LEFT:  2.00D  GRAD.:     2.064 HEAT: -7.129683
 CYCLE:   358 TIME:   0.703 TIME LEFT:  2.00D  GRAD.:     1.912 HEAT: -7.130192
 CYCLE:   359 TIME:   0.814 TIME LEFT:  2.00D  GRAD.:     2.463 HEAT: -7.130785
 CYCLE:   360 TIME:   0.832 TIME LEFT:  2.00D  GRAD.:     3.815 HEAT: -7.131219
 CYCLE:   361 TIME:   0.607 TIME LEFT:  2.00D  GRAD.:     1.924 HEAT: -7.131775
 CYCLE:   362 TIME:   0.811 TIME LEFT:  2.00D  GRAD.:     1.836 HEAT: -7.132397
 CYCLE:   363 TIME:   0.793 TIME LEFT:  2.00D  GRAD.:     2.215 HEAT: -7.132972
 CYCLE:   364 TIME:   0.695 TIME LEFT:  2.00D  GRAD.:     6.227 HEAT: -7.133223
 CYCLE:   365 TIME:   0.742 TIME LEFT:  2.00D  GRAD.:     2.100 HEAT: -7.134163
 CYCLE:   366 TIME:   0.762 TIME LEFT:  2.00D  GRAD.:     1.496 HEAT: -7.134440
 CYCLE:   367 TIME:   0.670 TIME LEFT:  2.00D  GRAD.:     3.194 HEAT: -7.134965
 CYCLE:   368 TIME:   0.629 TIME LEFT:  2.00D  GRAD.:     2.230 HEAT: -7.135447
 CYCLE:   369 TIME:   0.705 TIME LEFT:  2.00D  GRAD.:     1.714 HEAT: -7.136327
 CYCLE:   370 TIME:   0.719 TIME LEFT:  2.00D  GRAD.:     3.437 HEAT: -7.136874
 CYCLE:   371 TIME:   0.617 TIME LEFT:  2.00D  GRAD.:     2.618 HEAT: -7.137427
 CYCLE:   372 TIME:   0.703 TIME LEFT:  2.00D  GRAD.:     1.456 HEAT: -7.138165
 CYCLE:   373 TIME:   0.857 TIME LEFT:  2.00D  GRAD.:     1.937 HEAT: -7.138509
 CYCLE:   374 TIME:   0.676 TIME LEFT:  2.00D  GRAD.:     1.756 HEAT: -7.138920
 CYCLE:   375 TIME:   0.693 TIME LEFT:  2.00D  GRAD.:     1.522 HEAT: -7.139370
 CYCLE:   376 TIME:   0.715 TIME LEFT:  2.00D  GRAD.:     5.212 HEAT: -7.139374
 CYCLE:   377 TIME:   0.629 TIME LEFT:  2.00D  GRAD.:     1.388 HEAT: -7.139978
 CYCLE:   378 TIME:   0.680 TIME LEFT:  2.00D  GRAD.:     1.196 HEAT: -7.140129
 CYCLE:   379 TIME:   0.648 TIME LEFT:  2.00D  GRAD.:     1.904 HEAT: -7.140628
 CYCLE:   380 TIME:   0.660 TIME LEFT:  2.00D  GRAD.:     1.821 HEAT: -7.140989
 CYCLE:   381 TIME:   0.959 TIME LEFT:  2.00D  GRAD.:     3.140 HEAT: -7.141285
 CYCLE:   382 TIME:   0.658 TIME LEFT:  2.00D  GRAD.:     1.459 HEAT: -7.141808
 CYCLE:   383 TIME:   0.781 TIME LEFT:  2.00D  GRAD.:     1.327 HEAT: -7.142079
 CYCLE:   384 TIME:   0.680 TIME LEFT:  2.00D  GRAD.:     1.820 HEAT: -7.142454
 CYCLE:   385 TIME:   0.701 TIME LEFT:  2.00D  GRAD.:     3.355 HEAT: -7.142698
 CYCLE:   386 TIME:   0.594 TIME LEFT:  2.00D  GRAD.:     1.493 HEAT: -7.143036
 CYCLE:   387 TIME:   0.666 TIME LEFT:  2.00D  GRAD.:     1.135 HEAT: -7.143280
 CYCLE:   388 TIME:   0.691 TIME LEFT:  2.00D  GRAD.:     2.239 HEAT: -7.143572
 CYCLE:   389 TIME:   0.625 TIME LEFT:  2.00D  GRAD.:     2.191 HEAT: -7.143852
 CYCLE:   390 TIME:   0.625 TIME LEFT:  2.00D  GRAD.:     1.363 HEAT: -7.144293
 CYCLE:   391 TIME:   0.650 TIME LEFT:  2.00D  GRAD.:     1.641 HEAT: -7.144617
 CYCLE:   392 TIME:   0.816 TIME LEFT:  2.00D  GRAD.:     2.735 HEAT: -7.144978
 CYCLE:   393 TIME:   0.645 TIME LEFT:  2.00D  GRAD.:     1.656 HEAT: -7.145388
 CYCLE:   394 TIME:   0.648 TIME LEFT:  2.00D  GRAD.:     1.458 HEAT: -7.145706
 CYCLE:   395 TIME:   0.672 TIME LEFT:  2.00D  GRAD.:     1.768 HEAT: -7.146094
 CYCLE:   396 TIME:   0.828 TIME LEFT:  2.00D  GRAD.:     2.797 HEAT: -7.146551
 CYCLE:   397 TIME:   0.691 TIME LEFT:  2.00D  GRAD.:     1.686 HEAT: -7.146950
 CYCLE:   398 TIME:   0.797 TIME LEFT:  2.00D  GRAD.:     1.428 HEAT: -7.147247
 CYCLE:   399 TIME:   0.691 TIME LEFT:  2.00D  GRAD.:     1.825 HEAT: -7.147534
 CYCLE:   400 TIME:   0.754 TIME LEFT:  2.00D  GRAD.:     2.230 HEAT: -7.147967
 CYCLE:   401 TIME:   0.756 TIME LEFT:  2.00D  GRAD.:     2.996 HEAT: -7.148364
 CYCLE:   402 TIME:   0.691 TIME LEFT:  2.00D  GRAD.:     1.628 HEAT: -7.148706
 CYCLE:   403 TIME:   0.693 TIME LEFT:  2.00D  GRAD.:     1.397 HEAT: -7.148896
 CYCLE:   404 TIME:   0.686 TIME LEFT:  2.00D  GRAD.:     1.666 HEAT: -7.149116
 CYCLE:   405 TIME:   0.875 TIME LEFT:  2.00D  GRAD.:     1.548 HEAT: -7.149469
 CYCLE:   406 TIME:   0.775 TIME LEFT:  2.00D  GRAD.:     3.837 HEAT: -7.149517
 CYCLE:   407 TIME:   0.695 TIME LEFT:  2.00D  GRAD.:     1.206 HEAT: -7.149905
 CYCLE:   408 TIME:   0.615 TIME LEFT:  2.00D  GRAD.:     0.989 HEAT: -7.150016
 CYCLE:   409 TIME:   0.719 TIME LEFT:  2.00D  GRAD.:     1.481 HEAT: -7.150280
 CYCLE:   410 TIME:   0.938 TIME LEFT:  2.00D  GRAD.:     1.681 HEAT: -7.150552
 CYCLE:   411 TIME:   0.820 TIME LEFT:  2.00D  GRAD.:     2.991 HEAT: -7.150651
 CYCLE:   412 TIME:   0.658 TIME LEFT:  2.00D  GRAD.:     1.220 HEAT: -7.150929
 CYCLE:   413 TIME:   0.670 TIME LEFT:  2.00D  GRAD.:     1.709 HEAT: -7.151018
 CYCLE:   414 TIME:   0.574 TIME LEFT:  2.00D  GRAD.:     1.281 HEAT: -7.151266
 CYCLE:   415 TIME:   0.641 TIME LEFT:  2.00D  GRAD.:     2.068 HEAT: -7.151825
 CYCLE:   416 TIME:   0.658 TIME LEFT:  2.00D  GRAD.:     3.643 HEAT: -7.151876
 CYCLE:   417 TIME:   0.621 TIME LEFT:  2.00D  GRAD.:     1.294 HEAT: -7.152149
 CYCLE:   418 TIME:   0.654 TIME LEFT:  2.00D  GRAD.:     0.943 HEAT: -7.152280
 CYCLE:   419 TIME:   0.770 TIME LEFT:  2.00D  GRAD.:     1.733 HEAT: -7.152633
 CYCLE:   420 TIME:   0.695 TIME LEFT:  2.00D  GRAD.:     1.588 HEAT: -7.152944
 CYCLE:   421 TIME:   0.697 TIME LEFT:  2.00D  GRAD.:     3.865 HEAT: -7.153205
 CYCLE:   422 TIME:   0.754 TIME LEFT:  2.00D  GRAD.:     1.411 HEAT: -7.153793
 CYCLE:   423 TIME:   0.760 TIME LEFT:  2.00D  GRAD.:     1.413 HEAT: -7.154049
 CYCLE:   424 TIME:   0.740 TIME LEFT:  2.00D  GRAD.:     1.626 HEAT: -7.154773
 CYCLE:   425 TIME:   0.803 TIME LEFT:  2.00D  GRAD.:    11.154 HEAT: -7.152587
 CYCLE:   426 TIME:   0.727 TIME LEFT:  2.00D  GRAD.:     1.153 HEAT: -7.155346
 CYCLE:   427 TIME:   0.688 TIME LEFT:  2.00D  GRAD.:     1.164 HEAT: -7.155515
 CYCLE:   428 TIME:   0.689 TIME LEFT:  2.00D  GRAD.:     1.983 HEAT: -7.156028
 CYCLE:   429 TIME:   0.697 TIME LEFT:  2.00D  GRAD.:     3.157 HEAT: -7.156270
 CYCLE:   430 TIME:   0.588 TIME LEFT:  2.00D  GRAD.:     1.335 HEAT: -7.156645
 CYCLE:   431 TIME:   0.689 TIME LEFT:  2.00D  GRAD.:     1.516 HEAT: -7.156908
 CYCLE:   432 TIME:   0.672 TIME LEFT:  2.00D  GRAD.:     1.936 HEAT: -7.157305
 CYCLE:   433 TIME:   0.777 TIME LEFT:  2.00D  GRAD.:     2.617 HEAT: -7.157600
 CYCLE:   434 TIME:   0.713 TIME LEFT:  2.00D  GRAD.:     1.424 HEAT: -7.157928
 CYCLE:   435 TIME:   0.697 TIME LEFT:  2.00D  GRAD.:     1.505 HEAT: -7.158301
 CYCLE:   436 TIME:   0.764 TIME LEFT:  2.00D  GRAD.:     1.916 HEAT: -7.158660
 CYCLE:   437 TIME:   0.656 TIME LEFT:  2.00D  GRAD.:     3.444 HEAT: -7.158964
 CYCLE:   438 TIME:   0.660 TIME LEFT:  2.00D  GRAD.:     1.649 HEAT: -7.159454
 CYCLE:   439 TIME:   0.775 TIME LEFT:  2.00D  GRAD.:     1.548 HEAT: -7.159869
 CYCLE:   440 TIME:   0.701 TIME LEFT:  2.00D  GRAD.:     2.170 HEAT: -7.160356
 CYCLE:   441 TIME:   0.670 TIME LEFT:  2.00D  GRAD.:     3.359 HEAT: -7.160784
 CYCLE:   442 TIME:   0.686 TIME LEFT:  2.00D  GRAD.:     1.860 HEAT: -7.161277
 CYCLE:   443 TIME:   0.719 TIME LEFT:  2.00D  GRAD.:     1.473 HEAT: -7.161660
 CYCLE:   444 TIME:   0.770 TIME LEFT:  2.00D  GRAD.:     1.849 HEAT: -7.162107
 CYCLE:   445 TIME:   0.787 TIME LEFT:  2.00D  GRAD.:     3.322 HEAT: -7.162394
 CYCLE:   446 TIME:   0.670 TIME LEFT:  2.00D  GRAD.:     1.580 HEAT: -7.162773
 CYCLE:   447 TIME:   0.807 TIME LEFT:  2.00D  GRAD.:     1.691 HEAT: -7.163156
 CYCLE:   448 TIME:   0.668 TIME LEFT:  2.00D  GRAD.:     2.344 HEAT: -7.163542
 CYCLE:   449 TIME:   0.734 TIME LEFT:  2.00D  GRAD.:     2.657 HEAT: -7.164090
 CYCLE:   450 TIME:   0.771 TIME LEFT:  2.00D  GRAD.:     4.626 HEAT: -7.164150
 CYCLE:   451 TIME:   0.605 TIME LEFT:  2.00D  GRAD.:     1.393 HEAT: -7.164839
 CYCLE:   452 TIME:   0.678 TIME LEFT:  2.00D  GRAD.:     1.389 HEAT: -7.165005
 CYCLE:   453 TIME:   0.801 TIME LEFT:  2.00D  GRAD.:     2.048 HEAT: -7.165397
 CYCLE:   454 TIME:   0.834 TIME LEFT:  2.00D  GRAD.:     2.396 HEAT: -7.165818
 CYCLE:   455 TIME:   0.842 TIME LEFT:  2.00D  GRAD.:     2.045 HEAT: -7.166110
 CYCLE:   456 TIME:   0.637 TIME LEFT:  2.00D  GRAD.:     1.351 HEAT: -7.166346
 CYCLE:   457 TIME:   0.801 TIME LEFT:  2.00D  GRAD.:     2.015 HEAT: -7.166687
 CYCLE:   458 TIME:   0.828 TIME LEFT:  2.00D  GRAD.:     2.567 HEAT: -7.167067
 CYCLE:   459 TIME:   0.645 TIME LEFT:  2.00D  GRAD.:     3.862 HEAT: -7.167354
 CYCLE:   460 TIME:   0.662 TIME LEFT:  2.00D  GRAD.:     1.487 HEAT: -7.167818
 CYCLE:   461 TIME:   0.711 TIME LEFT:  2.00D  GRAD.:     1.269 HEAT: -7.168050
 CYCLE:   462 TIME:   0.666 TIME LEFT:  2.00D  GRAD.:     2.014 HEAT: -7.168358
 CYCLE:   463 TIME:   0.783 TIME LEFT:  2.00D  GRAD.:     2.326 HEAT: -7.168769
 CYCLE:   464 TIME:   0.834 TIME LEFT:  2.00D  GRAD.:     3.993 HEAT: -7.168971
 CYCLE:   465 TIME:   0.617 TIME LEFT:  2.00D  GRAD.:     1.477 HEAT: -7.169443
 CYCLE:   466 TIME:   0.701 TIME LEFT:  2.00D  GRAD.:     1.321 HEAT: -7.169709
 CYCLE:   467 TIME:   0.773 TIME LEFT:  2.00D  GRAD.:     2.160 HEAT: -7.170004
 CYCLE:   468 TIME:   0.709 TIME LEFT:  2.00D  GRAD.:     1.825 HEAT: -7.170301
 CYCLE:   469 TIME:   0.676 TIME LEFT:  2.00D  GRAD.:     2.549 HEAT: -7.170624
 CYCLE:   470 TIME:   0.658 TIME LEFT:  2.00D  GRAD.:     1.667 HEAT: -7.170894
 CYCLE:   471 TIME:   0.686 TIME LEFT:  2.00D  GRAD.:     1.474 HEAT: -7.171051
 CYCLE:   472 TIME:   0.666 TIME LEFT:  2.00D  GRAD.:     1.772 HEAT: -7.171397
 CYCLE:   473 TIME:   0.703 TIME LEFT:  2.00D  GRAD.:     3.143 HEAT: -7.171550
 CYCLE:   474 TIME:   0.572 TIME LEFT:  2.00D  GRAD.:     1.366 HEAT: -7.171843
 CYCLE:   475 TIME:   0.758 TIME LEFT:  2.00D  GRAD.:     1.174 HEAT: -7.172053
 CYCLE:   476 TIME:   0.791 TIME LEFT:  2.00D  GRAD.:     1.855 HEAT: -7.172365
 CYCLE:   477 TIME:   0.727 TIME LEFT:  2.00D  GRAD.:     2.450 HEAT: -7.172543
 CYCLE:   478 TIME:   0.660 TIME LEFT:  2.00D  GRAD.:     1.242 HEAT: -7.172777
 CYCLE:   479 TIME:   0.633 TIME LEFT:  2.00D  GRAD.:     1.406 HEAT: -7.172999
 CYCLE:   480 TIME:   0.729 TIME LEFT:  2.00D  GRAD.:     1.672 HEAT: -7.173197
 CYCLE:   481 TIME:   0.711 TIME LEFT:  2.00D  GRAD.:     2.564 HEAT: -7.173548
 CYCLE:   482 TIME:   0.736 TIME LEFT:  2.00D  GRAD.:     2.629 HEAT: -7.173748
 CYCLE:   483 TIME:   0.707 TIME LEFT:  2.00D  GRAD.:     1.257 HEAT: -7.173994
 CYCLE:   484 TIME:   0.648 TIME LEFT:  2.00D  GRAD.:     1.433 HEAT: -7.174209
 CYCLE:   485 TIME:   0.688 TIME LEFT:  2.00D  GRAD.:     1.717 HEAT: -7.174415
 CYCLE:   486 TIME:   0.908 TIME LEFT:  2.00D  GRAD.:     4.230 HEAT: -7.174513
 CYCLE:   487 TIME:   0.775 TIME LEFT:  2.00D  GRAD.:     1.887 HEAT: -7.174938
 CYCLE:   488 TIME:   0.844 TIME LEFT:  2.00D  GRAD.:     1.803 HEAT: -7.174947
 CYCLE:   489 TIME:   0.779 TIME LEFT:  2.00D  GRAD.:     1.047 HEAT: -7.175198
 CYCLE:   490 TIME:   0.697 TIME LEFT:  2.00D  GRAD.:     1.413 HEAT: -7.175652
 CYCLE:   491 TIME:   0.668 TIME LEFT:  2.00D  GRAD.:     1.926 HEAT: -7.175944
 CYCLE:   492 TIME:   0.816 TIME LEFT:  2.00D  GRAD.:     2.533 HEAT: -7.176109
 CYCLE:   493 TIME:   0.672 TIME LEFT:  2.00D  GRAD.:     1.045 HEAT: -7.176382
 CYCLE:   494 TIME:   0.713 TIME LEFT:  2.00D  GRAD.:     1.454 HEAT: -7.176637
 CYCLE:   495 TIME:   0.646 TIME LEFT:  2.00D  GRAD.:     1.806 HEAT: -7.176872
 CYCLE:   496 TIME:   0.879 TIME LEFT:  2.00D  GRAD.:     3.172 HEAT: -7.177143
 CYCLE:   497 TIME:   0.668 TIME LEFT:  2.00D  GRAD.:     1.297 HEAT: -7.177518
 CYCLE:   498 TIME:   0.766 TIME LEFT:  2.00D  GRAD.:     1.114 HEAT: -7.177767
 CYCLE:   499 TIME:   0.742 TIME LEFT:  2.00D  GRAD.:     1.729 HEAT: -7.178020
 CYCLE:   500 TIME:   0.701 TIME LEFT:  2.00D  GRAD.:     2.608 HEAT: -7.178267
 CYCLE:   501 TIME:   0.754 TIME LEFT:  2.00D  GRAD.:     1.393 HEAT: -7.178621
 CYCLE:   502 TIME:   0.623 TIME LEFT:  2.00D  GRAD.:     1.195 HEAT: -7.178930
 CYCLE:   503 TIME:   0.742 TIME LEFT:  2.00D  GRAD.:     1.846 HEAT: -7.179118
 CYCLE:   504 TIME:   0.699 TIME LEFT:  2.00D  GRAD.:     1.219 HEAT: -7.179312
 CYCLE:   505 TIME:   0.807 TIME LEFT:  2.00D  GRAD.:     0.973 HEAT: -7.179517
 CYCLE:   506 TIME:   0.818 TIME LEFT:  2.00D  GRAD.:     1.410 HEAT: -7.179702
 CYCLE:   507 TIME:   0.660 TIME LEFT:  2.00D  GRAD.:     1.510 HEAT: -7.179873
 CYCLE:   508 TIME:   0.803 TIME LEFT:  2.00D  GRAD.:     1.135 HEAT: -7.180048
 CYCLE:   509 TIME:   0.713 TIME LEFT:  2.00D  GRAD.:     1.546 HEAT: -7.180309
 CYCLE:   510 TIME:   0.814 TIME LEFT:  2.00D  GRAD.:     1.528 HEAT: -7.180515
 CYCLE:   511 TIME:   0.723 TIME LEFT:  2.00D  GRAD.:     1.188 HEAT: -7.180733
 CYCLE:   512 TIME:   0.695 TIME LEFT:  2.00D  GRAD.:     1.852 HEAT: -7.180946
 CYCLE:   513 TIME:   0.646 TIME LEFT:  2.00D  GRAD.:     1.222 HEAT: -7.181169
 CYCLE:   514 TIME:   0.688 TIME LEFT:  2.00D  GRAD.:     1.539 HEAT: -7.181393
 CYCLE:   515 TIME:   0.715 TIME LEFT:  2.00D  GRAD.:     1.740 HEAT: -7.181743
 CYCLE:   516 TIME:   0.842 TIME LEFT:  2.00D  GRAD.:     3.251 HEAT: -7.181938
 CYCLE:   517 TIME:   0.701 TIME LEFT:  2.00D  GRAD.:     1.866 HEAT: -7.182290
 CYCLE:   518 TIME:   0.695 TIME LEFT:  2.00D  GRAD.:     0.990 HEAT: -7.182516
 CYCLE:   519 TIME:   0.738 TIME LEFT:  2.00D  GRAD.:     1.471 HEAT: -7.182762
 CYCLE:   520 TIME:   0.691 TIME LEFT:  2.00D  GRAD.:     1.911 HEAT: -7.182987
 CYCLE:   521 TIME:   0.857 TIME LEFT:  2.00D  GRAD.:     1.871 HEAT: -7.183385
 CYCLE:   522 TIME:   0.748 TIME LEFT:  2.00D  GRAD.:     2.179 HEAT: -7.183660
 CYCLE:   523 TIME:   0.664 TIME LEFT:  2.00D  GRAD.:     1.430 HEAT: -7.183957
 CYCLE:   524 TIME:   0.703 TIME LEFT:  2.00D  GRAD.:     1.385 HEAT: -7.184191
 CYCLE:   525 TIME:   0.705 TIME LEFT:  2.00D  GRAD.:     1.712 HEAT: -7.184464
 CYCLE:   526 TIME:   0.832 TIME LEFT:  2.00D  GRAD.:     3.055 HEAT: -7.184673
 CYCLE:   527 TIME:   0.736 TIME LEFT:  2.00D  GRAD.:     1.336 HEAT: -7.185008
 CYCLE:   528 TIME:   0.811 TIME LEFT:  2.00D  GRAD.:     1.698 HEAT: -7.185211
 CYCLE:   529 TIME:   0.697 TIME LEFT:  2.00D  GRAD.:     1.069 HEAT: -7.185484
 CYCLE:   530 TIME:   0.824 TIME LEFT:  2.00D  GRAD.:     1.546 HEAT: -7.185895
 CYCLE:   531 TIME:   0.631 TIME LEFT:  2.00D  GRAD.:     3.082 HEAT: -7.185991
 CYCLE:   532 TIME:   0.660 TIME LEFT:  2.00D  GRAD.:     1.454 HEAT: -7.186233
 CYCLE:   533 TIME:   0.699 TIME LEFT:  2.00D  GRAD.:     1.865 HEAT: -7.186332
 CYCLE:   534 TIME:   0.637 TIME LEFT:  2.00D  GRAD.:     1.105 HEAT: -7.186538
 CYCLE:   535 TIME:   0.818 TIME LEFT:  2.00D  GRAD.:     0.995 HEAT: -7.186813
 CYCLE:   536 TIME:   0.812 TIME LEFT:  2.00D  GRAD.:     1.480 HEAT: -7.186994
 CYCLE:   537 TIME:   0.805 TIME LEFT:  2.00D  GRAD.:     1.787 HEAT: -7.187153
 CYCLE:   538 TIME:   0.635 TIME LEFT:  2.00D  GRAD.:     1.024 HEAT: -7.187321
 CYCLE:   539 TIME:   0.691 TIME LEFT:  2.00D  GRAD.:     1.236 HEAT: -7.187457
 CYCLE:   540 TIME:   0.678 TIME LEFT:  2.00D  GRAD.:     1.077 HEAT: -7.187657
 CYCLE:   541 TIME:   0.709 TIME LEFT:  2.00D  GRAD.:     1.173 HEAT: -7.187871
 CYCLE:   542 TIME:   0.688 TIME LEFT:  2.00D  GRAD.:     1.214 HEAT: -7.187997
 CYCLE:   543 TIME:   1.035 TIME LEFT:  2.00D  GRAD.:     0.987 HEAT: -7.188126
 CYCLE:   544 TIME:   0.646 TIME LEFT:  2.00D  GRAD.:     0.918 HEAT: -7.188336
 CYCLE:   545 TIME:   0.650 TIME LEFT:  2.00D  GRAD.:     2.063 HEAT: -7.188459
 CYCLE:   546 TIME:   0.723 TIME LEFT:  2.00D  GRAD.:     0.886 HEAT: -7.188607
 CYCLE:   547 TIME:   0.936 TIME LEFT:  2.00D  GRAD.:     0.834 HEAT: -7.188731
 CYCLE:   548 TIME:   0.854 TIME LEFT:  2.00D  GRAD.:     0.888 HEAT: -7.188877
 CYCLE:   549 TIME:   0.797 TIME LEFT:  2.00D  GRAD.:     2.278 HEAT: -7.188970
 CYCLE:   550 TIME:   0.941 TIME LEFT:  2.00D  GRAD.:     0.889 HEAT: -7.189134
 CYCLE:   551 TIME:   0.689 TIME LEFT:  2.00D  GRAD.:     0.793 HEAT: -7.189230
 CYCLE:   552 TIME:   0.787 TIME LEFT:  2.00D  GRAD.:     1.268 HEAT: -7.189359
 CYCLE:   553 TIME:   0.900 TIME LEFT:  2.00D  GRAD.:     1.919 HEAT: -7.189484
 CYCLE:   554 TIME:   0.785 TIME LEFT:  2.00D  GRAD.:     0.937 HEAT: -7.189661
 CYCLE:   555 TIME:   0.752 TIME LEFT:  2.00D  GRAD.:     0.769 HEAT: -7.189762
 CYCLE:   556 TIME:   0.803 TIME LEFT:  2.00D  GRAD.:     0.872 HEAT: -7.189839
 CYCLE:   557 TIME:   0.812 TIME LEFT:  2.00D  GRAD.:     0.957 HEAT: -7.189959
 CYCLE:   558 TIME:   0.982 TIME LEFT:  2.00D  GRAD.:     0.958 HEAT: -7.190150
 CYCLE:   559 TIME:   0.797 TIME LEFT:  2.00D  GRAD.:     1.843 HEAT: -7.190256
 CYCLE:   560 TIME:   0.912 TIME LEFT:  2.00D  GRAD.:     0.721 HEAT: -7.190383
 CYCLE:   561 TIME:   1.006 TIME LEFT:  1.99D  GRAD.:     0.679 HEAT: -7.190437
 CYCLE:   562 TIME:   0.941 TIME LEFT:  1.99D  GRAD.:     0.991 HEAT: -7.190536
 CYCLE:   563 TIME:   0.807 TIME LEFT:  1.99D  GRAD.:     1.565 HEAT: -7.190632
 CYCLE:   564 TIME:   0.650 TIME LEFT:  1.99D  GRAD.:     0.768 HEAT: -7.190733
 CYCLE:   565 TIME:   0.625 TIME LEFT:  1.99D  GRAD.:     0.652 HEAT: -7.190770
 CYCLE:   566 TIME:   0.566 TIME LEFT:  1.99D  GRAD.:     0.819 HEAT: -7.190826
 CYCLE:   567 TIME:   0.615 TIME LEFT:  1.99D  GRAD.:     0.980 HEAT: -7.190911
 CYCLE:   568 TIME:   0.617 TIME LEFT:  1.99D  GRAD.:     1.525 HEAT: -7.191007
 CYCLE:   569 TIME:   0.670 TIME LEFT:  1.99D  GRAD.:     0.679 HEAT: -7.191120
 CYCLE:   570 TIME:   0.598 TIME LEFT:  1.99D  GRAD.:     0.663 HEAT: -7.191174
 CYCLE:   571 TIME:   0.623 TIME LEFT:  1.99D  GRAD.:     1.138 HEAT: -7.191262
 CYCLE:   572 TIME:   0.559 TIME LEFT:  1.99D  GRAD.:     1.276 HEAT: -7.191364
 CYCLE:   573 TIME:   0.561 TIME LEFT:  1.99D  GRAD.:     0.769 HEAT: -7.191493
 CYCLE:   574 TIME:   0.623 TIME LEFT:  1.99D  GRAD.:     0.775 HEAT: -7.191589
 CYCLE:   575 TIME:   0.594 TIME LEFT:  1.99D  GRAD.:     0.947 HEAT: -7.191683
 CYCLE:   576 TIME:   0.598 TIME LEFT:  1.99D  GRAD.:     0.882 HEAT: -7.191778
 CYCLE:   577 TIME:   0.598 TIME LEFT:  1.99D  GRAD.:     0.793 HEAT: -7.191877
 CYCLE:   578 TIME:   0.566 TIME LEFT:  1.99D  GRAD.:     0.976 HEAT: -7.191934
 CYCLE:   579 TIME:   0.553 TIME LEFT:  1.99D  GRAD.:     0.556 HEAT: -7.191979
 CYCLE:   580 TIME:   0.584 TIME LEFT:  1.99D  GRAD.:     0.563 HEAT: -7.192030
 CYCLE:   581 TIME:   0.523 TIME LEFT:  1.99D  GRAD.:     0.840 HEAT: -7.192079
 CYCLE:   582 TIME:   0.539 TIME LEFT:  1.99D  GRAD.:     0.622 HEAT: -7.192124
 CYCLE:   583 TIME:   0.586 TIME LEFT:  1.99D  GRAD.:     0.593 HEAT: -7.192172
 CYCLE:   584 TIME:   0.598 TIME LEFT:  1.99D  GRAD.:     0.755 HEAT: -7.192229
 CYCLE:   585 TIME:   0.566 TIME LEFT:  1.99D  GRAD.:     0.588 HEAT: -7.192282
 CYCLE:   586 TIME:   0.572 TIME LEFT:  1.99D  GRAD.:     0.562 HEAT: -7.192328
 CYCLE:   587 TIME:   0.543 TIME LEFT:  1.99D  GRAD.:     0.536 HEAT: -7.192365
 CYCLE:   588 TIME:   0.570 TIME LEFT:  1.99D  GRAD.:     0.602 HEAT: -7.192402
 CYCLE:   589 TIME:   0.562 TIME LEFT:  1.99D  GRAD.:     0.556 HEAT: -7.192447
 CYCLE:   590 TIME:   0.639 TIME LEFT:  1.99D  GRAD.:     0.633 HEAT: -7.192500
 CYCLE:   591 TIME:   0.566 TIME LEFT:  1.99D  GRAD.:     0.863 HEAT: -7.192531
 CYCLE:   592 TIME:   0.568 TIME LEFT:  1.99D  GRAD.:     0.414 HEAT: -7.192557
 CYCLE:   593 TIME:   0.529 TIME LEFT:  1.99D  GRAD.:     0.452 HEAT: -7.192572
 CYCLE:   594 TIME:   0.582 TIME LEFT:  1.99D  GRAD.:     0.748 HEAT: -7.192594
 CYCLE:   595 TIME:   0.518 TIME LEFT:  1.99D  GRAD.:     0.742 HEAT: -7.192629
 CYCLE:   596 TIME:   0.490 TIME LEFT:  1.99D  GRAD.:     0.449 HEAT: -7.192684
 CYCLE:   597 TIME:   0.516 TIME LEFT:  1.99D  GRAD.:     0.738 HEAT: -7.192702
 CYCLE:   598 TIME:   0.465 TIME LEFT:  1.99D  GRAD.:     0.466 HEAT: -7.192715
 CYCLE:   599 TIME:   0.473 TIME LEFT:  1.99D  GRAD.:     0.477 HEAT: -7.192736
 CYCLE:   600 TIME:   0.516 TIME LEFT:  1.99D  GRAD.:     0.596 HEAT: -7.192769
 CYCLE:   601 TIME:   0.484 TIME LEFT:  1.99D  GRAD.:     0.719 HEAT: -7.192803
 CYCLE:   602 TIME:   0.500 TIME LEFT:  1.99D  GRAD.:     0.547 HEAT: -7.192834
 CYCLE:   603 TIME:   0.488 TIME LEFT:  1.99D  GRAD.:     0.345 HEAT: -7.192851
 CYCLE:   604 TIME:   0.506 TIME LEFT:  1.99D  GRAD.:     0.386 HEAT: -7.192867
 CYCLE:   605 TIME:   0.541 TIME LEFT:  1.99D  GRAD.:     0.472 HEAT: -7.192892
 CYCLE:   606 TIME:   0.523 TIME LEFT:  1.99D  GRAD.:     0.651 HEAT: -7.192916
 CYCLE:   607 TIME:   0.518 TIME LEFT:  1.99D  GRAD.:     0.399 HEAT: -7.192943
 CYCLE:   608 TIME:   0.514 TIME LEFT:  1.99D  GRAD.:     0.519 HEAT: -7.192973
 CYCLE:   609 TIME:   0.486 TIME LEFT:  1.99D  GRAD.:     0.532 HEAT: -7.192993
 CYCLE:   610 TIME:   0.494 TIME LEFT:  1.99D  GRAD.:     0.363 HEAT: -7.193008
 CYCLE:   611 TIME:   0.537 TIME LEFT:  1.99D  GRAD.:     0.537 HEAT: -7.193026
 CYCLE:   612 TIME:   0.529 TIME LEFT:  1.99D  GRAD.:     0.508 HEAT: -7.193042
 CYCLE:   613 TIME:   0.547 TIME LEFT:  1.99D  GRAD.:     0.440 HEAT: -7.193046
 CYCLE:   614 TIME:   0.576 TIME LEFT:  1.99D  GRAD.:     0.389 HEAT: -7.193067
 CYCLE:   615 TIME:   0.547 TIME LEFT:  1.99D  GRAD.:     0.337 HEAT: -7.193092
[...]
   93  O   1.91041   1.62116   1.24147   1.60601
   94  O   1.83992   1.47598   1.57039   1.42472
   95  C   1.19531   0.92238   0.91614   0.92037
   96  N   1.84834   1.09588   1.11184   1.08701
   97  C   1.17599   1.01855   1.00088   0.95422
   98  C   1.15535   1.04014   0.98815   0.99581
   99  H   0.86734
  100  H   0.94112
  101  H   0.94178
  102  H   0.94494
  103  H   0.94101
  104  H   0.94171
  105  H   0.93451
  106  H   0.93330
  107  H   0.93848
  108  H   0.94147
  109  H   0.91283
  110  H   0.89984
  111  H   0.92153
  112  H   0.88296
  113  H   0.88003
  114  H   0.87951
  115  H   0.88195
  116  H   0.88756
  117  H   0.88058
  118  H   0.86829
  119  H   0.89867
  120  H   0.92481
  121  H   0.91662
  122  H   0.93353
  123  H   0.93444
  124  H   0.93471
  125  H   0.93682
  126  H   0.94097
  127  H   0.93981
  128  H   0.94042
  129  H   0.94262
  130  H   0.94452
  131  H   0.91865
  132  H   0.92431
  133  H   0.94187
  134  H   0.94177
  135  H   0.92989
  136  H   0.87987
  137  H   0.89207
  138  H   0.89373
  139  H   0.89303
  140  H   0.88282
  141  H   0.88022
  142  H   0.89246
  143  H   0.89437
  144  H   0.89315
  145  H   0.88280
  146  H   0.89629
  147  H   0.92658
  148  H   0.91661
  149  H   0.93386
  150  H   0.93936
  151  H   0.93433
  152  H   0.93038
  153  H   0.94143
  154  H   0.94053
  155  H   0.94441
  156  H   0.94290
  157  H   0.94297
  158  H   0.91660
  159  H   0.92785
  160  H   0.93821
  161  H   0.93849
  162  H   0.94111
  163  H   0.87803
  164  H   0.90187
  165  H   0.89276
  166  H   0.88263
  167  H   0.91764
  168  H   0.90272
  169  H   0.92995
  170  H   0.94236
  171  H   0.93139
  172  H   0.93263
  173  H   0.93870
  174  H   0.94229
  175  H   0.93934
  176  H   0.94073
  177  H   0.94264
  178  H   0.94408
  179  H   0.91864
  180  H   0.91096
  181  H   0.93850
  182  H   0.94125
  183  H   0.94208
  184  H   0.87255
  185  H   0.87635
  186  H   0.88122
  187  H   0.87936
  188  H   0.86457
  189  H   0.87309
  190  H   0.75473
  191  H   0.92813
  192  H   0.93273
  193  H   0.92148
  194  H   0.94386
  195  H   0.93750
 ******************** TDHF POLARIZABILITIES ********************



          MOLECULAR WEIGHT = 1320.83



          ROTATIONAL CONSTANTS IN CM(-1)

          A =    0.00084375   B =    0.00016490   C =    0.00014415



           PRINCIPAL MOMENTS OF INERTIA IN UNITS OF 10**(-40)*GRAM-CM**2

          A =    33176.5054   B =   169752.7442   C =   194196.3897


 ROTATION MATRIX FOR ORIENTATION OF MOLECULE:

         0.547392    0.781379    0.299682
        -0.818324    0.574744   -0.003835
        -0.175237   -0.243137    0.954032


          CARTESIAN COORDINATES 

    NO.       ATOM         X         Y         Z

     1         C       -3.8877   -9.3203   -1.0814
     2         C       -3.0557   -8.1326   -0.6258
     3         C       -3.9284   -6.8896   -0.4694
     4         C       -3.0936   -5.6964   -0.0072
     5         C       -3.9737   -4.4545    0.1312
     6         C       -3.1525   -3.2602    0.6479
     7         N       -3.7576   -1.9847    0.2259
     8         C       -3.0044   -0.7979    0.0736
     9         C       -1.5493   -0.7814    0.0645
    10         C       -0.8508   -1.3388   -1.0035
    11         C        0.5364   -1.2873   -1.0163
    12         C        1.2193   -0.6760    0.0333
    13         C        0.5159   -0.1144    1.0964
    14         C       -0.8718   -0.1642    1.1124
    15         C        2.6803   -0.6199    0.0150
    16         C        3.4057   -1.7962   -0.2030
    17         C        4.7923   -1.7803   -0.2154
    18         C        5.4499   -0.5744   -0.0289
    19         C        4.7053    0.6163    0.1856
    20         C        3.3126    0.5989    0.2188
    21         N        5.5859    1.6963    0.4262
    22         C        5.2007    3.0894    0.1361
    23         C        4.1589    3.5563    1.1726
    24         C        3.9787    5.0708    1.0948
    25         C        2.8832    5.5311    2.0535
    26         C        2.7180    7.0478    1.9974
    27         C        1.6219    7.5051    2.9460
    28         C        4.6484    3.2484   -1.2929
    29         C        5.7197    2.9858   -2.3360
    30         C        6.9085    1.1835    0.3114
    31         C        6.8469   -0.2167    0.0338
    32         C        7.9880   -0.9953   -0.0997
    33         C        7.8388   -2.4176   -0.3897
    34         C        7.8766   -3.3455    0.6481
    35         C        7.6824   -4.6936    0.3718
    36         C        7.4537   -5.1134   -0.9332
    37         C        7.4228   -4.1855   -1.9679
    38         C        7.6133   -2.8358   -1.7004
    39         C        9.2117   -0.3542    0.0754
    40         C        9.2692    1.0328    0.4248
    41         C        8.1288    1.8144    0.5395
    42         C        8.2587    3.2195    0.9121
    43         C        8.0162    3.6125    2.2260
    44         C        8.1632    4.9477    2.5825
    45         C        8.5492    5.8858    1.6329
    46         C        8.7928    5.4903    0.3225
    47         C        8.6512    4.1575   -0.0418
    48         C       10.6594    1.3639    0.6226
    49         C       11.4069    0.1871    0.3564
    50         N       10.5294   -0.8816    0.0697
    51         C       10.9874   -2.0862   -0.6506
    52         C       11.8839   -2.9064    0.3004
    53         C       12.2755   -4.2648   -0.2752
    54         C       11.1155   -5.2561   -0.2859
    55         C       11.5877   -6.6285   -0.7629
    56         C       10.4386   -7.6233   -0.7679
    57         C       11.7253   -1.7002   -1.9552
    58         C       11.1458   -2.4362   -3.1537
    59         C       12.7983    0.1814    0.4418
    60         C       13.4257    1.3590    0.8113
    61         C       12.6948    2.5151    1.0973
    62         C       11.3110    2.5251    1.0107
    63         C       -3.8587    0.2490   -0.0757
    64         C       -5.2364   -0.2457   -0.0028
    65         C       -5.1757   -1.6753    0.2293
    66         O       -6.0549   -2.4992    0.3921
    67         C       -6.0947    0.7890   -0.2124
    68         N       -5.3403    1.9636   -0.4155
    69         C       -3.9208    1.6746   -0.3196
    70         O       -3.0628    2.5288   -0.4319
    71         C       -5.8825    3.3315   -0.5062
    72         C       -5.5289    3.9015   -1.8960
    73         C       -6.2215    5.2395   -2.1385
    74         C       -5.9914    5.7050   -3.5758
    75         C       -6.6482    7.0620   -3.8171
    76         C       -6.4267    7.5200   -5.2495
    77         C       -5.3115    4.2025    0.6356
    78         C       -6.4076    5.0070    1.3180
    79         C       -7.5469    0.7448   -0.2492
    80         C       -8.2264    0.1861    0.8311
    81         C       -9.6122    0.1083    0.8065
    82         C      -10.3155    0.5769   -0.3031
    83         C       -9.6297    1.1181   -1.3909
    84         C       -8.2445    1.2013   -1.3648
    85         C      -11.7589    0.5104   -0.3396
    86         C      -12.5799    1.4930   -0.8348
    87         C      -13.9499    1.1213   -0.7492
    88         C      -14.1124   -0.1243   -0.1805
    89         S      -12.6224   -0.8321    0.2250
    90         C      -15.4000   -0.7247    0.0032
    91         C      -15.6865   -1.7168    0.8713
    92         C      -17.0585   -2.2371    0.9401
    93         O      -18.0149   -1.8606    0.2773
    94         O      -17.2232   -3.2275    1.8398
    95         C      -14.7348   -2.2893    1.7499
    96         N      -13.9780   -2.7732    2.4786
    97         C       -2.9958   -3.2983    2.1804
    98         C       -4.3251   -3.2148    2.9070
    99         H      -16.2040   -0.3106   -0.6285
   100         H       -4.6846   -9.5700   -0.3660
   101         H       -4.3766   -9.1401   -2.0497
   102         H       -3.2764  -10.2265   -1.2009
   103         H       -2.5412   -8.3704    0.3293
   104         H       -2.2330   -7.9432   -1.3475
   105         H       -4.4406   -6.6571   -1.4269
   106         H       -4.7525   -7.0872    0.2484
   107         H       -2.5890   -5.9339    0.9524
   108         H       -2.2648   -5.5110   -0.7235
   109         H       -4.4425   -4.2217   -0.8489
   110         H       -4.8311   -4.6622    0.8108
   111         H       -2.1246   -3.3008    0.1870
   112         H       -1.3912   -1.8041   -1.8340
   113         H        1.0909   -1.7151   -1.8573
   114         H        1.0537    0.3619    1.9220
   115         H       -1.4301    0.2838    1.9404
   116         H        2.8745   -2.7410   -0.3481
   117         H        5.3499   -2.7089   -0.3650
   118         H        2.7327    1.5098    0.4043
   119         H        6.1131    3.7356    0.2375
   120         H        3.1846    3.0416    1.0155
   121         H        4.4715    3.2600    2.1965
   122         H        4.9342    5.5880    1.3258
   123         H        3.7365    5.3770    0.0524
   124         H        1.9209    5.0319    1.8122
   125         H        3.1155    5.2079    3.0903
   126         H        3.6748    7.5537    2.2466
   127         H        2.4886    7.3762    0.9616
   128         H        0.6458    7.0628    2.6996
   129         H        1.8363    7.2379    3.9909
   130         H        1.4883    8.5963    2.9211
   131         H        3.7725    2.5913   -1.4720
   132         H        4.2448    4.2801   -1.4091
   133         H        5.3339    3.1270   -3.3564
   134         H        6.5827    3.6600   -2.2311
   135         H        6.1103    1.9588   -2.2891
   136         H        8.0534   -3.0111    1.6749
   137         H        7.7084   -5.4251    1.1848
   138         H        7.2972   -6.1750   -1.1465
   139         H        7.2443   -4.5176   -2.9948
   140         H        7.5803   -2.1014   -2.5108
   141         H        7.7134    2.8712    2.9717
   142         H        7.9751    5.2593    3.6141
   143         H        8.6635    6.9359    1.9167
   144         H        9.0991    6.2294   -0.4235
   145         H        8.8522    3.8409   -1.0697
   146         H       10.0829   -2.7009   -0.8969
   147         H       12.8082   -2.3369    0.5509
   148         H       11.3746   -3.0413    1.2793
   149         H       12.7066   -4.1627   -1.2926
   150         H       13.1128   -4.6786    0.3299
   151         H       10.6613   -5.3364    0.7247
   152         H       10.2879   -4.8945   -0.9329
   153         H       12.0340   -6.5545   -1.7773
   154         H       12.4124   -7.0042   -0.1207
   155         H       10.7570   -8.6150   -1.1203
   156         H       10.0087   -7.7679    0.2339
   157         H        9.6142   -7.3051   -1.4229
   158         H       11.6787   -0.6061   -2.1492
   159         H       12.8151   -1.8986   -1.8785
   160         H       11.1867   -3.5296   -3.0432
   161         H       10.0915   -2.1759   -3.3319
   162         H       11.6890   -2.1941   -4.0791
   163         H       13.3773   -0.7257    0.2428
   164         H       14.5175    1.3845    0.8855
   165         H       13.2249    3.4233    1.3965
   166         H       10.7505    3.4321    1.2517
   167         H       -7.0013    3.2692   -0.4086
   168         H       -4.4297    4.0108   -2.0137
   169         H       -5.8182    3.1754   -2.6866
   170         H       -7.3100    5.1637   -1.9314
   171         H       -5.8480    6.0077   -1.4294
   172         H       -4.9040    5.7599   -3.7948
   173         H       -6.3850    4.9563   -4.2955
   174         H       -7.7353    7.0138   -3.5948
   175         H       -6.2507    7.8191   -3.1084
   176         H       -5.3596    7.6237   -5.4936
   177         H       -6.8528    6.8197   -5.9823
   178         H       -6.8903    8.4983   -5.4425
   179         H       -4.7920    3.5896    1.4048
   180         H       -4.5093    4.8728    0.2609
   181         H       -5.9952    5.6803    2.0841
   182         H       -6.9757    5.6394    0.6213
   183         H       -7.1399    4.3648    1.8294
   184         H       -7.6688   -0.1978    1.6923
   185         H      -10.1444   -0.3209    1.6615
   186         H      -10.1774    1.4655   -2.2722
   187         H       -7.7052    1.6089   -2.2263
   188         H      -12.2444    2.4462   -1.2361
   189         H      -14.7616    1.7613   -1.0900
   190         H      -18.1401   -3.5386    1.8507
   191         H       -2.4584   -4.2263    2.4690
   192         H       -2.3236   -2.4769    2.5117
   193         H       -5.0633   -3.9298    2.5071
   194         H       -4.2159   -3.4361    3.9790
   195         H       -4.7822   -2.2172    2.8440


 ENERGY OF "REORIENTED" SYSTEM WITHOUT FIELD:       -7.1939532204


  NFREQ=  3  IWFLB=  0  IBET=  1  IGAM=  1
  ATOL= 0.10000D-02  BTOL= 0.10000D-02    MAXITU=  500    MAXITA=  150


 *****************************************************************
 CALCULATION OF STATIC FIELD QUANTITIES
 *****************************************************************

 +++++ ALPHA AT       0.00000 EV.

                           COMPONENTS OF ALPHA

                     *X           *Y           *Z
           *=X:    1289.6783      26.1686       8.5854
           *=Y:      26.1628     957.4613     -17.8428
           *=Z:       8.5683     -17.8345     547.9645

  ISOTROPIC AVERAGE ALPHA =     931.70134 A.U. =    138.06389 ANG.**3

 +++++ BETA (SECOND HARMONIC GENERATION) AT       0.00000 EV.

                              COMPONENTS OF BETA
            *XX         *XY         *YY         *XZ         *YZ         *ZZ
   *=X  4787.75110  1031.54151   496.89006  -573.23052  -173.72609   -20.69735
   *=Y  1031.45179   496.94906    72.45124  -173.72410   -76.46464   -18.80603
   *=Z  -573.48927  -173.72861   -76.47848   -20.66314   -18.81756    24.50522


 AVERAGE BETAX(SHG) VALUE AT   0.00000 EV =       3158.4036 a.u. =  0.272868E-28 ESU
 AVERAGE BETAY(SHG) VALUE AT   0.00000 EV =        651.0895 a.u. =  0.562503E-29 ESU
 AVERAGE BETAZ(SHG) VALUE AT   0.00000 EV =       -375.1685 a.u. = -0.324124E-29 ESU



 AVERAGE BETA (SHG) VALUE AT   0.00000 EV =       3246.5646 a.u. =  0.280484E-28 ESU
   (1 a.u. = 8.639418X10-33 esu)



 +++++ ALPHA AT       0.00000 EV.

                           COMPONENTS OF ALPHA

                     *X           *Y           *Z
           *=X:    1289.6783      26.1686       8.5854
           *=Y:      26.1628     957.4613     -17.8428
           *=Z:       8.5683     -17.8345     547.9645

  ISOTROPIC AVERAGE ALPHA =     931.70134 A.U. =    138.06389 ANG.**3


 GAMMA (THIRD HARMONIC GENERATION) AT    0.00000 EV.


 GAMMA(X,X,X,X) =       3414334.60758
 GAMMA(Y,Y,Y,Y) =        146721.79546
 GAMMA(Z,Z,Z,Z) =         18750.92709
 GAMMA(X,X,Y,Y) =         68402.27869
 GAMMA(X,X,Z,Z) =         14434.00154
 GAMMA(Y,Y,X,X) =         68402.71378
 GAMMA(Y,Y,Z,Z) =         18053.33541
 GAMMA(Z,Z,X,X) =         14434.02778
 GAMMA(Z,Z,Y,Y) =         18053.34584


 AVERAGE GAMMA VALUE AT    0.00000 =        756317.40663 a.u. =       380934.58332 ESU (X10-39)




 **********************************************************************
 CALCULATION FOR A FREQUENCY OF    0.25000 EV  =       0.00919 A.U. 
                  WAVELENGTH OF    4959.37 NM  =    2016.38525 CM(-1)
 **********************************************************************

 +++++ ALPHA AT       0.25000 EV.

                           COMPONENTS OF ALPHA

                     *X           *Y           *Z
           *=X:    1294.2153      26.0777       8.5433
           *=Y:      26.0724     959.5470     -17.9332
           *=Z:       8.5287     -17.9261     548.5906

  ISOTROPIC AVERAGE ALPHA =     934.11762 A.U. =    138.42195 ANG.**3

 +++++ BETA (SECOND HARMONIC GENERATION) AT       0.25000 EV.

                              COMPONENTS OF BETA
            *XX         *XY         *YY         *XZ         *YZ         *ZZ
   *=X  4999.25648  1069.29582   516.54341  -596.92775  -179.25481   -20.45171
   *=Y  1053.03849   520.66290    80.37562  -178.53543   -81.42122   -19.09556
   *=Z  -598.39603  -181.14827   -81.29761   -18.10871   -18.49067    23.72743


 AVERAGE BETAX(SHG) VALUE AT   0.25000 EV =       3299.7939 a.u. =  0.285083E-28 ESU
 AVERAGE BETAY(SHG) VALUE AT   0.25000 EV =        675.3360 a.u. =  0.583451E-29 ESU
 AVERAGE BETAZ(SHG) VALUE AT   0.25000 EV =       -393.0419 a.u. = -0.339565E-29 ESU



 AVERAGE BETA (SHG) VALUE AT   0.25000 EV =       3391.0471 a.u. =  0.292967E-28 ESU
   (1 a.u. = 8.639418X10-33 esu)



 +++++ ALPHA AT       0.75000 EV.

                           COMPONENTS OF ALPHA

                     *X           *Y           *Z
           *=X:    1332.7116      25.1810       8.1904
           *=Y:      25.1761     976.9767     -18.7226
           *=Z:       8.1745     -18.7159     553.7029

  ISOTROPIC AVERAGE ALPHA =     954.46373 A.U. =    141.43693 ANG.**3


 GAMMA (THIRD HARMONIC GENERATION) AT    0.25000 EV.


 GAMMA(X,X,X,X) =       3728487.00497
 GAMMA(Y,Y,Y,Y) =        152459.41930
 GAMMA(Z,Z,Z,Z) =         19144.56096
 GAMMA(X,X,Y,Y) =         70679.50635
 GAMMA(X,X,Z,Z) =         14742.63450
 GAMMA(Y,Y,X,X) =         79794.90270
 GAMMA(Y,Y,Z,Z) =         18763.12245
 GAMMA(Z,Z,X,X) =         16423.27035
 GAMMA(Z,Z,Y,Y) =         18653.50301


 AVERAGE GAMMA VALUE AT    0.25000 =        823829.58492 a.u. =       414938.45958 ESU (X10-39)




 **********************************************************************
 CALCULATION FOR A FREQUENCY OF    0.50000 EV  =       0.01837 A.U. 
                  WAVELENGTH OF    2479.68 NM  =    4032.77050 CM(-1)
 **********************************************************************

 +++++ ALPHA AT       0.50000 EV.

                           COMPONENTS OF ALPHA

                     *X           *Y           *Z
           *=X:    1308.1748      25.7799       8.4196
           *=Y:      25.7749     965.9219     -18.2174
           *=Z:       8.4041     -18.2103     550.4840

  ISOTROPIC AVERAGE ALPHA =     941.52692 A.U. =    139.51989 ANG.**3

 +++++ BETA (SECOND HARMONIC GENERATION) AT       0.50000 EV.

                              COMPONENTS OF BETA
            *XX         *XY         *YY         *XZ         *YZ         *ZZ
   *=X  5737.80122  1199.52161   584.77642  -679.25228  -198.23835   -19.40440
   *=Y  1119.00264   602.84036   107.20247  -194.33664   -98.36261   -20.09165
   *=Z  -683.73413  -206.45259   -97.54225    -8.86117   -17.25367    20.97771


 AVERAGE BETAX(SHG) VALUE AT   0.50000 EV =       3793.3468 a.u. =  0.327723E-28 ESU
 AVERAGE BETAY(SHG) VALUE AT   0.50000 EV =        757.0109 a.u. =  0.654013E-29 ESU
 AVERAGE BETAZ(SHG) VALUE AT   0.50000 EV =       -454.7146 a.u. = -0.392847E-29 ESU



 AVERAGE BETA (SHG) VALUE AT   0.50000 EV =       3894.7800 a.u. =  0.336486E-28 ESU
   (1 a.u. = 8.639418X10-33 esu)



 +++++ ALPHA AT       1.50000 EV.

                           COMPONENTS OF ALPHA

                     *X           *Y           *Z
           *=X:    1503.5354      18.1459       6.2294
           *=Y:      18.1388    1049.1020     -22.3468
           *=Z:       6.2074     -22.3354     572.7291

  ISOTROPIC AVERAGE ALPHA =    1041.78884 A.U. =    154.37718 ANG.**3


 GAMMA (THIRD HARMONIC GENERATION) AT    0.50000 EV.


 GAMMA(X,X,X,X) =       5070331.71146
 GAMMA(Y,Y,Y,Y) =        174107.86436
 GAMMA(Z,Z,Z,Z) =         20489.11895
 GAMMA(X,X,Y,Y) =         77590.59993
 GAMMA(X,X,Z,Z) =         15505.93264
 GAMMA(Y,Y,X,X) =        128838.37674
 GAMMA(Y,Y,Z,Z) =         21456.17185
 GAMMA(Z,Z,X,X) =         25122.19294
 GAMMA(Z,Z,Y,Y) =         20877.12011


 AVERAGE GAMMA VALUE AT    0.50000 =       1110863.81780 a.u. =       559509.06570 ESU (X10-39)



 **********************
 *                    *
 * JOB ENDED NORMALLY *
 *                    *
 **********************



 TOTAL JOB TIME:          2800.05 SECONDS

 == MOPAC DONE ==
