 *******************************************************************************
 ** Site#: 4824         For non-commercial use only    Version 21.013L 64BITS **
 *******************************************************************************
 ** Cite this program as: MOPAC2016, Version: 21.013L, James J. P. Stewart,   **
 ** Stewart Computational Chemistry, web: HTTP://OpenMOPAC.net. Days left:  87**
 *******************************************************************************
 **                                                                           **
 **                                MOPAC2016                                  **
 **                                                                           **
 *******************************************************************************

                              RM1 CALCULATION RESULTS

 *******************************************************************************
 *  CALCULATION DONE:                                Mon Oct 18 16:00:13 2021  *
 *  RM1        - The RM1 Hamiltonian to be used
 *  POLAR      - CALCULATE FIRST, SECOND AND THIRD-ORDER POLARIZABILITIES
 *  PRECISE    - TIGHTER CRITERIA TO BE USED
 *  XYZ        - CARTESIAN COORDINATE SYSTEM TO BE USED
 *  T=         - A TIME OF 172800.0 SECONDS REQUESTED
 *  DUMP=N     - RESTART FILE WRITTEN EVERY 7200.0 SECONDS REQUESTED
 *  GNORM      - EXIT WHEN GRADIENT NORM DROPS BELOW 0.100
 *******************************************************************************
RM1 PRECISE POLAR XYZ GNORM=0.1


   ATOM   CHEMICAL          X               Y               Z
  NUMBER   SYMBOL      (ANGSTROMS)     (ANGSTROMS)     (ANGSTROMS)
 
     1       C          0.00000000  *   0.00000000  *   0.00000000  *
     2       C          1.51989999  *   0.00000000  *   0.00000000  *
     3       C          2.06084288  *   1.42758889  *   0.00000000  *
     4       C          3.58758339  *   1.42812764  *  -0.01590821  *
     5       C          4.12677091  *   2.85677373  *  -0.00070046  *
     6       C          5.65357452  *   2.85615314  *  -0.03554199  *
     7       C          6.18744962  *   4.28691612  *  -0.00360254  *
     8       C          7.71822538  *   4.25679901  *  -0.06242368  *
     9       N          8.25736944  *   5.64751904  *  -0.00318805  *
    10       N          8.90227117  *   6.11879621  *   1.09080947  *
    11       C          9.20408543  *   7.41720368  *   0.74633739  *
    12       C          8.69791261  *   7.66193901  *  -0.58495923  *
    13       N          8.09429840  *   6.51100841  *  -1.03780492  *
    14       C          8.88795699  *   8.92527218  *  -1.20403450  *
    15       C          9.55503072  *   9.88323647  *  -0.49045359  *
    16       C         10.05208305  *   9.64128239  *   0.82206811  *
    17       C          9.89630750  *   8.43647772  *   1.45242748  *
    18       C         10.42391869  *   8.20233714  *   2.77109354  *
    19       C         11.62228363  *   8.68280292  *   3.22631482  *
    20       C         11.86793649  *   8.30663972  *   4.58354883  *
    21       C         10.84417482  *   7.56047225  *   5.09697872  *
    22       S          9.59520161  *   7.30505021  *   3.96340821  *
    23       C         10.77924166  *   7.03824708  *   6.44183397  *
    24       C         11.15847719  *   7.86529222  *   7.50654425  *
    25       C         11.12587226  *   7.41907686  *   8.81933151  *
    26       C         10.69575713  *   6.11855485  *   9.05596574  *
    27       C         10.32128262  *   5.26930453  *   7.97123188  *
    28       C         10.36195586  *   5.72783570  *   6.66851663  *
    29       C          9.95870844  *   3.98593769  *   8.52327850  *
    30       C          9.51046846  *   2.78745092  *   7.99424619  *
    31       C          9.25546524  *   1.74471864  *   8.87599905  *
    32       C          9.44812767  *   1.87399080  *  10.25699240  *
    33       C          9.89852581  *   3.06093816  *  10.81734727  *
    34       C         10.13911004  *   4.09100279  *   9.91964203  *
    35       N         10.60693726  *   5.37668942  *  10.25906636  *
    36       C         10.54279920  *   5.76993894  *  11.60956132  *
    37       C         10.70257442  *   7.11137223  *  11.96743829  *
    38       C         10.61921574  *   7.48434610  *  13.30011560  *
    39       C         10.36143506  *   6.52977758  *  14.27161169  *
    40       C         10.20626378  *   5.19850378  *  13.90749061  *
    41       C         10.30491340  *   4.77676506  *  12.58436006  *
    42       C         10.21971627  *   3.29403825  *  12.26933281  *
    43       C         11.62810279  *   2.70142984  *  12.47968340  *
    44       C         12.19412038  *   2.91473575  *  13.87141243  *
    45       C          9.13201866  *   2.63267207  *  13.14003819  *
    46       C          9.29881533  *   1.14365408  *  13.39552422  *
    47       C          8.37943691  *   9.14698530  *  -2.53270565  *
    48       C          7.21122947  *   8.63289183  *  -3.03686842  *
    49       C          7.00641071  *   9.03033041  *  -4.38726328  *
    50       C          8.02331279  *   9.83700865  *  -4.85469903  *
    51       S          9.21505020  *  10.09337605  *  -3.66881798  *
    52       C          8.03965915  *  10.35867030  *  -6.18630636  *
    53       C          8.88268940  *  11.30239091  *  -6.65755670  *
    54       C          8.77103016  *  11.72873317  *  -8.05780947  *
    55       O          7.96953388  *  11.31699194  *  -8.88529741  *
    56       O          9.66627347  *  12.67146538  *  -8.41625246  *
    57       C          9.88183684  *  11.92730982  *  -5.87321114  *
    58       N         10.70592927  *  12.45402622  *  -5.25522280  *
    59       H          7.27936085  *   9.93461490  *  -6.86442413  *
    60       H         -0.41728372  *   0.50309678  *  -0.88421648  *
    61       H         -0.40907707  *  -1.02073027  *   0.00354226  *
    62       H         -0.41725980  *   0.50929348  *   0.88066689  *
    63       H          1.90250802  *  -0.56133049  *   0.87864389  *
    64       H          1.90188479  *  -0.56145159  *  -0.87886637  *
    65       H          1.66457920  *   1.98849487  *  -0.87276988  *
    66       H          1.68189500  *   1.98118284  *   0.88501572  *
    67       H          3.98278924  *   0.85702378  *   0.85072453  *
    68       H          3.96355472  *   0.88257851  *  -0.90724598  *
    69       H          3.72152257  *   3.43193991  *  -0.86004767  *
    70       H          3.76091072  *   3.39770913  *   0.89766070  *
    71       H          6.05848781  *   2.27147428  *   0.81773297  *
    72       H          6.01772972  *   2.32605297  *  -0.94122936  *
    73       H          5.77352417  *   4.87846628  *  -0.84793178  *
    74       H          5.83948230  *   4.81310549  *   0.91064449  *
    75       H          8.15201762  *   3.66651289  *   0.77869468  *
    76       H          8.08398197  *   3.78127635  *  -1.00257905  *
    77       H          9.72012509  *  10.87815691  *  -0.91873441  *
    78       H         10.56731143  *  10.46464827  *   1.32813991  *
    79       H         12.32692689  *   9.26840035  *   2.64084740  *
    80       H         12.77330904  *   8.58092084  *   5.11880287  *
    81       H         11.48362381  *   8.89077050  *   7.30195950  *
    82       H         11.43348380  *   8.07870154  *   9.63676107  *
    83       H         10.08109317  *   5.06609824  *   5.84468676  *
    84       H          9.36517799  *   2.67330591  *   6.91765985  *
    85       H          8.89793199  *   0.78867815  *   8.48214205  *
    86       H          9.24215649  *   1.00379734  *  10.89082832  *
    87       H         10.89071749  *   7.88498079  *  11.21591246  *
    88       H         10.75095498  *   8.53391830  *  13.58013427  *
    89       H         10.28142798  *   6.82149229  *  15.32223037  *
    90       H          9.98563215  *   4.46939202  *  14.69919123  *
    91       H         11.62594141  *   1.62025554  *  12.22506460  *
    92       H         12.32270509  *   3.14757318  *  11.73315472  *
    93       H         13.12051823  *   2.33717779  *  14.01590680  *
    94       H         12.46049356  *   3.96419428  *  14.06442542  *
    95       H         11.51153135  *   2.60467323  *  14.67413712  *
    96       H          9.05702562  *   3.12689234  *  14.13554577  *
    97       H          8.14179657  *   2.82632408  *  12.67287548  *
    98       H         10.16827092  *   0.90346689  *  14.02319636  *
    99       H          8.42281476  *   0.73523336  *  13.92377940  *
   100       H          9.40233042  *   0.54767722  *  12.47553918  *
   101       H          6.51226790  *   8.00266596  *  -2.49079065  *
   102       H          6.13693751  *   8.72600092  *  -4.96732996  *
   103       H          9.55496414  *  12.92086177  *  -9.34507526  *
 


          CARTESIAN COORDINATES 

    NO.       ATOM           X           Y           Z

     1         C          0.0000      0.0000      0.0000
     2         C          1.5199      0.0000      0.0000
     3         C          2.0608      1.4276      0.0000
     4         C          3.5876      1.4281     -0.0159
     5         C          4.1268      2.8568     -0.0007
     6         C          5.6536      2.8562     -0.0355
     7         C          6.1874      4.2869     -0.0036
     8         C          7.7182      4.2568     -0.0624
     9         N          8.2574      5.6475     -0.0032
    10         N          8.9023      6.1188      1.0908
    11         C          9.2041      7.4172      0.7463
    12         C          8.6979      7.6619     -0.5850
    13         N          8.0943      6.5110     -1.0378
    14         C          8.8880      8.9253     -1.2040
    15         C          9.5550      9.8832     -0.4905
    16         C         10.0521      9.6413      0.8221
    17         C          9.8963      8.4365      1.4524
    18         C         10.4239      8.2023      2.7711
    19         C         11.6223      8.6828      3.2263
    20         C         11.8679      8.3066      4.5835
    21         C         10.8442      7.5605      5.0970
    22         S          9.5952      7.3051      3.9634
    23         C         10.7792      7.0382      6.4418
    24         C         11.1585      7.8653      7.5065
    25         C         11.1259      7.4191      8.8193
    26         C         10.6958      6.1186      9.0560
    27         C         10.3213      5.2693      7.9712
    28         C         10.3620      5.7278      6.6685
    29         C          9.9587      3.9859      8.5233
    30         C          9.5105      2.7875      7.9942
    31         C          9.2555      1.7447      8.8760
    32         C          9.4481      1.8740     10.2570
    33         C          9.8985      3.0609     10.8173
    34         C         10.1391      4.0910      9.9196
    35         N         10.6069      5.3767     10.2591
    36         C         10.5428      5.7699     11.6096
    37         C         10.7026      7.1114     11.9674
    38         C         10.6192      7.4843     13.3001
    39         C         10.3614      6.5298     14.2716
    40         C         10.2063      5.1985     13.9075
    41         C         10.3049      4.7768     12.5844
    42         C         10.2197      3.2940     12.2693
    43         C         11.6281      2.7014     12.4797
    44         C         12.1941      2.9147     13.8714
    45         C          9.1320      2.6327     13.1400
    46         C          9.2988      1.1437     13.3955
    47         C          8.3794      9.1470     -2.5327
    48         C          7.2112      8.6329     -3.0369
    49         C          7.0064      9.0303     -4.3873
    50         C          8.0233      9.8370     -4.8547
    51         S          9.2151     10.0934     -3.6688
    52         C          8.0397     10.3587     -6.1863
    53         C          8.8827     11.3024     -6.6576
    54         C          8.7710     11.7287     -8.0578
    55         O          7.9695     11.3170     -8.8853
    56         O          9.6663     12.6715     -8.4163
    57         C          9.8818     11.9273     -5.8732
    58         N         10.7059     12.4540     -5.2552
    59         H          7.2794      9.9346     -6.8644
    60         H         -0.4173      0.5031     -0.8842
    61         H         -0.4091     -1.0207      0.0035
    62         H         -0.4173      0.5093      0.8807
    63         H          1.9025     -0.5613      0.8786
    64         H          1.9019     -0.5615     -0.8789
    65         H          1.6646      1.9885     -0.8728
    66         H          1.6819      1.9812      0.8850
    67         H          3.9828      0.8570      0.8507
    68         H          3.9636      0.8826     -0.9072
    69         H          3.7215      3.4319     -0.8600
    70         H          3.7609      3.3977      0.8977
    71         H          6.0585      2.2715      0.8177
    72         H          6.0177      2.3261     -0.9412
    73         H          5.7735      4.8785     -0.8479
    74         H          5.8395      4.8131      0.9106
    75         H          8.1520      3.6665      0.7787
    76         H          8.0840      3.7813     -1.0026
    77         H          9.7201     10.8782     -0.9187
    78         H         10.5673     10.4646      1.3281
    79         H         12.3269      9.2684      2.6408
    80         H         12.7733      8.5809      5.1188
    81         H         11.4836      8.8908      7.3020
    82         H         11.4335      8.0787      9.6368
    83         H         10.0811      5.0661      5.8447
    84         H          9.3652      2.6733      6.9177
    85         H          8.8979      0.7887      8.4821
    86         H          9.2422      1.0038     10.8908
    87         H         10.8907      7.8850     11.2159
    88         H         10.7510      8.5339     13.5801
    89         H         10.2814      6.8215     15.3222
    90         H          9.9856      4.4694     14.6992
    91         H         11.6259      1.6203     12.2251
    92         H         12.3227      3.1476     11.7332
    93         H         13.1205      2.3372     14.0159
    94         H         12.4605      3.9642     14.0644
    95         H         11.5115      2.6047     14.6741
    96         H          9.0570      3.1269     14.1355
    97         H          8.1418      2.8263     12.6729
    98         H         10.1683      0.9035     14.0232
    99         H          8.4228      0.7352     13.9238
   100         H          9.4023      0.5477     12.4755
   101         H          6.5123      8.0027     -2.4908
   102         H          6.1369      8.7260     -4.9673
   103         H          9.5550     12.9209     -9.3451

  H: (RM1): G.B. ROCHA, R.O. FREIRE, A.M.SIMAS, J.J.P. STEWART, J. COMP. CHEM. 27, 1101 (2006)
  C: (RM1): G.B. ROCHA, R.O. FREIRE, A.M.SIMAS, J.J.P. STEWART, J. COMP. CHEM. 27, 1101 (2006)
  N: (RM1): G.B. ROCHA, R.O. FREIRE, A.M.SIMAS, J.J.P. STEWART, J. COMP. CHEM. 27, 1101 (2006)
  O: (RM1): G.B. ROCHA, R.O. FREIRE, A.M.SIMAS, J.J.P. STEWART, J. COMP. CHEM. 27, 1101 (2006)
  S: (RM1): G.B. ROCHA, R.O. FREIRE, A.M.SIMAS, J.J.P. STEWART, J. COMP. CHEM. 27, 1101 (2006)

           Empirical Formula: C49 H45 N5 O2 S2  =   103 atoms



      MOLECULAR POINT GROUP   :   C1  


      RHF CALCULATION, NO. OF DOUBLY OCCUPIED LEVELS = 145


          Geometry optimization using L-BFGS
 CYCLE:     1 TIME:   0.531 TIME LEFT:  2.00D  GRAD.:     1.739 HEAT:  131.2631
 CYCLE:     2 TIME:   0.309 TIME LEFT:  2.00D  GRAD.:     1.702 HEAT:  131.2630
 CYCLE:     3 TIME:   0.395 TIME LEFT:  2.00D  GRAD.:     1.364 HEAT:  131.2624
 CYCLE:     4 TIME:   0.504 TIME LEFT:  2.00D  GRAD.:     1.734 HEAT:  131.2630
 CYCLE:     5 TIME:   0.277 TIME LEFT:  2.00D  GRAD.:     1.432 HEAT:  131.2624
 CYCLE:     6 TIME:   0.301 TIME LEFT:  2.00D  GRAD.:     0.522 HEAT:  131.2621
 CYCLE:     7 TIME:   0.312 TIME LEFT:  2.00D  GRAD.:     0.395 HEAT:  131.2619
 CYCLE:     8 TIME:   0.305 TIME LEFT:  2.00D  GRAD.:     0.902 HEAT:  131.2618
 CYCLE:     9 TIME:   0.277 TIME LEFT:  2.00D  GRAD.:     0.478 HEAT:  131.2617
 CYCLE:    10 TIME:   0.281 TIME LEFT:  2.00D  GRAD.:     0.251 HEAT:  131.2617
 CYCLE:    11 TIME:   0.258 TIME LEFT:  2.00D  GRAD.:     0.223 HEAT:  131.2617
 CYCLE:    12 TIME:   0.277 TIME LEFT:  2.00D  GRAD.:     0.231 HEAT:  131.2616
 CYCLE:    13 TIME:   0.281 TIME LEFT:  2.00D  GRAD.:     0.260 HEAT:  131.2616
 CYCLE:    14 TIME:   0.301 TIME LEFT:  2.00D  GRAD.:     0.852 HEAT:  131.2616
 CYCLE:    15 TIME:   0.250 TIME LEFT:  2.00D  GRAD.:     0.150 HEAT:  131.2615
 CYCLE:    16 TIME:   0.254 TIME LEFT:  2.00D  GRAD.:     0.131 HEAT:  131.2615
 CYCLE:    17 TIME:   0.258 TIME LEFT:  2.00D  GRAD.:     0.102 HEAT:  131.2615
 CYCLE:    18 TIME:   0.262 TIME LEFT:  2.00D  GRAD.:     0.227 HEAT:  131.2615
 CYCLE:    19 TIME:   0.266 TIME LEFT:  2.00D  GRAD.:     0.094 HEAT:  131.2615

 -------------------------------------------------------------------------------
 RM1 PRECISE POLAR XYZ GNORM=0.1




     HERBERTS TEST WAS SATISFIED IN BFGS                      
     SCF FIELD WAS ACHIEVED                                   


                              RM1 CALCULATION
                                                       MOPAC2016 (Version: 21.013L)
                                                       Mon Oct 18 16:00:19 2021
                                                       No. of days remaining =  87




          FINAL HEAT OF FORMATION =        131.26146 KCAL/MOL =     549.19797 KJ/MOL


          TOTAL ENERGY            =      -8828.53995 EV
          ELECTRONIC ENERGY       =     -96837.49786 EV  POINT GROUP:     C1  
          CORE-CORE REPULSION     =      88008.95791 EV
          COSMO AREA              =        794.77 SQUARE ANGSTROMS
          COSMO VOLUME            =        939.53 CUBIC ANGSTROMS

          GRADIENT NORM           =          0.09401 = 0.00926 PER ATOM
          IONIZATION POTENTIAL    =          7.853634 EV
          HOMO LUMO ENERGIES (EV) =         -7.854 -1.409
          NO. OF FILLED LEVELS    =        145
          MOLECULAR WEIGHT        =        800.0468

          MOLECULAR DIMENSIONS (Angstroms)

            Atom       Atom       Distance
            H   103    H    99    26.29093
            H    88    H    61    18.69939
            H    62    H    93     6.31106


          SCF CALCULATIONS        =         20
 
          WALL-CLOCK TIME         =          6.215 SECONDS
          COMPUTATION TIME        =  1 MINUTE AND 10.174 SECONDS




   ATOM   CHEMICAL          X               Y               Z
  NUMBER   SYMBOL      (ANGSTROMS)     (ANGSTROMS)     (ANGSTROMS)
 
     1       C         -0.00011379  *   0.00001988  *   0.00014706  *
     2       C          1.51984865  *  -0.00010101  *  -0.00033119  *
     3       C          2.06080470  *   1.42753952  *  -0.00003300  *
     4       C          3.58761224  *   1.42808624  *  -0.01600439  *
     5       C          4.12676782  *   2.85680140  *  -0.00069757  *
     6       C          5.65358207  *   2.85617538  *  -0.03556624  *
     7       C          6.18747792  *   4.28694207  *  -0.00360254  *
     8       C          7.71825618  *   4.25687625  *  -0.06262994  *
     9       N          8.25739461  *   5.64757223  *  -0.00356771  *
    10       N          8.90203474  *   6.11883803  *   1.09064893  *
    11       C          9.20410733  *   7.41710435  *   0.74603591  *
    12       C          8.69781140  *   7.66198699  *  -0.58509208  *
    13       N          8.09446945  *   6.51094048  *  -1.03795998  *
    14       C          8.88791343  *   8.92533223  *  -1.20405759  *
    15       C          9.55495807  *   9.88318873  *  -0.49040859  *
    16       C         10.05203902  *   9.64144819  *   0.82218008  *
    17       C          9.89642695  *   8.43664149  *   1.45250156  *
    18       C         10.42391597  *   8.20251976  *   2.77123163  *
    19       C         11.62245099  *   8.68268946  *   3.22638502  *
    20       C         11.86796744  *   8.30661614  *   4.58372763  *
    21       C         10.84421131  *   7.56026015  *   5.09710052  *
    22       S          9.59508957  *   7.30529070  *   3.96340878  *
    23       C         10.77932606  *   7.03789346  *   6.44188323  *
    24       C         11.15826998  *   7.86514187  *   7.50651641  *
    25       C         11.12571555  *   7.41920309  *   8.81943478  *
    26       C         10.69618515  *   6.11849733  *   9.05602150  *
    27       C         10.32124785  *   5.26936738  *   7.97135405  *
    28       C         10.36203185  *   5.72774911  *   6.66864079  *
    29       C          9.95868609  *   3.98601802  *   8.52344047  *
    30       C          9.51065946  *   2.78746189  *   7.99438124  *
    31       C          9.25568958  *   1.74465763  *   8.87599820  *
    32       C          9.44846534  *   1.87380960  *  10.25694639  *
    33       C          9.89874816  *   3.06079406  *  10.81728612  *
    34       C         10.13882078  *   4.09110639  *   9.91961943  *
    35       N         10.60630344  *   5.37698298  *  10.25905373  *
    36       C         10.54264423  *   5.77030623  *  11.60964677  *
    37       C         10.70279130  *   7.11167095  *  11.96759635  *
    38       C         10.61953468  *   7.48466154  *  13.30025803  *
    39       C         10.36136991  *   6.53010603  *  14.27169749  *
    40       C         10.20604324  *   5.19888862  *  13.90740729  *
    41       C         10.30459704  *   4.77739173  *  12.58460494  *
    42       C         10.21983070  *   3.29375048  *  12.26930108  *
    43       C         11.62820624  *   2.70105192  *  12.47971521  *
    44       C         12.19419714  *   2.91455442  *  13.87147267  *
    45       C          9.13204442  *   2.63239834  *  13.13987749  *
    46       C          9.29863893  *   1.14334633  *  13.39540464  *
    47       C          8.37940095  *   9.14697663  *  -2.53270119  *
    48       C          7.21128194  *   8.63285950  *  -3.03690994  *
    49       C          7.00639127  *   9.03029870  *  -4.38732199  *
    50       C          8.02329673  *   9.83706936  *  -4.85475835  *
    51       S          9.21497936  *  10.09333913  *  -3.66878223  *
    52       C          8.03964435  *  10.35867403  *  -6.18639872  *
    53       C          8.88327622  *  11.30180306  *  -6.65780911  *
    54       C          8.77122388  *  11.72852968  *  -8.05787208  *
    55       O          7.96938378  *  11.31712072  *  -8.88517879  *
    56       O          9.66620319  *  12.67151819  *  -8.41625889  *
    57       C          9.88298128  *  11.92604758  *  -5.87365257  *
    58       N         10.70478337  *  12.45519791  *  -5.25467877  *
    59       H          7.27869616  *   9.93527998  *  -6.86414972  *
    60       H         -0.41751777  *   0.50316760  *  -0.88399872  *
    61       H         -0.40921496  *  -1.02071162  *   0.00367239  *
    62       H         -0.41702072  *   0.50926645  *   0.88099701  *
    63       H          1.90247097  *  -0.56142701  *   0.87833400  *
    64       H          1.90167840  *  -0.56141165  *  -0.87931772  *
    65       H          1.66446819  *   1.98856997  *  -0.87270190  *
    66       H          1.68199336  *   1.98097952  *   0.88514478  *
    67       H          3.98277724  *   0.85715335  *   0.85078471  *
    68       H          3.96355915  *   0.88237567  *  -0.90725030  *
    69       H          3.72158999  *   3.43199060  *  -0.86005585  *
    70       H          3.76090306  *   3.39757440  *   0.89774473  *
    71       H          6.05846508  *   2.27158097  *   0.81777346  *
    72       H          6.01769959  *   2.32601919  *  -0.94123062  *
    73       H          5.77345262  *   4.87844358  *  -0.84791669  *
    74       H          5.83989310  *   4.81303379  *   0.91083255  *
    75       H          8.15217062  *   3.66695851  *   0.77870760  *
    76       H          8.08379785  *   3.78078447  *  -1.00256218  *
    77       H          9.72022795  *  10.87814770  *  -0.91855182  *
    78       H         10.56729678  *  10.46501295  *   1.32785670  *
    79       H         12.32707534  *   9.26823635  *   2.64088767  *
    80       H         12.77320940  *   8.58122518  *   5.11902409  *
    81       H         11.48371747  *   8.89052081  *   7.30183899  *
    82       H         11.43404785  *   8.07891948  *   9.63649140  *
    83       H         10.08113875  *   5.06599303  *   5.84485404  *
    84       H          9.36495900  *   2.67322276  *   6.91787177  *
    85       H          8.89773171  *   0.78879929  *   8.48211671  *
    86       H          9.24190635  *   1.00374169  *  10.89074246  *
    87       H         10.89054787  *   7.88536390  *  11.21610613  *
    88       H         10.75085779  *   8.53431760  *  13.58022482  *
    89       H         10.28115866  *   6.82179119  *  15.32231445  *
    90       H          9.98576505  *   4.46961116  *  14.69903230  *
    91       H         11.62615355  *   1.61996954  *  12.22483176  *
    92       H         12.32296498  *   3.14731602  *  11.73337984  *
    93       H         13.12060895  *   2.33700750  *  14.01590159  *
    94       H         12.46060284  *   3.96406103  *  14.06417333  *
    95       H         11.51165588  *   2.60467188  *  14.67428838  *
    96       H          9.05702334  *   3.12669475  *  14.13535951  *
    97       H          8.14175927  *   2.82613135  *  12.67283591  *
    98       H         10.16805935  *   0.90332754  *  14.02320489  *
    99       H          8.42260330  *   0.73500330  *  13.92362246  *
   100       H          9.40245839  *   0.54738735  *  12.47543291  *
   101       H          6.51231392  *   8.00257739  *  -2.49093758  *
   102       H          6.13695270  *   8.72580091  *  -4.96732048  *
   103       H          9.55497422  *  12.92092541  *  -9.34511258  *

                             CARTESIAN COORDINATES

   1    C       -0.000113794     0.000019879     0.000147063
   2    C        1.519848653    -0.000101010    -0.000331192
   3    C        2.060804701     1.427539520    -0.000032996
   4    C        3.587612244     1.428086236    -0.016004394
   5    C        4.126767816     2.856801402    -0.000697570
   6    C        5.653582073     2.856175376    -0.035566236
   7    C        6.187477920     4.286942069    -0.003602537
   8    C        7.718256178     4.256876246    -0.062629937
   9    N        8.257394610     5.647572232    -0.003567709
  10    N        8.902034744     6.118838025     1.090648934
  11    C        9.204107331     7.417104351     0.746035908
  12    C        8.697811400     7.661986991    -0.585092075
  13    N        8.094469453     6.510940484    -1.037959981
  14    C        8.887913426     8.925332232    -1.204057588
  15    C        9.554958070     9.883188727    -0.490408588
  16    C       10.052039022     9.641448193     0.822180080
  17    C        9.896426948     8.436641486     1.452501556
  18    C       10.423915970     8.202519764     2.771231630
  19    C       11.622450991     8.682689456     3.226385023
  20    C       11.867967440     8.306616141     4.583727632
  21    C       10.844211309     7.560260150     5.097100517
  22    S        9.595089568     7.305290699     3.963408777
  23    C       10.779326060     7.037893456     6.441883226
  24    C       11.158269979     7.865141872     7.506516409
  25    C       11.125715552     7.419203092     8.819434781
  26    C       10.696185148     6.118497327     9.056021505
  27    C       10.321247854     5.269367382     7.971354049
  28    C       10.362031855     5.727749107     6.668640791
  29    C        9.958686086     3.986018022     8.523440473
  30    C        9.510659465     2.787461890     7.994381238
  31    C        9.255689580     1.744657628     8.875998200
  32    C        9.448465345     1.873809599    10.256946386
  33    C        9.898748160     3.060794059    10.817286123
  34    C       10.138820777     4.091106391     9.919619431
  35    N       10.606303439     5.376982985    10.259053728
  36    C       10.542644234     5.770306233    11.609646772
  37    C       10.702791297     7.111670951    11.967596354
  38    C       10.619534678     7.484661537    13.300258026
  39    C       10.361369909     6.530106030    14.271697490
  40    C       10.206043240     5.198888616    13.907407286
  41    C       10.304597036     4.777391732    12.584604936
  42    C       10.219830699     3.293750484    12.269301078
  43    C       11.628206236     2.701051917    12.479715212
  44    C       12.194197136     2.914554422    13.871472670
  45    C        9.132044425     2.632398338    13.139877489
  46    C        9.298638926     1.143346331    13.395404639
  47    C        8.379400950     9.146976635    -2.532701194
  48    C        7.211281938     8.632859496    -3.036909940
  49    C        7.006391270     9.030298702    -4.387321994
  50    C        8.023296728     9.837069361    -4.854758353
  51    S        9.214979364    10.093339130    -3.668782232
  52    C        8.039644349    10.358674027    -6.186398715
  53    C        8.883276220    11.301803062    -6.657809106
  54    C        8.771223879    11.728529680    -8.057872079
  55    O        7.969383781    11.317120717    -8.885178787
  56    O        9.666203187    12.671518195    -8.416258888
  57    C        9.882981279    11.926047583    -5.873652565
  58    N       10.704783369    12.455197910    -5.254678771
  59    H        7.278696156     9.935279980    -6.864149715
  60    H       -0.417517767     0.503167597    -0.883998722
  61    H       -0.409214960    -1.020711619     0.003672393
  62    H       -0.417020717     0.509266450     0.880997013
  63    H        1.902470973    -0.561427015     0.878333996
  64    H        1.901678398    -0.561411652    -0.879317724
  65    H        1.664468190     1.988569974    -0.872701902
  66    H        1.681993355     1.980979519     0.885144776
  67    H        3.982777235     0.857153352     0.850784708
  68    H        3.963559154     0.882375671    -0.907250297
  69    H        3.721589995     3.431990600    -0.860055852
  70    H        3.760903059     3.397574396     0.897744729
  71    H        6.058465084     2.271580971     0.817773465
  72    H        6.017699587     2.326019188    -0.941230621
  73    H        5.773452616     4.878443584    -0.847916692
  74    H        5.839893101     4.813033787     0.910832553
  75    H        8.152170622     3.666958506     0.778707601
  76    H        8.083797847     3.780784467    -1.002562175
  77    H        9.720227949    10.878147702    -0.918551820
  78    H       10.567296784    10.465012950     1.327856704
  79    H       12.327075340     9.268236350     2.640887666
  80    H       12.773209395     8.581225184     5.119024095
  81    H       11.483717468     8.890520813     7.301838986
  82    H       11.434047852     8.078919481     9.636491396
  83    H       10.081138751     5.065993034     5.844854045
  84    H        9.364959003     2.673222761     6.917871768
  85    H        8.897731709     0.788799286     8.482116715
  86    H        9.241906354     1.003741694    10.890742459
  87    H       10.890547865     7.885363902    11.216106129
  88    H       10.750857790     8.534317605    13.580224823
  89    H       10.281158656     6.821791189    15.322314447
  90    H        9.985765050     4.469611165    14.699032296
  91    H       11.626153545     1.619969544    12.224831757
  92    H       12.322964976     3.147316017    11.733379841
  93    H       13.120608952     2.337007496    14.015901593
  94    H       12.460602836     3.964061027    14.064173333
  95    H       11.511655885     2.604671877    14.674288382
  96    H        9.057023339     3.126694748    14.135359515
  97    H        8.141759267     2.826131349    12.672835906
  98    H       10.168059355     0.903327540    14.023204893
  99    H        8.422603297     0.735003301    13.923622463
 100    H        9.402458387     0.547387349    12.475432914
 101    H        6.512313920     8.002577390    -2.490937577
 102    H        6.136952702     8.725800914    -4.967320483
 103    H        9.554974221    12.920925415    -9.345112584


           Empirical Formula: C49 H45 N5 O2 S2  =   103 atoms



      MOLECULAR POINT GROUP   :   C1  


                  EIGENVALUES  
 -42.44980 -40.22868 -39.07789 -37.71776 -37.25163 -36.88205 -36.49890 -36.38033
 -36.23939 -35.86201 -35.29426 -34.89979 -34.52649 -34.40870 -33.87807 -33.12028
 -32.50227 -31.86553 -31.32087 -30.90879 -30.46161 -30.14526 -29.73971 -29.28379
 -28.92040 -28.24027 -27.80147 -27.55809 -26.58530 -25.79925 -25.49233 -25.02595
 -24.17355 -23.87772 -23.65397 -23.38252 -23.30984 -23.22192 -22.82018 -22.41003
 -22.38811 -22.03346 -21.51918 -21.38545 -21.33172 -21.05886 -20.79832 -20.60643
 -20.11100 -19.63740 -19.20883 -18.77303 -18.54740 -18.39230 -18.07123 -17.98950
 -17.83274 -17.72051 -17.50692 -17.33201 -16.68259 -16.67314 -16.63656 -16.42558
 -16.28312 -16.18353 -16.14078 -16.04168 -15.83819 -15.76916 -15.72934 -15.61306
 -15.45193 -15.35545 -15.23029 -14.92785 -14.87013 -14.80560 -14.77427 -14.74567
 -14.61967 -14.51648 -14.47432 -14.46763 -14.43539 -14.22335 -14.15886 -14.05362
 -13.95635 -13.84657 -13.83299 -13.70008 -13.61424 -13.58446 -13.55426 -13.49482
 -13.46251 -13.43591 -13.34032 -13.22536 -13.18335 -13.17204 -13.11553 -13.05602
 -12.97626 -12.84409 -12.80260 -12.71512 -12.54923 -12.49645 -12.44635 -12.40139
 -12.35003 -12.32229 -12.23133 -12.09069 -12.05415 -12.04437 -12.00275 -11.87530
 -11.83306 -11.75487 -11.68781 -11.65131 -11.61288 -11.50787 -11.49454 -11.42312
 -11.29289 -11.25415 -11.19103 -11.18359 -11.01969 -10.42088 -10.13804  -9.78803
  -9.68906  -9.60419  -9.56101  -9.54956  -9.22309  -9.13517  -8.66247  -8.44432
  -7.85363  -1.40921  -0.75782  -0.22963  -0.06256   0.29648   0.35830   0.42304
   0.47588   0.55218   0.67253   0.80489   1.04831   1.07926   1.15073   1.27708
   1.33455   1.45334   1.60721   1.64910   1.72962   1.83785   1.95200   2.27599
   2.50760   2.66668   2.72728   2.76845   3.00129   3.07559   3.16444   3.31092
   3.42775   3.58603   3.58920   3.65363   3.65525   3.69158   3.73040   3.81600
   3.85956   3.86274   3.89655   3.95151   3.96563   3.98017   3.98379   4.05686
   4.07121   4.09540   4.11922   4.14502   4.16547   4.17265   4.19505   4.21658
   4.22883   4.27691   4.28136   4.32534   4.35315   4.36182   4.41226   4.43040
   4.43482   4.50814   4.52737   4.53550   4.56333   4.59868   4.61637   4.65309
   4.66960   4.68087   4.69564   4.70724   4.72109   4.73333   4.77393   4.79716
   4.82963   4.85786   4.87329   4.90586   4.92399   4.93262   4.94257   4.96516
   4.98804   5.01350   5.04706   5.05900   5.08005   5.08281   5.10334   5.11991
   5.14287   5.14430   5.16430   5.17749   5.21236   5.21700   5.26647   5.26942
   5.28657   5.31309   5.33890   5.37023   5.39829   5.41534   5.46332   5.48871
   5.49765   5.53683   5.55951   5.61219   5.65618   5.68495   5.72838   5.74568
   5.78907   5.84648   5.88833   5.93403   5.98430   6.04153   6.08024   6.17916
   6.26536   6.41635   6.62411   6.63714   6.67863


              NET ATOMIC CHARGES AND DIPOLE CONTRIBUTIONS

  ATOM NO.   TYPE          CHARGE      No. of ELECS.   s-Pop       p-Pop  
   55          O          -0.381913        6.3819     1.91042     4.47150
   54          C           0.407510        3.5925     1.17938     2.41311 
   56          O          -0.312453        6.3125     1.84001     4.47244
  103          H           0.244240        0.7558     0.75576
   57          C           0.050662        3.9493     1.19511     2.75422
   58          N          -0.149337        5.1493     1.84836     3.30098
    1          C          -0.177575        4.1776     1.15572     3.02186
    2          C          -0.112201        4.1122     1.16676     2.94544
    3          C          -0.122887        4.1229     1.17073     2.95216
    4          C          -0.123880        4.1239     1.17075     2.95313
    5          C          -0.122503        4.1225     1.17059     2.95191
    6          C          -0.121731        4.1217     1.17030     2.95143
    7          C          -0.157842        4.1578     1.17775     2.98009
    8          C           0.079081        3.9209     1.16986     2.75106
    9          N          -0.038313        5.0383     1.52965     3.50866
   10          N          -0.154928        5.1549     1.81225     3.34268
   11          C          -0.056261        4.0563     1.17712     2.87914
   12          C          -0.029004        4.0290     1.17457     2.85444
   13          N          -0.166435        5.1664     1.81256     3.35387
   14          C           0.042660        3.9573     1.13527     2.82207
   15          C          -0.085905        4.0859     1.18022     2.90569
   16          C          -0.121951        4.1220     1.18025     2.94170
   17          C           0.101218        3.8988     1.13546     2.76332
   18          C          -0.337215        4.3372     1.21217     3.12504
   19          C          -0.083365        4.0834     1.18159     2.90177
   20          C          -0.115779        4.1158     1.18091     2.93487
   21          C          -0.299176        4.2992     1.21607     3.08311
   22          S           0.520332        5.4797     1.88357     3.59610
   23          C          -0.027089        4.0271     1.14857     2.87852
   24          C          -0.054056        4.0541     1.17719     2.87687
   25          C          -0.164571        4.1646     1.17265     2.99192
   26          C           0.129537        3.8705     1.15138     2.71908
   27          C          -0.080347        4.0803     1.16012     2.92022
   28          C          -0.043719        4.0437     1.17026     2.87345
   29          C          -0.080066        4.0801     1.15672     2.92334
   30          C          -0.042119        4.0421     1.16953     2.87259
   31          C          -0.149058        4.1491     1.17898     2.97008
   32          C          -0.066835        4.0668     1.17789     2.88895
   33          C          -0.103868        4.1039     1.17284     2.93103
   34          C           0.091329        3.9087     1.15229     2.75638
   35          N          -0.240187        5.2402     1.49012     3.75007
   36          C           0.174427        3.8256     1.14267     2.68291
   37          C          -0.191394        4.1914     1.17854     3.01285
   38          C          -0.050582        4.0506     1.17518     2.87540
   39          C          -0.153517        4.1535     1.17787     2.97565
   40          C          -0.061268        4.0613     1.17832     2.88294
   41          C          -0.121232        4.1212     1.18259     2.93864
   42          C           0.103475        3.8965     1.16266     2.73387
   43          C          -0.120398        4.1204     1.17254     2.94786
   44          C          -0.178764        4.1788     1.15559     3.02318
   45          C          -0.124766        4.1248     1.17260     2.95217
   46          C          -0.180944        4.1809     1.15696     3.02399
   47          C          -0.287120        4.2871     1.21733     3.06979
   48          C          -0.109824        4.1098     1.18362     2.92620
   49          C          -0.026906        4.0269     1.18609     2.84082
   50          C          -0.445940        4.4459     1.21863     3.22732
   51          S           0.575688        5.4243     1.88212     3.54220
   59          H           0.130749        0.8693     0.86925
   60          H           0.058135        0.9419     0.94187
   61          H           0.056764        0.9432     0.94324
   62          H           0.058247        0.9418     0.94175
   63          H           0.060013        0.9400     0.93999
   64          H           0.060011        0.9400     0.93999
   65          H           0.063040        0.9370     0.93696
   66          H           0.063269        0.9367     0.93673
   67          H           0.062848        0.9372     0.93715
   68          H           0.062736        0.9373     0.93726
   69          H           0.065634        0.9344     0.93437
   70          H           0.065987        0.9340     0.93401
   71          H           0.065749        0.9343     0.93425
   72          H           0.065732        0.9343     0.93427
   73          H           0.092430        0.9076     0.90757
   74          H           0.087180        0.9128     0.91282
   75          H           0.101822        0.8982     0.89818
   76          H           0.095044        0.9050     0.90496
   77          H           0.119240        0.8808     0.88076
   78          H           0.122840        0.8772     0.87716
   79          H           0.124577        0.8754     0.87542
   80          H           0.127517        0.8725     0.87248
   81          H           0.111477        0.8885     0.88852
   82          H           0.125027        0.8750     0.87497
   83          H           0.118807        0.8812     0.88119
   84          H           0.109472        0.8905     0.89053
   85          H           0.107048        0.8930     0.89295
   86          H           0.114962        0.8850     0.88504
   87          H           0.126936        0.8731     0.87306
   88          H           0.104902        0.8951     0.89510
   89          H           0.111088        0.8889     0.88891
   90          H           0.113399        0.8866     0.88660
   91          H           0.068267        0.9317     0.93173
   92          H           0.072602        0.9274     0.92740
   93          H           0.055307        0.9447     0.94469
   94          H           0.065637        0.9344     0.93436
   95          H           0.058346        0.9417     0.94165
   96          H           0.068145        0.9319     0.93185
   97          H           0.071939        0.9281     0.92806
   98          H           0.063849        0.9362     0.93615
   99          H           0.056431        0.9436     0.94357
  100          H           0.062233        0.9378     0.93777
  101          H           0.147259        0.8527     0.85274
  102          H           0.125563        0.8744     0.87444
 DIPOLE           X         Y         Z       TOTAL
 POINT-CHG.    -2.757    -4.732     4.435     7.047
 HYBRID        -0.031     0.691    -0.858     1.102
 SUM           -2.787    -4.041     3.578     6.074


          ATOMIC ORBITAL ELECTRON POPULATIONS

     Atom    s        px        py        pz   
    1  C   1.15572   0.96368   1.02877   1.02941
    2  C   1.16676   0.95379   0.96536   1.02629
    3  C   1.17073   0.94975   0.97197   1.03045
    4  C   1.17075   0.96069   0.96280   1.02964
    5  C   1.17059   0.94240   0.97622   1.03329
    6  C   1.17030   0.96953   0.94996   1.03194
    7  C   1.17775   0.92482   0.99312   1.06216
    8  C   1.16986   0.94965   0.75284   1.04857
    9  N   1.52965   1.31427   1.13409   1.06030
   10  N   1.81225   1.16718   1.10194   1.07355
   11  C   1.17712   1.02626   0.90841   0.94448
   12  C   1.17457   0.99600   0.92756   0.93087
   13  N   1.81256   1.24567   1.00743   1.10078
   14  C   1.13527   1.00087   0.91053   0.91067
   15  C   1.18022   0.97056   0.98594   0.94918
   16  C   1.18025   1.01297   0.97480   0.95393
   17  C   1.13546   0.95045   0.90830   0.90458
   18  C   1.21217   1.02479   1.10179   0.99846
   19  C   1.18159   0.95417   0.99610   0.95151
   20  C   1.18091   0.98703   0.99805   0.94979
   21  C   1.21607   1.01987   1.06631   0.99692
   22  S   1.88357   1.14503   1.49293   0.95814
   23  C   1.14857   1.03478   0.93938   0.90435
   24  C   1.17719   0.97140   0.98727   0.91820
   25  C   1.17265   1.06108   0.95072   0.98012
   26  C   1.15138   0.98205   0.91958   0.81745
   27  C   1.16012   1.05423   0.93468   0.93131
   28  C   1.17026   0.97281   0.94638   0.95427
   29  C   1.15672   1.05649   0.94366   0.92319
   30  C   1.16953   0.96733   0.92096   0.98430
   31  C   1.17898   1.03881   0.99041   0.94086
   32  C   1.17789   0.97521   0.96403   0.94971
   33  C   1.17284   1.04431   0.94039   0.94632
   34  C   1.15229   0.97180   0.84811   0.93647
   35  N   1.49012   1.59905   1.10598   1.04504
   36  C   1.14267   0.96784   0.92504   0.79002
   37  C   1.17854   1.08018   0.94947   0.98320
   38  C   1.17518   0.96317   0.98376   0.92847
   39  C   1.17787   1.03970   0.94337   0.99258
   40  C   1.17832   0.96887   0.96145   0.95262
   41  C   1.18259   1.06043   0.94335   0.93486
   42  C   1.16266   0.94158   0.89403   0.89826
   43  C   1.17254   0.95336   1.01922   0.97529
   44  C   1.15559   1.01592   1.03442   0.97284
   45  C   1.17260   0.98885   0.95635   1.00697
   46  C   1.15696   1.03220   0.96321   1.02858
   47  C   1.21733   1.01278   1.05986   0.99715
   48  C   1.18362   0.96986   1.00977   0.94658
   49  C   1.18609   0.96117   0.92818   0.95146
   50  C   1.21863   1.07180   1.13554   1.01998
   51  S   1.88212   1.14871   1.44274   0.95075
   52  C   1.17106   0.90007   0.85320   0.91595
   53  C   1.14097   1.03204   1.06730   0.93261
   54  C   1.17938   0.77833   0.76449   0.87029
   55  O   1.91042   1.38938   1.58417   1.49795
   56  O   1.84001   1.56715   1.55251   1.35279
   57  C   1.19511   0.91570   0.91918   0.91935
   58  N   1.84836   1.10335   1.09275   1.10487
   59  H   0.86925
   60  H   0.94187
   61  H   0.94324
   62  H   0.94175
   63  H   0.93999
   64  H   0.93999
   65  H   0.93696
   66  H   0.93673
   67  H   0.93715
   68  H   0.93726
   69  H   0.93437
   70  H   0.93401
   71  H   0.93425
   72  H   0.93427
   73  H   0.90757
   74  H   0.91282
   75  H   0.89818
   76  H   0.90496
   77  H   0.88076
   78  H   0.87716
   79  H   0.87542
   80  H   0.87248
   81  H   0.88852
   82  H   0.87497
   83  H   0.88119
   84  H   0.89053
   85  H   0.89295
   86  H   0.88504
   87  H   0.87306
   88  H   0.89510
   89  H   0.88891
   90  H   0.88660
   91  H   0.93173
   92  H   0.92740
   93  H   0.94469
   94  H   0.93436
   95  H   0.94165
   96  H   0.93185
   97  H   0.92806
   98  H   0.93615
   99  H   0.94357
  100  H   0.93777
  101  H   0.85274
  102  H   0.87444
  103  H   0.75576
 ******************** TDHF POLARIZABILITIES ********************



          MOLECULAR WEIGHT =  800.05



          ROTATIONAL CONSTANTS IN CM(-1)

          A =    0.00170834   B =    0.00040986   C =    0.00033833



           PRINCIPAL MOMENTS OF INERTIA IN UNITS OF 10**(-40)*GRAM-CM**2

          A =    16385.9239   B =    68298.6246   C =    82736.9989


 ROTATION MATRIX FOR ORIENTATION OF MOLECULE:

         0.126506    0.661582   -0.739125
        -0.302875    0.735291    0.606311
         0.944597    0.147160    0.293396


          CARTESIAN COORDINATES 

    NO.       ATOM         X         Y         Z

     1         C       -2.3432  -11.0900    1.7154
     2         C       -2.1514  -10.0846    0.5917
     3         C       -2.5151   -8.6769    1.0576
     4         C       -2.3372   -7.6687   -0.0753
     5         C       -2.6872   -6.2593    0.3970
     6         C       -2.5268   -5.2548   -0.7421
     7         C       -2.8624   -3.8448   -0.2599
     8         C       -2.7154   -2.8629   -1.4269
     9         N       -3.0126   -1.4749   -0.9648
    10         N       -2.0402   -0.5409   -0.8345
    11         C       -2.7207    0.5628   -0.3718
    12         C       -4.1163    0.2121   -0.2396
    13         N       -4.2718   -1.1001   -0.6244
    14         C       -5.0596    1.1757    0.2042
    15         C       -4.5912    2.4263    0.5014
    16         C       -3.2152    2.7706    0.3725
    17         C       -2.2746    1.8745   -0.0580
    18         C       -0.8913    2.2454   -0.2030
    19         C       -0.4552    3.4584   -0.6642
    20         C        0.9719    3.5440   -0.6754
    21         C        1.5534    2.3935   -0.2206
    22         S        0.4017    1.2128    0.2154
    23         C        2.9737    2.1644   -0.0948
    24         C        3.7767    3.1800    0.4390
    25         C        5.1478    3.0238    0.5779
    26         C        5.7109    1.8180    0.1762
    27         C        4.8961    0.7860   -0.3798
    28         C        3.5319    0.9583   -0.5142
    29         C        5.7604   -0.3163   -0.7279
    30         C        5.5670   -1.5718   -1.2787
    31         C        6.6834   -2.3775   -1.4639
    32         C        7.9731   -1.9518   -1.1229
    33         C        8.1998   -0.6987   -0.5716
    34         C        7.0702    0.0856   -0.3877
    35         N        7.0605    1.3904    0.1460
    36         C        8.2091    1.8362    0.8278
    37         C        8.1612    2.9811    1.6277
    38         C        9.2965    3.3964    2.3064
    39         C       10.4706    2.6667    2.2034
    40         C       10.5100    1.5315    1.4042
    41         C        9.4007    1.0921    0.6877
    42         C        9.5415   -0.1013   -0.2417
    43         C       10.0979    0.4256   -1.5803
    44         C       11.4195    1.1619   -1.4608
    45         C       10.4265   -1.1791    0.4168
    46         C       11.1399   -2.1262   -0.5342
    47         C       -6.4461    0.8067    0.3247
    48         C       -6.9144   -0.4183    0.7284
    49         C       -8.3363   -0.4604    0.7246
    50         C       -8.8936    0.7368    0.3250
    51         S       -7.7002    1.8882   -0.0525
    52         C      -10.3073    0.9352    0.2385
    53         C      -10.9316    2.1174    0.0484
    54         C      -12.3975    2.1510   -0.0208
    55         O      -13.1558    1.1963    0.0797
    56         O      -12.9084    3.3838   -0.2157
    57         C      -10.2534    3.3532   -0.0819
    58         N       -9.7251    4.3771   -0.1869
    59         H      -10.9156    0.0207    0.3454
    60         H       -3.3836  -11.1263    2.0696
    61         H       -2.0825  -12.1107    1.3999
    62         H       -1.7182  -10.8617    2.5907
    63         H       -1.1030  -10.1149    0.2264
    64         H       -2.7634  -10.3740   -0.2887
    65         H       -3.5594   -8.6550    1.4347
    66         H       -1.8945   -8.3903    1.9328
    67         H       -1.2955   -7.6996   -0.4592
    68         H       -2.9662   -7.9524   -0.9455
    69         H       -3.7244   -6.2309    0.7931
    70         H       -2.0486   -5.9715    1.2589
    71         H       -1.4925   -5.2912   -1.1455
    72         H       -3.1757   -5.5370   -1.5984
    73         H       -3.8915   -3.8080    0.1570
    74         H       -2.2020   -3.5534    0.5843
    75         H       -1.6871   -2.8857   -1.8584
    76         H       -3.4128   -3.1094   -2.2615
    77         H       -5.2761    3.2042    0.8568
    78         H       -2.9218    3.7914    0.6394
    79         H       -1.0965    4.2689   -1.0017
    80         H        1.5089    4.4236   -1.0209
    81         H        3.3140    4.1191    0.7601
    82         H        5.7588    3.8331    0.9897
    83         H        2.9186    0.1647   -0.9495
    84         H        4.5663   -1.9106   -1.5561
    85         H        6.5555   -3.3751   -1.8944
    86         H        8.8091   -2.6349   -1.3118
    87         H        7.2408    3.5636    1.7375
    88         H        9.2597    4.2963    2.9279
    89         H       11.3645    2.9827    2.7478
    90         H       11.4508    0.9660    1.3571
    91         H       10.1843   -0.4081   -2.3090
    92         H        9.3456    1.1036   -2.0422
    93         H       11.8480    1.3714   -2.4533
    94         H       11.3173    2.1382   -0.9649
    95         H       12.1853    0.6006   -0.9087
    96         H       11.2076   -0.7188    1.0640
    97         H        9.8014   -1.7605    1.1292
    98         H       11.9156   -1.6351   -1.1382
    99         H       11.6517   -2.9283    0.0207
   100         H       10.4646   -2.6311   -1.2422
   101         H       -6.2962   -1.2639    1.0231
   102         H       -8.9019   -1.3448    1.0124
   103         H      -13.8754    3.3569   -0.2548


 ENERGY OF "REORIENTED" SYSTEM WITHOUT FIELD:      131.2614652230


  NFREQ=  3  IWFLB=  0  IBET=  1  IGAM=  1
  ATOL= 0.10000D-02  BTOL= 0.10000D-02    MAXITU=  500    MAXITA=  150


 *****************************************************************
 CALCULATION OF STATIC FIELD QUANTITIES
 *****************************************************************

 +++++ ALPHA AT       0.00000 EV.

                           COMPONENTS OF ALPHA

                     *X           *Y           *Z
           *=X:     961.0458     -50.2674      23.0817
           *=Y:     -50.2807     581.0412      59.0041
           *=Z:      23.0876      59.0049     240.6109

  ISOTROPIC AVERAGE ALPHA =     594.23265 A.U. =     88.05619 ANG.**3

 +++++ BETA (SECOND HARMONIC GENERATION) AT       0.00000 EV.

                              COMPONENTS OF BETA
            *XX         *XY         *YY         *XZ         *YZ         *ZZ
   *=X 11551.16998 -1170.11485  -151.68187  -459.12131  -267.26700  -300.91190
   *=Y -1170.82600  -151.73800   166.89348  -267.33718   143.71070    -6.82829
   *=Z  -459.21395  -267.34375   143.73083  -301.01807    -6.81347   -93.45817


 AVERAGE BETAX(SHG) VALUE AT   0.00000 EV =       6659.0808 a.u. =  0.575306E-28 ESU
 AVERAGE BETAY(SHG) VALUE AT   0.00000 EV =       -606.1661 a.u. = -0.523692E-29 ESU
 AVERAGE BETAZ(SHG) VALUE AT   0.00000 EV =       -245.3358 a.u. = -0.211956E-29 ESU



 AVERAGE BETA (SHG) VALUE AT   0.00000 EV =       6691.1123 a.u. =  0.578073E-28 ESU
   (1 a.u. = 8.639418X10-33 esu)



 +++++ ALPHA AT       0.00000 EV.

                           COMPONENTS OF ALPHA

                     *X           *Y           *Z
           *=X:     961.0458     -50.2674      23.0817
           *=Y:     -50.2807     581.0412      59.0041
           *=Z:      23.0876      59.0049     240.6109

  ISOTROPIC AVERAGE ALPHA =     594.23265 A.U. =     88.05619 ANG.**3


 GAMMA (THIRD HARMONIC GENERATION) AT    0.00000 EV.


 GAMMA(X,X,X,X) =       5030335.06804
 GAMMA(Y,Y,Y,Y) =         97817.91533
 GAMMA(Z,Z,Z,Z) =         13844.49297
 GAMMA(X,X,Y,Y) =         34725.21405
 GAMMA(X,X,Z,Z) =         25929.22441
 GAMMA(Y,Y,X,X) =         34724.75837
 GAMMA(Y,Y,Z,Z) =         12994.39889
 GAMMA(Z,Z,X,X) =         25928.43305
 GAMMA(Z,Z,Y,Y) =         12994.48777


 AVERAGE GAMMA VALUE AT    0.00000 =       1057858.79858 a.u. =       532812.01399 ESU (X10-39)




 **********************************************************************
 CALCULATION FOR A FREQUENCY OF    0.25000 EV  =       0.00919 A.U. 
                  WAVELENGTH OF    4959.37 NM  =    2016.38525 CM(-1)
 **********************************************************************

 +++++ ALPHA AT       0.25000 EV.

                           COMPONENTS OF ALPHA

                     *X           *Y           *Z
           *=X:     965.9024     -50.5384      23.1576
           *=Y:     -50.5502     582.0126      59.1281
           *=Z:      23.1628      59.1287     240.9240

  ISOTROPIC AVERAGE ALPHA =     596.27967 A.U. =     88.35953 ANG.**3

 +++++ BETA (SECOND HARMONIC GENERATION) AT       0.25000 EV.

                              COMPONENTS OF BETA
            *XX         *XY         *YY         *XZ         *YZ         *ZZ
   *=X 12164.92901 -1209.89157  -155.73800  -477.13225  -278.60724  -312.44911
   *=Y -1226.49773  -150.40732   169.74551  -276.56126   146.15475    -7.78062
   *=Z  -471.70140  -276.58152   146.36213  -309.48513    -7.57484   -95.92593


 AVERAGE BETAX(SHG) VALUE AT   0.25000 EV =       7021.3630 a.u. =  0.606605E-28 ESU
 AVERAGE BETAY(SHG) VALUE AT   0.25000 EV =       -631.9949 a.u. = -0.546007E-29 ESU
 AVERAGE BETAZ(SHG) VALUE AT   0.25000 EV =       -255.0144 a.u. = -0.220318E-29 ESU



 AVERAGE BETA (SHG) VALUE AT   0.25000 EV =       7054.3595 a.u. =  0.609456E-28 ESU
   (1 a.u. = 8.639418X10-33 esu)



 +++++ ALPHA AT       0.75000 EV.

                           COMPONENTS OF ALPHA

                     *X           *Y           *Z
           *=X:    1008.1324     -52.8218      23.7857
           *=Y:     -52.8407     589.9904      60.1449
           *=Z:      23.7906      60.1455     243.4861

  ISOTROPIC AVERAGE ALPHA =     613.86962 A.U. =     90.96609 ANG.**3


 GAMMA (THIRD HARMONIC GENERATION) AT    0.25000 EV.


 GAMMA(X,X,X,X) =       5665802.51477
 GAMMA(Y,Y,Y,Y) =        101356.10953
 GAMMA(Z,Z,Z,Z) =         14433.92476
 GAMMA(X,X,Y,Y) =         36775.28861
 GAMMA(X,X,Z,Z) =         27934.17848
 GAMMA(Y,Y,X,X) =         39667.03512
 GAMMA(Y,Y,Z,Z) =         13607.15916
 GAMMA(Z,Z,X,X) =         27668.55475
 GAMMA(Z,Z,Y,Y) =         13544.67218


 AVERAGE GAMMA VALUE AT    0.25000 =       1188157.88747 a.u. =       598439.78971 ESU (X10-39)




 **********************************************************************
 CALCULATION FOR A FREQUENCY OF    0.50000 EV  =       0.01837 A.U. 
                  WAVELENGTH OF    2479.68 NM  =    4032.77050 CM(-1)
 **********************************************************************

 +++++ ALPHA AT       0.50000 EV.

                           COMPONENTS OF ALPHA

                     *X           *Y           *Z
           *=X:     981.0075     -51.3652      23.3872
           *=Y:     -51.3802     584.9577      59.5033
           *=Z:      23.3925      59.5039     241.8714

  ISOTROPIC AVERAGE ALPHA =     602.61219 A.U. =     89.29791 ANG.**3

 +++++ BETA (SECOND HARMONIC GENERATION) AT       0.50000 EV.

                              COMPONENTS OF BETA
            *XX         *XY         *YY         *XZ         *YZ         *ZZ
   *=X 14386.45351 -1347.44327  -170.00736  -540.44366  -318.71987  -352.77900
   *=Y -1422.11323  -145.23249   178.73261  -307.41116   153.92564   -11.09367
   *=Z  -514.02337  -307.46655   154.92684  -337.62146   -10.16336  -104.11005


 AVERAGE BETAX(SHG) VALUE AT   0.50000 EV =       8334.1733 a.u. =  0.720024E-28 ESU
 AVERAGE BETAY(SHG) VALUE AT   0.50000 EV =       -722.4445 a.u. = -0.624150E-29 ESU
 AVERAGE BETAZ(SHG) VALUE AT   0.50000 EV =       -288.8925 a.u. = -0.249586E-29 ESU



 AVERAGE BETA (SHG) VALUE AT   0.50000 EV =       8370.4139 a.u. =  0.723155E-28 ESU
   (1 a.u. = 8.639418X10-33 esu)



 +++++ ALPHA AT       1.50000 EV.

                           COMPONENTS OF ALPHA

                     *X           *Y           *Z
           *=X:    1221.4747     -63.1218      26.3437
           *=Y:     -63.1683     620.3327      64.0304
           *=Z:      26.3467      64.0327     253.1193

  ISOTROPIC AVERAGE ALPHA =     698.30889 A.U. =    103.47870 ANG.**3


 GAMMA (THIRD HARMONIC GENERATION) AT    0.50000 EV.


 GAMMA(X,X,X,X) =       8738459.76313
 GAMMA(Y,Y,Y,Y) =        113771.22136
 GAMMA(Z,Z,Z,Z) =         16616.58533
 GAMMA(X,X,Y,Y) =         44203.39160
 GAMMA(X,X,Z,Z) =         36226.66349
 GAMMA(Y,Y,X,X) =         59748.56895
 GAMMA(Y,Y,Z,Z) =         15831.45262
 GAMMA(Z,Z,X,X) =         34452.01033
 GAMMA(Z,Z,Y,Y) =         15553.79093


 AVERAGE GAMMA VALUE AT    0.50000 =       1814972.68955 a.u. =       914147.76279 ESU (X10-39)



 **********************
 *                    *
 * JOB ENDED NORMALLY *
 *                    *
 **********************



 TOTAL JOB TIME:           334.59 SECONDS

 == MOPAC DONE ==
