 *******************************************************************************
 ** Site#: 4824         For non-commercial use only    Version 21.013L 64BITS **
 *******************************************************************************
 ** Cite this program as: MOPAC2016, Version: 21.013L, James J. P. Stewart,   **
 ** Stewart Computational Chemistry, web: HTTP://OpenMOPAC.net. Days left:  87**
 *******************************************************************************
 **                                                                           **
 **                                MOPAC2016                                  **
 **                                                                           **
 *******************************************************************************

                              RM1 CALCULATION RESULTS

 *******************************************************************************
 *  CALCULATION DONE:                                Mon Oct 18 16:04:13 2021  *
 *  RM1        - The RM1 Hamiltonian to be used
 *  POLAR      - CALCULATE FIRST, SECOND AND THIRD-ORDER POLARIZABILITIES
 *  PRECISE    - TIGHTER CRITERIA TO BE USED
 *  XYZ        - CARTESIAN COORDINATE SYSTEM TO BE USED
 *  T=         - A TIME OF 172800.0 SECONDS REQUESTED
 *  DUMP=N     - RESTART FILE WRITTEN EVERY 7200.0 SECONDS REQUESTED
 *  GNORM      - EXIT WHEN GRADIENT NORM DROPS BELOW 0.100
 *******************************************************************************
RM1 PRECISE POLAR XYZ GNORM=0.1


   ATOM   CHEMICAL          X               Y               Z
  NUMBER   SYMBOL      (ANGSTROMS)     (ANGSTROMS)     (ANGSTROMS)
 
     1       C          0.00000000  *   0.00000000  *   0.00000000  *
     2       C          1.51994885  *   0.00000000  *   0.00000000  *
     3       C          2.06087616  *   1.42767755  *   0.00000000  *
     4       C          3.58770841  *   1.42784097  *   0.00210058  *
     5       C          4.12519322  *   2.85698974  *   0.00531675  *
     6       C          5.65438417  *   2.85386506  *   0.00585014  *
     7       C          6.17109849  *   4.24271444  *   0.00974592  *
     8       C          5.98014653  *   5.13191178  *   1.11213952  *
     9       C          6.56916295  *   6.35263330  *   0.89467426  *
    10       S          7.33301942  *   6.43208137  *  -0.62438322  *
    11       C          6.89492878  *   4.83585170  *  -0.99037341  *
    12       C          7.29936083  *   4.20046689  *  -2.22120697  *
    13       C          6.47976636  *   4.08859322  *  -3.28079624  *
    14       C          6.95190472  *   3.42540633  *  -4.50478943  *
    15       O          8.05782910  *   2.93588750  *  -4.68417168  *
    16       O          6.03494601  *   3.38064010  *  -5.49122784  *
    17       C          5.15609361  *   4.59906069  *  -3.27056343  *
    18       N          4.07761194  *   5.01470988  *  -3.26286490  *
    19       C          6.56150594  *   7.45553118  *   1.82179194  *
    20       C          6.22381145  *   7.31346848  *   3.13074038  *
    21       C          6.18736494  *   8.42226378  *   4.03921952  *
    22       C          6.49737693  *   9.68475291  *   3.65481517  *
    23       C          6.89186269  *   9.90858516  *   2.29078973  *
    24       C          6.92254259  *   8.77024172  *   1.35714926  *
    25       N          7.30289085  *   9.10771301  *   0.12834805  *
    26       S          7.59711787  *  10.75514870  *   0.12137118  *
    27       N          7.24418361  *  11.06042193  *   1.72823273  *
    28       C          6.43456993  *  10.81520815  *   4.57019972  *
    29       C          5.29004431  *  10.98304041  *   5.35785575  *
    30       C          5.17363634  *  12.03571354  *   6.25316489  *
    31       C          6.23915100  *  12.92312340  *   6.35621671  *
    32       C          7.40359189  *  12.75751378  *   5.54563003  *
    33       C          7.50036621  *  11.70761871  *   4.65177984  *
    34       C          8.31324929  *  13.83387604  *   5.85884147  *
    35       C          9.58469586  *  14.19060594  *   5.44377665  *
    36       C         10.16897039  *  15.30958119  *   6.02662361  *
    37       C          9.50228702  *  16.07890005  *   6.98624158  *
    38       C          8.21247223  *  15.76516316  *   7.39895975  *
    39       C          7.66390779  *  14.62796395  *   6.82916861  *
    40       N          6.39586967  *  14.09386848  *   7.13372447  *
    41       C          5.72556451  *  14.57720010  *   8.27357202  *
    42       C          4.61326108  *  13.90139411  *   8.78137087  *
    43       C          3.95141283  *  14.40153088  *   9.89255335  *
    44       C          4.39178123  *  15.57064465  *  10.49204980  *
    45       C          5.50015571  *  16.23631105  *   9.98192643  *
    46       C          6.20235931  *  15.75930662  *   8.88163349  *
    47       C          7.37953431  *  16.56726531  *   8.35929963  *
    48       C          8.29263193  *  17.00824056  *   9.52442675  *
    49       C          7.95337473  *  18.32847424  *  10.19770256  *
    50       C          6.75308994  *  17.73915698  *   7.57711617  *
    51       C          7.76019870  *  18.58094098  *   6.81400145  *
    52       H          8.32747057  *   3.80777751  *  -2.24907650  *
    53       H         -0.41654006  *   0.50734522  *  -0.88217392  *
    54       H         -0.40965413  *  -1.02046050  *  -0.00056228  *
    55       H         -0.41689909  *   0.50626283  *   0.88259618  *
    56       H          1.90308195  *  -0.56190180  *   0.87805164  *
    57       H          1.90176387  *  -0.56088519  *  -0.87930900  *
    58       H          1.67497159  *   1.98574371  *  -0.87925194  *
    59       H          1.67210193  *   1.98464786  *   0.87863412  *
    60       H          3.97393169  *   0.86824125  *   0.88035128  *
    61       H          3.97363662  *   0.87064472  *  -0.87765013  *
    62       H          3.74509833  *   3.41925602  *  -0.87414996  *
    63       H          3.73737435  *   3.41452500  *   0.88352780  *
    64       H          6.04902469  *   2.31134978  *   0.89265659  *
    65       H          6.04374986  *   2.28541490  *  -0.86563321  *
    66       H          5.42287164  *   4.84262256  *   1.99943952  *
    67       H          6.38944449  *   2.93798545  *  -6.27627283  *
    68       H          5.96550987  *   6.33284143  *   3.54414926  *
    69       H          5.89923815  *   8.21420170  *   5.07570387  *
    70       H          4.45675558  *  10.27939632  *   5.25800357  *
    71       H          4.26383600  *  12.16007750  *   6.84845603  *
    72       H          8.39828031  *  11.59398206  *   4.03817820  *
    73       H         10.11051153  *  13.60102800  *   4.68933713  *
    74       H         11.17945937  *  15.60178223  *   5.72607892  *
    75       H         10.01901029  *  16.93875426  *   7.42916120  *
    76       H          4.24688954  *  12.97740923  *   8.32241455  *
    77       H          3.08183511  *  13.87070702  *  10.29183001  *
    78       H          3.86837369  *  15.97139209  *  11.36441669  *
    79       H          5.80257714  *  17.16735115  *  10.47655322  *
    80       H          8.31686418  *  16.19604180  *  10.28329816  *
    81       H          9.35082580  *  17.08219123  *   9.18316616  *
    82       H          8.08885629  *  19.20020240  *   9.54272491  *
    83       H          6.91999422  *  18.37752195  *  10.57562593  *
    84       H          8.60214223  *  18.50104080  *  11.07090335  *
    85       H          6.00230141  *  17.33675928  *   6.86091247  *
    86       H          6.15330241  *  18.37895795  *   8.25787532  *
    87       H          7.29492367  *  19.49787938  *   6.42034679  *
    88       H          8.61209813  *  18.90499235  *   7.42700447  *
    89       H          8.17596319  *  18.05489161  *   5.94213573  *
 


          CARTESIAN COORDINATES 

    NO.       ATOM           X           Y           Z

     1         C          0.0000      0.0000      0.0000
     2         C          1.5199      0.0000      0.0000
     3         C          2.0609      1.4277      0.0000
     4         C          3.5877      1.4278      0.0021
     5         C          4.1252      2.8570      0.0053
     6         C          5.6544      2.8539      0.0059
     7         C          6.1711      4.2427      0.0097
     8         C          5.9801      5.1319      1.1121
     9         C          6.5692      6.3526      0.8947
    10         S          7.3330      6.4321     -0.6244
    11         C          6.8949      4.8359     -0.9904
    12         C          7.2994      4.2005     -2.2212
    13         C          6.4798      4.0886     -3.2808
    14         C          6.9519      3.4254     -4.5048
    15         O          8.0578      2.9359     -4.6842
    16         O          6.0349      3.3806     -5.4912
    17         C          5.1561      4.5991     -3.2706
    18         N          4.0776      5.0147     -3.2629
    19         C          6.5615      7.4555      1.8218
    20         C          6.2238      7.3135      3.1307
    21         C          6.1874      8.4223      4.0392
    22         C          6.4974      9.6848      3.6548
    23         C          6.8919      9.9086      2.2908
    24         C          6.9225      8.7702      1.3571
    25         N          7.3029      9.1077      0.1283
    26         S          7.5971     10.7551      0.1214
    27         N          7.2442     11.0604      1.7282
    28         C          6.4346     10.8152      4.5702
    29         C          5.2900     10.9830      5.3579
    30         C          5.1736     12.0357      6.2532
    31         C          6.2392     12.9231      6.3562
    32         C          7.4036     12.7575      5.5456
    33         C          7.5004     11.7076      4.6518
    34         C          8.3132     13.8339      5.8588
    35         C          9.5847     14.1906      5.4438
    36         C         10.1690     15.3096      6.0266
    37         C          9.5023     16.0789      6.9862
    38         C          8.2125     15.7652      7.3990
    39         C          7.6639     14.6280      6.8292
    40         N          6.3959     14.0939      7.1337
    41         C          5.7256     14.5772      8.2736
    42         C          4.6133     13.9014      8.7814
    43         C          3.9514     14.4015      9.8926
    44         C          4.3918     15.5706     10.4920
    45         C          5.5002     16.2363      9.9819
    46         C          6.2024     15.7593      8.8816
    47         C          7.3795     16.5673      8.3593
    48         C          8.2926     17.0082      9.5244
    49         C          7.9534     18.3285     10.1977
    50         C          6.7531     17.7392      7.5771
    51         C          7.7602     18.5809      6.8140
    52         H          8.3275      3.8078     -2.2491
    53         H         -0.4165      0.5073     -0.8822
    54         H         -0.4097     -1.0205     -0.0006
    55         H         -0.4169      0.5063      0.8826
    56         H          1.9031     -0.5619      0.8781
    57         H          1.9018     -0.5609     -0.8793
    58         H          1.6750      1.9857     -0.8793
    59         H          1.6721      1.9846      0.8786
    60         H          3.9739      0.8682      0.8804
    61         H          3.9736      0.8706     -0.8777
    62         H          3.7451      3.4193     -0.8741
    63         H          3.7374      3.4145      0.8835
    64         H          6.0490      2.3113      0.8927
    65         H          6.0437      2.2854     -0.8656
    66         H          5.4229      4.8426      1.9994
    67         H          6.3894      2.9380     -6.2763
    68         H          5.9655      6.3328      3.5441
    69         H          5.8992      8.2142      5.0757
    70         H          4.4568     10.2794      5.2580
    71         H          4.2638     12.1601      6.8485
    72         H          8.3983     11.5940      4.0382
    73         H         10.1105     13.6010      4.6893
    74         H         11.1795     15.6018      5.7261
    75         H         10.0190     16.9388      7.4292
    76         H          4.2469     12.9774      8.3224
    77         H          3.0818     13.8707     10.2918
    78         H          3.8684     15.9714     11.3644
    79         H          5.8026     17.1674     10.4766
    80         H          8.3169     16.1960     10.2833
    81         H          9.3508     17.0822      9.1832
    82         H          8.0889     19.2002      9.5427
    83         H          6.9200     18.3775     10.5756
    84         H          8.6021     18.5010     11.0709
    85         H          6.0023     17.3368      6.8609
    86         H          6.1533     18.3790      8.2579
    87         H          7.2949     19.4979      6.4203
    88         H          8.6121     18.9050      7.4270
    89         H          8.1760     18.0549      5.9421

  H: (RM1): G.B. ROCHA, R.O. FREIRE, A.M.SIMAS, J.J.P. STEWART, J. COMP. CHEM. 27, 1101 (2006)
  C: (RM1): G.B. ROCHA, R.O. FREIRE, A.M.SIMAS, J.J.P. STEWART, J. COMP. CHEM. 27, 1101 (2006)
  N: (RM1): G.B. ROCHA, R.O. FREIRE, A.M.SIMAS, J.J.P. STEWART, J. COMP. CHEM. 27, 1101 (2006)
  O: (RM1): G.B. ROCHA, R.O. FREIRE, A.M.SIMAS, J.J.P. STEWART, J. COMP. CHEM. 27, 1101 (2006)
  S: (RM1): G.B. ROCHA, R.O. FREIRE, A.M.SIMAS, J.J.P. STEWART, J. COMP. CHEM. 27, 1101 (2006)

           Empirical Formula: C43 H38 N4 O2 S2  =    89 atoms



      MOLECULAR POINT GROUP   :   C1  


      RHF CALCULATION, NO. OF DOUBLY OCCUPIED LEVELS = 127


          Geometry optimization using L-BFGS
 CYCLE:     1 TIME:   0.395 TIME LEFT:  2.00D  GRAD.:     1.570 HEAT:  78.08088
 CYCLE:     2 TIME:   0.223 TIME LEFT:  2.00D  GRAD.:     1.546 HEAT:  78.08085
 CYCLE:     3 TIME:   0.246 TIME LEFT:  2.00D  GRAD.:     1.402 HEAT:  78.07953
 CYCLE:     4 TIME:   0.223 TIME LEFT:  2.00D  GRAD.:     1.563 HEAT:  78.08085
 CYCLE:     5 TIME:   0.242 TIME LEFT:  2.00D  GRAD.:     1.426 HEAT:  78.07954
 CYCLE:     6 TIME:   0.180 TIME LEFT:  2.00D  GRAD.:     0.898 HEAT:  78.07887
 CYCLE:     7 TIME:   0.230 TIME LEFT:  2.00D  GRAD.:     0.906 HEAT:  78.07862
 CYCLE:     8 TIME:   0.215 TIME LEFT:  2.00D  GRAD.:     0.529 HEAT:  78.07846
 CYCLE:     9 TIME:   0.184 TIME LEFT:  2.00D  GRAD.:     0.502 HEAT:  78.07834
 CYCLE:    10 TIME:   0.223 TIME LEFT:  2.00D  GRAD.:     0.646 HEAT:  78.07811
 CYCLE:    11 TIME:   0.207 TIME LEFT:  2.00D  GRAD.:     1.070 HEAT:  78.07797
 CYCLE:    12 TIME:   0.219 TIME LEFT:  2.00D  GRAD.:     0.458 HEAT:  78.07780
 CYCLE:    13 TIME:   0.219 TIME LEFT:  2.00D  GRAD.:     0.388 HEAT:  78.07768
 CYCLE:    14 TIME:   0.227 TIME LEFT:  2.00D  GRAD.:     0.478 HEAT:  78.07757
 CYCLE:    15 TIME:   0.215 TIME LEFT:  2.00D  GRAD.:     0.531 HEAT:  78.07735
 CYCLE:    16 TIME:   0.242 TIME LEFT:  2.00D  GRAD.:     0.786 HEAT:  78.07714
 CYCLE:    17 TIME:   0.223 TIME LEFT:  2.00D  GRAD.:     0.546 HEAT:  78.07689
 CYCLE:    18 TIME:   0.211 TIME LEFT:  2.00D  GRAD.:     0.460 HEAT:  78.07667
 CYCLE:    19 TIME:   0.234 TIME LEFT:  2.00D  GRAD.:     0.640 HEAT:  78.07649
 CYCLE:    20 TIME:   0.238 TIME LEFT:  2.00D  GRAD.:     0.791 HEAT:  78.07621
 CYCLE:    21 TIME:   0.238 TIME LEFT:  2.00D  GRAD.:     0.621 HEAT:  78.07601
 CYCLE:    22 TIME:   0.184 TIME LEFT:  2.00D  GRAD.:     0.593 HEAT:  78.07589
 CYCLE:    23 TIME:   0.172 TIME LEFT:  2.00D  GRAD.:     0.393 HEAT:  78.07580
 CYCLE:    24 TIME:   0.234 TIME LEFT:  2.00D  GRAD.:     0.437 HEAT:  78.07570
 CYCLE:    25 TIME:   0.230 TIME LEFT:  2.00D  GRAD.:     0.444 HEAT:  78.07558
 CYCLE:    26 TIME:   0.234 TIME LEFT:  2.00D  GRAD.:     0.683 HEAT:  78.07538
 CYCLE:    27 TIME:   0.234 TIME LEFT:  2.00D  GRAD.:     0.659 HEAT:  78.07526
 CYCLE:    28 TIME:   0.230 TIME LEFT:  2.00D  GRAD.:     0.315 HEAT:  78.07519
 CYCLE:    29 TIME:   0.219 TIME LEFT:  2.00D  GRAD.:     0.317 HEAT:  78.07513
 CYCLE:    30 TIME:   0.199 TIME LEFT:  2.00D  GRAD.:     0.369 HEAT:  78.07500
 CYCLE:    31 TIME:   0.195 TIME LEFT:  2.00D  GRAD.:     0.758 HEAT:  78.07490
 CYCLE:    32 TIME:   0.184 TIME LEFT:  2.00D  GRAD.:     0.274 HEAT:  78.07477
 CYCLE:    33 TIME:   0.184 TIME LEFT:  2.00D  GRAD.:     0.266 HEAT:  78.07472
 CYCLE:    34 TIME:   0.172 TIME LEFT:  2.00D  GRAD.:     0.346 HEAT:  78.07462
 CYCLE:    35 TIME:   0.188 TIME LEFT:  2.00D  GRAD.:     0.562 HEAT:  78.07452
 CYCLE:    36 TIME:   0.219 TIME LEFT:  2.00D  GRAD.:     0.294 HEAT:  78.07442
 CYCLE:    37 TIME:   0.180 TIME LEFT:  2.00D  GRAD.:     0.238 HEAT:  78.07436
 CYCLE:    38 TIME:   0.195 TIME LEFT:  2.00D  GRAD.:     0.437 HEAT:  78.07432
 CYCLE:    39 TIME:   0.184 TIME LEFT:  2.00D  GRAD.:     0.218 HEAT:  78.07430
 CYCLE:    40 TIME:   0.180 TIME LEFT:  2.00D  GRAD.:     0.239 HEAT:  78.07427
 CYCLE:    41 TIME:   0.227 TIME LEFT:  2.00D  GRAD.:     0.232 HEAT:  78.07425
 CYCLE:    42 TIME:   0.230 TIME LEFT:  2.00D  GRAD.:     0.246 HEAT:  78.07422
 CYCLE:    43 TIME:   0.223 TIME LEFT:  2.00D  GRAD.:     0.300 HEAT:  78.07419
 CYCLE:    44 TIME:   0.219 TIME LEFT:  2.00D  GRAD.:     0.149 HEAT:  78.07418
 CYCLE:    45 TIME:   0.215 TIME LEFT:  2.00D  GRAD.:     0.182 HEAT:  78.07416
 CYCLE:    46 TIME:   0.184 TIME LEFT:  2.00D  GRAD.:     0.167 HEAT:  78.07414
 CYCLE:    47 TIME:   0.203 TIME LEFT:  2.00D  GRAD.:     0.186 HEAT:  78.07411
 CYCLE:    48 TIME:   0.195 TIME LEFT:  2.00D  GRAD.:     0.209 HEAT:  78.07409
 CYCLE:    49 TIME:   0.203 TIME LEFT:  2.00D  GRAD.:     0.164 HEAT:  78.07407
 CYCLE:    50 TIME:   0.223 TIME LEFT:  2.00D  GRAD.:     0.152 HEAT:  78.07403
 CYCLE:    51 TIME:   0.227 TIME LEFT:  2.00D  GRAD.:     0.269 HEAT:  78.07400
 CYCLE:    52 TIME:   0.195 TIME LEFT:  2.00D  GRAD.:     0.175 HEAT:  78.07398
 CYCLE:    53 TIME:   0.215 TIME LEFT:  2.00D  GRAD.:     0.184 HEAT:  78.07395
 CYCLE:    54 TIME:   0.176 TIME LEFT:  2.00D  GRAD.:     0.437 HEAT:  78.07393
 CYCLE:    55 TIME:   0.168 TIME LEFT:  2.00D  GRAD.:     0.181 HEAT:  78.07391
 CYCLE:    56 TIME:   0.188 TIME LEFT:  2.00D  GRAD.:     0.259 HEAT:  78.07390
 CYCLE:    57 TIME:   0.172 TIME LEFT:  2.00D  GRAD.:     0.202 HEAT:  78.07388
 CYCLE:    58 TIME:   0.172 TIME LEFT:  2.00D  GRAD.:     0.170 HEAT:  78.07382
 CYCLE:    59 TIME:   0.191 TIME LEFT:  2.00D  GRAD.:     0.250 HEAT:  78.07377
 CYCLE:    60 TIME:   0.191 TIME LEFT:  2.00D  GRAD.:     0.270 HEAT:  78.07373
 CYCLE:    61 TIME:   0.168 TIME LEFT:  2.00D  GRAD.:     0.178 HEAT:  78.07369
 CYCLE:    62 TIME:   0.176 TIME LEFT:  2.00D  GRAD.:     0.241 HEAT:  78.07363
 CYCLE:    63 TIME:   0.207 TIME LEFT:  2.00D  GRAD.:     0.367 HEAT:  78.07359
 CYCLE:    64 TIME:   0.227 TIME LEFT:  2.00D  GRAD.:     0.246 HEAT:  78.07354
 CYCLE:    65 TIME:   0.234 TIME LEFT:  2.00D  GRAD.:     0.182 HEAT:  78.07348
 CYCLE:    66 TIME:   0.230 TIME LEFT:  2.00D  GRAD.:     0.380 HEAT:  78.07345
 CYCLE:    67 TIME:   0.227 TIME LEFT:  2.00D  GRAD.:     0.216 HEAT:  78.07342
 CYCLE:    68 TIME:   0.242 TIME LEFT:  2.00D  GRAD.:     0.227 HEAT:  78.07338
 CYCLE:    69 TIME:   0.230 TIME LEFT:  2.00D  GRAD.:     0.218 HEAT:  78.07336
 CYCLE:    70 TIME:   0.285 TIME LEFT:  2.00D  GRAD.:     0.825 HEAT:  78.07334
 CYCLE:    71 TIME:   0.219 TIME LEFT:  2.00D  GRAD.:     0.224 HEAT:  78.07328
 CYCLE:    72 TIME:   0.180 TIME LEFT:  2.00D  GRAD.:     0.142 HEAT:  78.07327
 CYCLE:    73 TIME:   0.168 TIME LEFT:  2.00D  GRAD.:     0.233 HEAT:  78.07324
 CYCLE:    74 TIME:   0.164 TIME LEFT:  2.00D  GRAD.:     0.212 HEAT:  78.07321
 CYCLE:    75 TIME:   0.172 TIME LEFT:  2.00D  GRAD.:     0.175 HEAT:  78.07317
 CYCLE:    76 TIME:   0.168 TIME LEFT:  2.00D  GRAD.:     0.176 HEAT:  78.07314
 CYCLE:    77 TIME:   0.215 TIME LEFT:  2.00D  GRAD.:     0.244 HEAT:  78.07310
 CYCLE:    78 TIME:   0.227 TIME LEFT:  2.00D  GRAD.:     0.185 HEAT:  78.07307
 CYCLE:    79 TIME:   0.223 TIME LEFT:  2.00D  GRAD.:     0.186 HEAT:  78.07304
 CYCLE:    80 TIME:   0.180 TIME LEFT:  2.00D  GRAD.:     0.262 HEAT:  78.07300
 CYCLE:    81 TIME:   0.184 TIME LEFT:  2.00D  GRAD.:     0.313 HEAT:  78.07296
 CYCLE:    82 TIME:   0.184 TIME LEFT:  2.00D  GRAD.:     0.154 HEAT:  78.07293
 CYCLE:    83 TIME:   0.176 TIME LEFT:  2.00D  GRAD.:     0.166 HEAT:  78.07290
 CYCLE:    84 TIME:   0.203 TIME LEFT:  2.00D  GRAD.:     0.214 HEAT:  78.07287
 CYCLE:    85 TIME:   0.223 TIME LEFT:  2.00D  GRAD.:     0.361 HEAT:  78.07283
 CYCLE:    86 TIME:   0.207 TIME LEFT:  2.00D  GRAD.:     0.379 HEAT:  78.07279
 CYCLE:    87 TIME:   0.191 TIME LEFT:  2.00D  GRAD.:     0.188 HEAT:  78.07278
 CYCLE:    88 TIME:   0.199 TIME LEFT:  2.00D  GRAD.:     0.389 HEAT:  78.07277
 CYCLE:    89 TIME:   0.223 TIME LEFT:  2.00D  GRAD.:     0.164 HEAT:  78.07274
 CYCLE:    90 TIME:   0.238 TIME LEFT:  2.00D  GRAD.:     0.148 HEAT:  78.07271
 CYCLE:    91 TIME:   0.215 TIME LEFT:  2.00D  GRAD.:     0.188 HEAT:  78.07268
 CYCLE:    92 TIME:   0.230 TIME LEFT:  2.00D  GRAD.:     0.314 HEAT:  78.07264
 CYCLE:    93 TIME:   0.215 TIME LEFT:  2.00D  GRAD.:     0.174 HEAT:  78.07261
 CYCLE:    94 TIME:   0.168 TIME LEFT:  2.00D  GRAD.:     0.155 HEAT:  78.07259
 CYCLE:    95 TIME:   0.172 TIME LEFT:  2.00D  GRAD.:     0.192 HEAT:  78.07255
 CYCLE:    96 TIME:   0.172 TIME LEFT:  2.00D  GRAD.:     0.430 HEAT:  78.07253
 CYCLE:    97 TIME:   0.164 TIME LEFT:  2.00D  GRAD.:     0.158 HEAT:  78.07249
 CYCLE:    98 TIME:   0.176 TIME LEFT:  2.00D  GRAD.:     0.177 HEAT:  78.07247
 CYCLE:    99 TIME:   0.199 TIME LEFT:  2.00D  GRAD.:     0.190 HEAT:  78.07244
 CYCLE:   100 TIME:   0.215 TIME LEFT:  2.00D  GRAD.:     0.351 HEAT:  78.07240
 CYCLE:   101 TIME:   0.207 TIME LEFT:  2.00D  GRAD.:     0.434 HEAT:  78.07236
 CYCLE:   102 TIME:   0.188 TIME LEFT:  2.00D  GRAD.:     0.183 HEAT:  78.07233
 CYCLE:   103 TIME:   0.199 TIME LEFT:  2.00D  GRAD.:     0.359 HEAT:  78.07231
 CYCLE:   104 TIME:   0.184 TIME LEFT:  2.00D  GRAD.:     0.303 HEAT:  78.07226
 CYCLE:   105 TIME:   0.188 TIME LEFT:  2.00D  GRAD.:     0.363 HEAT:  78.07223
 CYCLE:   106 TIME:   0.176 TIME LEFT:  2.00D  GRAD.:     0.153 HEAT:  78.07221
 CYCLE:   107 TIME:   0.191 TIME LEFT:  2.00D  GRAD.:     0.295 HEAT:  78.07218
 CYCLE:   108 TIME:   0.168 TIME LEFT:  2.00D  GRAD.:     0.230 HEAT:  78.07217
 CYCLE:   109 TIME:   0.211 TIME LEFT:  2.00D  GRAD.:     0.154 HEAT:  78.07213
 CYCLE:   110 TIME:   0.184 TIME LEFT:  2.00D  GRAD.:     0.218 HEAT:  78.07209
 CYCLE:   111 TIME:   0.191 TIME LEFT:  2.00D  GRAD.:     0.314 HEAT:  78.07207
 CYCLE:   112 TIME:   0.234 TIME LEFT:  2.00D  GRAD.:     0.222 HEAT:  78.07202
 CYCLE:   113 TIME:   0.227 TIME LEFT:  2.00D  GRAD.:     0.185 HEAT:  78.07199
 CYCLE:   114 TIME:   0.234 TIME LEFT:  2.00D  GRAD.:     0.262 HEAT:  78.07194
 CYCLE:   115 TIME:   0.223 TIME LEFT:  2.00D  GRAD.:     0.213 HEAT:  78.07192
 CYCLE:   116 TIME:   0.238 TIME LEFT:  2.00D  GRAD.:     0.223 HEAT:  78.07188
 CYCLE:   117 TIME:   0.227 TIME LEFT:  2.00D  GRAD.:     0.221 HEAT:  78.07186
 CYCLE:   118 TIME:   0.227 TIME LEFT:  2.00D  GRAD.:     0.194 HEAT:  78.07184
 CYCLE:   119 TIME:   0.215 TIME LEFT:  2.00D  GRAD.:     0.273 HEAT:  78.07182
 CYCLE:   120 TIME:   0.207 TIME LEFT:  2.00D  GRAD.:     0.121 HEAT:  78.07181
 CYCLE:   121 TIME:   0.211 TIME LEFT:  2.00D  GRAD.:     0.098 HEAT:  78.07180

 -------------------------------------------------------------------------------
 RM1 PRECISE POLAR XYZ GNORM=0.1




     HERBERTS TEST WAS SATISFIED IN BFGS                      
     SCF FIELD WAS ACHIEVED                                   


                              RM1 CALCULATION
                                                       MOPAC2016 (Version: 21.013L)
                                                       Mon Oct 18 16:04:38 2021
                                                       No. of days remaining =  87




          FINAL HEAT OF FORMATION =         78.07180 KCAL/MOL =     326.65240 KJ/MOL


          TOTAL ENERGY            =      -7769.65139 EV
          ELECTRONIC ENERGY       =     -81617.93716 EV  POINT GROUP:     C1  
          CORE-CORE REPULSION     =      73848.28577 EV
          COSMO AREA              =        677.58 SQUARE ANGSTROMS
          COSMO VOLUME            =        827.14 CUBIC ANGSTROMS

          GRADIENT NORM           =          0.09839 = 0.01043 PER ATOM
          IONIZATION POTENTIAL    =          7.903493 EV
          HOMO LUMO ENERGIES (EV) =         -7.903 -1.456
          NO. OF FILLED LEVELS    =        127
          MOLECULAR WEIGHT        =        706.9188

          MOLECULAR DIMENSIONS (Angstroms)

            Atom       Atom       Distance
            H    84    H    54    24.18515
            H    78    O    15    13.38518
            H    87    H    64     6.09163


          SCF CALCULATIONS        =        122
 
          WALL-CLOCK TIME         =         25.305 SECONDS
          COMPUTATION TIME        =  5 MINUTES AND  1.965 SECONDS




   ATOM   CHEMICAL          X               Y               Z
  NUMBER   SYMBOL      (ANGSTROMS)     (ANGSTROMS)     (ANGSTROMS)
 
     1       C         -0.00254290  *   0.00521048  *  -0.00619994  *
     2       C          1.51743937  *   0.00226533  *  -0.00467248  *
     3       C          2.06054500  *   1.42905166  *  -0.00558931  *
     4       C          3.58737757  *   1.42743129  *   0.00228017  *
     5       C          4.12632172  *   2.85597917  *  -0.00245358  *
     6       C          5.65546286  *   2.85169322  *   0.01162603  *
     7       C          6.17242272  *   4.24046379  *   0.01271344  *
     8       C          5.98097085  *   5.13117860  *   1.11392973  *
     9       C          6.57116605  *   6.35104349  *   0.89538339  *
    10       S          7.33301036  *   6.42932107  *  -0.62474013  *
    11       C          6.89493527  *   4.83269143  *  -0.98895469  *
    12       C          7.29819367  *   4.19415598  *  -2.21864563  *
    13       C          6.48051578  *   4.08743118  *  -3.28024623  *
    14       C          6.95059782  *   3.41854460  *  -4.50193954  *
    15       O          8.05415627  *   2.92279985  *  -4.67835969  *
    16       O          6.03489742  *   3.37528768  *  -5.48953566  *
    17       C          5.16073167  *   4.60793990  *  -3.27419775  *
    18       N          4.08649601  *   5.03456482  *  -3.27129763  *
    19       C          6.56402873  *   7.45385709  *   1.82255170  *
    20       C          6.23460036  *   7.30949892  *   3.13338579  *
    21       C          6.19882339  *   8.41745709  *   4.04279463  *
    22       C          6.50158434  *   9.68155500  *   3.65786667  *
    23       C          6.88720277  *   9.90792991  *   2.29178781  *
    24       C          6.91670699  *   8.77040906  *   1.35694204  *
    25       N          7.28852267  *   9.11071713  *   0.12632979  *
    26       S          7.57639088  *  10.75902741  *   0.11887764  *
    27       N          7.23186895  *  11.06159313  *   1.72814849  *
    28       C          6.43901554  *  10.81080995  *   4.57480159  *
    29       C          5.29772392  *  10.97363782  *   5.36839371  *
    30       C          5.18213249  *  12.02417136  *   6.26604657  *
    31       C          6.24488004  *  12.91564844  *   6.36468764  *
    32       C          7.40534733  *  12.75586178  *   5.54742088  *
    33       C          7.50166291  *  11.70705188  *   4.65224808  *
    34       C          8.31274469  *  13.83492262  *   5.85696146  *
    35       C          9.57890795  *  14.19932311  *   5.43253732  *
    36       C         10.16035724  *  15.32193325  *   6.01084755  *
    37       C          9.49682705  *  16.08697921  *   6.97610611  *
    38       C          8.21114483  *  15.76689733  *   7.39687017  *
    39       C          7.66537938  *  14.62617051  *   6.83127984  *
    40       N          6.40250952  *  14.08498481  *   7.14354532  *
    41       C          5.72733920  *  14.57493562  *   8.27733271  *
    42       C          4.61566060  *  13.89939229  *   8.78718938  *
    43       C          3.94660499  *  14.40768311  *   9.89027274  *
    44       C          4.38150848  *  15.58255756  *  10.48266806  *
    45       C          5.49218190  *  16.24523540  *   9.97383065  *
    46       C          6.19996517  *  15.76147120  *   8.87957976  *
    47       C          7.37914216  *  16.56776771  *   8.35894428  *
    48       C          8.29239601  *  17.00081629  *   9.52695619  *
    49       C          7.95870932  *  18.32049551  *  10.20382850  *
    50       C          6.75529743  *  17.74324826  *   7.58010483  *
    51       C          7.76258359  *  18.58688169  *   6.81937785  *
    52       H          8.32318351  *   3.79312424  *  -2.24332523  *
    53       H         -0.41752796  *   0.51401957  *  -0.88824447  *
    54       H         -0.41376845  *  -1.01462450  *  -0.00834043  *
    55       H         -0.41959277  *   0.51099522  *   0.87657977  *
    56       H          1.89785391  *  -0.55926078  *   0.87479351  *
    57       H          1.89943484  *  -0.56021790  *  -0.88284265  *
    58       H          1.67878174  *   1.98513571  *  -0.88792227  *
    59       H          1.66927652  *   1.98922571  *   0.86989025  *
    60       H          3.96869628  *   0.87295282  *   0.88583082  *
    61       H          3.97643992  *   0.86452920  *  -0.87246938  *
    62       H          3.75471267  *   3.41114040  *  -0.89000757  *
    63       H          3.73180357  *   3.42161621  *   0.86765090  *
    64       H          6.04185980  *   2.31374439  *   0.90479375  *
    65       H          6.05232772  *   2.27824403  *  -0.85317967  *
    66       H          5.42274246  *   4.84360012  *   2.00123895  *
    67       H          6.38788827  *   2.92826248  *  -6.27270282  *
    68       H          5.98333221  *   6.32740678  *   3.54770692  *
    69       H          5.91777232  *   8.20752180  *   5.08086725  *
    70       H          4.46691795  *  10.26663419  *   5.27174908  *
    71       H          4.27600423  *  12.14298876  *   6.86800940  *
    72       H          8.39787505  *  11.59627432  *   4.03563580  *
    73       H         10.10131821  *  13.61510822  *   4.67158312  *
    74       H         11.16717933  *  15.61958628  *   5.70339382  *
    75       H         10.01438463  *  16.94687646  *   7.41756710  *
    76       H          4.25503724  *  12.96958300  *   8.33549138  *
    77       H          3.07533086  *  13.87890125  *  10.28860728  *
    78       H          3.85179906  *  15.99041233  *  11.34791030  *
    79       H          5.79261488  *  17.17927275  *  10.46412586  *
    80       H          8.30958003  *  16.18606865  *  10.28330320  *
    81       H          9.35167563  *  17.07008052  *   9.18878160  *
    82       H          8.08403345  *  19.19229701  *   9.54691745  *
    83       H          6.92997109  *  18.36708092  *  10.59446068  *
    84       H          8.61786843  *  18.49560299  *  11.06875887  *
    85       H          6.00451822  *  17.34311393  *   6.86251231  *
    86       H          6.15550321  *  18.38183599  *   8.26206112  *
    87       H          7.29988102  *  19.50902378  *   6.43494766  *
    88       H          8.61796177  *  18.90280089  *   7.43180027  *
    89       H          8.17266986  *  18.06613802  *   5.94164679  *

                             CARTESIAN COORDINATES

   1    C       -0.002542896     0.005210481    -0.006199941
   2    C        1.517439368     0.002265333    -0.004672483
   3    C        2.060544996     1.429051664    -0.005589314
   4    C        3.587377571     1.427431287     0.002280169
   5    C        4.126321719     2.855979168    -0.002453579
   6    C        5.655462856     2.851693215     0.011626032
   7    C        6.172422720     4.240463787     0.012713437
   8    C        5.980970851     5.131178600     1.113929732
   9    C        6.571166045     6.351043489     0.895383386
  10    S        7.333010357     6.429321065    -0.624740131
  11    C        6.894935274     4.832691435    -0.988954690
  12    C        7.298193670     4.194155985    -2.218645634
  13    C        6.480515783     4.087431178    -3.280246229
  14    C        6.950597822     3.418544601    -4.501939535
  15    O        8.054156265     2.922799848    -4.678359687
  16    O        6.034897424     3.375287676    -5.489535661
  17    C        5.160731672     4.607939898    -3.274197750
  18    N        4.086496008     5.034564819    -3.271297627
  19    C        6.564028727     7.453857085     1.822551700
  20    C        6.234600360     7.309498919     3.133385793
  21    C        6.198823388     8.417457094     4.042794626
  22    C        6.501584342     9.681554999     3.657866674
  23    C        6.887202771     9.907929911     2.291787814
  24    C        6.916706995     8.770409065     1.356942035
  25    N        7.288522672     9.110717131     0.126329789
  26    S        7.576390882    10.759027413     0.118877636
  27    N        7.231868950    11.061593129     1.728148486
  28    C        6.439015539    10.810809950     4.574801591
  29    C        5.297723923    10.973637820     5.368393708
  30    C        5.182132485    12.024171364     6.266046570
  31    C        6.244880036    12.915648441     6.364687641
  32    C        7.405347330    12.755861781     5.547420876
  33    C        7.501662910    11.707051878     4.652248079
  34    C        8.312744691    13.834922621     5.856961462
  35    C        9.578907954    14.199323115     5.432537325
  36    C       10.160357244    15.321933253     6.010847547
  37    C        9.496827045    16.086979211     6.976106110
  38    C        8.211144825    15.766897330     7.396870168
  39    C        7.665379376    14.626170510     6.831279845
  40    N        6.402509520    14.084984806     7.143545318
  41    C        5.727339202    14.574935624     8.277332714
  42    C        4.615660600    13.899392286     8.787189377
  43    C        3.946604992    14.407683107     9.890272735
  44    C        4.381508481    15.582557555    10.482668057
  45    C        5.492181898    16.245235396     9.973830649
  46    C        6.199965169    15.761471202     8.879579760
  47    C        7.379142161    16.567767709     8.358944279
  48    C        8.292396007    17.000816291     9.526956188
  49    C        7.958709318    18.320495514    10.203828497
  50    C        6.755297432    17.743248256     7.580104829
  51    C        7.762583586    18.586881688     6.819377851
  52    H        8.323183513     3.793124240    -2.243325233
  53    H       -0.417527958     0.514019572    -0.888244474
  54    H       -0.413768455    -1.014624499    -0.008340429
  55    H       -0.419592767     0.510995224     0.876579768
  56    H        1.897853912    -0.559260777     0.874793506
  57    H        1.899434841    -0.560217903    -0.882842646
  58    H        1.678781742     1.985135706    -0.887922274
  59    H        1.669276518     1.989225708     0.869890254
  60    H        3.968696278     0.872952821     0.885830819
  61    H        3.976439922     0.864529197    -0.872469376
  62    H        3.754712667     3.411140400    -0.890007571
  63    H        3.731803569     3.421616213     0.867650901
  64    H        6.041859797     2.313744392     0.904793752
  65    H        6.052327724     2.278244032    -0.853179665
  66    H        5.422742456     4.843600120     2.001238948
  67    H        6.387888275     2.928262480    -6.272702821
  68    H        5.983332210     6.327406776     3.547706919
  69    H        5.917772318     8.207521802     5.080867248
  70    H        4.466917954    10.266634191     5.271749077
  71    H        4.276004227    12.142988765     6.868009400
  72    H        8.397875048    11.596274320     4.035635796
  73    H       10.101318207    13.615108223     4.671583123
  74    H       11.167179325    15.619586282     5.703393817
  75    H       10.014384632    16.946876456     7.417567104
  76    H        4.255037235    12.969582998     8.335491380
  77    H        3.075330859    13.878901251    10.288607275
  78    H        3.851799061    15.990412327    11.347910304
  79    H        5.792614876    17.179272754    10.464125861
  80    H        8.309580034    16.186068647    10.283303201
  81    H        9.351675634    17.070080518     9.188781601
  82    H        8.084033453    19.192297011     9.546917454
  83    H        6.929971091    18.367080918    10.594460676
  84    H        8.617868430    18.495602986    11.068758867
  85    H        6.004518218    17.343113929     6.862512312
  86    H        6.155503208    18.381835989     8.262061115
  87    H        7.299881017    19.509023776     6.434947658
  88    H        8.617961772    18.902800895     7.431800271
  89    H        8.172669861    18.066138022     5.941646789


           Empirical Formula: C43 H38 N4 O2 S2  =    89 atoms



      MOLECULAR POINT GROUP   :   C1  


                  EIGENVALUES  
 -40.25895 -39.58769 -39.21193 -37.69833 -37.31271 -36.60664 -36.52835 -36.13828
 -35.48295 -35.45125 -34.82540 -34.41083 -34.06579 -33.21378 -32.46052 -31.80110
 -31.02510 -30.80684 -30.20354 -29.62594 -29.25049 -28.72447 -28.14439 -27.90671
 -27.37219 -27.02914 -25.74278 -25.23247 -24.19479 -23.83506 -23.59355 -23.35125
 -23.02878 -22.55838 -22.39712 -22.18393 -21.73022 -21.37956 -21.11392 -20.83739
 -20.72405 -20.68793 -20.18408 -19.90903 -19.09208 -18.61768 -18.49543 -18.26442
 -17.97141 -17.86836 -17.58468 -17.20247 -16.77031 -16.52782 -16.37297 -16.28228
 -16.25918 -16.21847 -16.09135 -16.04337 -15.85266 -15.71054 -15.65718 -15.45362
 -15.35291 -15.12397 -14.94346 -14.89914 -14.81960 -14.77824 -14.65072 -14.51684
 -14.45365 -14.37007 -14.25409 -14.19475 -14.04974 -13.94006 -13.83352 -13.78467
 -13.57778 -13.57354 -13.48534 -13.41966 -13.33164 -13.29121 -13.25521 -13.13081
 -13.05513 -13.03485 -12.96459 -12.85718 -12.81635 -12.67612 -12.61479 -12.47288
 -12.45719 -12.36122 -12.34425 -12.22767 -12.14098 -12.04058 -12.01285 -11.91840
 -11.90881 -11.90141 -11.79055 -11.72282 -11.56752 -11.51113 -11.43104 -11.32801
 -11.23200 -11.22380 -11.07924 -11.00864 -10.69189 -10.43895 -10.29510  -9.76711
  -9.67289  -9.59322  -9.57289  -9.20013  -8.83732  -8.61506  -7.90349  -1.45632
  -0.71047  -0.32050  -0.20944   0.11767   0.35249   0.39043   0.42565   0.45495
   0.53209   0.74213   1.07756   1.12578   1.18632   1.26688   1.51159   1.62945
   1.64120   1.73232   2.22398   2.37730   2.48673   2.72421   2.95159   3.00710
   3.00723   3.14314   3.58609   3.63548   3.65293   3.66731   3.69903   3.75626
   3.78939   3.81451   3.85808   3.92602   3.93866   3.98854   3.99973   4.05315
   4.06510   4.10752   4.14813   4.17171   4.20061   4.23283   4.28341   4.29259
   4.32438   4.34436   4.35000   4.36889   4.42234   4.48476   4.53446   4.54689
   4.59407   4.59933   4.62063   4.64042   4.66592   4.69252   4.73707   4.75278
   4.78149   4.78939   4.82733   4.86306   4.86665   4.92146   4.92984   4.96968
   4.97508   4.99777   5.02942   5.06613   5.07046   5.08180   5.09372   5.11712
   5.14901   5.17320   5.20079   5.24072   5.26108   5.27591   5.29416   5.31175
   5.32937   5.34553   5.37788   5.38995   5.43560   5.45261   5.47712   5.50715
   5.57887   5.60397   5.61458   5.67233   5.71134   5.71356   5.73329   5.80718
   5.85113   5.90081   5.95902   6.02539   6.06043   6.15390   6.29437   6.40320
   6.52837   6.66617


              NET ATOMIC CHARGES AND DIPOLE CONTRIBUTIONS

  ATOM NO.   TYPE          CHARGE      No. of ELECS.   s-Pop       p-Pop
   15          O          -0.374300        6.3743     1.91036     4.46394
   14          C           0.399057        3.6009     1.18122     2.41972
   16          O          -0.309153        6.3092     1.83990     4.46925
   67          H           0.245271        0.7547     0.75473
   17          C           0.052070        3.9479     1.19424     2.75369
   18          N          -0.142470        5.1425     1.84762     3.29485
    1          C          -0.177359        4.1774     1.15572     3.02164
    2          C          -0.111653        4.1117     1.16673     2.94492
    3          C          -0.124154        4.1242     1.17077     2.95338
    4          C          -0.122648        4.1226     1.17065     2.95200
    5          C          -0.123894        4.1239     1.17124     2.95265
    6          C          -0.095686        4.0957     1.15688     2.93881
    7          C           0.012417        3.9876     1.17403     2.81356
    8          C          -0.112370        4.1124     1.18103     2.93134
    9          C          -0.322745        4.3227     1.21506     3.10769
   10          S           0.634839        5.3652     1.88415     3.48101
   11          C          -0.468129        4.4681     1.22094     3.24719
   12          C           0.143864        3.8561     1.17378     2.68236
   13          C          -0.126790        4.1268     1.14453     2.98226
   19          C           0.055667        3.9443     1.13873     2.80560
   20          C          -0.082989        4.0830     1.18082     2.90217
   21          C          -0.110636        4.1106     1.18081     2.92982
   22          C           0.042405        3.9576     1.15184     2.80575
   23          C          -0.000462        4.0005     1.18405     2.81641
   24          C          -0.009239        4.0092     1.18609     2.82315
   25          N          -0.421639        5.4216     1.81534     3.60630
   26          S           0.656088        5.3439     1.87484     3.46908
   27          N          -0.394090        5.3941     1.81767     3.57642
   28          C          -0.094584        4.0946     1.15643     2.93815
   29          C          -0.040056        4.0401     1.17545     2.86461
   30          C          -0.177481        4.1775     1.17242     3.00506
   31          C           0.145996        3.8540     1.15113     2.70288
   32          C          -0.097361        4.0974     1.16146     2.93590
   33          C           0.007011        3.9930     1.16916     2.82383
   34          C          -0.073365        4.0734     1.15633     2.91703
   35          C          -0.042922        4.0429     1.16974     2.87318
   36          C          -0.147501        4.1475     1.17872     2.96878
   37          C          -0.064033        4.0640     1.17664     2.88740
   38          C          -0.100237        4.1002     1.17163     2.92861
   39          C           0.090244        3.9098     1.15145     2.75830
   40          N          -0.240879        5.2409     1.48619     3.75469
   41          C           0.175404        3.8246     1.14223     2.68236
   42          C          -0.192285        4.1923     1.17845     3.01384
   43          C          -0.050752        4.0508     1.17518     2.87557
   44          C          -0.152901        4.1529     1.17835     2.97455
   45          C          -0.065056        4.0651     1.17962     2.88543
   46          C          -0.125375        4.1254     1.18372     2.94166
   47          C           0.103287        3.8967     1.16304     2.73368
   48          C          -0.124840        4.1248     1.17323     2.95161
   49          C          -0.180804        4.1808     1.15713     3.02367
   50          C          -0.118427        4.1184     1.17235     2.94608
   51          C          -0.179527        4.1795     1.15586     3.02366
   52          H           0.134106        0.8659     0.86589
   53          H           0.059714        0.9403     0.94029
   54          H           0.055283        0.9447     0.94472
   55          H           0.057228        0.9428     0.94277
   56          H           0.057913        0.9421     0.94209
   57          H           0.059983        0.9400     0.94002
   58          H           0.069119        0.9309     0.93088
   59          H           0.062122        0.9379     0.93788
   60          H           0.059457        0.9405     0.94054
   61          H           0.062645        0.9374     0.93736
   62          H           0.080770        0.9192     0.91923
   63          H           0.066522        0.9335     0.93348
   64          H           0.075517        0.9245     0.92448
   65          H           0.071850        0.9282     0.92815
   66          H           0.130285        0.8697     0.86971
   68          H           0.120440        0.8796     0.87956
   69          H           0.123900        0.8761     0.87610
   70          H           0.107164        0.8928     0.89284
   71          H           0.126480        0.8735     0.87352
   72          H           0.123303        0.8767     0.87670
   73          H           0.110784        0.8892     0.88922
   74          H           0.107912        0.8921     0.89209
   75          H           0.110641        0.8894     0.88936
   76          H           0.126336        0.8737     0.87366
   77          H           0.104659        0.8953     0.89534
   78          H           0.110745        0.8893     0.88926
   79          H           0.117589        0.8824     0.88241
   80          H           0.071610        0.9284     0.92839
   81          H           0.069355        0.9306     0.93064
   82          H           0.064698        0.9353     0.93530
   83          H           0.059964        0.9400     0.94004
   84          H           0.057048        0.9430     0.94295
   85          H           0.071888        0.9281     0.92811
   86          H           0.066696        0.9333     0.93330
   87          H           0.055189        0.9448     0.94481
   88          H           0.058888        0.9411     0.94111
   89          H           0.067369        0.9326     0.93263
 DIPOLE           X         Y         Z       TOTAL
 POINT-CHG.     2.413     3.448     2.176     4.738
 HYBRID        -1.035    -2.758     1.849     3.478
 SUM            1.378     0.690     4.025     4.310


          ATOMIC ORBITAL ELECTRON POPULATIONS

     Atom    s        px        py        pz   
    1  C   1.15572   0.96428   1.02743   1.02993
    2  C   1.16673   0.95325   0.96674   1.02493
    3  C   1.17077   0.94894   0.97078   1.03366
    4  C   1.17065   0.96184   0.96278   1.02738
    5  C   1.17124   0.93180   0.97665   1.04421
    6  C   1.15688   0.97106   0.92877   1.03898
    7  C   1.17403   0.94572   0.95490   0.91294
    8  C   1.18103   1.01416   0.92345   0.99372
    9  C   1.21506   1.09167   0.98638   1.02964
   10  S   1.88415   1.48780   0.96406   1.02916
   11  C   1.22094   1.15333   1.06922   1.02464
   12  C   1.17378   0.96568   0.83853   0.87815
   13  C   1.14453   0.92686   1.09509   0.96030
   14  C   1.18122   0.82374   0.76140   0.83458
   15  O   1.91036   1.22824   1.42663   1.80907
   16  O   1.83990   1.45406   1.74800   1.26719
   17  C   1.19424   0.91226   0.92142   0.92001
   18  N   1.84762   1.10980   1.09672   1.08833
   19  C   1.13873   1.00880   0.87393   0.92287
   20  C   1.18082   0.97935   0.99098   0.93184
   21  C   1.18081   1.00413   0.92612   0.99958
   22  C   1.15184   0.98177   0.93559   0.88839
   23  C   1.18405   0.98009   0.86851   0.96781
   24  C   1.18609   0.97904   0.96605   0.87806
   25  N   1.81534   1.23331   1.16405   1.20894
   26  S   1.87484   1.54014   0.92175   1.00719
   27  N   1.81767   1.21914   1.24537   1.11192
   28  C   1.15643   0.96898   0.97118   0.99799
   29  C   1.17545   0.96184   0.96434   0.93843
   30  C   1.17242   0.98748   0.97900   1.03859
   31  C   1.15113   0.94641   0.84596   0.91051
   32  C   1.16146   0.94565   0.97975   1.01050
   33  C   1.16916   0.96950   0.91200   0.94232
   34  C   1.15633   0.95344   0.96157   1.00203
   35  C   1.16974   0.93425   0.96039   0.97854
   36  C   1.17872   1.00091   0.97286   0.99500
   37  C   1.17664   0.93788   0.98611   0.96341
   38  C   1.17163   0.96005   0.95943   1.00913
   39  C   1.15145   0.83740   0.95110   0.96980
   40  N   1.48619   1.20883   1.25494   1.29092
   41  C   1.14223   0.91811   0.92375   0.84049
   42  C   1.17845   0.98521   1.02188   1.00676
   43  C   1.17518   0.97609   0.95418   0.94530
   44  C   1.17835   0.98756   0.97512   1.01187
   45  C   1.17962   0.94498   0.98975   0.95071
   46  C   1.18372   0.99552   0.95825   0.98789
   47  C   1.16304   0.89546   0.92166   0.91656
   48  C   1.17323   0.99654   0.97640   0.97867
   49  C   1.15713   1.02603   0.98208   1.01556
   50  C   1.17235   0.98083   0.96531   0.99994
   51  C   1.15586   1.00299   1.00633   1.01434
   52  H   0.86589
   53  H   0.94029
   54  H   0.94472
   55  H   0.94277
   56  H   0.94209
   57  H   0.94002
   58  H   0.93088
   59  H   0.93788
   60  H   0.94054
   61  H   0.93736
   62  H   0.91923
   63  H   0.93348
   64  H   0.92448
   65  H   0.92815
   66  H   0.86971
   67  H   0.75473
   68  H   0.87956
   69  H   0.87610
   70  H   0.89284
   71  H   0.87352
   72  H   0.87670
   73  H   0.88922
   74  H   0.89209
   75  H   0.88936
   76  H   0.87366
   77  H   0.89534
   78  H   0.88926
   79  H   0.88241
   80  H   0.92839
   81  H   0.93064
   82  H   0.93530
   83  H   0.94004
   84  H   0.94295
   85  H   0.92811
   86  H   0.93330
   87  H   0.94481
   88  H   0.94111
   89  H   0.93263
 ******************** TDHF POLARIZABILITIES ********************



          MOLECULAR WEIGHT =  706.92



          ROTATIONAL CONSTANTS IN CM(-1)

          A =    0.00394546   B =    0.00050551   C =    0.00046192



           PRINCIPAL MOMENTS OF INERTIA IN UNITS OF 10**(-40)*GRAM-CM**2

          A =     7094.9337   B =    55375.4184   C =    60601.5451


 ROTATION MATRIX FOR ORIENTATION OF MOLECULE:

        -0.120836    0.716442    0.687102
        -0.779445    0.360146   -0.512601
        -0.614706   -0.597499    0.514909


          CARTESIAN COORDINATES 

    NO.       ATOM         X         Y         Z

     1         C       10.1537   -6.1856   -0.9914
     2         C        9.9714   -5.0986    0.0553
     3         C        8.7942   -4.1951   -0.3034
     4         C        8.6061   -3.1065    0.7506
     5         C        7.4304   -2.2030    0.3862
     6         C        7.2403   -1.1175    1.4463
     7         C        6.0947   -0.2476    1.0902
     8         C        4.7467   -0.7219    1.0691
     9         C        3.8589    0.2708    0.7368
    10         S        4.6403    1.7531    0.4374
    11         C        6.1616    1.0819    0.7673
    12         C        7.3664    1.8755    0.7385
    13         C        8.2010    1.8856   -0.3152
    14         C        9.4165    2.7114   -0.2784
    15         O        9.7780    3.4289    0.6431
    16         O       10.1680    2.6299   -1.3940
    17         C        7.9510    1.1239   -1.4858
    18         N        7.7465    0.5062   -2.4411
    19         C        2.4302    0.1089    0.6440
    20         C        1.7768   -0.9623    1.1666
    21         C        0.3585   -1.1323    1.0423
    22         C       -0.4268   -0.2301    0.4042
    23         C        0.1899    0.9439   -0.1503
    24         C        1.6477    1.1139   -0.0283
    25         N        2.0939    2.2382   -0.5809
    26         S        0.7790    3.0425   -1.2319
    27         N       -0.4045    1.9431   -0.7951
    28         C       -1.8630   -0.4161    0.2545
    29         C       -2.3399   -1.6493   -0.2046
    30         C       -3.6965   -1.8901   -0.3603
    31         C       -4.5804   -0.8666   -0.0362
    32         C       -4.0937    0.3955    0.4222
    33         C       -2.7376    0.6217    0.5651
    34         C       -5.2347    1.2493    0.6519
    35         C       -5.4109    2.5413    1.1166
    36         C       -6.7116    3.0166    1.2384
    37         C       -7.8211    2.2400    0.8874
    38         C       -7.6749    0.9522    0.3847
    39         C       -6.3722    0.4883    0.3032
    40         N       -5.9897   -0.7979   -0.1263
    41         C       -6.9869   -1.7826   -0.2576
    42         C       -6.6395   -3.1270   -0.4126
    43         C       -7.6329   -4.0824   -0.5649
    44         C       -8.9653   -3.7016   -0.5632
    45         C       -9.3033   -2.3632   -0.4018
    46         C       -8.3391   -1.3765   -0.2309
    47         C       -8.7900    0.0697   -0.1021
    48         C       -9.9559    0.1821    0.9048
    49         C      -11.3603    0.0139    0.3476
    50         C       -9.1521    0.5115   -1.5343
    51         C       -9.4638    1.9915   -1.6664
    52         H        7.5703    2.4802    1.6356
    53         H       10.3494   -5.7726   -1.9915
    54         H       10.9996   -6.8462   -0.7523
    55         H        9.2672   -6.8297   -1.0827
    56         H        9.8225   -5.5537    1.0574
    57         H       10.9034   -4.5028    0.1539
    58         H        8.9493   -3.7411   -1.3051
    59         H        7.8667   -4.7968   -0.4086
    60         H        8.4491   -3.5609    1.7518
    61         H        9.5356   -2.5078    0.8560
    62         H        7.5882   -1.7390   -0.6107
    63         H        6.5024   -2.8019    0.2732
    64         H        7.0639   -1.5680    2.4475
    65         H        8.1710   -0.5229    1.5677
    66         H        4.4929   -1.7556    1.2898
    67         H       10.9552    3.1897   -1.3255
    68         H        2.3179   -1.7436    1.7107
    69         H       -0.0820   -2.0295    1.4913
    70         H       -1.6290   -2.4414   -0.4628
    71         H       -4.0497   -2.8562   -0.7338
    72         H       -2.3805    1.5923    0.9202
    73         H       -4.5509    3.1598    1.3832
    74         H       -6.8763    4.0289    1.6193
    75         H       -8.8253    2.6567    1.0295
    76         H       -5.5935   -3.4504   -0.4163
    77         H       -7.3603   -5.1351   -0.6873
    78         H       -9.7511   -4.4512   -0.6908
    79         H      -10.3690   -2.1045   -0.4217
    80         H       -9.7878   -0.5509    1.7237
    81         H       -9.9300    1.1680    1.4230
    82         H      -11.6511    0.8101   -0.3514
    83         H      -11.5124   -0.9398   -0.1820
    84         H      -12.1081    0.0324    1.1561
    85         H       -8.3084    0.2583   -2.2146
    86         H       -9.9966   -0.0957   -1.9226
    87         H       -9.8903    2.2218   -2.6549
    88         H      -10.1898    2.3522   -0.9252
    89         H       -8.5679    2.6222   -1.5696


 ENERGY OF "REORIENTED" SYSTEM WITHOUT FIELD:       78.0717980674


  NFREQ=  3  IWFLB=  0  IBET=  1  IGAM=  1
  ATOL= 0.10000D-02  BTOL= 0.10000D-02    MAXITU=  500    MAXITA=  150


 *****************************************************************
 CALCULATION OF STATIC FIELD QUANTITIES
 *****************************************************************

 +++++ ALPHA AT       0.00000 EV.

                           COMPONENTS OF ALPHA

                     *X           *Y           *Z
           *=X:     786.6440      32.2166      11.6348
           *=Y:      32.2541     489.8521      -0.4774
           *=Z:      11.6438      -0.4760     239.2310

  ISOTROPIC AVERAGE ALPHA =     505.24238 A.U. =     74.86919 ANG.**3

 +++++ BETA (SECOND HARMONIC GENERATION) AT       0.00000 EV.

                              COMPONENTS OF BETA
            *XX         *XY         *YY         *XZ         *YZ         *ZZ
   *=X -5097.33753  -445.36214   650.55142   -95.68910   134.63916   172.71993
   *=Y  -445.63820   650.38150   282.27303   134.66206   -31.12332    62.69996
   *=Z   -96.07300   134.64912   -31.06039   172.74193    62.70587  -176.19300


 AVERAGE BETAX(SHG) VALUE AT   0.00000 EV =      -2564.4989 a.u. = -0.221558E-28 ESU
 AVERAGE BETAY(SHG) VALUE AT   0.00000 EV =        -60.2863 a.u. = -0.520839E-30 ESU
 AVERAGE BETAZ(SHG) VALUE AT   0.00000 EV =       -181.8674 a.u. = -0.157123E-29 ESU



 AVERAGE BETA (SHG) VALUE AT   0.00000 EV =       2571.6463 a.u. =  0.222175E-28 ESU
   (1 a.u. = 8.639418X10-33 esu)



 +++++ ALPHA AT       0.00000 EV.

                           COMPONENTS OF ALPHA

                     *X           *Y           *Z
           *=X:     786.6440      32.2166      11.6348
           *=Y:      32.2541     489.8521      -0.4774
           *=Z:      11.6438      -0.4760     239.2310

  ISOTROPIC AVERAGE ALPHA =     505.24238 A.U. =     74.86919 ANG.**3


 GAMMA (THIRD HARMONIC GENERATION) AT    0.00000 EV.


 GAMMA(X,X,X,X) =       2859642.33546
 GAMMA(Y,Y,Y,Y) =         60550.47410
 GAMMA(Z,Z,Z,Z) =          7966.00237
 GAMMA(X,X,Y,Y) =         85369.52665
 GAMMA(X,X,Z,Z) =          -737.12990
 GAMMA(Y,Y,X,X) =         85369.06396
 GAMMA(Y,Y,Z,Z) =          7876.82456
 GAMMA(Z,Z,X,X) =          -737.70479
 GAMMA(Z,Z,Y,Y) =          7876.99799


 AVERAGE GAMMA VALUE AT    0.00000 =        622635.27808 a.u. =       313602.87114 ESU (X10-39)




 **********************************************************************
 CALCULATION FOR A FREQUENCY OF    0.25000 EV  =       0.00919 A.U. 
                  WAVELENGTH OF    4959.37 NM  =    2016.38525 CM(-1)
 **********************************************************************

 +++++ ALPHA AT       0.25000 EV.

                           COMPONENTS OF ALPHA

                     *X           *Y           *Z
           *=X:     790.0236      32.5413      11.6606
           *=Y:      32.5757     490.7545      -0.5130
           *=Z:      11.6688      -0.5118     239.5292

  ISOTROPIC AVERAGE ALPHA =     506.76909 A.U. =     75.09543 ANG.**3

 +++++ BETA (SECOND HARMONIC GENERATION) AT       0.25000 EV.

                              COMPONENTS OF BETA
            *XX         *XY         *YY         *XZ         *YZ         *ZZ
   *=X -5339.20436  -490.44633   671.10514   -87.19802   139.49564   178.78827
   *=Y  -461.69748   667.13439   293.39273   138.37578   -31.48413    64.07460
   *=Z  -101.49661   137.31446   -31.38185   175.98517    63.17340  -178.06889


 AVERAGE BETAX(SHG) VALUE AT   0.25000 EV =      -2696.2961 a.u. = -0.232944E-28 ESU
 AVERAGE BETAY(SHG) VALUE AT   0.25000 EV =        -74.3981 a.u. = -0.642756E-30 ESU
 AVERAGE BETAZ(SHG) VALUE AT   0.25000 EV =       -180.8899 a.u. = -0.156278E-29 ESU



 AVERAGE BETA (SHG) VALUE AT   0.25000 EV =       2703.3810 a.u. =  0.233556E-28 ESU
   (1 a.u. = 8.639418X10-33 esu)



 +++++ ALPHA AT       0.75000 EV.

                           COMPONENTS OF ALPHA

                     *X           *Y           *Z
           *=X:     819.0749      35.3866      11.8846
           *=Y:      35.4141     498.2129      -0.8108
           *=Z:      11.8943      -0.8090     241.9661

  ISOTROPIC AVERAGE ALPHA =     519.75133 A.U. =     77.01920 ANG.**3


 GAMMA (THIRD HARMONIC GENERATION) AT    0.25000 EV.


 GAMMA(X,X,X,X) =       3198262.00239
 GAMMA(Y,Y,Y,Y) =         63927.23187
 GAMMA(Z,Z,Z,Z) =          8183.44812
 GAMMA(X,X,Y,Y) =         92388.91799
 GAMMA(X,X,Z,Z) =         -1166.71774
 GAMMA(Y,Y,X,X) =         93487.44918
 GAMMA(Y,Y,Z,Z) =          8200.14971
 GAMMA(Z,Z,X,X) =          -881.87074
 GAMMA(Z,Z,Y,Y) =          8181.22887


 AVERAGE GAMMA VALUE AT    0.25000 =        694116.36793 a.u. =       349605.77011 ESU (X10-39)




 **********************************************************************
 CALCULATION FOR A FREQUENCY OF    0.50000 EV  =       0.01837 A.U. 
                  WAVELENGTH OF    2479.68 NM  =    4032.77050 CM(-1)
 **********************************************************************

 +++++ ALPHA AT       0.50000 EV.

                           COMPONENTS OF ALPHA

                     *X           *Y           *Z
           *=X:     800.4610      33.5483      11.7385
           *=Y:      33.5785     493.4989      -0.6226
           *=Z:      11.7475      -0.6211     240.4308

  ISOTROPIC AVERAGE ALPHA =     511.46358 A.U. =     75.79108 ANG.**3

 +++++ BETA (SECOND HARMONIC GENERATION) AT       0.50000 EV.

                              COMPONENTS OF BETA
            *XX         *XY         *YY         *XZ         *YZ         *ZZ
   *=X -6200.93099  -658.86210   742.58411   -52.28183   156.85572   200.39177
   *=Y  -520.38213   721.03477   331.60536   151.28232   -32.47223    68.82599
   *=Z  -122.08558   145.75551   -32.25772   186.53754    64.71347  -183.99303


 AVERAGE BETAX(SHG) VALUE AT   0.50000 EV =      -3168.9345 a.u. = -0.273777E-28 ESU
 AVERAGE BETAY(SHG) VALUE AT   0.50000 EV =       -129.0075 a.u. = -0.111455E-29 ESU
 AVERAGE BETAZ(SHG) VALUE AT   0.50000 EV =       -175.1661 a.u. = -0.151333E-29 ESU



 AVERAGE BETA (SHG) VALUE AT   0.50000 EV =       3176.3929 a.u. =  0.274422E-28 ESU
   (1 a.u. = 8.639418X10-33 esu)



 +++++ ALPHA AT       1.50000 EV.

                           COMPONENTS OF ALPHA

                     *X           *Y           *Z
           *=X:     959.9720      50.9455      13.2444
           *=Y:      50.9833     527.5220      -1.9426
           *=Z:      13.2783      -1.9358     251.0785

  ISOTROPIC AVERAGE ALPHA =     579.52417 A.U. =     85.87662 ANG.**3


 GAMMA (THIRD HARMONIC GENERATION) AT    0.50000 EV.


 GAMMA(X,X,X,X) =       4797641.34326
 GAMMA(Y,Y,Y,Y) =         76583.18681
 GAMMA(Z,Z,Z,Z) =          8936.49512
 GAMMA(X,X,Y,Y) =        123544.12261
 GAMMA(X,X,Z,Z) =         -3259.80152
 GAMMA(Y,Y,X,X) =        130416.49883
 GAMMA(Y,Y,Z,Z) =          9339.03548
 GAMMA(Z,Z,X,X) =         -1279.02560
 GAMMA(Z,Z,Y,Y) =          9293.53860


 AVERAGE GAMMA VALUE AT    0.50000 =       1030243.07872 a.u. =       518902.79725 ESU (X10-39)



 **********************
 *                    *
 * JOB ENDED NORMALLY *
 *                    *
 **********************



 TOTAL JOB TIME:           215.60 SECONDS

 == MOPAC DONE ==
