 *******************************************************************************
 ** Site#: 4824         For non-commercial use only    Version 21.013L 64BITS **
 *******************************************************************************
 ** Cite this program as: MOPAC2016, Version: 21.013L, James J. P. Stewart,   **
 ** Stewart Computational Chemistry, web: HTTP://OpenMOPAC.net. Days left:  85**
 *******************************************************************************
 **                                                                           **
 **                                MOPAC2016                                  **
 **                                                                           **
 *******************************************************************************

                              RM1 CALCULATION RESULTS

 *******************************************************************************
 *  CALCULATION DONE:                                Wed Oct 20 23:29:43 2021  *
 *  RM1        - The RM1 Hamiltonian to be used
 *  POLAR      - CALCULATE FIRST, SECOND AND THIRD-ORDER POLARIZABILITIES
 *  PRECISE    - TIGHTER CRITERIA TO BE USED
 *  XYZ        - CARTESIAN COORDINATE SYSTEM TO BE USED
 *  T=         - A TIME OF 172800.0 SECONDS REQUESTED
 *  DUMP=N     - RESTART FILE WRITTEN EVERY 7200.0 SECONDS REQUESTED
 *  GNORM      - EXIT WHEN GRADIENT NORM DROPS BELOW 0.100
 *******************************************************************************
RM1 PRECISE POLAR XYZ GNORM=0.1


   ATOM   CHEMICAL          X               Y               Z
  NUMBER   SYMBOL      (ANGSTROMS)     (ANGSTROMS)     (ANGSTROMS)
 
     1       C          0.60825903  *  -0.48519175  *   0.88819481  *
     2       C          1.76855813  *  -0.13523065  *  -0.02902840  *
     3       C          2.35884872  *   1.22013102  *   0.34802450  *
     4       C          3.53098155  *   1.56032976  *  -0.58413923  *
     5       N          4.11833816  *   2.85597110  *  -0.25659341  *
     6       C          3.55587708  *   4.10464386  *  -0.59856588  *
     7       C          2.49570556  *   4.39435160  *  -1.45330225  *
     8       C          2.17839855  *   5.72962816  *  -1.64249357  *
     9       C          2.89334653  *   6.75126947  *  -1.00115825  *
    10       C          3.94952897  *   6.46324522  *  -0.14462385  *
    11       C          4.27883101  *   5.13388219  *   0.06146523  *
    12       C          5.28093488  *   4.49079789  *   0.87278256  *
    13       C          5.13429640  *   3.08561369  *   0.68218619  *
    14       C          5.94867314  *   2.17586564  *   1.35642633  *
    15       C          6.92430814  *   2.68850715  *   2.19311731  *
    16       C          7.08890232  *   4.07128739  *   2.36507530  *
    17       C          6.25469058  *   4.98284201  *   1.71938914  *
    18       C          8.12274125  *   4.58242580  *   3.24567015  *
    19       C          9.38591234  *   4.11696699  *   3.24976745  *
    20       C         10.36296880  *   4.67388012  *   4.19446772  *
    21       O         10.16389874  *   5.56723373  *   5.00569838  *
    22       O         11.58355094  *   4.10611675  *   4.11965412  *
    23       C          9.84086706  *   3.12027902  *   2.34986703  *
    24       N         10.22829063  *   2.31833394  *   1.61227475  *
    25       C          2.51904378  *   8.14159207  *  -1.23977013  *
    26       C          1.18638715  *   8.53674489  *  -1.10874818  *
    27       C          0.82293216  *   9.85201666  *  -1.33392300  *
    28       C          1.81165816  *  10.77886178  *  -1.69617843  *
    29       C          3.14386819  *  10.39893497  *  -1.82897386  *
    30       C          3.48821128  *   9.07116658  *  -1.59625535  *
    31       O          1.32515406  *  12.03870580  *  -1.88984333  *
    32       C          2.24003629  *  13.03238431  *  -2.27460560  *
    33       H          7.82728359  *   5.39785191  *   3.92361196  *
    34       H         -0.20502319  *   0.25278164  *   0.83261116  *
    35       H          0.16718557  *  -1.46000372  *   0.63403897  *
    36       H          0.91276736  *  -0.54276787  *   1.94323630  *
    37       H          2.54594634  *  -0.92724978  *   0.01870911  *
    38       H          1.43212443  *  -0.13433551  *  -1.08766156  *
    39       H          1.58249638  *   2.01298626  *   0.29719234  *
    40       H          2.69239897  *   1.22006066  *   1.40715601  *
    41       H          4.32246671  *   0.77698362  *  -0.53662171  *
    42       H          3.20236691  *   1.57647539  *  -1.64992268  *
    43       H          1.93251265  *   3.60685819  *  -1.95756974  *
    44       H          1.35612252  *   5.99228006  *  -2.31640340  *
    45       H          4.50466435  *   7.25537266  *   0.36435650  *
    46       H          5.83065334  *   1.09736028  *   1.23441220  *
    47       H          7.56175915  *   1.99229440  *   2.74924101  *
    48       H          6.36715876  *   6.06128030  *   1.86351367  *
    49       H         12.19304385  *   4.50618699  *   4.75670354  *
    50       H          0.42482605  *   7.80672537  *  -0.81651820  *
    51       H         -0.21884763  *  10.16929614  *  -1.23064032  *
    52       H          3.92978767  *  11.10252867  *  -2.11026185  *
    53       H          4.53225301  *   8.76035772  *  -1.70638404  *
    54       H          2.72228933  *  12.82986108  *  -3.24521901  *
    55       H          1.61430473  *  13.93299992  *  -2.37370518  *
    56       H          3.01773016  *  13.22575019  *  -1.51734247  *
 


          CARTESIAN COORDINATES 

    NO.       ATOM           X           Y           Z

     1         C          0.6083     -0.4852      0.8882
     2         C          1.7686     -0.1352     -0.0290
     3         C          2.3588      1.2201      0.3480
     4         C          3.5310      1.5603     -0.5841
     5         N          4.1183      2.8560     -0.2566
     6         C          3.5559      4.1046     -0.5986
     7         C          2.4957      4.3944     -1.4533
     8         C          2.1784      5.7296     -1.6425
     9         C          2.8933      6.7513     -1.0012
    10         C          3.9495      6.4632     -0.1446
    11         C          4.2788      5.1339      0.0615
    12         C          5.2809      4.4908      0.8728
    13         C          5.1343      3.0856      0.6822
    14         C          5.9487      2.1759      1.3564
    15         C          6.9243      2.6885      2.1931
    16         C          7.0889      4.0713      2.3651
    17         C          6.2547      4.9828      1.7194
    18         C          8.1227      4.5824      3.2457
    19         C          9.3859      4.1170      3.2498
    20         C         10.3630      4.6739      4.1945
    21         O         10.1639      5.5672      5.0057
    22         O         11.5836      4.1061      4.1197
    23         C          9.8409      3.1203      2.3499
    24         N         10.2283      2.3183      1.6123
    25         C          2.5190      8.1416     -1.2398
    26         C          1.1864      8.5367     -1.1087
    27         C          0.8229      9.8520     -1.3339
    28         C          1.8117     10.7789     -1.6962
    29         C          3.1439     10.3989     -1.8290
    30         C          3.4882      9.0712     -1.5963
    31         O          1.3252     12.0387     -1.8898
    32         C          2.2400     13.0324     -2.2746
    33         H          7.8273      5.3979      3.9236
    34         H         -0.2050      0.2528      0.8326
    35         H          0.1672     -1.4600      0.6340
    36         H          0.9128     -0.5428      1.9432
    37         H          2.5459     -0.9272      0.0187
    38         H          1.4321     -0.1343     -1.0877
    39         H          1.5825      2.0130      0.2972
    40         H          2.6924      1.2201      1.4072
    41         H          4.3225      0.7770     -0.5366
    42         H          3.2024      1.5765     -1.6499
    43         H          1.9325      3.6069     -1.9576
    44         H          1.3561      5.9923     -2.3164
    45         H          4.5047      7.2554      0.3644
    46         H          5.8307      1.0974      1.2344
    47         H          7.5618      1.9923      2.7492
    48         H          6.3672      6.0613      1.8635
    49         H         12.1930      4.5062      4.7567
    50         H          0.4248      7.8067     -0.8165
    51         H         -0.2188     10.1693     -1.2306
    52         H          3.9298     11.1025     -2.1103
    53         H          4.5323      8.7604     -1.7064
    54         H          2.7223     12.8299     -3.2452
    55         H          1.6143     13.9330     -2.3737
    56         H          3.0177     13.2258     -1.5173

  H: (RM1): G.B. ROCHA, R.O. FREIRE, A.M.SIMAS, J.J.P. STEWART, J. COMP. CHEM. 27, 1101 (2006)
  C: (RM1): G.B. ROCHA, R.O. FREIRE, A.M.SIMAS, J.J.P. STEWART, J. COMP. CHEM. 27, 1101 (2006)
  N: (RM1): G.B. ROCHA, R.O. FREIRE, A.M.SIMAS, J.J.P. STEWART, J. COMP. CHEM. 27, 1101 (2006)
  O: (RM1): G.B. ROCHA, R.O. FREIRE, A.M.SIMAS, J.J.P. STEWART, J. COMP. CHEM. 27, 1101 (2006)

           Empirical Formula: C27 H24 N2 O3  =    56 atoms



      MOLECULAR POINT GROUP   :   C1  


      RHF CALCULATION, NO. OF DOUBLY OCCUPIED LEVELS = 80


          Geometry optimization using L-BFGS
 CYCLE:     1 TIME:   0.133 TIME LEFT:  2.00D  GRAD.:     0.099 HEAT: -25.95691

 -------------------------------------------------------------------------------
 RM1 PRECISE POLAR XYZ GNORM=0.1




     HERBERTS TEST WAS SATISFIED IN BFGS                      
     SCF FIELD WAS ACHIEVED                                   


                              RM1 CALCULATION
                                                       MOPAC2016 (Version: 21.013L)
                                                       Wed Oct 20 23:29:43 2021
                                                       No. of days remaining =  85




          FINAL HEAT OF FORMATION =        -25.95692 KCAL/MOL =    -108.60373 KJ/MOL


          TOTAL ENERGY            =      -5088.75300 EV
          ELECTRONIC ENERGY       =     -41080.02502 EV  POINT GROUP:     C1  
          CORE-CORE REPULSION     =      35991.27201 EV
          COSMO AREA              =        457.41 SQUARE ANGSTROMS
          COSMO VOLUME            =        514.85 CUBIC ANGSTROMS

          GRADIENT NORM           =          0.09922 = 0.01326 PER ATOM
          IONIZATION POTENTIAL    =          8.216489 EV
          HOMO LUMO ENERGIES (EV) =         -8.216 -0.814
          NO. OF FILLED LEVELS    =         80
          MOLECULAR WEIGHT        =        424.4982

          MOLECULAR DIMENSIONS (Angstroms)

            Atom       Atom       Distance
            H    55    H    49    15.86245
            H    56    H    35    12.94936
            O    21    H    42     3.88001


          SCF CALCULATIONS        =          2
 
          WALL-CLOCK TIME         =          0.250 SECONDS
          COMPUTATION TIME        =          2.421 SECONDS




   ATOM   CHEMICAL          X               Y               Z
  NUMBER   SYMBOL      (ANGSTROMS)     (ANGSTROMS)     (ANGSTROMS)
 
     1       C          0.60825903  *  -0.48519175  *   0.88819481  *
     2       C          1.76855813  *  -0.13523065  *  -0.02902840  *
     3       C          2.35884872  *   1.22013102  *   0.34802450  *
     4       C          3.53098155  *   1.56032976  *  -0.58413923  *
     5       N          4.11833816  *   2.85597110  *  -0.25659341  *
     6       C          3.55587708  *   4.10464386  *  -0.59856588  *
     7       C          2.49570556  *   4.39435160  *  -1.45330225  *
     8       C          2.17839855  *   5.72962816  *  -1.64249357  *
     9       C          2.89334653  *   6.75126947  *  -1.00115825  *
    10       C          3.94952897  *   6.46324522  *  -0.14462385  *
    11       C          4.27883101  *   5.13388219  *   0.06146523  *
    12       C          5.28093488  *   4.49079789  *   0.87278256  *
    13       C          5.13429640  *   3.08561369  *   0.68218619  *
    14       C          5.94867314  *   2.17586564  *   1.35642633  *
    15       C          6.92430814  *   2.68850715  *   2.19311731  *
    16       C          7.08890232  *   4.07128739  *   2.36507530  *
    17       C          6.25469058  *   4.98284201  *   1.71938914  *
    18       C          8.12274125  *   4.58242580  *   3.24567015  *
    19       C          9.38591234  *   4.11696699  *   3.24976745  *
    20       C         10.36296880  *   4.67388012  *   4.19446772  *
    21       O         10.16389874  *   5.56723373  *   5.00569838  *
    22       O         11.58355094  *   4.10611675  *   4.11965412  *
    23       C          9.84086706  *   3.12027902  *   2.34986703  *
    24       N         10.22829063  *   2.31833394  *   1.61227475  *
    25       C          2.51904378  *   8.14159207  *  -1.23977013  *
    26       C          1.18638715  *   8.53674489  *  -1.10874818  *
    27       C          0.82293216  *   9.85201666  *  -1.33392300  *
    28       C          1.81165816  *  10.77886178  *  -1.69617843  *
    29       C          3.14386819  *  10.39893497  *  -1.82897386  *
    30       C          3.48821128  *   9.07116658  *  -1.59625535  *
    31       O          1.32515406  *  12.03870580  *  -1.88984333  *
    32       C          2.24003629  *  13.03238431  *  -2.27460560  *
    33       H          7.82728359  *   5.39785191  *   3.92361196  *
    34       H         -0.20502319  *   0.25278164  *   0.83261116  *
    35       H          0.16718557  *  -1.46000372  *   0.63403897  *
    36       H          0.91276736  *  -0.54276787  *   1.94323630  *
    37       H          2.54594634  *  -0.92724978  *   0.01870911  *
    38       H          1.43212443  *  -0.13433551  *  -1.08766156  *
    39       H          1.58249638  *   2.01298626  *   0.29719234  *
    40       H          2.69239897  *   1.22006066  *   1.40715601  *
    41       H          4.32246671  *   0.77698362  *  -0.53662171  *
    42       H          3.20236691  *   1.57647539  *  -1.64992268  *
    43       H          1.93251265  *   3.60685819  *  -1.95756974  *
    44       H          1.35612252  *   5.99228006  *  -2.31640340  *
    45       H          4.50466435  *   7.25537266  *   0.36435650  *
    46       H          5.83065334  *   1.09736028  *   1.23441220  *
    47       H          7.56175915  *   1.99229440  *   2.74924101  *
    48       H          6.36715876  *   6.06128030  *   1.86351367  *
    49       H         12.19304385  *   4.50618699  *   4.75670354  *
    50       H          0.42482605  *   7.80672537  *  -0.81651820  *
    51       H         -0.21884763  *  10.16929614  *  -1.23064032  *
    52       H          3.92978767  *  11.10252867  *  -2.11026185  *
    53       H          4.53225301  *   8.76035772  *  -1.70638404  *
    54       H          2.72228933  *  12.82986108  *  -3.24521901  *
    55       H          1.61430473  *  13.93299992  *  -2.37370518  *
    56       H          3.01773016  *  13.22575019  *  -1.51734247  *

                             CARTESIAN COORDINATES

   1    C        0.608259030    -0.485191750     0.888194810
   2    C        1.768558130    -0.135230650    -0.029028400
   3    C        2.358848720     1.220131020     0.348024500
   4    C        3.530981550     1.560329760    -0.584139230
   5    N        4.118338160     2.855971100    -0.256593410
   6    C        3.555877080     4.104643860    -0.598565880
   7    C        2.495705560     4.394351600    -1.453302250
   8    C        2.178398550     5.729628160    -1.642493570
   9    C        2.893346530     6.751269470    -1.001158250
  10    C        3.949528970     6.463245220    -0.144623850
  11    C        4.278831010     5.133882190     0.061465230
  12    C        5.280934880     4.490797890     0.872782560
  13    C        5.134296400     3.085613690     0.682186190
  14    C        5.948673140     2.175865640     1.356426330
  15    C        6.924308140     2.688507150     2.193117310
  16    C        7.088902320     4.071287390     2.365075300
  17    C        6.254690580     4.982842010     1.719389140
  18    C        8.122741250     4.582425800     3.245670150
  19    C        9.385912340     4.116966990     3.249767450
  20    C       10.362968800     4.673880120     4.194467720
  21    O       10.163898740     5.567233730     5.005698380
  22    O       11.583550940     4.106116750     4.119654120
  23    C        9.840867060     3.120279020     2.349867030
  24    N       10.228290630     2.318333940     1.612274750
  25    C        2.519043780     8.141592070    -1.239770130
  26    C        1.186387150     8.536744890    -1.108748180
  27    C        0.822932160     9.852016660    -1.333923000
  28    C        1.811658160    10.778861780    -1.696178430
  29    C        3.143868190    10.398934970    -1.828973860
  30    C        3.488211280     9.071166580    -1.596255350
  31    O        1.325154060    12.038705800    -1.889843330
  32    C        2.240036290    13.032384310    -2.274605600
  33    H        7.827283590     5.397851910     3.923611960
  34    H       -0.205023190     0.252781640     0.832611160
  35    H        0.167185570    -1.460003720     0.634038970
  36    H        0.912767360    -0.542767870     1.943236300
  37    H        2.545946340    -0.927249780     0.018709110
  38    H        1.432124430    -0.134335510    -1.087661560
  39    H        1.582496380     2.012986260     0.297192340
  40    H        2.692398970     1.220060660     1.407156010
  41    H        4.322466710     0.776983620    -0.536621710
  42    H        3.202366910     1.576475390    -1.649922680
  43    H        1.932512650     3.606858190    -1.957569740
  44    H        1.356122520     5.992280060    -2.316403400
  45    H        4.504664350     7.255372660     0.364356500
  46    H        5.830653340     1.097360280     1.234412200
  47    H        7.561759150     1.992294400     2.749241010
  48    H        6.367158760     6.061280300     1.863513670
  49    H       12.193043850     4.506186990     4.756703540
  50    H        0.424826050     7.806725370    -0.816518200
  51    H       -0.218847630    10.169296140    -1.230640320
  52    H        3.929787670    11.102528670    -2.110261850
  53    H        4.532253010     8.760357720    -1.706384040
  54    H        2.722289330    12.829861080    -3.245219010
  55    H        1.614304730    13.932999920    -2.373705180
  56    H        3.017730160    13.225750190    -1.517342470


           Empirical Formula: C27 H24 N2 O3  =    56 atoms



      MOLECULAR POINT GROUP   :   C1  


                  EIGENVALUES  
 -40.06776 -39.11071 -38.31506 -37.15917 -36.79096 -36.29380 -35.42764 -35.28508
 -34.44396 -33.03176 -31.77346 -30.65676 -30.03747 -29.94038 -29.01510 -28.02067
 -27.64137 -26.46822 -25.40055 -24.27552 -23.42395 -22.60574 -22.42217 -22.11735
 -21.74856 -21.41344 -20.94935 -20.67533 -19.13070 -18.63552 -18.23669 -18.09574
 -17.85642 -17.14099 -16.69032 -16.57044 -16.23363 -16.20319 -16.17919 -16.05696
 -15.89276 -15.72067 -15.12085 -15.06196 -14.95085 -14.89653 -14.74701 -14.59745
 -14.55498 -14.42240 -14.23943 -14.16167 -14.12492 -13.87652 -13.65159 -13.54484
 -13.33656 -13.26535 -13.08967 -12.97911 -12.84747 -12.75309 -12.54304 -12.38766
 -12.34997 -12.28157 -12.19792 -12.10497 -11.94648 -11.75149 -11.63452 -11.56431
 -11.55301 -10.92911 -10.60604  -9.82738  -9.69286  -9.03347  -8.70927  -8.21649
  -0.81389  -0.22041   0.08611   0.52072   0.54247   0.89917   1.04916   1.30492
   1.46605   1.69265   2.27484   2.46370   2.64216   2.80720   2.86493   3.07157
   3.09850   3.25384   3.51086   3.67083   3.73152   3.75199   3.83884   3.86355
   3.89359   3.93685   3.99818   4.06030   4.10742   4.12448   4.14263   4.18161
   4.23408   4.30505   4.31200   4.42651   4.47576   4.48724   4.53597   4.59883
   4.60770   4.64922   4.68075   4.72479   4.76920   4.79477   4.80880   4.83506
   4.85909   4.96143   5.06398   5.07620   5.09738   5.12056   5.22935   5.29640
   5.31539   5.32781   5.49502   5.52950   5.62367   5.66717   5.72008   5.83590
   5.91528   6.02491   6.08597   6.22846   6.32699   6.33953   6.62215   6.64117


              NET ATOMIC CHARGES AND DIPOLE CONTRIBUTIONS

  ATOM NO.   TYPE          CHARGE      No. of ELECS.   s-Pop       p-Pop       
   21          O          -0.378900        6.3789     1.91034     4.46856
   20          C           0.402148        3.5979     1.18106     2.41679
   22          O          -0.311800        6.3118     1.84000     4.47180
   49          H           0.244079        0.7559     0.75592
   23          C           0.052929        3.9471     1.19501     2.75206
   24          N          -0.150203        5.1502     1.84807     3.30213
    1          C          -0.178598        4.1786     1.15552     3.02308
    2          C          -0.108286        4.1083     1.16560     2.94268
    3          C          -0.166115        4.1661     1.17959     2.98652
    4          C           0.063121        3.9369     1.15815     2.77872
    5          N          -0.285332        5.2853     1.50732     3.77802
    6          C           0.108643        3.8914     1.15251     2.73884
    7          C          -0.161711        4.1617     1.17070     2.99101
    8          C          -0.055676        4.0557     1.17710     2.87857
    9          C          -0.055979        4.0560     1.15975     2.89623
   10          C          -0.040871        4.0409     1.16952     2.87135
   11          C          -0.084560        4.0846     1.15771     2.92685
   12          C          -0.113403        4.1134     1.15927     2.95413
   13          C           0.153878        3.8461     1.15313     2.69299
   14          C          -0.185369        4.1854     1.17154     3.01383
   15          C          -0.005841        4.0058     1.17522     2.83062
   16          C          -0.178730        4.1787     1.16207     3.01666
   17          C           0.013929        3.9861     1.16782     2.81826
   18          C           0.105747        3.8943     1.18528     2.70897
   19          C          -0.147128        4.1471     1.14233     3.00479
   25          C          -0.076371        4.0764     1.15955     2.91682
   26          C          -0.050215        4.0502     1.17633     2.87388
   27          C          -0.163087        4.1631     1.17703     2.98606
   28          C           0.136014        3.8640     1.17134     2.69265
   29          C          -0.216809        4.2168     1.17662     3.04018
   30          C          -0.040459        4.0405     1.17532     2.86514
   31          O          -0.229683        6.2297     1.85989     4.36980
   32          C          -0.016457        4.0165     1.16149     2.85496
   33          H           0.131699        0.8683     0.86830
   34          H           0.061397        0.9386     0.93860
   35          H           0.060701        0.9393     0.93930
   36          H           0.061711        0.9383     0.93829
   37          H           0.061894        0.9381     0.93811
   38          H           0.061377        0.9386     0.93862
   39          H           0.081553        0.9184     0.91845
   40          H           0.080955        0.9190     0.91904
   41          H           0.081013        0.9190     0.91899
   42          H           0.079593        0.9204     0.92041
   43          H           0.119514        0.8805     0.88049
   44          H           0.110881        0.8891     0.88912
   45          H           0.115161        0.8848     0.88484
   46          H           0.126876        0.8731     0.87312
   47          H           0.114047        0.8860     0.88595
   48          H           0.113128        0.8869     0.88687
   50          H           0.109449        0.8906     0.89055
   51          H           0.129272        0.8707     0.87073
   52          H           0.121062        0.8789     0.87894
   53          H           0.108035        0.8920     0.89196
   54          H           0.055200        0.9448     0.94480
   55          H           0.081720        0.9183     0.91828
   56          H           0.054856        0.9451     0.94514
 DIPOLE           X         Y         Z       TOTAL
 POINT-CHG.    -3.958    -0.437    -1.539     4.270
 HYBRID         0.481     0.407     0.589     0.862
 SUM           -3.478    -0.031    -0.951     3.606


          ATOMIC ORBITAL ELECTRON POPULATIONS

     Atom    s        px        py        pz   
    1  C   1.15552   0.98817   1.02819   1.00672
    2  C   1.16560   0.98386   0.96068   0.99814
    3  C   1.17959   0.98654   0.99077   1.00921
    4  C   1.15815   0.96142   0.82558   0.99173
    5  N   1.50732   1.29549   1.06164   1.42088
    6  C   1.15251   0.94594   0.82415   0.96876
    7  C   1.17070   0.99308   0.97628   1.02165
    8  C   1.17710   0.98174   0.92031   0.97653
    9  C   1.15975   0.97421   0.92657   0.99545
   10  C   1.16952   0.95882   0.94528   0.96725
   11  C   1.15771   0.98295   0.93348   1.01041
   12  C   1.15927   1.00177   0.92481   1.02755
   13  C   1.15313   0.88381   0.93385   0.87533
   14  C   1.17154   0.99683   0.99139   1.02561
   15  C   1.17522   0.95179   0.93119   0.94764
   16  C   1.16207   1.01062   0.95255   1.05348
   17  C   1.16782   0.91195   0.97733   0.92897
   18  C   1.18528   0.90239   0.91205   0.89453
   19  C   1.14233   0.95194   1.03359   1.01927
   20  C   1.18106   0.81791   0.79104   0.80785
   21  O   1.91034   1.83154   1.28679   1.35023
   22  O   1.84000   1.22895   1.62696   1.61590
   23  C   1.19501   0.91846   0.91640   0.91720
   24  N   1.84807   1.08687   1.11004   1.10522
   25  C   1.15955   0.94174   0.93078   1.04431
   26  C   1.17633   0.95274   0.95497   0.96617
   27  C   1.17703   0.99404   0.93711   1.05492
   28  C   1.17134   0.91970   0.83605   0.93690
   29  C   1.17662   0.95529   0.98605   1.09884
   30  C   1.17532   0.98141   0.92418   0.95955
   31  O   1.85989   1.36528   1.16535   1.83916
   32  C   1.16149   0.95258   0.90697   0.99541
   33  H   0.86830
   34  H   0.93860
   35  H   0.93930
   36  H   0.93829
   37  H   0.93811
   38  H   0.93862
   39  H   0.91845
   40  H   0.91904
   41  H   0.91899
   42  H   0.92041
   43  H   0.88049
   44  H   0.88912
   45  H   0.88484
   46  H   0.87312
   47  H   0.88595
   48  H   0.88687
   49  H   0.75592
   50  H   0.89055
   51  H   0.87073
   52  H   0.87894
   53  H   0.89196
   54  H   0.94480
   55  H   0.91828
   56  H   0.94514
 ******************** TDHF POLARIZABILITIES ********************



          MOLECULAR WEIGHT =  424.50



          ROTATIONAL CONSTANTS IN CM(-1)

          A =    0.00444916   B =    0.00212877   C =    0.00150121



           PRINCIPAL MOMENTS OF INERTIA IN UNITS OF 10**(-40)*GRAM-CM**2

          A =     6291.7047   B =    13149.7491   C =    18646.8360


 ROTATION MATRIX FOR ORIENTATION OF MOLECULE:

         0.647773    0.604220   -0.464013
        -0.624589    0.769947    0.130654
         0.436210    0.205183    0.876140


          CARTESIAN COORDINATES 

    NO.       ATOM         X         Y         Z

     1         C        1.0288   -6.9389    1.5398
     2         C        1.1617   -6.1565    0.2435
     3         C        0.8620   -4.6789    0.4770
     4         C        1.0022   -3.9000   -0.8391
     5         N        0.7163   -2.4804   -0.6554
     6         C       -0.5772   -1.9290   -0.5309
     7         C       -1.8177   -2.5219   -0.7500
     8         C       -2.9398   -1.7243   -0.5940
     9         C       -2.8350   -0.3741   -0.2304
    10         C       -1.5973    0.2180   -0.0077
    11         C       -0.4638   -0.5643   -0.1536
    12         C        0.9409   -0.2875    0.0082
    13         C        1.6405   -1.4971   -0.2743
    14         C        3.0303   -1.5671   -0.1803
    15         C        3.7071   -0.4112    0.1670
    16         C        3.0250    0.7882    0.4220
    17         C        1.6337    0.8535    0.3624
    18         C        3.7596    1.9871    0.7806
    19         C        4.8704    2.3927    0.1372
    20         C        5.5675    3.6057    0.5843
    21         O        5.2345    4.3397    1.5041
    22         O        6.6802    3.8907   -0.1218
    23         C        5.3951    1.7156   -0.9926
    24         N        5.8252    1.1809   -1.9233
    25         C       -4.0499    0.4212   -0.0841
    26         C       -5.1028   -0.0529    0.7007
    27         C       -6.2580    0.6940    0.8439
    28         C       -6.3544    1.9307    0.1888
    29         C       -5.3121    2.4159   -0.5953
    30         C       -4.1582    1.6494   -0.7247
    31         O       -7.5410    2.5670    0.4095
    32         C       -7.7368    3.8060   -0.2223
    33         H        3.3546    2.5755    1.6182
    34         H        0.0168   -6.8735    1.9649
    35         H        1.2410   -8.0081    1.3944
    36         H        1.7222   -6.5827    2.3153
    37         H        2.1808   -6.2868   -0.1789
    38         H        0.4814   -6.5763   -0.5278
    39         H       -0.1583   -4.5480    0.8963
    40         H        1.5401   -4.2601    1.2502
    41         H        2.0249   -4.0152   -1.2671
    42         H        0.3143   -4.3049   -1.6183
    43         H       -1.9106   -3.5720   -1.0333
    44         H       -3.9304   -2.1572   -0.7686
    45         H       -1.5104    1.2678    0.2842
    46         H        3.5743   -2.4939   -0.3734
    47         H        4.7974   -0.4480    0.2675
    48         H        1.0958    1.7813    0.5774
    49         H        7.1030    4.6977    0.2058
    50         H       -5.0127   -1.0151    1.2147
    51         H       -7.0860    0.3300    1.4592
    52         H       -5.3652    3.3748   -1.1145
    53         H       -3.3358    2.0183   -1.3462
    54         H       -7.7213    3.7423   -1.3229
    55         H       -8.7479    4.1010    0.0989
    56         H       -7.0235    4.5801    0.1056


 ENERGY OF "REORIENTED" SYSTEM WITHOUT FIELD:      -25.9569089227


  NFREQ=  3  IWFLB=  0  IBET=  1  IGAM=  1
  ATOL= 0.10000D-02  BTOL= 0.10000D-02    MAXITU=  500    MAXITA=  150


 *****************************************************************
 CALCULATION OF STATIC FIELD QUANTITIES
 *****************************************************************

 +++++ ALPHA AT       0.00000 EV.

                           COMPONENTS OF ALPHA

                     *X           *Y           *Z
           *=X:     435.8896       5.6161     -27.7943
           *=Y:       5.6196     312.7215      20.4732
           *=Z:     -27.8064      20.4706     134.0220

  ISOTROPIC AVERAGE ALPHA =     294.21104 A.U. =     43.59758 ANG.**3

 +++++ BETA (SECOND HARMONIC GENERATION) AT       0.00000 EV.

                              COMPONENTS OF BETA
            *XX         *XY         *YY         *XZ         *YZ         *ZZ
   *=X -1046.58789 -1526.77037 -1450.21025  -420.45304  -288.68505    30.56603
   *=Y -1526.56198 -1450.35229  -878.86287  -288.69216   -93.24421    13.16847
   *=Z  -420.47219  -288.40784   -93.03936    30.62972    13.22345    36.24302


 AVERAGE BETAX(SHG) VALUE AT   0.00000 EV =      -1479.7706 a.u. = -0.127844E-28 ESU
 AVERAGE BETAY(SHG) VALUE AT   0.00000 EV =      -1435.4152 a.u. = -0.124012E-28 ESU
 AVERAGE BETAZ(SHG) VALUE AT   0.00000 EV =       -286.4354 a.u. = -0.247464E-29 ESU



 AVERAGE BETA (SHG) VALUE AT   0.00000 EV =       2081.3897 a.u. =  0.179820E-28 ESU
   (1 a.u. = 8.639418X10-33 esu)



 +++++ ALPHA AT       0.00000 EV.

                           COMPONENTS OF ALPHA

                     *X           *Y           *Z
           *=X:     435.8896       5.6161     -27.7943
           *=Y:       5.6196     312.7215      20.4732
           *=Z:     -27.8064      20.4706     134.0220

  ISOTROPIC AVERAGE ALPHA =     294.21104 A.U. =     43.59758 ANG.**3


 GAMMA (THIRD HARMONIC GENERATION) AT    0.00000 EV.


 GAMMA(X,X,X,X) =        488524.92434
 GAMMA(Y,Y,Y,Y) =        142701.71244
 GAMMA(Z,Z,Z,Z) =          4410.47219
 GAMMA(X,X,Y,Y) =        192417.43901
 GAMMA(X,X,Z,Z) =          8455.48537
 GAMMA(Y,Y,X,X) =        192417.42372
 GAMMA(Y,Y,Z,Z) =          4957.91174
 GAMMA(Z,Z,X,X) =          8455.46105
 GAMMA(Z,Z,Y,Y) =          4958.05310


 AVERAGE GAMMA VALUE AT    0.00000 =        209459.77659 a.u. =       105498.65971 ESU (X10-39)




 **********************************************************************
 CALCULATION FOR A FREQUENCY OF    0.25000 EV  =       0.00919 A.U. 
                  WAVELENGTH OF    4959.37 NM  =    2016.38525 CM(-1)
 **********************************************************************

 +++++ ALPHA AT       0.25000 EV.

                           COMPONENTS OF ALPHA

                     *X           *Y           *Z
           *=X:     437.2756       5.7554     -27.8363
           *=Y:       5.7587     313.3655      20.4864
           *=Z:     -27.8465      20.4844     134.1503

  ISOTROPIC AVERAGE ALPHA =     294.93046 A.U. =     43.70418 ANG.**3

 +++++ BETA (SECOND HARMONIC GENERATION) AT       0.25000 EV.

                              COMPONENTS OF BETA
            *XX         *XY         *YY         *XZ         *YZ         *ZZ
   *=X -1099.62848 -1590.96494 -1499.94665  -432.89361  -296.70932    31.29029
   *=Y -1575.55304 -1495.01749  -905.03179  -295.29278   -96.18831    13.10575
   *=Z  -426.28522  -291.12372   -93.45752    31.24092    13.54483    36.34139


 AVERAGE BETAX(SHG) VALUE AT   0.25000 EV =      -1539.0190 a.u. = -0.132962E-28 ESU
 AVERAGE BETAY(SHG) VALUE AT   0.25000 EV =      -1486.4766 a.u. = -0.128423E-28 ESU
 AVERAGE BETAZ(SHG) VALUE AT   0.25000 EV =       -293.7765 a.u. = -0.253806E-29 ESU



 AVERAGE BETA (SHG) VALUE AT   0.25000 EV =       2159.7446 a.u. =  0.186589E-28 ESU
   (1 a.u. = 8.639418X10-33 esu)



 +++++ ALPHA AT       0.75000 EV.

                           COMPONENTS OF ALPHA

                     *X           *Y           *Z
           *=X:     448.8801       6.9532     -28.1691
           *=Y:       6.9589     318.6785      20.5969
           *=Z:     -28.1786      20.5952     135.1870

  ISOTROPIC AVERAGE ALPHA =     300.91518 A.U. =     44.59103 ANG.**3


 GAMMA (THIRD HARMONIC GENERATION) AT    0.25000 EV.


 GAMMA(X,X,X,X) =        529217.10491
 GAMMA(Y,Y,Y,Y) =        152386.70115
 GAMMA(Z,Z,Z,Z) =          4496.06328
 GAMMA(X,X,Y,Y) =        210570.75550
 GAMMA(X,X,Z,Z) =          8967.44999
 GAMMA(Y,Y,X,X) =        207579.70092
 GAMMA(Y,Y,Z,Z) =          5183.97170
 GAMMA(Z,Z,X,X) =          8719.90226
 GAMMA(Z,Z,Y,Y) =          5051.36994


 AVERAGE GAMMA VALUE AT    0.25000 =        226434.60393 a.u. =       114048.37538 ESU (X10-39)




 **********************************************************************
 CALCULATION FOR A FREQUENCY OF    0.50000 EV  =       0.01837 A.U. 
                  WAVELENGTH OF    2479.68 NM  =    4032.77050 CM(-1)
 **********************************************************************

 +++++ ALPHA AT       0.50000 EV.

                           COMPONENTS OF ALPHA

                     *X           *Y           *Z
           *=X:     441.5153       6.1854     -27.9583
           *=Y:       6.1901     315.3183      20.5280
           *=Z:     -27.9686      20.5260     134.5356

  ISOTROPIC AVERAGE ALPHA =     297.12310 A.U. =     44.02910 ANG.**3

 +++++ BETA (SECOND HARMONIC GENERATION) AT       0.50000 EV.

                              COMPONENTS OF BETA
            *XX         *XY         *YY         *XZ         *YZ         *ZZ
   *=X -1282.79047 -1811.10826 -1668.56787  -474.72844  -323.87641    33.57433
   *=Y -1738.98942 -1644.40551  -992.49284  -317.21766  -106.08619    12.81297
   *=Z  -444.20534  -298.94361   -94.11961    33.25720    14.62991    36.62466


 AVERAGE BETAX(SHG) VALUE AT   0.50000 EV =      -1741.1323 a.u. = -0.150424E-28 ESU
 AVERAGE BETAY(SHG) VALUE AT   0.50000 EV =      -1659.3223 a.u. = -0.143356E-28 ESU
 AVERAGE BETAZ(SHG) VALUE AT   0.50000 EV =       -318.0160 a.u. = -0.274747E-29 ESU



 AVERAGE BETA (SHG) VALUE AT   0.50000 EV =       2426.1135 a.u. =  0.209602E-28 ESU
   (1 a.u. = 8.639418X10-33 esu)



 +++++ ALPHA AT       1.50000 EV.

                           COMPONENTS OF ALPHA

                     *X           *Y           *Z
           *=X:     497.0789      12.5724     -29.4952
           *=Y:      12.5857     339.5723      20.9592
           *=Z:     -29.5132      20.9562     138.9167

  ISOTROPIC AVERAGE ALPHA =     325.18933 A.U. =     48.18809 ANG.**3


 GAMMA (THIRD HARMONIC GENERATION) AT    0.50000 EV.


 GAMMA(X,X,X,X) =        692638.46079
 GAMMA(Y,Y,Y,Y) =        190225.06896
 GAMMA(Z,Z,Z,Z) =          4775.71078
 GAMMA(X,X,Y,Y) =        286180.17563
 GAMMA(X,X,Z,Z) =         10935.84997
 GAMMA(Y,Y,X,X) =        266878.42162
 GAMMA(Y,Y,Z,Z) =          6043.27811
 GAMMA(Z,Z,X,X) =          9581.26160
 GAMMA(Z,Z,Y,Y) =          5310.92108


 AVERAGE GAMMA VALUE AT    0.50000 =        294513.82971 a.u. =       148337.85659 ESU (X10-39)



 **********************
 *                    *
 * JOB ENDED NORMALLY *
 *                    *
 **********************



 TOTAL JOB TIME:            34.37 SECONDS

 == MOPAC DONE ==
