 *******************************************************************************
 ** Site#: 4824         For non-commercial use only    Version 21.013L 64BITS **
 *******************************************************************************
 ** Cite this program as: MOPAC2016, Version: 21.013L, James J. P. Stewart,   **
 ** Stewart Computational Chemistry, web: HTTP://OpenMOPAC.net. Days left:  89**
 *******************************************************************************
 **                                                                           **
 **                                MOPAC2016                                  **
 **                                                                           **
 *******************************************************************************

                              RM1 CALCULATION RESULTS

 *******************************************************************************
 *  CALCULATION DONE:                                Sat Oct 16 15:45:08 2021  *
 *  RM1        - The RM1 Hamiltonian to be used
 *  POLAR      - CALCULATE FIRST, SECOND AND THIRD-ORDER POLARIZABILITIES
 *  PRECISE    - TIGHTER CRITERIA TO BE USED
 *  T=         - A TIME OF 172800.0 SECONDS REQUESTED
 *  DUMP=N     - RESTART FILE WRITTEN EVERY 7200.0 SECONDS REQUESTED
 *  GNORM      - EXIT WHEN GRADIENT NORM DROPS BELOW 0.100
 *******************************************************************************
RM1 PRECISE POLAR GNORM=0.1


  ATOM    CHEMICAL      BOND LENGTH      BOND ANGLE     TWIST ANGLE 
 NUMBER    SYMBOL       (ANGSTROMS)      (DEGREES)       (DEGREES) 
   (I)                     NA:I           NB:NA:I       NC:NB:NA:I       NA    NB    NC 
     1       N          0.00000000       0.0000000       0.0000000        0     0     0
     2       C          1.15920000  *    0.0000000       0.0000000        1     0     0
     3       C          1.31760000  *  178.0339000  *    0.0000000        2     1     0
     4       C          1.35060000  *  123.6715000  * -179.8199000  *     3     2     1
     5       C          1.35270000  *  131.8413000  *    0.0641000  *     4     3     2
     6       C          1.34330000  *  126.9097000  *    0.3668000  *     5     4     3
     7       C          1.34440000  *  122.6020000  * -179.8558000  *     6     5     4
     8       C          1.34990000  *  124.1571000  *   -0.0839000  *     7     6     5
     9       C          1.35110000  *  112.4794000  *   -0.3800000  *     8     7     6
    10       C          1.34330000  *  123.8642000  *    0.5978000  *     9     8     7
    11       C          1.36370000  *  124.5854000  *  179.9134000  *     8     7     6
    12       C          1.35460000  *  120.9090000  *  164.1857000  *    11     8     7
    13       C          1.34300000  *  124.4223000  * -179.5038000  *    12    11     8
    14       C          1.33820000  *  120.4115000  *   -0.2766000  *    13    12    11
    15       C          1.33840000  *  117.5737000  *   -0.1164000  *    14    13    12
    16       C          1.35590000  *  125.3415000  *  -15.6968000  *    11     8     7
    17       N          1.35580000  *  123.6894000  *  178.0861000  *    16    11    12
    18       S          1.76150000  *  108.2270000  * -179.4665000  *    17    16    11
    19       N          1.35620000  *  119.6637000  * -179.3622000  *    15    14    13
    20       C          1.31560000  *  120.7911000  * -179.9122000  *    14    13    12
    21       C          1.21230000  *  179.4874000  *   50.3948000  *    20    14    13
    22       C          1.31590000  *  179.4513000  *   51.2065000  *    21    20    13
    23       C          1.34350000  *  120.0407000  *  107.3949000  *    22    21    13
    24       C          1.34230000  *  120.1860000  * -179.7060000  *    23    22    21
    25       C          1.34350000  *  119.9023000  *   -0.0796000  *    24    23    22
    26       C          1.34280000  *  120.0370000  *    0.1448000  *    25    24    23
    27       C          1.34240000  *  119.9592000  *   -0.1567000  *    26    25    24
    28       N          1.34540000  *  120.9432000  *  179.6074000  *    25    24    23
    29       C          1.34690000  *  121.3042000  * -114.1825000  *    28    25    26
    30       C          1.33920000  *  128.2234000  *   40.1049000  *    29    28    25
    31       C          1.34410000  *  117.8466000  *  179.1259000  *    30    29    28
    32       C          1.34540000  *  120.8742000  *   -0.7569000  *    31    30    29
    33       C          1.34430000  *  120.9463000  *   -0.3321000  *    32    31    30
    34       C          1.33890000  *  118.0187000  *    0.4347000  *    33    32    31
    35       C          1.33880000  *  131.8139000  * -179.2559000  *    34    33    32
    36       C          1.34100000  *  107.2270000  *  179.8366000  *    35    34    33
    37       C          1.33920000  *  121.3468000  * -178.1787000  *    36    35    34
    38       C          1.34410000  *  117.8619000  *   -1.7311000  *    37    36    35
    39       C          1.34540000  *  120.8568000  *    0.7262000  *    38    37    36
    40       C          1.33880000  *  131.8376000  *    0.0000000  *    35    34    33
    41       C          1.36540000  *  116.9945000  * -179.9356000  *     3     2     4
    42       O          1.21080000  *  123.0479000  * -179.8897000  *    41     3     2
    43       O          1.33650000  *  120.8976000  *    0.0000000  *    41     3     2
    44       H          1.10300000  *  114.7158000  * -179.8835000  *     4     3     2
    45       H          1.09790000  *  121.5609000  * -178.7324000  *     6     5    10
    46       H          1.09770000  *  113.3757000  * -177.3554000  *     7     6     5
    47       H          1.10020000  *  122.6401000  *  177.9642000  *     9     8     7
    48       H          1.10540000  *  116.7525000  *  178.9505000  *    10     9     8
    49       H          1.09980000  *  122.8571000  *  177.8258000  *    12    11    16
    50       H          1.10520000  *  119.7694000  *  179.1258000  *    13    12    11
    51       H          1.10440000  *  120.5429000  *    0.1072000  *    23    22    21
    52       H          1.10400000  *  119.5409000  *  179.7973000  *    24    23    22
    53       H          1.10400000  *  120.2812000  *  179.7111000  *    26    25    24
    54       H          1.10440000  *  119.3151000  *  179.9107000  *    27    26    25
    55       H          1.10320000  *  121.1948000  * -178.3634000  *    30    29    34
    56       H          1.10380000  *  119.4854000  *  179.5801000  *    31    30    29
    57       H          1.10380000  *  119.5891000  * -179.7589000  *    32    31    30
    58       H          1.10300000  *  120.6663000  * -179.3032000  *    33    32    31
    59       H          1.10320000  *  121.2113000  *  178.4006000  *    37    36    35
    60       H          1.10380000  *  119.4764000  * -179.5922000  *    38    37    36
    61       H          1.10380000  *  119.5823000  *  179.7817000  *    39    38    37
    62       H          1.10300000  *  121.3178000  *   -0.4780000  *    40    35    34
    63       H          0.97160000  *  106.7221000  *   -0.0817000  *    43    41    42
 


          CARTESIAN COORDINATES 

    NO.       ATOM           X           Y           Z

     1         N          0.0000      0.0000      0.0000
     2         C          1.1592      0.0000      0.0000
     3         C          2.4760      0.0452      0.0000
     4         C          3.2630     -1.0524     -0.0035
     5         C          2.9697     -2.3730     -0.0088
     6         C          1.7463     -2.9276     -0.0187
     7         C          1.5542     -4.2582     -0.0204
     8         C          2.5515     -5.1680     -0.0141
     9         C          3.7745     -4.5938     -0.0141
    10         C          3.9781     -3.2660     -0.0081
    11         C          2.3667     -6.5191     -0.0141
    12         C          3.3821     -7.3603     -0.3244
    13         C          3.2766     -8.6987     -0.3556
    14         C          2.1139     -9.2936     -0.0638
    15         C          1.0794     -8.5075      0.2574
    16         C          1.2038     -7.1517      0.2791
    17         N          0.0709     -6.5076      0.6530
    18         S         -1.1777     -7.7149      0.9471
    19         N         -0.1154     -9.0662      0.5733
    20         C          2.0026    -10.6042     -0.0904
    21         C          1.9089    -11.8127     -0.1087
    22         C          1.8172    -13.1253     -0.1210
    23         C          1.6922    -13.8017      1.0331
    24         C          1.6045    -15.1411      1.0243
    25         C          1.6401    -15.8070     -0.1420
    26         C          1.7663    -15.1336     -1.2969
    27         C          1.8537    -13.7941     -1.2857
    28         N          1.5617    -17.1497     -0.1747
    29         C          0.4404    -17.7946      0.2009
    30         C         -0.8318    -17.4568     -0.0457
    31         C         -1.7980    -18.2683      0.4174
    32         C         -1.4918    -19.3909      1.0928
    33         C         -0.2118    -19.7351      1.3174
    34         C          0.7480    -18.9232      0.8567
    35         C          2.0835    -18.9999      0.9099
    36         C          2.5687    -17.9168      0.2856
    37         C          3.8866    -17.7271      0.1424
    38         C          4.7145    -18.6414      0.6765
    39         C          4.2297    -19.7186      1.3205
    40         C          2.9051    -19.9137      1.4413
    41         C          3.0537      1.2824      0.0052
    42         O          4.2526      1.4513      0.0038
    43         O          2.3049      2.3894      0.0100
    44         H          4.3460     -0.8435     -0.0010
    45         H          0.8368     -2.3130     -0.0411
    46         H          0.4962     -4.5455     -0.0755
    47         H          4.7050     -5.1796      0.0235
    48         H          5.0290     -2.9239      0.0093
    49         H          4.3807     -7.0067     -0.6200
    50         H          4.1530     -9.3120     -0.6337
    51         H          1.6636    -13.2650      1.9979
    52         H          1.5054    -15.6864      1.9791
    53         H          1.8008    -15.6771     -2.2572
    54         H          1.9587    -13.2511     -2.2417
    55         H         -1.0811    -16.5413     -0.6087
    56         H         -2.8561    -18.0121      0.2356
    57         H         -2.3021    -20.0441      1.4602
    58         H          0.0341    -20.6623      1.8618
    59         H          4.2827    -16.8484     -0.3944
    60         H          5.8060    -18.5079      0.5801
    61         H          4.9287    -20.4582      1.7480
    62         H          2.5129    -20.8044      1.9603
    63         H          2.9190      3.1423      0.0128

  H: (RM1): G.B. ROCHA, R.O. FREIRE, A.M.SIMAS, J.J.P. STEWART, J. COMP. CHEM. 27, 1101 (2006)
  C: (RM1): G.B. ROCHA, R.O. FREIRE, A.M.SIMAS, J.J.P. STEWART, J. COMP. CHEM. 27, 1101 (2006)
  N: (RM1): G.B. ROCHA, R.O. FREIRE, A.M.SIMAS, J.J.P. STEWART, J. COMP. CHEM. 27, 1101 (2006)
  O: (RM1): G.B. ROCHA, R.O. FREIRE, A.M.SIMAS, J.J.P. STEWART, J. COMP. CHEM. 27, 1101 (2006)
  S: (RM1): G.B. ROCHA, R.O. FREIRE, A.M.SIMAS, J.J.P. STEWART, J. COMP. CHEM. 27, 1101 (2006)

           Empirical Formula: C36 H20 N4 O2 S  =    63 atoms



      MOLECULAR POINT GROUP   :   C1  


      RHF CALCULATION, NO. OF DOUBLY OCCUPIED LEVELS = 101


          Geometry optimization using L-BFGS
 CYCLE:     1 TIME:   0.203 TIME LEFT:  2.00D  GRAD.:  1937.691 HEAT:  344.1082
 CYCLE:     2 TIME:   0.117 TIME LEFT:  2.00D  GRAD.:   944.702 HEAT:  319.9249
 CYCLE:     3 TIME:   0.129 TIME LEFT:  2.00D  GRAD.:   782.730 HEAT:  304.6331
 CYCLE:     4 TIME:   0.125 TIME LEFT:  2.00D  GRAD.:   945.514 HEAT:  319.9248
 CYCLE:     5 TIME:   0.133 TIME LEFT:  2.00D  GRAD.:   782.803 HEAT:  304.6259
 CYCLE:     6 TIME:   0.129 TIME LEFT:  2.00D  GRAD.:   831.695 HEAT:  277.3504
 CYCLE:     7 TIME:   0.129 TIME LEFT:  2.00D  GRAD.:   930.750 HEAT:  245.2544
 CYCLE:     8 TIME:   0.129 TIME LEFT:  2.00D  GRAD.:  2614.846 HEAT:  234.7034
 CYCLE:     9 TIME:   0.133 TIME LEFT:  2.00D  GRAD.:   479.479 HEAT:  196.2193
 CYCLE:    10 TIME:   0.129 TIME LEFT:  2.00D  GRAD.:   255.848 HEAT:  191.2835
 CYCLE:    11 TIME:   0.141 TIME LEFT:  2.00D  GRAD.:   195.120 HEAT:  189.0810
 CYCLE:    12 TIME:   0.113 TIME LEFT:  2.00D  GRAD.:   133.933 HEAT:  187.6897
 CYCLE:    13 TIME:   0.117 TIME LEFT:  2.00D  GRAD.:   113.684 HEAT:  185.9118
 CYCLE:    14 TIME:   0.125 TIME LEFT:  2.00D  GRAD.:   131.466 HEAT:  184.3680
 CYCLE:    15 TIME:   0.137 TIME LEFT:  2.00D  GRAD.:   135.494 HEAT:  182.9979
 CYCLE:    16 TIME:   0.137 TIME LEFT:  2.00D  GRAD.:   107.432 HEAT:  182.3371
 CYCLE:    17 TIME:   0.105 TIME LEFT:  2.00D  GRAD.:    75.197 HEAT:  181.9419
 CYCLE:    18 TIME:   0.113 TIME LEFT:  2.00D  GRAD.:   118.120 HEAT:  181.5017
 CYCLE:    19 TIME:   0.125 TIME LEFT:  2.00D  GRAD.:    86.305 HEAT:  181.1821
 CYCLE:    20 TIME:   0.113 TIME LEFT:  2.00D  GRAD.:    79.847 HEAT:  180.6270
 CYCLE:    21 TIME:   0.117 TIME LEFT:  2.00D  GRAD.:    54.794 HEAT:  180.2087
 CYCLE:    22 TIME:   0.129 TIME LEFT:  2.00D  GRAD.:    71.190 HEAT:  179.7734
 CYCLE:    23 TIME:   0.133 TIME LEFT:  2.00D  GRAD.:   379.583 HEAT:  180.8251
 CYCLE:    24 TIME:   0.121 TIME LEFT:  2.00D  GRAD.:    51.520 HEAT:  179.3206
 CYCLE:    25 TIME:   0.102 TIME LEFT:  2.00D  GRAD.:    38.849 HEAT:  179.2071
 CYCLE:    26 TIME:   0.109 TIME LEFT:  2.00D  GRAD.:    28.958 HEAT:  178.9879
 CYCLE:    27 TIME:   0.102 TIME LEFT:  2.00D  GRAD.:    30.358 HEAT:  178.8267
 CYCLE:    28 TIME:   0.113 TIME LEFT:  2.00D  GRAD.:   100.455 HEAT:  178.8843
 CYCLE:    29 TIME:   0.109 TIME LEFT:  2.00D  GRAD.:    18.076 HEAT:  178.6278
 CYCLE:    30 TIME:   0.098 TIME LEFT:  2.00D  GRAD.:    16.821 HEAT:  178.6070
 CYCLE:    31 TIME:   0.109 TIME LEFT:  2.00D  GRAD.:    36.659 HEAT:  178.5168
 CYCLE:    32 TIME:   0.105 TIME LEFT:  2.00D  GRAD.:    53.972 HEAT:  178.4516
 CYCLE:    33 TIME:   0.105 TIME LEFT:  2.00D  GRAD.:    35.002 HEAT:  178.3863
 CYCLE:    34 TIME:   0.105 TIME LEFT:  2.00D  GRAD.:    19.040 HEAT:  178.3529
 CYCLE:    35 TIME:   0.098 TIME LEFT:  2.00D  GRAD.:    15.867 HEAT:  178.3264
 CYCLE:    36 TIME:   0.105 TIME LEFT:  2.00D  GRAD.:    18.874 HEAT:  178.2790
 CYCLE:    37 TIME:   0.117 TIME LEFT:  2.00D  GRAD.:    36.649 HEAT:  178.2151
 CYCLE:    38 TIME:   0.105 TIME LEFT:  2.00D  GRAD.:    96.174 HEAT:  178.2554
 CYCLE:    39 TIME:   0.105 TIME LEFT:  2.00D  GRAD.:    17.952 HEAT:  178.1702
 CYCLE:    40 TIME:   0.098 TIME LEFT:  2.00D  GRAD.:    12.179 HEAT:  178.1611
 CYCLE:    41 TIME:   0.102 TIME LEFT:  2.00D  GRAD.:    13.780 HEAT:  178.1474
 CYCLE:    42 TIME:   0.102 TIME LEFT:  2.00D  GRAD.:    16.894 HEAT:  178.1280
 CYCLE:    43 TIME:   0.105 TIME LEFT:  2.00D  GRAD.:    17.062 HEAT:  178.0883
 CYCLE:    44 TIME:   0.109 TIME LEFT:  2.00D  GRAD.:    51.058 HEAT:  178.1148
 CYCLE:    45 TIME:   0.105 TIME LEFT:  2.00D  GRAD.:    13.932 HEAT:  178.0631
 CYCLE:    46 TIME:   0.102 TIME LEFT:  2.00D  GRAD.:    11.682 HEAT:  178.0521
 CYCLE:    47 TIME:   0.105 TIME LEFT:  2.00D  GRAD.:    33.881 HEAT:  178.0471
 CYCLE:    48 TIME:   0.098 TIME LEFT:  2.00D  GRAD.:    15.178 HEAT:  178.0351
 CYCLE:    49 TIME:   0.102 TIME LEFT:  2.00D  GRAD.:    13.449 HEAT:  178.0197
 CYCLE:    50 TIME:   0.102 TIME LEFT:  2.00D  GRAD.:    19.069 HEAT:  178.0001
 CYCLE:    51 TIME:   0.109 TIME LEFT:  2.00D  GRAD.:    22.552 HEAT:  177.9756
 CYCLE:    52 TIME:   0.102 TIME LEFT:  2.00D  GRAD.:    63.385 HEAT:  177.9659
 CYCLE:    53 TIME:   0.102 TIME LEFT:  2.00D  GRAD.:    25.504 HEAT:  177.9244
 CYCLE:    54 TIME:   0.109 TIME LEFT:  2.00D  GRAD.:    16.929 HEAT:  177.8921
 CYCLE:    55 TIME:   0.109 TIME LEFT:  2.00D  GRAD.:    22.814 HEAT:  177.8666
 CYCLE:    56 TIME:   0.105 TIME LEFT:  2.00D  GRAD.:    20.493 HEAT:  177.8266
 CYCLE:    57 TIME:   0.109 TIME LEFT:  2.00D  GRAD.:    19.984 HEAT:  177.7782
 CYCLE:    58 TIME:   0.109 TIME LEFT:  2.00D  GRAD.:    36.429 HEAT:  177.7311
 CYCLE:    59 TIME:   0.105 TIME LEFT:  2.00D  GRAD.:    36.394 HEAT:  177.6626
 CYCLE:    60 TIME:   0.109 TIME LEFT:  2.00D  GRAD.:    32.244 HEAT:  177.5943
 CYCLE:    61 TIME:   0.109 TIME LEFT:  2.00D  GRAD.:    58.066 HEAT:  177.5474
 CYCLE:    62 TIME:   0.113 TIME LEFT:  2.00D  GRAD.:    43.932 HEAT:  177.5029
 CYCLE:    63 TIME:   0.109 TIME LEFT:  2.00D  GRAD.:    87.255 HEAT:  177.5395
 CYCLE:    64 TIME:   0.113 TIME LEFT:  2.00D  GRAD.:    50.790 HEAT:  177.3730
 CYCLE:    65 TIME:   0.117 TIME LEFT:  2.00D  GRAD.:    78.452 HEAT:  177.3427
 CYCLE:    66 TIME:   0.109 TIME LEFT:  2.00D  GRAD.:  1013.279 HEAT:  183.9892
 CYCLE:    67 TIME:   0.121 TIME LEFT:  2.00D  GRAD.:   566.877 HEAT:  180.4910
 CYCLE:    68 TIME:   0.117 TIME LEFT:  2.00D  GRAD.:   297.442 HEAT:  178.1052
 CYCLE:    69 TIME:   0.117 TIME LEFT:  2.00D  GRAD.:    62.994 HEAT:  176.7826
 CYCLE:    70 TIME:   0.117 TIME LEFT:  2.00D  GRAD.:   223.574 HEAT:  177.3888
 CYCLE:    71 TIME:   0.117 TIME LEFT:  2.00D  GRAD.:    57.998 HEAT:  176.6239
 CYCLE:    72 TIME:   0.117 TIME LEFT:  2.00D  GRAD.:   193.635 HEAT:  177.3494
 CYCLE:    73 TIME:   0.117 TIME LEFT:  2.00D  GRAD.:   191.784 HEAT:  177.1107
 CYCLE:    74 TIME:   0.113 TIME LEFT:  2.00D  GRAD.:    62.464 HEAT:  176.4844
 CYCLE:    75 TIME:   0.117 TIME LEFT:  2.00D  GRAD.:   128.647 HEAT:  176.9673
 CYCLE:    76 TIME:   0.117 TIME LEFT:  2.00D  GRAD.:    24.713 HEAT:  176.3347
 CYCLE:    77 TIME:   0.113 TIME LEFT:  2.00D  GRAD.:    40.522 HEAT:  176.3098
 CYCLE:    78 TIME:   0.109 TIME LEFT:  2.00D  GRAD.:    30.508 HEAT:  176.2080
 CYCLE:    79 TIME:   0.117 TIME LEFT:  2.00D  GRAD.:    55.104 HEAT:  175.9408
 CYCLE:    80 TIME:   0.121 TIME LEFT:  2.00D  GRAD.:   122.293 HEAT:  175.8205
 CYCLE:    81 TIME:   0.109 TIME LEFT:  2.00D  GRAD.:    32.794 HEAT:  175.6986
 CYCLE:    82 TIME:   0.109 TIME LEFT:  2.00D  GRAD.:    25.143 HEAT:  175.6803
 CYCLE:    83 TIME:   0.102 TIME LEFT:  2.00D  GRAD.:    22.290 HEAT:  175.6070
 CYCLE:    84 TIME:   0.105 TIME LEFT:  2.00D  GRAD.:    38.497 HEAT:  175.4532
 CYCLE:    85 TIME:   0.109 TIME LEFT:  2.00D  GRAD.:    37.781 HEAT:  175.3225
 CYCLE:    86 TIME:   0.113 TIME LEFT:  2.00D  GRAD.:    59.624 HEAT:  175.2049
 CYCLE:    87 TIME:   0.109 TIME LEFT:  2.00D  GRAD.:    41.587 HEAT:  175.0722
 CYCLE:    88 TIME:   0.109 TIME LEFT:  2.00D  GRAD.:    26.154 HEAT:  174.9772
 CYCLE:    89 TIME:   0.105 TIME LEFT:  2.00D  GRAD.:    31.009 HEAT:  174.9097
 CYCLE:    90 TIME:   0.109 TIME LEFT:  2.00D  GRAD.:    33.908 HEAT:  174.8289
 CYCLE:    91 TIME:   0.109 TIME LEFT:  2.00D  GRAD.:    31.245 HEAT:  174.7581
 CYCLE:    92 TIME:   0.109 TIME LEFT:  2.00D  GRAD.:    28.298 HEAT:  174.6511
 CYCLE:    93 TIME:   0.105 TIME LEFT:  2.00D  GRAD.:   117.124 HEAT:  174.8150
 CYCLE:    94 TIME:   0.117 TIME LEFT:  2.00D  GRAD.:    20.438 HEAT:  174.5767
 CYCLE:    95 TIME:   0.105 TIME LEFT:  2.00D  GRAD.:    19.267 HEAT:  174.5538
 CYCLE:    96 TIME:   0.109 TIME LEFT:  2.00D  GRAD.:    32.716 HEAT:  174.4672
 CYCLE:    97 TIME:   0.117 TIME LEFT:  2.00D  GRAD.:    30.978 HEAT:  174.3806
 CYCLE:    98 TIME:   0.109 TIME LEFT:  2.00D  GRAD.:    34.402 HEAT:  174.1831
 CYCLE:    99 TIME:   0.121 TIME LEFT:  2.00D  GRAD.:    48.447 HEAT:  174.0567
 CYCLE:   100 TIME:   0.117 TIME LEFT:  2.00D  GRAD.:    35.132 HEAT:  173.9675
 CYCLE:   101 TIME:   0.113 TIME LEFT:  2.00D  GRAD.:    24.716 HEAT:  173.8599
 CYCLE:   102 TIME:   0.113 TIME LEFT:  2.00D  GRAD.:    73.681 HEAT:  173.6906
 CYCLE:   103 TIME:   0.105 TIME LEFT:  2.00D  GRAD.:    58.008 HEAT:  173.5880
 CYCLE:   104 TIME:   0.109 TIME LEFT:  2.00D  GRAD.:    23.550 HEAT:  173.5414
 CYCLE:   105 TIME:   0.102 TIME LEFT:  2.00D  GRAD.:    22.658 HEAT:  173.5169
 CYCLE:   106 TIME:   0.105 TIME LEFT:  2.00D  GRAD.:    31.020 HEAT:  173.4845
 CYCLE:   107 TIME:   0.109 TIME LEFT:  2.00D  GRAD.:    39.949 HEAT:  173.4109
 CYCLE:   108 TIME:   0.105 TIME LEFT:  2.00D  GRAD.:    94.918 HEAT:  173.4082
 CYCLE:   109 TIME:   0.105 TIME LEFT:  2.00D  GRAD.:    30.736 HEAT:  173.3237
 CYCLE:   110 TIME:   0.102 TIME LEFT:  2.00D  GRAD.:    20.035 HEAT:  173.2974
 CYCLE:   111 TIME:   0.105 TIME LEFT:  2.00D  GRAD.:    28.639 HEAT:  173.2675
 CYCLE:   112 TIME:   0.109 TIME LEFT:  2.00D  GRAD.:    37.806 HEAT:  173.2197
 CYCLE:   113 TIME:   0.105 TIME LEFT:  2.00D  GRAD.:    49.028 HEAT:  173.1194
 CYCLE:   114 TIME:   0.109 TIME LEFT:  2.00D  GRAD.:    43.140 HEAT:  173.0555
 CYCLE:   115 TIME:   0.113 TIME LEFT:  2.00D  GRAD.:   117.079 HEAT:  173.1355
 CYCLE:   116 TIME:   0.109 TIME LEFT:  2.00D  GRAD.:    57.018 HEAT:  172.9348
 CYCLE:   117 TIME:   0.109 TIME LEFT:  2.00D  GRAD.:    18.529 HEAT:  172.8808
 CYCLE:   118 TIME:   0.105 TIME LEFT:  2.00D  GRAD.:    22.717 HEAT:  172.8621
 CYCLE:   119 TIME:   0.109 TIME LEFT:  2.00D  GRAD.:    25.426 HEAT:  172.7978
 CYCLE:   120 TIME:   0.117 TIME LEFT:  2.00D  GRAD.:    75.948 HEAT:  172.7806
 CYCLE:   121 TIME:   0.105 TIME LEFT:  2.00D  GRAD.:    27.325 HEAT:  172.6603
 CYCLE:   122 TIME:   0.109 TIME LEFT:  2.00D  GRAD.:    18.047 HEAT:  172.6266
 CYCLE:   123 TIME:   0.102 TIME LEFT:  2.00D  GRAD.:    23.131 HEAT:  172.5886
 CYCLE:   124 TIME:   0.109 TIME LEFT:  2.00D  GRAD.:    35.583 HEAT:  172.5471
 CYCLE:   125 TIME:   0.105 TIME LEFT:  2.00D  GRAD.:    29.281 HEAT:  172.4906
 CYCLE:   126 TIME:   0.125 TIME LEFT:  2.00D  GRAD.:    27.531 HEAT:  172.3904
 CYCLE:   127 TIME:   0.105 TIME LEFT:  2.00D  GRAD.:    25.986 HEAT:  172.2907
 CYCLE:   128 TIME:   0.105 TIME LEFT:  2.00D  GRAD.:    40.423 HEAT:  172.2069
 CYCLE:   129 TIME:   0.105 TIME LEFT:  2.00D  GRAD.:    21.464 HEAT:  172.1311
 CYCLE:   130 TIME:   0.109 TIME LEFT:  2.00D  GRAD.:    22.184 HEAT:  172.0597
 CYCLE:   131 TIME:   0.105 TIME LEFT:  2.00D  GRAD.:    97.878 HEAT:  172.0746
 CYCLE:   132 TIME:   0.105 TIME LEFT:  2.00D  GRAD.:    23.689 HEAT:  172.0070
 CYCLE:   133 TIME:   0.105 TIME LEFT:  2.00D  GRAD.:    19.834 HEAT:  171.9874
 CYCLE:   134 TIME:   0.105 TIME LEFT:  2.00D  GRAD.:    22.002 HEAT:  171.9461
 CYCLE:   135 TIME:   0.113 TIME LEFT:  2.00D  GRAD.:    33.250 HEAT:  171.8696
 CYCLE:   136 TIME:   0.137 TIME LEFT:  2.00D  GRAD.:    37.685 HEAT:  171.8409
 CYCLE:   137 TIME:   0.160 TIME LEFT:  2.00D  GRAD.:    17.527 HEAT:  171.8157
 CYCLE:   138 TIME:   0.117 TIME LEFT:  2.00D  GRAD.:    19.036 HEAT:  171.7875
 CYCLE:   139 TIME:   0.129 TIME LEFT:  2.00D  GRAD.:    25.131 HEAT:  171.7490
 CYCLE:   140 TIME:   0.109 TIME LEFT:  2.00D  GRAD.:    45.835 HEAT:  171.7038
 CYCLE:   141 TIME:   0.109 TIME LEFT:  2.00D  GRAD.:    33.968 HEAT:  171.6594
 CYCLE:   142 TIME:   0.102 TIME LEFT:  2.00D  GRAD.:    21.358 HEAT:  171.6414
 CYCLE:   143 TIME:   0.113 TIME LEFT:  2.00D  GRAD.:    35.188 HEAT:  171.6065
 CYCLE:   144 TIME:   0.098 TIME LEFT:  2.00D  GRAD.:    23.380 HEAT:  171.5776
 CYCLE:   145 TIME:   0.113 TIME LEFT:  2.00D  GRAD.:    27.066 HEAT:  171.4829
 CYCLE:   146 TIME:   0.109 TIME LEFT:  2.00D  GRAD.:    50.806 HEAT:  171.4490
 CYCLE:   147 TIME:   0.109 TIME LEFT:  2.00D  GRAD.:    29.078 HEAT:  171.4141
 CYCLE:   148 TIME:   0.105 TIME LEFT:  2.00D  GRAD.:    23.108 HEAT:  171.3858
 CYCLE:   149 TIME:   0.109 TIME LEFT:  2.00D  GRAD.:    26.908 HEAT:  171.3372
 CYCLE:   150 TIME:   0.113 TIME LEFT:  2.00D  GRAD.:    35.896 HEAT:  171.2603
 CYCLE:   151 TIME:   0.109 TIME LEFT:  2.00D  GRAD.:    31.133 HEAT:  171.1895
 CYCLE:   152 TIME:   0.109 TIME LEFT:  2.00D  GRAD.:    40.742 HEAT:  171.1322
 CYCLE:   153 TIME:   0.105 TIME LEFT:  2.00D  GRAD.:    16.075 HEAT:  171.0845
 CYCLE:   154 TIME:   0.105 TIME LEFT:  2.00D  GRAD.:    17.920 HEAT:  171.0568
 CYCLE:   155 TIME:   0.109 TIME LEFT:  2.00D  GRAD.:    20.348 HEAT:  171.0099
 CYCLE:   156 TIME:   0.117 TIME LEFT:  2.00D  GRAD.:    54.338 HEAT:  170.9856
 CYCLE:   157 TIME:   0.109 TIME LEFT:  2.00D  GRAD.:    19.428 HEAT:  170.9483
 CYCLE:   158 TIME:   0.102 TIME LEFT:  2.00D  GRAD.:    17.326 HEAT:  170.9297
 CYCLE:   159 TIME:   0.109 TIME LEFT:  2.00D  GRAD.:    26.639 HEAT:  170.9039
 CYCLE:   160 TIME:   0.109 TIME LEFT:  2.00D  GRAD.:    30.471 HEAT:  170.8623
 CYCLE:   161 TIME:   0.113 TIME LEFT:  2.00D  GRAD.:   116.088 HEAT:  170.8763
 CYCLE:   162 TIME:   0.105 TIME LEFT:  2.00D  GRAD.:    25.603 HEAT:  170.7974
 CYCLE:   163 TIME:   0.105 TIME LEFT:  2.00D  GRAD.:    14.598 HEAT:  170.7843
 CYCLE:   164 TIME:   0.109 TIME LEFT:  2.00D  GRAD.:    31.232 HEAT:  170.7633
 CYCLE:   165 TIME:   0.105 TIME LEFT:  2.00D  GRAD.:    29.000 HEAT:  170.7485
 CYCLE:   166 TIME:   0.113 TIME LEFT:  2.00D  GRAD.:    79.513 HEAT:  170.7551
 CYCLE:   167 TIME:   0.105 TIME LEFT:  2.00D  GRAD.:    12.199 HEAT:  170.6861
 CYCLE:   168 TIME:   0.102 TIME LEFT:  2.00D  GRAD.:    13.402 HEAT:  170.6721
 CYCLE:   169 TIME:   0.105 TIME LEFT:  2.00D  GRAD.:    17.775 HEAT:  170.6569
 CYCLE:   170 TIME:   0.109 TIME LEFT:  2.00D  GRAD.:    18.708 HEAT:  170.6254
 CYCLE:   171 TIME:   0.109 TIME LEFT:  2.00D  GRAD.:    12.881 HEAT:  170.5908
 CYCLE:   172 TIME:   0.109 TIME LEFT:  2.00D  GRAD.:    24.292 HEAT:  170.5666
 CYCLE:   173 TIME:   0.105 TIME LEFT:  2.00D  GRAD.:    19.358 HEAT:  170.5419
 CYCLE:   174 TIME:   0.102 TIME LEFT:  2.00D  GRAD.:    15.279 HEAT:  170.5278
 CYCLE:   175 TIME:   0.105 TIME LEFT:  2.00D  GRAD.:    17.734 HEAT:  170.4980
 CYCLE:   176 TIME:   0.109 TIME LEFT:  2.00D  GRAD.:    28.626 HEAT:  170.4938
 CYCLE:   177 TIME:   0.102 TIME LEFT:  2.00D  GRAD.:     9.825 HEAT:  170.4803
 CYCLE:   178 TIME:   0.105 TIME LEFT:  2.00D  GRAD.:     6.734 HEAT:  170.4757
 CYCLE:   179 TIME:   0.109 TIME LEFT:  2.00D  GRAD.:     9.188 HEAT:  170.4651
 CYCLE:   180 TIME:   0.105 TIME LEFT:  2.00D  GRAD.:    19.430 HEAT:  170.4590
 CYCLE:   181 TIME:   0.102 TIME LEFT:  2.00D  GRAD.:    11.033 HEAT:  170.4500
 CYCLE:   182 TIME:   0.105 TIME LEFT:  2.00D  GRAD.:     7.090 HEAT:  170.4466
 CYCLE:   183 TIME:   0.105 TIME LEFT:  2.00D  GRAD.:    10.224 HEAT:  170.4398
 CYCLE:   184 TIME:   0.105 TIME LEFT:  2.00D  GRAD.:     6.112 HEAT:  170.4356
 CYCLE:   185 TIME:   0.109 TIME LEFT:  2.00D  GRAD.:     8.487 HEAT:  170.4282
 CYCLE:   186 TIME:   0.098 TIME LEFT:  2.00D  GRAD.:    26.037 HEAT:  170.4299
 CYCLE:   187 TIME:   0.102 TIME LEFT:  2.00D  GRAD.:     6.254 HEAT:  170.4228
 CYCLE:   188 TIME:   0.105 TIME LEFT:  2.00D  GRAD.:     5.300 HEAT:  170.4194
 CYCLE:   189 TIME:   0.105 TIME LEFT:  2.00D  GRAD.:    13.411 HEAT:  170.4111
 CYCLE:   190 TIME:   0.102 TIME LEFT:  2.00D  GRAD.:     7.659 HEAT:  170.4065
 CYCLE:   191 TIME:   0.102 TIME LEFT:  2.00D  GRAD.:     6.765 HEAT:  170.4025
 CYCLE:   192 TIME:   0.109 TIME LEFT:  2.00D  GRAD.:    14.095 HEAT:  170.3974
 CYCLE:   193 TIME:   0.098 TIME LEFT:  2.00D  GRAD.:    17.737 HEAT:  170.3955
 CYCLE:   194 TIME:   0.109 TIME LEFT:  2.00D  GRAD.:    11.142 HEAT:  170.3910
 CYCLE:   195 TIME:   0.098 TIME LEFT:  2.00D  GRAD.:    11.451 HEAT:  170.3891
 CYCLE:   196 TIME:   0.102 TIME LEFT:  2.00D  GRAD.:     5.222 HEAT:  170.3868
 CYCLE:   197 TIME:   0.102 TIME LEFT:  2.00D  GRAD.:     4.881 HEAT:  170.3844
 CYCLE:   198 TIME:   0.105 TIME LEFT:  2.00D  GRAD.:     6.676 HEAT:  170.3799
 CYCLE:   199 TIME:   0.109 TIME LEFT:  2.00D  GRAD.:    29.024 HEAT:  170.3796
 CYCLE:   200 TIME:   0.098 TIME LEFT:  2.00D  GRAD.:     5.402 HEAT:  170.3708
 CYCLE:   201 TIME:   0.109 TIME LEFT:  2.00D  GRAD.:    11.213 HEAT:  170.3695
 CYCLE:   202 TIME:   0.102 TIME LEFT:  2.00D  GRAD.:     4.480 HEAT:  170.3653
 CYCLE:   203 TIME:   0.102 TIME LEFT:  2.00D  GRAD.:     5.920 HEAT:  170.3620
 CYCLE:   204 TIME:   0.102 TIME LEFT:  2.00D  GRAD.:     7.813 HEAT:  170.3590
 CYCLE:   205 TIME:   0.105 TIME LEFT:  2.00D  GRAD.:    16.577 HEAT:  170.3577
 CYCLE:   206 TIME:   0.102 TIME LEFT:  2.00D  GRAD.:     4.818 HEAT:  170.3537
 CYCLE:   207 TIME:   0.098 TIME LEFT:  2.00D  GRAD.:     4.112 HEAT:  170.3524
 CYCLE:   208 TIME:   0.098 TIME LEFT:  2.00D  GRAD.:     9.224 HEAT:  170.3499
 CYCLE:   209 TIME:   0.113 TIME LEFT:  2.00D  GRAD.:     5.440 HEAT:  170.3479
 CYCLE:   210 TIME:   0.102 TIME LEFT:  2.00D  GRAD.:    10.792 HEAT:  170.3436
 CYCLE:   211 TIME:   0.102 TIME LEFT:  2.00D  GRAD.:     6.120 HEAT:  170.3419
 CYCLE:   212 TIME:   0.094 TIME LEFT:  2.00D  GRAD.:     5.120 HEAT:  170.3400
 CYCLE:   213 TIME:   0.102 TIME LEFT:  2.00D  GRAD.:    10.188 HEAT:  170.3372
 CYCLE:   214 TIME:   0.098 TIME LEFT:  2.00D  GRAD.:     5.904 HEAT:  170.3353
 CYCLE:   215 TIME:   0.098 TIME LEFT:  2.00D  GRAD.:     3.788 HEAT:  170.3340
 CYCLE:   216 TIME:   0.117 TIME LEFT:  2.00D  GRAD.:     7.998 HEAT:  170.3319
 CYCLE:   217 TIME:   0.094 TIME LEFT:  2.00D  GRAD.:     7.443 HEAT:  170.3300
 CYCLE:   218 TIME:   0.105 TIME LEFT:  2.00D  GRAD.:    10.691 HEAT:  170.3258
 CYCLE:   219 TIME:   0.117 TIME LEFT:  2.00D  GRAD.:     9.671 HEAT:  170.3243
 CYCLE:   220 TIME:   0.230 TIME LEFT:  2.00D  GRAD.:     4.311 HEAT:  170.3233
 CYCLE:   221 TIME:   0.109 TIME LEFT:  2.00D  GRAD.:     4.512 HEAT:  170.3220
 CYCLE:   222 TIME:   0.125 TIME LEFT:  2.00D  GRAD.:     5.857 HEAT:  170.3195
 CYCLE:   223 TIME:   0.105 TIME LEFT:  2.00D  GRAD.:     5.166 HEAT:  170.3172
 CYCLE:   224 TIME:   0.098 TIME LEFT:  2.00D  GRAD.:     8.926 HEAT:  170.3156
 CYCLE:   225 TIME:   0.098 TIME LEFT:  2.00D  GRAD.:     3.839 HEAT:  170.3146
 CYCLE:   226 TIME:   0.102 TIME LEFT:  2.00D  GRAD.:     6.193 HEAT:  170.3139
 CYCLE:   227 TIME:   0.133 TIME LEFT:  2.00D  GRAD.:     5.306 HEAT:  170.3126
 CYCLE:   228 TIME:   0.137 TIME LEFT:  2.00D  GRAD.:    14.330 HEAT:  170.3119
 CYCLE:   229 TIME:   0.105 TIME LEFT:  2.00D  GRAD.:     6.449 HEAT:  170.3093
 CYCLE:   230 TIME:   0.094 TIME LEFT:  2.00D  GRAD.:     3.274 HEAT:  170.3087
 CYCLE:   231 TIME:   0.102 TIME LEFT:  2.00D  GRAD.:     2.629 HEAT:  170.3079
 CYCLE:   232 TIME:   0.105 TIME LEFT:  2.00D  GRAD.:     4.595 HEAT:  170.3055
 CYCLE:   233 TIME:   0.102 TIME LEFT:  2.00D  GRAD.:     7.285 HEAT:  170.3039
 CYCLE:   234 TIME:   0.098 TIME LEFT:  2.00D  GRAD.:     3.654 HEAT:  170.3028
 CYCLE:   235 TIME:   0.098 TIME LEFT:  2.00D  GRAD.:     3.778 HEAT:  170.3021
 CYCLE:   236 TIME:   0.098 TIME LEFT:  2.00D  GRAD.:     3.346 HEAT:  170.3015
 CYCLE:   237 TIME:   0.102 TIME LEFT:  2.00D  GRAD.:     5.419 HEAT:  170.3005
 CYCLE:   238 TIME:   0.102 TIME LEFT:  2.00D  GRAD.:     4.452 HEAT:  170.2996
 CYCLE:   239 TIME:   0.098 TIME LEFT:  2.00D  GRAD.:     2.683 HEAT:  170.2989
 CYCLE:   240 TIME:   0.102 TIME LEFT:  2.00D  GRAD.:     2.738 HEAT:  170.2986
 CYCLE:   241 TIME:   0.098 TIME LEFT:  2.00D  GRAD.:     2.709 HEAT:  170.2984
 CYCLE:   242 TIME:   0.102 TIME LEFT:  2.00D  GRAD.:     2.451 HEAT:  170.2978
 CYCLE:   243 TIME:   0.098 TIME LEFT:  2.00D  GRAD.:     2.525 HEAT:  170.2976
 CYCLE:   244 TIME:   0.102 TIME LEFT:  2.00D  GRAD.:     4.254 HEAT:  170.2971
 CYCLE:   245 TIME:   0.094 TIME LEFT:  2.00D  GRAD.:     6.000 HEAT:  170.2966
 CYCLE:   246 TIME:   0.098 TIME LEFT:  2.00D  GRAD.:     2.088 HEAT:  170.2962
 CYCLE:   247 TIME:   0.102 TIME LEFT:  2.00D  GRAD.:     3.474 HEAT:  170.2959
 CYCLE:   248 TIME:   0.098 TIME LEFT:  2.00D  GRAD.:     4.470 HEAT:  170.2955
 CYCLE:   249 TIME:   0.098 TIME LEFT:  2.00D  GRAD.:     3.039 HEAT:  170.2949
 CYCLE:   250 TIME:   0.098 TIME LEFT:  2.00D  GRAD.:     3.021 HEAT:  170.2943
 CYCLE:   251 TIME:   0.102 TIME LEFT:  2.00D  GRAD.:     2.947 HEAT:  170.2938
 CYCLE:   252 TIME:   0.098 TIME LEFT:  2.00D  GRAD.:     2.643 HEAT:  170.2931
 CYCLE:   253 TIME:   0.102 TIME LEFT:  2.00D  GRAD.:     2.382 HEAT:  170.2919
 CYCLE:   254 TIME:   0.105 TIME LEFT:  2.00D  GRAD.:     5.522 HEAT:  170.2911
 CYCLE:   255 TIME:   0.102 TIME LEFT:  2.00D  GRAD.:     7.309 HEAT:  170.2908
 CYCLE:   256 TIME:   0.102 TIME LEFT:  2.00D  GRAD.:     3.263 HEAT:  170.2906
 CYCLE:   257 TIME:   0.105 TIME LEFT:  2.00D  GRAD.:    19.365 HEAT:  170.2931
 CYCLE:   258 TIME:   0.102 TIME LEFT:  2.00D  GRAD.:     6.666 HEAT:  170.2899
 CYCLE:   259 TIME:   0.133 TIME LEFT:  2.00D  GRAD.:     1.883 HEAT:  170.2891
 CYCLE:   260 TIME:   0.141 TIME LEFT:  2.00D  GRAD.:     4.480 HEAT:  170.2891
 CYCLE:   261 TIME:   0.109 TIME LEFT:  2.00D  GRAD.:     1.560 HEAT:  170.2887
 CYCLE:   262 TIME:   0.105 TIME LEFT:  2.00D  GRAD.:     1.350 HEAT:  170.2885
 CYCLE:   263 TIME:   0.109 TIME LEFT:  2.00D  GRAD.:     4.474 HEAT:  170.2883
 CYCLE:   264 TIME:   0.102 TIME LEFT:  2.00D  GRAD.:     2.428 HEAT:  170.2880
 CYCLE:   265 TIME:   0.109 TIME LEFT:  2.00D  GRAD.:     1.426 HEAT:  170.2876
 CYCLE:   266 TIME:   0.117 TIME LEFT:  2.00D  GRAD.:     1.570 HEAT:  170.2874
 CYCLE:   267 TIME:   0.160 TIME LEFT:  2.00D  GRAD.:     2.647 HEAT:  170.2870
 CYCLE:   268 TIME:   0.156 TIME LEFT:  2.00D  GRAD.:    10.614 HEAT:  170.2874
 CYCLE:   269 TIME:   0.141 TIME LEFT:  2.00D  GRAD.:     2.558 HEAT:  170.2868
 CYCLE:   270 TIME:   0.121 TIME LEFT:  2.00D  GRAD.:     5.500 HEAT:  170.2870
 CYCLE:   271 TIME:   0.102 TIME LEFT:  2.00D  GRAD.:     2.213 HEAT:  170.2865
 CYCLE:   272 TIME:   0.102 TIME LEFT:  2.00D  GRAD.:     2.518 HEAT:  170.2863
 CYCLE:   273 TIME:   0.109 TIME LEFT:  2.00D  GRAD.:     2.263 HEAT:  170.2860
 CYCLE:   274 TIME:   0.102 TIME LEFT:  2.00D  GRAD.:     2.749 HEAT:  170.2855
 CYCLE:   275 TIME:   0.105 TIME LEFT:  2.00D  GRAD.:     2.623 HEAT:  170.2853
 CYCLE:   276 TIME:   0.117 TIME LEFT:  2.00D  GRAD.:     2.319 HEAT:  170.2851
 CYCLE:   277 TIME:   0.121 TIME LEFT:  2.00D  GRAD.:     1.154 HEAT:  170.2849
 CYCLE:   278 TIME:   0.141 TIME LEFT:  2.00D  GRAD.:     1.194 HEAT:  170.2847
 CYCLE:   279 TIME:   0.117 TIME LEFT:  2.00D  GRAD.:     3.395 HEAT:  170.2845
 CYCLE:   280 TIME:   0.094 TIME LEFT:  2.00D  GRAD.:     1.083 HEAT:  170.2843
 CYCLE:   281 TIME:   0.102 TIME LEFT:  2.00D  GRAD.:     1.098 HEAT:  170.2843
 CYCLE:   282 TIME:   0.109 TIME LEFT:  2.00D  GRAD.:     2.693 HEAT:  170.2839
 CYCLE:   283 TIME:   0.109 TIME LEFT:  2.00D  GRAD.:     1.397 HEAT:  170.2835
 CYCLE:   284 TIME:   0.113 TIME LEFT:  2.00D  GRAD.:     1.791 HEAT:  170.2830
 CYCLE:   285 TIME:   0.109 TIME LEFT:  2.00D  GRAD.:     9.927 HEAT:  170.2834
 CYCLE:   286 TIME:   0.109 TIME LEFT:  2.00D  GRAD.:     3.758 HEAT:  170.2829
 CYCLE:   287 TIME:   0.109 TIME LEFT:  2.00D  GRAD.:     4.302 HEAT:  170.2828
 CYCLE:   288 TIME:   0.098 TIME LEFT:  2.00D  GRAD.:     2.082 HEAT:  170.2818
 CYCLE:   289 TIME:   0.117 TIME LEFT:  2.00D  GRAD.:     2.239 HEAT:  170.2814
 CYCLE:   290 TIME:   0.113 TIME LEFT:  2.00D  GRAD.:     1.507 HEAT:  170.2812
 CYCLE:   291 TIME:   0.105 TIME LEFT:  2.00D  GRAD.:     1.670 HEAT:  170.2810
 CYCLE:   292 TIME:   0.105 TIME LEFT:  2.00D  GRAD.:     3.143 HEAT:  170.2807
 CYCLE:   293 TIME:   0.102 TIME LEFT:  2.00D  GRAD.:     2.832 HEAT:  170.2802
 CYCLE:   294 TIME:   0.105 TIME LEFT:  2.00D  GRAD.:     3.900 HEAT:  170.2797
 CYCLE:   295 TIME:   0.102 TIME LEFT:  2.00D  GRAD.:     2.105 HEAT:  170.2791
 CYCLE:   296 TIME:   0.102 TIME LEFT:  2.00D  GRAD.:     2.674 HEAT:  170.2788
 CYCLE:   297 TIME:   0.105 TIME LEFT:  2.00D  GRAD.:     4.005 HEAT:  170.2781
 CYCLE:   298 TIME:   0.105 TIME LEFT:  2.00D  GRAD.:     7.043 HEAT:  170.2779
 CYCLE:   299 TIME:   0.098 TIME LEFT:  2.00D  GRAD.:     3.125 HEAT:  170.2770
 CYCLE:   300 TIME:   0.109 TIME LEFT:  2.00D  GRAD.:     4.224 HEAT:  170.2773
 CYCLE:   301 TIME:   0.105 TIME LEFT:  2.00D  GRAD.:     2.870 HEAT:  170.2764
 CYCLE:   302 TIME:   0.094 TIME LEFT:  2.00D  GRAD.:     1.638 HEAT:  170.2761
 CYCLE:   303 TIME:   0.109 TIME LEFT:  2.00D  GRAD.:     7.343 HEAT:  170.2762
 CYCLE:   304 TIME:   0.098 TIME LEFT:  2.00D  GRAD.:     2.670 HEAT:  170.2756
 CYCLE:   305 TIME:   0.102 TIME LEFT:  2.00D  GRAD.:     1.888 HEAT:  170.2752
 CYCLE:   306 TIME:   0.105 TIME LEFT:  2.00D  GRAD.:     4.853 HEAT:  170.2749
 CYCLE:   307 TIME:   0.094 TIME LEFT:  2.00D  GRAD.:     2.368 HEAT:  170.2745
 CYCLE:   308 TIME:   0.098 TIME LEFT:  2.00D  GRAD.:     1.203 HEAT:  170.2743
 CYCLE:   309 TIME:   0.109 TIME LEFT:  2.00D  GRAD.:    10.627 HEAT:  170.2744
 CYCLE:   310 TIME:   0.102 TIME LEFT:  2.00D  GRAD.:     3.795 HEAT:  170.2736
 CYCLE:   311 TIME:   0.098 TIME LEFT:  2.00D  GRAD.:     2.444 HEAT:  170.2732
 CYCLE:   312 TIME:   0.102 TIME LEFT:  2.00D  GRAD.:     4.490 HEAT:  170.2731
 CYCLE:   313 TIME:   0.098 TIME LEFT:  2.00D  GRAD.:     2.621 HEAT:  170.2728
 CYCLE:   314 TIME:   0.102 TIME LEFT:  2.00D  GRAD.:     2.383 HEAT:  170.2723
 CYCLE:   315 TIME:   0.102 TIME LEFT:  2.00D  GRAD.:     1.660 HEAT:  170.2715
 CYCLE:   316 TIME:   0.105 TIME LEFT:  2.00D  GRAD.:     2.849 HEAT:  170.2707
 CYCLE:   317 TIME:   0.105 TIME LEFT:  2.00D  GRAD.:     5.562 HEAT:  170.2700
 CYCLE:   318 TIME:   0.102 TIME LEFT:  2.00D  GRAD.:    16.335 HEAT:  170.2704
 CYCLE:   319 TIME:   0.098 TIME LEFT:  2.00D  GRAD.:    11.209 HEAT:  170.2687
 CYCLE:   320 TIME:   0.102 TIME LEFT:  2.00D  GRAD.:     6.689 HEAT:  170.2688
 CYCLE:   321 TIME:   0.109 TIME LEFT:  2.00D  GRAD.:     7.286 HEAT:  170.2676
 CYCLE:   322 TIME:   0.117 TIME LEFT:  2.00D  GRAD.:    23.100 HEAT:  170.2701
 CYCLE:   323 TIME:   0.109 TIME LEFT:  2.00D  GRAD.:     2.848 HEAT:  170.2665
 CYCLE:   324 TIME:   0.109 TIME LEFT:  2.00D  GRAD.:     7.170 HEAT:  170.2659
 CYCLE:   325 TIME:   0.105 TIME LEFT:  2.00D  GRAD.:     3.502 HEAT:  170.2652
 CYCLE:   326 TIME:   0.125 TIME LEFT:  2.00D  GRAD.:     7.427 HEAT:  170.2643
 CYCLE:   327 TIME:   0.141 TIME LEFT:  2.00D  GRAD.:     8.298 HEAT:  170.2640
 CYCLE:   328 TIME:   0.125 TIME LEFT:  2.00D  GRAD.:     1.912 HEAT:  170.2629
 CYCLE:   329 TIME:   0.109 TIME LEFT:  2.00D  GRAD.:     4.078 HEAT:  170.2621
 CYCLE:   330 TIME:   0.105 TIME LEFT:  2.00D  GRAD.:     3.274 HEAT:  170.2612
 CYCLE:   331 TIME:   0.102 TIME LEFT:  2.00D  GRAD.:     2.725 HEAT:  170.2606
 CYCLE:   332 TIME:   0.117 TIME LEFT:  2.00D  GRAD.:     3.852 HEAT:  170.2597
 CYCLE:   333 TIME:   0.113 TIME LEFT:  2.00D  GRAD.:     5.984 HEAT:  170.2582
 CYCLE:   334 TIME:   0.105 TIME LEFT:  2.00D  GRAD.:    13.503 HEAT:  170.2588
 CYCLE:   335 TIME:   0.109 TIME LEFT:  2.00D  GRAD.:    11.254 HEAT:  170.2572
 CYCLE:   336 TIME:   0.102 TIME LEFT:  2.00D  GRAD.:    64.350 HEAT:  170.2877
 CYCLE:   337 TIME:   0.133 TIME LEFT:  2.00D  GRAD.:     9.700 HEAT:  170.2559
 CYCLE:   338 TIME:   0.125 TIME LEFT:  2.00D  GRAD.:     8.438 HEAT:  170.2554
 CYCLE:   339 TIME:   0.098 TIME LEFT:  2.00D  GRAD.:     3.102 HEAT:  170.2546
 CYCLE:   340 TIME:   0.117 TIME LEFT:  2.00D  GRAD.:     3.695 HEAT:  170.2540
 CYCLE:   341 TIME:   0.121 TIME LEFT:  2.00D  GRAD.:     9.257 HEAT:  170.2527
 CYCLE:   342 TIME:   0.113 TIME LEFT:  2.00D  GRAD.:    13.361 HEAT:  170.2603
 CYCLE:   343 TIME:   0.109 TIME LEFT:  2.00D  GRAD.:    17.170 HEAT:  170.2598
 CYCLE:   344 TIME:   0.113 TIME LEFT:  2.00D  GRAD.:     8.529 HEAT:  170.2548
 CYCLE:   345 TIME:   0.109 TIME LEFT:  2.00D  GRAD.:    29.643 HEAT:  170.2565
 CYCLE:   346 TIME:   0.117 TIME LEFT:  2.00D  GRAD.:   113.517 HEAT:  170.5913
 CYCLE:   347 TIME:   0.109 TIME LEFT:  2.00D  GRAD.:    86.713 HEAT:  170.4182
 CYCLE:   348 TIME:   0.121 TIME LEFT:  2.00D  GRAD.:    41.616 HEAT:  170.3065
 CYCLE:   349 TIME:   0.125 TIME LEFT:  2.00D  GRAD.:    91.533 HEAT:  170.3303
 CYCLE:   350 TIME:   0.129 TIME LEFT:  2.00D  GRAD.:    27.435 HEAT:  170.2668
 CYCLE:   351 TIME:   0.148 TIME LEFT:  2.00D  GRAD.:    44.120 HEAT:  170.3317
 CYCLE:   352 TIME:   0.137 TIME LEFT:  2.00D  GRAD.:    37.463 HEAT:  170.2548
 CYCLE:   353 TIME:   0.137 TIME LEFT:  2.00D  GRAD.:   370.737 HEAT:  171.1309
 CYCLE:   354 TIME:   0.156 TIME LEFT:  2.00D  GRAD.:    26.542 HEAT:  170.2635
 CYCLE:   355 TIME:   0.133 TIME LEFT:  2.00D  GRAD.:    89.454 HEAT:  170.4725
 CYCLE:   356 TIME:   0.117 TIME LEFT:  2.00D  GRAD.:    12.504 HEAT:  170.2415
 CYCLE:   357 TIME:   0.109 TIME LEFT:  2.00D  GRAD.:    25.121 HEAT:  170.2487
 CYCLE:   358 TIME:   0.113 TIME LEFT:  2.00D  GRAD.:     8.366 HEAT:  170.2403
 CYCLE:   359 TIME:   0.113 TIME LEFT:  2.00D  GRAD.:    37.538 HEAT:  170.2537
 CYCLE:   360 TIME:   0.109 TIME LEFT:  2.00D  GRAD.:     4.249 HEAT:  170.2395
 CYCLE:   361 TIME:   0.105 TIME LEFT:  2.00D  GRAD.:     2.060 HEAT:  170.2392
 CYCLE:   362 TIME:   0.105 TIME LEFT:  2.00D  GRAD.:     1.996 HEAT:  170.2389
 CYCLE:   363 TIME:   0.129 TIME LEFT:  2.00D  GRAD.:    50.888 HEAT:  170.3407
 CYCLE:   364 TIME:   0.113 TIME LEFT:  2.00D  GRAD.:     9.822 HEAT:  170.2443
 CYCLE:   365 TIME:   0.121 TIME LEFT:  2.00D  GRAD.:    22.201 HEAT:  170.2566
 CYCLE:   366 TIME:   0.113 TIME LEFT:  2.00D  GRAD.:     4.117 HEAT:  170.2375
 CYCLE:   367 TIME:   0.113 TIME LEFT:  2.00D  GRAD.:     5.217 HEAT:  170.2374
 CYCLE:   368 TIME:   0.102 TIME LEFT:  2.00D  GRAD.:    24.532 HEAT:  170.2397
 CYCLE:   369 TIME:   0.102 TIME LEFT:  2.00D  GRAD.:     4.335 HEAT:  170.2364
 CYCLE:   370 TIME:   0.102 TIME LEFT:  2.00D  GRAD.:     2.805 HEAT:  170.2357
 CYCLE:   371 TIME:   0.117 TIME LEFT:  2.00D  GRAD.:     2.648 HEAT:  170.2347
 CYCLE:   372 TIME:   0.105 TIME LEFT:  2.00D  GRAD.:     2.633 HEAT:  170.2337
 CYCLE:   373 TIME:   0.105 TIME LEFT:  2.00D  GRAD.:     5.097 HEAT:  170.2329
 CYCLE:   374 TIME:   0.117 TIME LEFT:  2.00D  GRAD.:     5.760 HEAT:  170.2310
 CYCLE:   375 TIME:   0.121 TIME LEFT:  2.00D  GRAD.:    17.366 HEAT:  170.2306
 CYCLE:   376 TIME:   0.105 TIME LEFT:  2.00D  GRAD.:     3.801 HEAT:  170.2281
 CYCLE:   377 TIME:   0.141 TIME LEFT:  2.00D  GRAD.:     3.074 HEAT:  170.2271
 CYCLE:   378 TIME:   0.145 TIME LEFT:  2.00D  GRAD.:     5.973 HEAT:  170.2260
 CYCLE:   379 TIME:   0.109 TIME LEFT:  2.00D  GRAD.:    10.750 HEAT:  170.2247
 CYCLE:   380 TIME:   0.109 TIME LEFT:  2.00D  GRAD.:     5.063 HEAT:  170.2236
 CYCLE:   381 TIME:   0.133 TIME LEFT:  2.00D  GRAD.:    16.519 HEAT:  170.2273
 CYCLE:   382 TIME:   0.137 TIME LEFT:  2.00D  GRAD.:    15.471 HEAT:  170.2277
 CYCLE:   383 TIME:   0.113 TIME LEFT:  2.00D  GRAD.:     4.095 HEAT:  170.2214
 CYCLE:   384 TIME:   0.105 TIME LEFT:  2.00D  GRAD.:     8.916 HEAT:  170.2215
 CYCLE:   385 TIME:   0.098 TIME LEFT:  2.00D  GRAD.:     2.274 HEAT:  170.2209
 CYCLE:   386 TIME:   0.117 TIME LEFT:  2.00D  GRAD.:     2.019 HEAT:  170.2204
 CYCLE:   387 TIME:   0.121 TIME LEFT:  2.00D  GRAD.:     9.092 HEAT:  170.2185
 CYCLE:   388 TIME:   0.113 TIME LEFT:  2.00D  GRAD.:    17.876 HEAT:  170.2179
 CYCLE:   389 TIME:   0.109 TIME LEFT:  2.00D  GRAD.:     6.280 HEAT:  170.2179
 CYCLE:   390 TIME:   0.109 TIME LEFT:  2.00D  GRAD.:    13.075 HEAT:  170.2151
 CYCLE:   391 TIME:   0.102 TIME LEFT:  2.00D  GRAD.:     6.961 HEAT:  170.2133
 CYCLE:   392 TIME:   0.113 TIME LEFT:  2.00D  GRAD.:    14.751 HEAT:  170.2119
 CYCLE:   393 TIME:   0.117 TIME LEFT:  2.00D  GRAD.:     4.537 HEAT:  170.2102
 CYCLE:   394 TIME:   0.098 TIME LEFT:  2.00D  GRAD.:     3.291 HEAT:  170.2094
 CYCLE:   395 TIME:   0.109 TIME LEFT:  2.00D  GRAD.:     4.562 HEAT:  170.2089
 CYCLE:   396 TIME:   0.105 TIME LEFT:  2.00D  GRAD.:    10.042 HEAT:  170.2081
 CYCLE:   397 TIME:   0.098 TIME LEFT:  2.00D  GRAD.:     3.468 HEAT:  170.2077
 CYCLE:   398 TIME:   0.102 TIME LEFT:  2.00D  GRAD.:     2.227 HEAT:  170.2070
 CYCLE:   399 TIME:   0.102 TIME LEFT:  2.00D  GRAD.:     4.871 HEAT:  170.2065
 CYCLE:   400 TIME:   0.137 TIME LEFT:  2.00D  GRAD.:     2.574 HEAT:  170.2059
 CYCLE:   401 TIME:   0.148 TIME LEFT:  2.00D  GRAD.:     1.984 HEAT:  170.2055
 CYCLE:   402 TIME:   0.148 TIME LEFT:  2.00D  GRAD.:     5.681 HEAT:  170.2049
 CYCLE:   403 TIME:   0.113 TIME LEFT:  2.00D  GRAD.:     3.364 HEAT:  170.2042
 CYCLE:   404 TIME:   0.125 TIME LEFT:  2.00D  GRAD.:     6.228 HEAT:  170.2031
 CYCLE:   405 TIME:   0.109 TIME LEFT:  2.00D  GRAD.:     3.508 HEAT:  170.2024
 CYCLE:   406 TIME:   0.137 TIME LEFT:  2.00D  GRAD.:     4.203 HEAT:  170.2012
 CYCLE:   407 TIME:   0.121 TIME LEFT:  2.00D  GRAD.:     3.956 HEAT:  170.1997
 CYCLE:   408 TIME:   0.102 TIME LEFT:  2.00D  GRAD.:     4.749 HEAT:  170.1982
 CYCLE:   409 TIME:   0.102 TIME LEFT:  2.00D  GRAD.:     6.525 HEAT:  170.1965
 CYCLE:   410 TIME:   0.105 TIME LEFT:  2.00D  GRAD.:     7.723 HEAT:  170.1944
 CYCLE:   411 TIME:   0.105 TIME LEFT:  2.00D  GRAD.:     7.445 HEAT:  170.1920
 CYCLE:   412 TIME:   0.105 TIME LEFT:  2.00D  GRAD.:     8.698 HEAT:  170.1896
 CYCLE:   413 TIME:   0.109 TIME LEFT:  2.00D  GRAD.:    27.832 HEAT:  170.1959
 CYCLE:   414 TIME:   0.109 TIME LEFT:  2.00D  GRAD.:    77.013 HEAT:  170.2572
 CYCLE:   415 TIME:   0.141 TIME LEFT:  2.00D  GRAD.:    68.192 HEAT:  170.2471
 CYCLE:   416 TIME:   0.137 TIME LEFT:  2.00D  GRAD.:    19.730 HEAT:  170.1865
 CYCLE:   417 TIME:   0.129 TIME LEFT:  2.00D  GRAD.:   296.406 HEAT:  170.8982
 CYCLE:   418 TIME:   0.137 TIME LEFT:  2.00D  GRAD.:    46.960 HEAT:  170.2101
 CYCLE:   419 TIME:   0.113 TIME LEFT:  2.00D  GRAD.:    54.718 HEAT:  170.2094
 CYCLE:   420 TIME:   0.113 TIME LEFT:  2.00D  GRAD.:   233.111 HEAT:  170.9041
 CYCLE:   421 TIME:   0.109 TIME LEFT:  2.00D  GRAD.:    60.216 HEAT:  170.2259
 CYCLE:   422 TIME:   0.113 TIME LEFT:  2.00D  GRAD.:    65.868 HEAT:  170.2405
 CYCLE:   423 TIME:   0.117 TIME LEFT:  2.00D  GRAD.:    33.807 HEAT:  170.1886
 CYCLE:   424 TIME:   0.105 TIME LEFT:  2.00D  GRAD.:    69.287 HEAT:  170.2244
 CYCLE:   425 TIME:   0.105 TIME LEFT:  2.00D  GRAD.:    10.125 HEAT:  170.1778
 CYCLE:   426 TIME:   0.113 TIME LEFT:  2.00D  GRAD.:    20.089 HEAT:  170.1761
 CYCLE:   427 TIME:   0.105 TIME LEFT:  2.00D  GRAD.:    10.926 HEAT:  170.1723
 CYCLE:   428 TIME:   0.109 TIME LEFT:  2.00D  GRAD.:     8.187 HEAT:  170.1692
 CYCLE:   429 TIME:   0.102 TIME LEFT:  2.00D  GRAD.:    54.729 HEAT:  170.2085
 CYCLE:   430 TIME:   0.109 TIME LEFT:  2.00D  GRAD.:     4.167 HEAT:  170.1678
 CYCLE:   431 TIME:   0.102 TIME LEFT:  2.00D  GRAD.:     4.101 HEAT:  170.1675
 CYCLE:   432 TIME:   0.098 TIME LEFT:  2.00D  GRAD.:     3.339 HEAT:  170.1659
 CYCLE:   433 TIME:   0.105 TIME LEFT:  2.00D  GRAD.:    18.681 HEAT:  170.1659
 CYCLE:   434 TIME:   0.098 TIME LEFT:  2.00D  GRAD.:     4.890 HEAT:  170.1630
 CYCLE:   435 TIME:   0.102 TIME LEFT:  2.00D  GRAD.:     2.839 HEAT:  170.1622
 CYCLE:   436 TIME:   0.098 TIME LEFT:  2.00D  GRAD.:     2.407 HEAT:  170.1619
 CYCLE:   437 TIME:   0.109 TIME LEFT:  2.00D  GRAD.:     6.073 HEAT:  170.1608
 CYCLE:   438 TIME:   0.098 TIME LEFT:  2.00D  GRAD.:     3.623 HEAT:  170.1594
 CYCLE:   439 TIME:   0.102 TIME LEFT:  2.00D  GRAD.:     3.106 HEAT:  170.1573
 CYCLE:   440 TIME:   0.105 TIME LEFT:  2.00D  GRAD.:     8.911 HEAT:  170.1565
 CYCLE:   441 TIME:   0.098 TIME LEFT:  2.00D  GRAD.:     2.865 HEAT:  170.1552
 CYCLE:   442 TIME:   0.105 TIME LEFT:  2.00D  GRAD.:     3.142 HEAT:  170.1543
 CYCLE:   443 TIME:   0.105 TIME LEFT:  2.00D  GRAD.:     5.656 HEAT:  170.1522
 CYCLE:   444 TIME:   0.102 TIME LEFT:  2.00D  GRAD.:     7.560 HEAT:  170.1499
 CYCLE:   445 TIME:   0.105 TIME LEFT:  2.00D  GRAD.:     5.651 HEAT:  170.1468
 CYCLE:   446 TIME:   0.105 TIME LEFT:  2.00D  GRAD.:     6.680 HEAT:  170.1439
 CYCLE:   447 TIME:   0.105 TIME LEFT:  2.00D  GRAD.:     6.311 HEAT:  170.1409
 CYCLE:   448 TIME:   0.105 TIME LEFT:  2.00D  GRAD.:     5.198 HEAT:  170.1381
 CYCLE:   449 TIME:   0.105 TIME LEFT:  2.00D  GRAD.:     4.972 HEAT:  170.1402
 CYCLE:   450 TIME:   0.109 TIME LEFT:  2.00D  GRAD.:    37.179 HEAT:  170.1487
 CYCLE:   451 TIME:   0.105 TIME LEFT:  2.00D  GRAD.:    18.521 HEAT:  170.1377
 CYCLE:   452 TIME:   0.102 TIME LEFT:  2.00D  GRAD.:     3.431 HEAT:  170.1334
 CYCLE:   453 TIME:   0.102 TIME LEFT:  2.00D  GRAD.:     4.256 HEAT:  170.1323
 CYCLE:   454 TIME:   0.105 TIME LEFT:  2.00D  GRAD.:    16.926 HEAT:  170.1372
 CYCLE:   455 TIME:   0.109 TIME LEFT:  2.00D  GRAD.:    11.892 HEAT:  170.1345
 CYCLE:   456 TIME:   0.113 TIME LEFT:  2.00D  GRAD.:    65.807 HEAT:  170.1825
 CYCLE:   457 TIME:   0.113 TIME LEFT:  2.00D  GRAD.:   161.555 HEAT:  170.4650
 CYCLE:   458 TIME:   0.109 TIME LEFT:  2.00D  GRAD.:   244.715 HEAT:  170.8872
 CYCLE:   459 TIME:   0.109 TIME LEFT:  2.00D  GRAD.:   185.928 HEAT:  170.5377
 CYCLE:   460 TIME:   0.105 TIME LEFT:  2.00D  GRAD.:   180.157 HEAT:  170.7062
 CYCLE:   461 TIME:   0.121 TIME LEFT:  2.00D  GRAD.:    29.161 HEAT:  170.1472
 CYCLE:   462 TIME:   0.113 TIME LEFT:  2.00D  GRAD.:    37.089 HEAT:  170.1988
 CYCLE:   463 TIME:   0.113 TIME LEFT:  2.00D  GRAD.:    23.411 HEAT:  170.1383
 CYCLE:   464 TIME:   0.105 TIME LEFT:  2.00D  GRAD.:    31.170 HEAT:  170.1409
 CYCLE:   465 TIME:   0.098 TIME LEFT:  2.00D  GRAD.:     9.396 HEAT:  170.1279
 CYCLE:   466 TIME:   0.105 TIME LEFT:  2.00D  GRAD.:     6.418 HEAT:  170.1287
 CYCLE:   467 TIME:   0.125 TIME LEFT:  2.00D  GRAD.:     3.297 HEAT:  170.1270
 CYCLE:   468 TIME:   0.105 TIME LEFT:  2.00D  GRAD.:     4.065 HEAT:  170.1266
 CYCLE:   469 TIME:   0.113 TIME LEFT:  2.00D  GRAD.:     5.105 HEAT:  170.1260
 CYCLE:   470 TIME:   0.102 TIME LEFT:  2.00D  GRAD.:     9.645 HEAT:  170.1257
 CYCLE:   471 TIME:   0.105 TIME LEFT:  2.00D  GRAD.:     3.236 HEAT:  170.1250
 CYCLE:   472 TIME:   0.105 TIME LEFT:  2.00D  GRAD.:     2.129 HEAT:  170.1243
 CYCLE:   473 TIME:   0.125 TIME LEFT:  2.00D  GRAD.:    47.847 HEAT:  170.1517
 CYCLE:   474 TIME:   0.109 TIME LEFT:  2.00D  GRAD.:    14.538 HEAT:  170.1239
 CYCLE:   475 TIME:   0.137 TIME LEFT:  2.00D  GRAD.:    18.813 HEAT:  170.1246
 CYCLE:   476 TIME:   0.145 TIME LEFT:  2.00D  GRAD.:    12.772 HEAT:  170.1208
 CYCLE:   477 TIME:   0.137 TIME LEFT:  2.00D  GRAD.:     2.548 HEAT:  170.1165
 CYCLE:   478 TIME:   0.117 TIME LEFT:  2.00D  GRAD.:     2.888 HEAT:  170.1160
 CYCLE:   479 TIME:   0.125 TIME LEFT:  2.00D  GRAD.:     7.531 HEAT:  170.1138
 CYCLE:   480 TIME:   0.102 TIME LEFT:  2.00D  GRAD.:     6.287 HEAT:  170.1123
 CYCLE:   481 TIME:   0.125 TIME LEFT:  2.00D  GRAD.:     6.089 HEAT:  170.1048
 CYCLE:   482 TIME:   0.113 TIME LEFT:  2.00D  GRAD.:    24.470 HEAT:  170.1125
 CYCLE:   483 TIME:   0.113 TIME LEFT:  2.00D  GRAD.:     2.945 HEAT:  170.1051
 CYCLE:   484 TIME:   0.109 TIME LEFT:  2.00D  GRAD.:     5.272 HEAT:  170.1036
 CYCLE:   485 TIME:   0.117 TIME LEFT:  2.00D  GRAD.:    18.133 HEAT:  170.1011
 CYCLE:   486 TIME:   0.105 TIME LEFT:  2.00D  GRAD.:     5.575 HEAT:  170.1015
 CYCLE:   487 TIME:   0.102 TIME LEFT:  2.00D  GRAD.:     5.366 HEAT:  170.0993
 CYCLE:   488 TIME:   0.109 TIME LEFT:  2.00D  GRAD.:    36.308 HEAT:  170.1149
 CYCLE:   489 TIME:   0.102 TIME LEFT:  2.00D  GRAD.:     3.159 HEAT:  170.0984
 CYCLE:   490 TIME:   0.109 TIME LEFT:  2.00D  GRAD.:     2.067 HEAT:  170.0966
 CYCLE:   491 TIME:   0.105 TIME LEFT:  2.00D  GRAD.:    20.092 HEAT:  170.0988
 CYCLE:   492 TIME:   0.098 TIME LEFT:  2.00D  GRAD.:     3.348 HEAT:  170.0946
 CYCLE:   493 TIME:   0.109 TIME LEFT:  2.00D  GRAD.:     6.988 HEAT:  170.0920
 CYCLE:   494 TIME:   0.117 TIME LEFT:  2.00D  GRAD.:     1.676 HEAT:  170.0910
 CYCLE:   495 TIME:   0.125 TIME LEFT:  2.00D  GRAD.:     5.194 HEAT:  170.0895
 CYCLE:   496 TIME:   0.105 TIME LEFT:  2.00D  GRAD.:    16.330 HEAT:  170.0869
 CYCLE:   497 TIME:   0.105 TIME LEFT:  2.00D  GRAD.:     4.785 HEAT:  170.0896
 CYCLE:   498 TIME:   0.109 TIME LEFT:  2.00D  GRAD.:    15.072 HEAT:  170.0857
 CYCLE:   499 TIME:   0.102 TIME LEFT:  2.00D  GRAD.:     7.313 HEAT:  170.0856
 CYCLE:   500 TIME:   0.102 TIME LEFT:  2.00D  GRAD.:     5.534 HEAT:  170.0843
 CYCLE:   501 TIME:   0.113 TIME LEFT:  2.00D  GRAD.:     4.015 HEAT:  170.0821
 CYCLE:   502 TIME:   0.125 TIME LEFT:  2.00D  GRAD.:     4.284 HEAT:  170.0804
 CYCLE:   503 TIME:   0.113 TIME LEFT:  2.00D  GRAD.:    19.852 HEAT:  170.0774
 CYCLE:   504 TIME:   0.113 TIME LEFT:  2.00D  GRAD.:     6.839 HEAT:  170.0813
 CYCLE:   505 TIME:   0.109 TIME LEFT:  2.00D  GRAD.:    21.277 HEAT:  170.0764
 CYCLE:   506 TIME:   0.109 TIME LEFT:  2.00D  GRAD.:     5.215 HEAT:  170.0772
 CYCLE:   507 TIME:   0.105 TIME LEFT:  2.00D  GRAD.:    10.469 HEAT:  170.0748
 CYCLE:   508 TIME:   0.098 TIME LEFT:  2.00D  GRAD.:    22.910 HEAT:  170.0777
 CYCLE:   509 TIME:   0.102 TIME LEFT:  2.00D  GRAD.:     4.043 HEAT:  170.0737
 CYCLE:   510 TIME:   0.102 TIME LEFT:  2.00D  GRAD.:     5.350 HEAT:  170.0720
 CYCLE:   511 TIME:   0.098 TIME LEFT:  2.00D  GRAD.:     2.121 HEAT:  170.0707
 CYCLE:   512 TIME:   0.102 TIME LEFT:  2.00D  GRAD.:     3.806 HEAT:  170.0699
 CYCLE:   513 TIME:   0.113 TIME LEFT:  2.00D  GRAD.:    84.306 HEAT:  170.1186
 CYCLE:   514 TIME:   0.109 TIME LEFT:  2.00D  GRAD.:     6.172 HEAT:  170.0719
 CYCLE:   515 TIME:   0.105 TIME LEFT:  2.00D  GRAD.:    62.119 HEAT:  170.0973
 CYCLE:   516 TIME:   0.105 TIME LEFT:  2.00D  GRAD.:     9.783 HEAT:  170.0679
 CYCLE:   517 TIME:   0.102 TIME LEFT:  2.00D  GRAD.:    11.200 HEAT:  170.0674
 CYCLE:   518 TIME:   0.094 TIME LEFT:  2.00D  GRAD.:     8.509 HEAT:  170.0669
 CYCLE:   519 TIME:   0.098 TIME LEFT:  2.00D  GRAD.:     2.793 HEAT:  170.0662
 CYCLE:   520 TIME:   0.102 TIME LEFT:  2.00D  GRAD.:     2.513 HEAT:  170.0658
 CYCLE:   521 TIME:   0.102 TIME LEFT:  2.00D  GRAD.:     7.499 HEAT:  170.0652
 CYCLE:   522 TIME:   0.102 TIME LEFT:  2.00D  GRAD.:     7.253 HEAT:  170.0647
 CYCLE:   523 TIME:   0.098 TIME LEFT:  2.00D  GRAD.:     5.382 HEAT:  170.0625
 CYCLE:   524 TIME:   0.109 TIME LEFT:  2.00D  GRAD.:     3.272 HEAT:  170.0598
 CYCLE:   525 TIME:   0.102 TIME LEFT:  2.00D  GRAD.:     3.112 HEAT:  170.0583
 CYCLE:   526 TIME:   0.109 TIME LEFT:  2.00D  GRAD.:     5.005 HEAT:  170.0559
 CYCLE:   527 TIME:   0.113 TIME LEFT:  2.00D  GRAD.:    97.046 HEAT:  170.2135
 CYCLE:   528 TIME:   0.133 TIME LEFT:  2.00D  GRAD.:    60.083 HEAT:  170.1243
 CYCLE:   529 TIME:   0.125 TIME LEFT:  2.00D  GRAD.:    52.210 HEAT:  170.1063
 CYCLE:   530 TIME:   0.152 TIME LEFT:  2.00D  GRAD.:    21.415 HEAT:  170.0626
 CYCLE:   531 TIME:   0.137 TIME LEFT:  2.00D  GRAD.:     7.316 HEAT:  170.0553
 CYCLE:   532 TIME:   0.109 TIME LEFT:  2.00D  GRAD.:    52.855 HEAT:  170.0761
 CYCLE:   533 TIME:   0.113 TIME LEFT:  2.00D  GRAD.:   109.179 HEAT:  170.1318
 CYCLE:   534 TIME:   0.121 TIME LEFT:  2.00D  GRAD.:   354.798 HEAT:  170.9762
 CYCLE:   535 TIME:   0.164 TIME LEFT:  2.00D  GRAD.:   259.850 HEAT:  170.5943
 CYCLE:   536 TIME:   0.176 TIME LEFT:  2.00D  GRAD.:   195.323 HEAT:  170.3437
 CYCLE:   537 TIME:   0.125 TIME LEFT:  2.00D  GRAD.:   304.435 HEAT:  170.9768
 CYCLE:   538 TIME:   0.125 TIME LEFT:  2.00D  GRAD.:   148.993 HEAT:  170.2727
 CYCLE:   539 TIME:   0.125 TIME LEFT:  2.00D  GRAD.:   312.209 HEAT:  170.9646
 CYCLE:   540 TIME:   0.109 TIME LEFT:  2.00D  GRAD.:   120.818 HEAT:  170.2103
 CYCLE:   541 TIME:   0.117 TIME LEFT:  2.00D  GRAD.:   107.355 HEAT:  170.2175
 CYCLE:   542 TIME:   0.117 TIME LEFT:  2.00D  GRAD.:    49.865 HEAT:  170.0941
 CYCLE:   543 TIME:   0.117 TIME LEFT:  2.00D  GRAD.:   188.432 HEAT:  170.3645
 CYCLE:   544 TIME:   0.117 TIME LEFT:  2.00D  GRAD.:   168.481 HEAT:  170.3136
 CYCLE:   545 TIME:   0.113 TIME LEFT:  2.00D  GRAD.:    18.223 HEAT:  170.0550
 CYCLE:   546 TIME:   0.105 TIME LEFT:  2.00D  GRAD.:     4.564 HEAT:  170.0516
 CYCLE:   547 TIME:   0.098 TIME LEFT:  2.00D  GRAD.:     9.176 HEAT:  170.0517
 CYCLE:   548 TIME:   0.105 TIME LEFT:  2.00D  GRAD.:     2.817 HEAT:  170.0510
 CYCLE:   549 TIME:   0.102 TIME LEFT:  2.00D  GRAD.:     3.969 HEAT:  170.0510
 CYCLE:   550 TIME:   0.105 TIME LEFT:  2.00D  GRAD.:     2.271 HEAT:  170.0503
 CYCLE:   551 TIME:   0.105 TIME LEFT:  2.00D  GRAD.:     3.524 HEAT:  170.0491
 CYCLE:   552 TIME:   0.109 TIME LEFT:  2.00D  GRAD.:    11.444 HEAT:  170.0475
 CYCLE:   553 TIME:   0.105 TIME LEFT:  2.00D  GRAD.:     7.114 HEAT:  170.0455
 CYCLE:   554 TIME:   0.105 TIME LEFT:  2.00D  GRAD.:     4.282 HEAT:  170.0432
 CYCLE:   555 TIME:   0.105 TIME LEFT:  2.00D  GRAD.:     4.582 HEAT:  170.0416
 CYCLE:   556 TIME:   0.102 TIME LEFT:  2.00D  GRAD.:     5.428 HEAT:  170.0393
 CYCLE:   557 TIME:   0.109 TIME LEFT:  2.00D  GRAD.:     5.231 HEAT:  170.0361
 CYCLE:   558 TIME:   0.105 TIME LEFT:  2.00D  GRAD.:    13.010 HEAT:  170.0345
 CYCLE:   559 TIME:   0.105 TIME LEFT:  2.00D  GRAD.:     5.700 HEAT:  170.0300
 CYCLE:   560 TIME:   0.109 TIME LEFT:  2.00D  GRAD.:     8.910 HEAT:  170.0270
 CYCLE:   561 TIME:   0.109 TIME LEFT:  2.00D  GRAD.:     8.746 HEAT:  170.0241
 CYCLE:   562 TIME:   0.109 TIME LEFT:  2.00D  GRAD.:    71.317 HEAT:  170.0614
 CYCLE:   563 TIME:   0.105 TIME LEFT:  2.00D  GRAD.:     9.179 HEAT:  170.0199
 CYCLE:   564 TIME:   0.102 TIME LEFT:  2.00D  GRAD.:     4.445 HEAT:  170.0188
 CYCLE:   565 TIME:   0.102 TIME LEFT:  2.00D  GRAD.:     5.884 HEAT:  170.0176
 CYCLE:   566 TIME:   0.105 TIME LEFT:  2.00D  GRAD.:     5.510 HEAT:  170.0167
 CYCLE:   567 TIME:   0.102 TIME LEFT:  2.00D  GRAD.:     7.279 HEAT:  170.0147
 CYCLE:   568 TIME:   0.109 TIME LEFT:  2.00D  GRAD.:     6.083 HEAT:  170.0119
 CYCLE:   569 TIME:   0.105 TIME LEFT:  2.00D  GRAD.:     6.217 HEAT:  170.0099
 CYCLE:   570 TIME:   0.105 TIME LEFT:  2.00D  GRAD.:     6.483 HEAT:  170.0064
 CYCLE:   571 TIME:   0.113 TIME LEFT:  2.00D  GRAD.:    10.486 HEAT:  170.0045
 CYCLE:   572 TIME:   0.105 TIME LEFT:  2.00D  GRAD.:     5.718 HEAT:  170.0027
 CYCLE:   573 TIME:   0.113 TIME LEFT:  2.00D  GRAD.:    27.891 HEAT:  170.0313
 CYCLE:   574 TIME:   0.105 TIME LEFT:  2.00D  GRAD.:     3.428 HEAT:  169.9973
 CYCLE:   575 TIME:   0.109 TIME LEFT:  2.00D  GRAD.:     3.173 HEAT:  169.9962
 CYCLE:   576 TIME:   0.098 TIME LEFT:  2.00D  GRAD.:     8.279 HEAT:  169.9953
 CYCLE:   577 TIME:   0.098 TIME LEFT:  2.00D  GRAD.:     4.079 HEAT:  169.9944
 CYCLE:   578 TIME:   0.105 TIME LEFT:  2.00D  GRAD.:    13.147 HEAT:  169.9938
 CYCLE:   579 TIME:   0.105 TIME LEFT:  2.00D  GRAD.:     3.422 HEAT:  169.9924
 CYCLE:   580 TIME:   0.102 TIME LEFT:  2.00D  GRAD.:     2.397 HEAT:  169.9916
 CYCLE:   581 TIME:   0.109 TIME LEFT:  2.00D  GRAD.:     5.744 HEAT:  169.9900
 CYCLE:   582 TIME:   0.105 TIME LEFT:  2.00D  GRAD.:     5.959 HEAT:  169.9880
 CYCLE:   583 TIME:   0.102 TIME LEFT:  2.00D  GRAD.:     6.470 HEAT:  169.9869
 CYCLE:   584 TIME:   0.098 TIME LEFT:  2.00D  GRAD.:     3.530 HEAT:  169.9864
 CYCLE:   585 TIME:   0.109 TIME LEFT:  2.00D  GRAD.:    17.851 HEAT:  169.9863
 CYCLE:   586 TIME:   0.098 TIME LEFT:  2.00D  GRAD.:     5.820 HEAT:  169.9837
 CYCLE:   587 TIME:   0.102 TIME LEFT:  2.00D  GRAD.:     2.978 HEAT:  169.9825
 CYCLE:   588 TIME:   0.098 TIME LEFT:  2.00D  GRAD.:     2.658 HEAT:  169.9818
 CYCLE:   589 TIME:   0.105 TIME LEFT:  2.00D  GRAD.:     7.316 HEAT:  169.9805
 CYCLE:   590 TIME:   0.098 TIME LEFT:  2.00D  GRAD.:     2.896 HEAT:  169.9798
 CYCLE:   591 TIME:   0.098 TIME LEFT:  2.00D  GRAD.:     3.036 HEAT:  169.9792
 CYCLE:   592 TIME:   0.102 TIME LEFT:  2.00D  GRAD.:     6.333 HEAT:  169.9786
 CYCLE:   593 TIME:   0.098 TIME LEFT:  2.00D  GRAD.:     6.015 HEAT:  169.9778
 CYCLE:   594 TIME:   0.098 TIME LEFT:  2.00D  GRAD.:     2.971 HEAT:  169.9768
 CYCLE:   595 TIME:   0.102 TIME LEFT:  2.00D  GRAD.:     2.242 HEAT:  169.9762
 CYCLE:   596 TIME:   0.098 TIME LEFT:  2.00D  GRAD.:     2.182 HEAT:  169.9757
 CYCLE:   597 TIME:   0.105 TIME LEFT:  2.00D  GRAD.:     2.698 HEAT:  169.9746
 CYCLE:   598 TIME:   0.105 TIME LEFT:  2.00D  GRAD.:     8.030 HEAT:  169.9747
 CYCLE:   599 TIME:   0.094 TIME LEFT:  2.00D  GRAD.:     2.238 HEAT:  169.9737
 CYCLE:   600 TIME:   0.102 TIME LEFT:  2.00D  GRAD.:     1.849 HEAT:  169.9733
 CYCLE:   601 TIME:   0.102 TIME LEFT:  2.00D  GRAD.:     2.291 HEAT:  169.9730
 CYCLE:   602 TIME:   0.102 TIME LEFT:  2.00D  GRAD.:     2.557 HEAT:  169.9725
 CYCLE:   603 TIME:   0.105 TIME LEFT:  2.00D  GRAD.:     4.254 HEAT:  169.9721
 CYCLE:   604 TIME:   0.098 TIME LEFT:  2.00D  GRAD.:     2.088 HEAT:  169.9717
 CYCLE:   605 TIME:   0.098 TIME LEFT:  2.00D  GRAD.:     2.022 HEAT:  169.9714
 CYCLE:   606 TIME:   0.105 TIME LEFT:  2.00D  GRAD.:     3.019 HEAT:  169.9710
 CYCLE:   607 TIME:   0.098 TIME LEFT:  2.00D  GRAD.:     2.183 HEAT:  169.9705
 CYCLE:   608 TIME:   0.105 TIME LEFT:  2.00D  GRAD.:     2.052 HEAT:  169.9699
 CYCLE:   609 TIME:   0.102 TIME LEFT:  2.00D  GRAD.:     2.614 HEAT:  169.9694
 CYCLE:   610 TIME:   0.105 TIME LEFT:  2.00D  GRAD.:     2.494 HEAT:  169.9689
 CYCLE:   611 TIME:   0.105 TIME LEFT:  2.00D  GRAD.:     1.825 HEAT:  169.9682
 CYCLE:   612 TIME:   0.105 TIME LEFT:  2.00D  GRAD.:     3.882 HEAT:  169.9673
 CYCLE:   613 TIME:   0.105 TIME LEFT:  2.00D  GRAD.:     1.968 HEAT:  169.9661
 CYCLE:   614 TIME:   0.105 TIME LEFT:  2.00D  GRAD.:     1.529 HEAT:  169.9655
 CYCLE:   615 TIME:   0.109 TIME LEFT:  2.00D  GRAD.:     3.052 HEAT:  169.9648
 CYCLE:   616 TIME:   0.098 TIME LEFT:  2.00D  GRAD.:     4.368 HEAT:  169.9646
 CYCLE:   617 TIME:   0.102 TIME LEFT:  2.00D  GRAD.:     5.985 HEAT:  169.9642
 CYCLE:   618 TIME:   0.102 TIME LEFT:  2.00D  GRAD.:    21.482 HEAT:  169.9693
 CYCLE:   619 TIME:   0.102 TIME LEFT:  2.00D  GRAD.:     1.653 HEAT:  169.9638
 CYCLE:   620 TIME:   0.105 TIME LEFT:  2.00D  GRAD.:     1.288 HEAT:  169.9640
 CYCLE:   621 TIME:   0.109 TIME LEFT:  2.00D  GRAD.:     3.095 HEAT:  169.9639
 CYCLE:   622 TIME:   0.098 TIME LEFT:  2.00D  GRAD.:     6.364 HEAT:  169.9635
 CYCLE:   623 TIME:   0.098 TIME LEFT:  2.00D  GRAD.:     4.736 HEAT:  169.9633
 CYCLE:   624 TIME:   0.098 TIME LEFT:  2.00D  GRAD.:     1.238 HEAT:  169.9631
 CYCLE:   625 TIME:   0.098 TIME LEFT:  2.00D  GRAD.:     1.051 HEAT:  169.9630
 CYCLE:   626 TIME:   0.109 TIME LEFT:  2.00D  GRAD.:     5.384 HEAT:  169.9626
 CYCLE:   627 TIME:   0.105 TIME LEFT:  2.00D  GRAD.:     1.936 HEAT:  169.9631
 CYCLE:   628 TIME:   0.109 TIME LEFT:  2.00D  GRAD.:     6.063 HEAT:  169.9625
 CYCLE:   629 TIME:   0.105 TIME LEFT:  2.00D  GRAD.:     4.739 HEAT:  169.9633
 CYCLE:   630 TIME:   0.109 TIME LEFT:  2.00D  GRAD.:     7.729 HEAT:  169.9623
 CYCLE:   631 TIME:   0.105 TIME LEFT:  2.00D  GRAD.:     4.658 HEAT:  169.9634
 CYCLE:   632 TIME:   0.109 TIME LEFT:  2.00D  GRAD.:    23.534 HEAT:  169.9686
 CYCLE:   633 TIME:   0.105 TIME LEFT:  2.00D  GRAD.:    17.485 HEAT:  169.9678
 CYCLE:   634 TIME:   0.105 TIME LEFT:  2.00D  GRAD.:     4.750 HEAT:  169.9626
 CYCLE:   635 TIME:   0.109 TIME LEFT:  2.00D  GRAD.:     6.656 HEAT:  169.9618
 CYCLE:   636 TIME:   0.102 TIME LEFT:  2.00D  GRAD.:     3.088 HEAT:  169.9615
 CYCLE:   637 TIME:   0.098 TIME LEFT:  2.00D  GRAD.:     3.461 HEAT:  169.9614
 CYCLE:   638 TIME:   0.098 TIME LEFT:  2.00D  GRAD.:     5.071 HEAT:  169.9614
 CYCLE:   639 TIME:   0.094 TIME LEFT:  2.00D  GRAD.:     1.585 HEAT:  169.9612
 CYCLE:   640 TIME:   0.102 TIME LEFT:  2.00D  GRAD.:     1.114 HEAT:  169.9612
 CYCLE:   641 TIME:   0.102 TIME LEFT:  2.00D  GRAD.:     1.660 HEAT:  169.9611
 CYCLE:   642 TIME:   0.102 TIME LEFT:  2.00D  GRAD.:     1.907 HEAT:  169.9609
 CYCLE:   643 TIME:   0.105 TIME LEFT:  2.00D  GRAD.:     1.416 HEAT:  169.9606
 CYCLE:   644 TIME:   0.109 TIME LEFT:  2.00D  GRAD.:     1.592 HEAT:  169.9604
 CYCLE:   645 TIME:   0.102 TIME LEFT:  2.00D  GRAD.:     1.628 HEAT:  169.9602
 CYCLE:   646 TIME:   0.109 TIME LEFT:  2.00D  GRAD.:     2.219 HEAT:  169.9597
 CYCLE:   647 TIME:   0.105 TIME LEFT:  2.00D  GRAD.:     3.094 HEAT:  169.9594
 CYCLE:   648 TIME:   0.105 TIME LEFT:  2.00D  GRAD.:     1.503 HEAT:  169.9588
 CYCLE:   649 TIME:   0.105 TIME LEFT:  2.00D  GRAD.:     1.611 HEAT:  169.9585
 CYCLE:   650 TIME:   0.105 TIME LEFT:  2.00D  GRAD.:     4.280 HEAT:  169.9583
 CYCLE:   651 TIME:   0.102 TIME LEFT:  2.00D  GRAD.:     2.165 HEAT:  169.9579
 CYCLE:   652 TIME:   0.102 TIME LEFT:  2.00D  GRAD.:     1.467 HEAT:  169.9578
 CYCLE:   653 TIME:   0.109 TIME LEFT:  2.00D  GRAD.:     3.599 HEAT:  169.9575
 CYCLE:   654 TIME:   0.098 TIME LEFT:  2.00D  GRAD.:    10.140 HEAT:  169.9578
 CYCLE:   655 TIME:   0.102 TIME LEFT:  2.00D  GRAD.:     2.518 HEAT:  169.9570
 CYCLE:   656 TIME:   0.102 TIME LEFT:  2.00D  GRAD.:     2.640 HEAT:  169.9571
 CYCLE:   657 TIME:   0.102 TIME LEFT:  2.00D  GRAD.:     2.144 HEAT:  169.9569
 CYCLE:   658 TIME:   0.098 TIME LEFT:  2.00D  GRAD.:     2.594 HEAT:  169.9566
 CYCLE:   659 TIME:   0.098 TIME LEFT:  2.00D  GRAD.:     1.404 HEAT:  169.9564
 CYCLE:   660 TIME:   0.105 TIME LEFT:  2.00D  GRAD.:     1.518 HEAT:  169.9562
 CYCLE:   661 TIME:   0.105 TIME LEFT:  2.00D  GRAD.:     2.012 HEAT:  169.9560
 CYCLE:   662 TIME:   0.105 TIME LEFT:  2.00D  GRAD.:     4.184 HEAT:  169.9560
 CYCLE:   663 TIME:   0.098 TIME LEFT:  2.00D  GRAD.:     1.318 HEAT:  169.9557
 CYCLE:   664 TIME:   0.105 TIME LEFT:  2.00D  GRAD.:     1.760 HEAT:  169.9555
 CYCLE:   665 TIME:   0.098 TIME LEFT:  2.00D  GRAD.:     1.578 HEAT:  169.9553
 CYCLE:   666 TIME:   0.109 TIME LEFT:  2.00D  GRAD.:     1.461 HEAT:  169.9549
 CYCLE:   667 TIME:   0.105 TIME LEFT:  2.00D  GRAD.:     5.548 HEAT:  169.9547
 CYCLE:   668 TIME:   0.098 TIME LEFT:  2.00D  GRAD.:     2.311 HEAT:  169.9544
 CYCLE:   669 TIME:   0.105 TIME LEFT:  2.00D  GRAD.:     1.569 HEAT:  169.9540
 CYCLE:   670 TIME:   0.102 TIME LEFT:  2.00D  GRAD.:     2.665 HEAT:  169.9538
 CYCLE:   671 TIME:   0.102 TIME LEFT:  2.00D  GRAD.:     1.620 HEAT:  169.9535
 CYCLE:   672 TIME:   0.105 TIME LEFT:  2.00D  GRAD.:     1.530 HEAT:  169.9531
 CYCLE:   673 TIME:   0.109 TIME LEFT:  2.00D  GRAD.:     2.781 HEAT:  169.9526
 CYCLE:   674 TIME:   0.105 TIME LEFT:  2.00D  GRAD.:     2.460 HEAT:  169.9519
 CYCLE:   675 TIME:   0.105 TIME LEFT:  2.00D  GRAD.:    11.668 HEAT:  169.9528
 CYCLE:   676 TIME:   0.102 TIME LEFT:  2.00D  GRAD.:     3.840 HEAT:  169.9513
 CYCLE:   677 TIME:   0.133 TIME LEFT:  2.00D  GRAD.:     1.671 HEAT:  169.9509
 CYCLE:   678 TIME:   0.168 TIME LEFT:  2.00D  GRAD.:     3.494 HEAT:  169.9509
 CYCLE:   679 TIME:   0.133 TIME LEFT:  2.00D  GRAD.:    20.283 HEAT:  169.9545
 CYCLE:   680 TIME:   0.117 TIME LEFT:  2.00D  GRAD.:    17.339 HEAT:  169.9538
 CYCLE:   681 TIME:   0.109 TIME LEFT:  2.00D  GRAD.:     6.963 HEAT:  169.9508
 CYCLE:   682 TIME:   0.105 TIME LEFT:  2.00D  GRAD.:    13.696 HEAT:  169.9525
 CYCLE:   683 TIME:   0.105 TIME LEFT:  2.00D  GRAD.:     1.571 HEAT:  169.9493
 CYCLE:   684 TIME:   0.102 TIME LEFT:  2.00D  GRAD.:     1.027 HEAT:  169.9494
 CYCLE:   685 TIME:   0.109 TIME LEFT:  2.00D  GRAD.:     9.430 HEAT:  169.9499
 CYCLE:   686 TIME:   0.098 TIME LEFT:  2.00D  GRAD.:     1.859 HEAT:  169.9491
 CYCLE:   687 TIME:   0.102 TIME LEFT:  2.00D  GRAD.:     1.071 HEAT:  169.9490
 CYCLE:   688 TIME:   0.102 TIME LEFT:  2.00D  GRAD.:     1.046 HEAT:  169.9487
 CYCLE:   689 TIME:   0.109 TIME LEFT:  2.00D  GRAD.:     6.838 HEAT:  169.9487
 CYCLE:   690 TIME:   0.094 TIME LEFT:  2.00D  GRAD.:     1.491 HEAT:  169.9483
 CYCLE:   691 TIME:   0.109 TIME LEFT:  2.00D  GRAD.:     2.793 HEAT:  169.9482
 CYCLE:   692 TIME:   0.098 TIME LEFT:  2.00D  GRAD.:     2.053 HEAT:  169.9481
 CYCLE:   693 TIME:   0.098 TIME LEFT:  2.00D  GRAD.:     0.742 HEAT:  169.9480
 CYCLE:   694 TIME:   0.102 TIME LEFT:  2.00D  GRAD.:     0.678 HEAT:  169.9479
 CYCLE:   695 TIME:   0.105 TIME LEFT:  2.00D  GRAD.:     1.487 HEAT:  169.9477
 CYCLE:   696 TIME:   0.109 TIME LEFT:  2.00D  GRAD.:     1.464 HEAT:  169.9474
 CYCLE:   697 TIME:   0.109 TIME LEFT:  2.00D  GRAD.:     1.132 HEAT:  169.9474
 CYCLE:   698 TIME:   0.105 TIME LEFT:  2.00D  GRAD.:     2.846 HEAT:  169.9472
 CYCLE:   699 TIME:   0.098 TIME LEFT:  2.00D  GRAD.:     1.285 HEAT:  169.9470
 CYCLE:   700 TIME:   0.098 TIME LEFT:  2.00D  GRAD.:     0.810 HEAT:  169.9470
 CYCLE:   701 TIME:   0.105 TIME LEFT:  2.00D  GRAD.:     5.312 HEAT:  169.9471
 CYCLE:   702 TIME:   0.098 TIME LEFT:  2.00D  GRAD.:     1.373 HEAT:  169.9469
 CYCLE:   703 TIME:   0.102 TIME LEFT:  2.00D  GRAD.:     1.097 HEAT:  169.9468
 CYCLE:   704 TIME:   0.102 TIME LEFT:  2.00D  GRAD.:     2.294 HEAT:  169.9467
 CYCLE:   705 TIME:   0.094 TIME LEFT:  2.00D  GRAD.:     1.708 HEAT:  169.9466
 CYCLE:   706 TIME:   0.098 TIME LEFT:  2.00D  GRAD.:     1.218 HEAT:  169.9466
 CYCLE:   707 TIME:   0.109 TIME LEFT:  2.00D  GRAD.:     1.672 HEAT:  169.9465
 CYCLE:   708 TIME:   0.102 TIME LEFT:  2.00D  GRAD.:     0.867 HEAT:  169.9464
 CYCLE:   709 TIME:   0.102 TIME LEFT:  2.00D  GRAD.:     0.644 HEAT:  169.9463
 CYCLE:   710 TIME:   0.105 TIME LEFT:  2.00D  GRAD.:     0.958 HEAT:  169.9461
 CYCLE:   711 TIME:   0.105 TIME LEFT:  2.00D  GRAD.:     1.364 HEAT:  169.9459
 CYCLE:   712 TIME:   0.102 TIME LEFT:  2.00D  GRAD.:     0.808 HEAT:  169.9458
 CYCLE:   713 TIME:   0.098 TIME LEFT:  2.00D  GRAD.:     0.830 HEAT:  169.9457
 CYCLE:   714 TIME:   0.109 TIME LEFT:  2.00D  GRAD.:     1.289 HEAT:  169.9456
 CYCLE:   715 TIME:   0.105 TIME LEFT:  2.00D  GRAD.:     3.077 HEAT:  169.9455
 CYCLE:   716 TIME:   0.094 TIME LEFT:  2.00D  GRAD.:     1.083 HEAT:  169.9454
 CYCLE:   717 TIME:   0.105 TIME LEFT:  2.00D  GRAD.:     2.514 HEAT:  169.9454
 CYCLE:   718 TIME:   0.098 TIME LEFT:  2.00D  GRAD.:     0.787 HEAT:  169.9453
 CYCLE:   719 TIME:   0.102 TIME LEFT:  2.00D  GRAD.:     1.268 HEAT:  169.9453
 CYCLE:   720 TIME:   0.098 TIME LEFT:  2.00D  GRAD.:     0.982 HEAT:  169.9452
 CYCLE:   721 TIME:   0.105 TIME LEFT:  2.00D  GRAD.:     1.290 HEAT:  169.9451
 CYCLE:   722 TIME:   0.098 TIME LEFT:  2.00D  GRAD.:     2.862 HEAT:  169.9450
 CYCLE:   723 TIME:   0.098 TIME LEFT:  2.00D  GRAD.:     1.013 HEAT:  169.9450
 CYCLE:   724 TIME:   0.105 TIME LEFT:  2.00D  GRAD.:     2.538 HEAT:  169.9449
 CYCLE:   725 TIME:   0.098 TIME LEFT:  2.00D  GRAD.:     1.380 HEAT:  169.9448
 CYCLE:   726 TIME:   0.102 TIME LEFT:  2.00D  GRAD.:     0.597 HEAT:  169.9448
 CYCLE:   727 TIME:   0.105 TIME LEFT:  2.00D  GRAD.:     1.321 HEAT:  169.9446
 CYCLE:   728 TIME:   0.105 TIME LEFT:  2.00D  GRAD.:     1.859 HEAT:  169.9445
 CYCLE:   729 TIME:   0.105 TIME LEFT:  2.00D  GRAD.:     2.510 HEAT:  169.9444
 CYCLE:   730 TIME:   0.098 TIME LEFT:  2.00D  GRAD.:     1.307 HEAT:  169.9442
 CYCLE:   731 TIME:   0.105 TIME LEFT:  2.00D  GRAD.:     3.131 HEAT:  169.9443
 CYCLE:   732 TIME:   0.102 TIME LEFT:  2.00D  GRAD.:     1.138 HEAT:  169.9440
 CYCLE:   733 TIME:   0.102 TIME LEFT:  2.00D  GRAD.:     0.982 HEAT:  169.9439
 CYCLE:   734 TIME:   0.105 TIME LEFT:  2.00D  GRAD.:     1.261 HEAT:  169.9436
 CYCLE:   735 TIME:   0.109 TIME LEFT:  2.00D  GRAD.:     3.530 HEAT:  169.9434
 CYCLE:   736 TIME:   0.098 TIME LEFT:  2.00D  GRAD.:     1.490 HEAT:  169.9431
 CYCLE:   737 TIME:   0.098 TIME LEFT:  2.00D  GRAD.:     0.996 HEAT:  169.9431
 CYCLE:   738 TIME:   0.105 TIME LEFT:  2.00D  GRAD.:     5.679 HEAT:  169.9431
 CYCLE:   739 TIME:   0.102 TIME LEFT:  2.00D  GRAD.:     2.237 HEAT:  169.9431
 CYCLE:   740 TIME:   0.105 TIME LEFT:  2.00D  GRAD.:     1.590 HEAT:  169.9428
 CYCLE:   741 TIME:   0.098 TIME LEFT:  2.00D  GRAD.:     1.244 HEAT:  169.9428
 CYCLE:   742 TIME:   0.105 TIME LEFT:  2.00D  GRAD.:     2.214 HEAT:  169.9427
 CYCLE:   743 TIME:   0.098 TIME LEFT:  2.00D  GRAD.:     1.919 HEAT:  169.9426
 CYCLE:   744 TIME:   0.094 TIME LEFT:  2.00D  GRAD.:     1.143 HEAT:  169.9426
 CYCLE:   745 TIME:   0.102 TIME LEFT:  2.00D  GRAD.:     0.503 HEAT:  169.9425
 CYCLE:   746 TIME:   0.105 TIME LEFT:  2.00D  GRAD.:     0.958 HEAT:  169.9424
 CYCLE:   747 TIME:   0.105 TIME LEFT:  2.00D  GRAD.:     1.298 HEAT:  169.9424
 CYCLE:   748 TIME:   0.105 TIME LEFT:  2.00D  GRAD.:     1.598 HEAT:  169.9422
 CYCLE:   749 TIME:   0.105 TIME LEFT:  2.00D  GRAD.:     4.153 HEAT:  169.9420
 CYCLE:   750 TIME:   0.102 TIME LEFT:  2.00D  GRAD.:     1.472 HEAT:  169.9419
 CYCLE:   751 TIME:   0.109 TIME LEFT:  2.00D  GRAD.:     5.336 HEAT:  169.9420
 CYCLE:   752 TIME:   0.094 TIME LEFT:  2.00D  GRAD.:     1.203 HEAT:  169.9416
 CYCLE:   753 TIME:   0.109 TIME LEFT:  2.00D  GRAD.:     1.470 HEAT:  169.9416
 CYCLE:   754 TIME:   0.098 TIME LEFT:  2.00D  GRAD.:     1.557 HEAT:  169.9415
 CYCLE:   755 TIME:   0.098 TIME LEFT:  2.00D  GRAD.:     0.516 HEAT:  169.9414
 CYCLE:   756 TIME:   0.102 TIME LEFT:  2.00D  GRAD.:     1.026 HEAT:  169.9413
 CYCLE:   757 TIME:   0.102 TIME LEFT:  2.00D  GRAD.:     0.789 HEAT:  169.9413
 CYCLE:   758 TIME:   0.109 TIME LEFT:  2.00D  GRAD.:     3.219 HEAT:  169.9413
 CYCLE:   759 TIME:   0.102 TIME LEFT:  2.00D  GRAD.:     1.139 HEAT:  169.9412
 CYCLE:   760 TIME:   0.105 TIME LEFT:  2.00D  GRAD.:     1.143 HEAT:  169.9411
 CYCLE:   761 TIME:   0.102 TIME LEFT:  2.00D  GRAD.:     0.964 HEAT:  169.9410
 CYCLE:   762 TIME:   0.109 TIME LEFT:  2.00D  GRAD.:     1.314 HEAT:  169.9409
 CYCLE:   763 TIME:   0.102 TIME LEFT:  2.00D  GRAD.:     1.808 HEAT:  169.9408
 CYCLE:   764 TIME:   0.098 TIME LEFT:  2.00D  GRAD.:     0.825 HEAT:  169.9407
 CYCLE:   765 TIME:   0.102 TIME LEFT:  2.00D  GRAD.:     0.549 HEAT:  169.9407
 CYCLE:   766 TIME:   0.109 TIME LEFT:  2.00D  GRAD.:     0.649 HEAT:  169.9405
 CYCLE:   767 TIME:   0.105 TIME LEFT:  2.00D  GRAD.:     9.780 HEAT:  169.9422
 CYCLE:   768 TIME:   0.102 TIME LEFT:  2.00D  GRAD.:     3.721 HEAT:  169.9406
 CYCLE:   769 TIME:   0.102 TIME LEFT:  2.00D  GRAD.:     5.163 HEAT:  169.9407
 CYCLE:   770 TIME:   0.102 TIME LEFT:  2.00D  GRAD.:    40.022 HEAT:  169.9540
 CYCLE:   771 TIME:   0.102 TIME LEFT:  2.00D  GRAD.:     6.972 HEAT:  169.9409
 CYCLE:   772 TIME:   0.094 TIME LEFT:  2.00D  GRAD.:     0.937 HEAT:  169.9404
 CYCLE:   773 TIME:   0.098 TIME LEFT:  2.00D  GRAD.:     0.663 HEAT:  169.9404
 CYCLE:   774 TIME:   0.105 TIME LEFT:  2.00D  GRAD.:     3.187 HEAT:  169.9404
 CYCLE:   775 TIME:   0.102 TIME LEFT:  2.00D  GRAD.:     1.075 HEAT:  169.9403
 CYCLE:   776 TIME:   0.105 TIME LEFT:  2.00D  GRAD.:     0.554 HEAT:  169.9403
 CYCLE:   777 TIME:   0.102 TIME LEFT:  2.00D  GRAD.:     0.537 HEAT:  169.9402
 CYCLE:   778 TIME:   0.105 TIME LEFT:  2.00D  GRAD.:     0.984 HEAT:  169.9402
 CYCLE:   779 TIME:   0.105 TIME LEFT:  2.00D  GRAD.:     1.546 HEAT:  169.9401
 CYCLE:   780 TIME:   0.094 TIME LEFT:  2.00D  GRAD.:     0.611 HEAT:  169.9401
 CYCLE:   781 TIME:   0.105 TIME LEFT:  2.00D  GRAD.:     2.097 HEAT:  169.9400
 CYCLE:   782 TIME:   0.098 TIME LEFT:  2.00D  GRAD.:     0.749 HEAT:  169.9400
 CYCLE:   783 TIME:   0.105 TIME LEFT:  2.00D  GRAD.:     1.742 HEAT:  169.9400
 CYCLE:   784 TIME:   0.098 TIME LEFT:  2.00D  GRAD.:     0.521 HEAT:  169.9399
 CYCLE:   785 TIME:   0.098 TIME LEFT:  2.00D  GRAD.:     0.583 HEAT:  169.9399
 CYCLE:   786 TIME:   0.094 TIME LEFT:  2.00D  GRAD.:     0.393 HEAT:  169.9399
 CYCLE:   787 TIME:   0.105 TIME LEFT:  2.00D  GRAD.:     4.105 HEAT:  169.9400
 CYCLE:   788 TIME:   0.098 TIME LEFT:  2.00D  GRAD.:     0.969 HEAT:  169.9399
 CYCLE:   789 TIME:   0.098 TIME LEFT:  2.00D  GRAD.:     0.984 HEAT:  169.9399
 CYCLE:   790 TIME:   0.098 TIME LEFT:  2.00D  GRAD.:     0.580 HEAT:  169.9399
 CYCLE:   791 TIME:   0.098 TIME LEFT:  2.00D  GRAD.:     0.559 HEAT:  169.9399
 CYCLE:   792 TIME:   0.098 TIME LEFT:  2.00D  GRAD.:     0.495 HEAT:  169.9398
 CYCLE:   793 TIME:   0.098 TIME LEFT:  2.00D  GRAD.:     0.401 HEAT:  169.9398
 CYCLE:   794 TIME:   0.102 TIME LEFT:  2.00D  GRAD.:     0.401 HEAT:  169.9398
 CYCLE:   795 TIME:   0.098 TIME LEFT:  2.00D  GRAD.:     0.470 HEAT:  169.9398
 CYCLE:   796 TIME:   0.102 TIME LEFT:  2.00D  GRAD.:     0.727 HEAT:  169.9397
 CYCLE:   797 TIME:   0.102 TIME LEFT:  2.00D  GRAD.:     0.530 HEAT:  169.9397
 CYCLE:   798 TIME:   0.102 TIME LEFT:  2.00D  GRAD.:     0.356 HEAT:  169.9397
 CYCLE:   799 TIME:   0.098 TIME LEFT:  2.00D  GRAD.:     0.511 HEAT:  169.9396
 CYCLE:   800 TIME:   0.102 TIME LEFT:  2.00D  GRAD.:     0.467 HEAT:  169.9396
 CYCLE:   801 TIME:   0.098 TIME LEFT:  2.00D  GRAD.:     1.056 HEAT:  169.9396
 CYCLE:   802 TIME:   0.094 TIME LEFT:  2.00D  GRAD.:     0.424 HEAT:  169.9396
 CYCLE:   803 TIME:   0.102 TIME LEFT:  2.00D  GRAD.:     0.305 HEAT:  169.9396
 CYCLE:   804 TIME:   0.098 TIME LEFT:  2.00D  GRAD.:     0.294 HEAT:  169.9396
 CYCLE:   805 TIME:   0.102 TIME LEFT:  2.00D  GRAD.:     0.887 HEAT:  169.9395
 CYCLE:   806 TIME:   0.098 TIME LEFT:  2.00D  GRAD.:     1.789 HEAT:  169.9395
 CYCLE:   807 TIME:   0.094 TIME LEFT:  2.00D  GRAD.:     0.440 HEAT:  169.9395
 CYCLE:   808 TIME:   0.102 TIME LEFT:  2.00D  GRAD.:     0.938 HEAT:  169.9395
 CYCLE:   809 TIME:   0.102 TIME LEFT:  2.00D  GRAD.:     0.672 HEAT:  169.9395
 CYCLE:   810 TIME:   0.102 TIME LEFT:  2.00D  GRAD.:     0.314 HEAT:  169.9395
 CYCLE:   811 TIME:   0.098 TIME LEFT:  2.00D  GRAD.:     0.450 HEAT:  169.9395
 CYCLE:   812 TIME:   0.102 TIME LEFT:  2.00D  GRAD.:     0.735 HEAT:  169.9394
 CYCLE:   813 TIME:   0.102 TIME LEFT:  2.00D  GRAD.:     0.552 HEAT:  169.9394
 CYCLE:   814 TIME:   0.102 TIME LEFT:  2.00D  GRAD.:     0.476 HEAT:  169.9394
 CYCLE:   815 TIME:   0.098 TIME LEFT:  2.00D  GRAD.:     0.563 HEAT:  169.9394
 CYCLE:   816 TIME:   0.098 TIME LEFT:  2.00D  GRAD.:     0.299 HEAT:  169.9394
 CYCLE:   817 TIME:   0.098 TIME LEFT:  2.00D  GRAD.:     0.237 HEAT:  169.9394
 CYCLE:   818 TIME:   0.094 TIME LEFT:  2.00D  GRAD.:     0.437 HEAT:  169.9394
 CYCLE:   819 TIME:   0.102 TIME LEFT:  2.00D  GRAD.:     0.837 HEAT:  169.9394
 CYCLE:   820 TIME:   0.094 TIME LEFT:  2.00D  GRAD.:     0.413 HEAT:  169.9394
 CYCLE:   821 TIME:   0.098 TIME LEFT:  2.00D  GRAD.:     0.285 HEAT:  169.9394
 CYCLE:   822 TIME:   0.098 TIME LEFT:  2.00D  GRAD.:     0.270 HEAT:  169.9393
 CYCLE:   823 TIME:   0.125 TIME LEFT:  2.00D  GRAD.:     0.579 HEAT:  169.9393
 CYCLE:   824 TIME:   0.145 TIME LEFT:  2.00D  GRAD.:     1.288 HEAT:  169.9393
 CYCLE:   825 TIME:   0.160 TIME LEFT:  2.00D  GRAD.:     0.329 HEAT:  169.9393
 CYCLE:   826 TIME:   0.105 TIME LEFT:  2.00D  GRAD.:     1.038 HEAT:  169.9393
 CYCLE:   827 TIME:   0.105 TIME LEFT:  2.00D  GRAD.:     0.312 HEAT:  169.9393
 CYCLE:   828 TIME:   0.117 TIME LEFT:  2.00D  GRAD.:     0.427 HEAT:  169.9393
 CYCLE:   829 TIME:   0.133 TIME LEFT:  2.00D  GRAD.:     0.263 HEAT:  169.9393
 CYCLE:   830 TIME:   0.137 TIME LEFT:  2.00D  GRAD.:     0.275 HEAT:  169.9393
 CYCLE:   831 TIME:   0.113 TIME LEFT:  2.00D  GRAD.:     0.273 HEAT:  169.9393
 CYCLE:   832 TIME:   0.109 TIME LEFT:  2.00D  GRAD.:     0.368 HEAT:  169.9393
 CYCLE:   833 TIME:   0.105 TIME LEFT:  2.00D  GRAD.:     1.062 HEAT:  169.9393
 CYCLE:   834 TIME:   0.098 TIME LEFT:  2.00D  GRAD.:     0.187 HEAT:  169.9393
 CYCLE:   835 TIME:   0.098 TIME LEFT:  2.00D  GRAD.:     0.238 HEAT:  169.9393
 CYCLE:   836 TIME:   0.098 TIME LEFT:  2.00D  GRAD.:     0.366 HEAT:  169.9393
 CYCLE:   837 TIME:   0.102 TIME LEFT:  2.00D  GRAD.:     0.150 HEAT:  169.9392
 CYCLE:   838 TIME:   0.109 TIME LEFT:  2.00D  GRAD.:     0.152 HEAT:  169.9392
 CYCLE:   839 TIME:   0.113 TIME LEFT:  2.00D  GRAD.:     0.368 HEAT:  169.9392
 CYCLE:   840 TIME:   0.113 TIME LEFT:  2.00D  GRAD.:     0.187 HEAT:  169.9392
 CYCLE:   841 TIME:   0.117 TIME LEFT:  2.00D  GRAD.:     0.714 HEAT:  169.9392
 CYCLE:   842 TIME:   0.109 TIME LEFT:  2.00D  GRAD.:     0.289 HEAT:  169.9392
 CYCLE:   843 TIME:   0.102 TIME LEFT:  2.00D  GRAD.:     0.263 HEAT:  169.9392
 CYCLE:   844 TIME:   0.102 TIME LEFT:  2.00D  GRAD.:     1.117 HEAT:  169.9392
 CYCLE:   845 TIME:   0.098 TIME LEFT:  2.00D  GRAD.:     0.220 HEAT:  169.9392
 CYCLE:   846 TIME:   0.102 TIME LEFT:  2.00D  GRAD.:     0.165 HEAT:  169.9392
 CYCLE:   847 TIME:   0.094 TIME LEFT:  2.00D  GRAD.:     0.199 HEAT:  169.9392
 CYCLE:   848 TIME:   0.102 TIME LEFT:  2.00D  GRAD.:     0.547 HEAT:  169.9392
 CYCLE:   849 TIME:   0.098 TIME LEFT:  2.00D  GRAD.:     0.212 HEAT:  169.9392
 CYCLE:   850 TIME:   0.102 TIME LEFT:  2.00D  GRAD.:     0.141 HEAT:  169.9392
 CYCLE:   851 TIME:   0.102 TIME LEFT:  2.00D  GRAD.:     0.188 HEAT:  169.9392
 CYCLE:   852 TIME:   0.105 TIME LEFT:  2.00D  GRAD.:     0.518 HEAT:  169.9392
 CYCLE:   853 TIME:   0.102 TIME LEFT:  2.00D  GRAD.:     0.580 HEAT:  169.9392
 CYCLE:   854 TIME:   0.117 TIME LEFT:  2.00D  GRAD.:     0.452 HEAT:  169.9392
[...]
 -18.02763 -17.80636 -17.71736 -17.26737 -17.02657 -16.83786 -16.51393 -16.47249
 -16.35345 -16.24955 -15.92410 -15.81600 -15.67004 -15.43541 -15.29567 -15.08774
 -15.05642 -14.82337 -14.75123 -14.67314 -14.65332 -14.60272 -14.35502 -14.30577
 -14.25088 -14.05700 -13.92056 -13.78916 -13.65306 -13.52929 -13.46733 -13.36140
 -13.14508 -13.05457 -12.75748 -12.71129 -12.68249 -12.62308 -12.57179 -12.51590
 -12.50548 -12.38892 -12.06679 -11.88406 -11.87919 -11.77850 -11.76609 -11.53670
 -11.51047 -11.22413 -11.07810 -10.39856 -10.13266  -9.99746  -9.99511  -9.80838
  -9.65834  -9.59803  -8.89135  -8.57308  -8.07679  -1.53717  -0.95213  -0.36838
   0.02838   0.09378   0.20356   0.24202   0.29560   0.38194   0.47576   0.50890
   0.62719   1.10469   1.15489   1.20156   1.54416   1.55259   1.62820   1.78256
   2.12002   2.33023   2.40426   2.58727   2.91495   2.93497   2.93831   3.14404
   3.24228   3.46495   3.48293   3.57057   3.64014   3.72874   3.81524   3.81730
   3.87893   3.88875   3.89915   3.95151   4.05921   4.09340   4.17712   4.22138
   4.23125   4.30517   4.30948   4.33762   4.35690   4.47429   4.48046   4.51646
   4.53415   4.64328   4.64966   4.67437   4.70976   4.77129   4.82492   4.84607
   4.87893   4.92380   4.92957   4.99288   4.99751   5.01496   5.05390   5.12373
   5.14152   5.28163   5.29602   5.32351   5.33734   5.35391   5.37819   5.50658
   5.56417   5.63078   5.65309   5.65697   5.79673   5.81602   5.90650   5.94943
   5.98188   6.09264   6.20039   6.21709   6.46874   6.46986   6.67439   6.98207


              NET ATOMIC CHARGES AND DIPOLE CONTRIBUTIONS

  ATOM NO.   TYPE          CHARGE      No. of ELECS.   s-Pop       p-Pop       
   42          O          -0.373618        6.3736     1.91033     4.46329
   41          C           0.397939        3.6021     1.18158     2.42048
   43          O          -0.309308        6.3093     1.83984     4.46947
   63          H           0.245856        0.7541     0.75414
    2          C           0.042880        3.9571     1.19519     2.76193
    1          N          -0.135799        5.1358     1.84796     3.28784
    3          C          -0.119720        4.1197     1.14287     2.97685
    4          C           0.075542        3.9245     1.18729     2.73717
    5          C          -0.097533        4.0975     1.16310     2.93443
    6          C          -0.069154        4.0692     1.17939     2.88976
    7          C          -0.072647        4.0726     1.18011     2.89253
    8          C           0.000702        3.9993     1.15913     2.84017
    9          C          -0.106378        4.1064     1.17916     2.92722
   10          C          -0.073117        4.0731     1.17693     2.89618
   11          C           0.005180        3.9948     1.15298     2.84184
   12          C          -0.084604        4.0846     1.18016     2.90445
   13          C          -0.100210        4.1002     1.18119     2.91902
   14          C           0.116343        3.8837     1.11923     2.76443
   15          C          -0.009959        4.0100     1.18430     2.82566
   16          C          -0.002484        4.0025     1.18287     2.81961
   17          N          -0.396418        5.3964     1.81812     3.57829
   18          S           0.657184        5.3428     1.87551     3.46730
   19          N          -0.389021        5.3890     1.81797     3.57106
   20          C          -0.121755        4.1218     1.15873     2.96302
   21          C          -0.058920        4.0589     1.16511     2.89381
   22          C           0.017921        3.9821     1.13201     2.85007
   23          C          -0.054767        4.0548     1.17926     2.87550
   24          C          -0.153065        4.1531     1.18264     2.97043
   25          C           0.152228        3.8478     1.14207     2.70570
   26          C          -0.153027        4.1530     1.18209     2.97093
   27          C          -0.061242        4.0612     1.17768     2.88357
   28          N          -0.264931        5.2649     1.47976     3.78517
   29          C           0.124594        3.8754     1.15112     2.72429
   30          C          -0.170046        4.1700     1.17196     2.99809
   31          C          -0.053299        4.0533     1.17652     2.87678
   32          C          -0.156982        4.1570     1.17830     2.97869
   33          C          -0.035540        4.0355     1.16956     2.86598
   34          C          -0.090349        4.0903     1.15907     2.93128
   35          C          -0.090007        4.0900     1.15910     2.93091
   36          C           0.124647        3.8754     1.15109     2.72427
   37          C          -0.170516        4.1705     1.17183     2.99868
   38          C          -0.053582        4.0536     1.17643     2.87716
   39          C          -0.157169        4.1572     1.17826     2.97891
   40          C          -0.035413        4.0354     1.16958     2.86583
   44          H           0.137408        0.8626     0.86259
   45          H           0.121426        0.8786     0.87857
   46          H           0.129977        0.8700     0.87002
   47          H           0.117187        0.8828     0.88281
   48          H           0.113479        0.8865     0.88652
   49          H           0.122454        0.8775     0.87755
   50          H           0.126529        0.8735     0.87347
   51          H           0.125100        0.8749     0.87490
   52          H           0.133038        0.8670     0.86696
   53          H           0.131921        0.8681     0.86808
   54          H           0.116506        0.8835     0.88349
   55          H           0.123589        0.8764     0.87641
   56          H           0.102086        0.8979     0.89791
   57          H           0.108790        0.8912     0.89121
   58          H           0.108344        0.8917     0.89166
   59          H           0.122943        0.8771     0.87706
   60          H           0.101653        0.8983     0.89835
   61          H           0.108705        0.8913     0.89129
   62          H           0.108424        0.8916     0.89158
 DIPOLE           X         Y         Z       TOTAL
 POINT-CHG.     0.208    -2.390    -0.510     2.452
 HYBRID         2.527     0.030     0.101     2.529
 SUM            2.734    -2.359    -0.408     3.634


          ATOMIC ORBITAL ELECTRON POPULATIONS

     Atom    s        px        py        pz   
    1  N   1.84796   1.11194   1.08317   1.09273
    2  C   1.19519   0.91187   0.92392   0.92613
    3  C   1.14287   0.88979   0.93371   1.15335
    4  C   1.18729   1.00107   0.91426   0.82183
    5  C   1.16310   0.99707   0.93204   1.00533
    6  C   1.17939   0.94239   0.97551   0.97185
    7  C   1.18011   0.98255   0.92696   0.98302
    8  C   1.15913   0.95620   0.92187   0.96209
    9  C   1.17916   0.97000   0.97153   0.98568
   10  C   1.17693   0.98737   0.92983   0.97898
   11  C   1.15298   0.88742   0.93756   1.01687
   12  C   1.18016   0.99939   0.92167   0.98338
   13  C   1.18119   0.95162   0.97247   0.99493
   14  C   1.11923   0.90254   0.86064   1.00125
   15  C   1.18430   0.88875   0.94510   0.99180
   16  C   1.18287   0.95213   0.87922   0.98826
   17  N   1.81812   1.05970   1.28481   1.23379
   18  S   1.87551   1.06049   0.83458   1.57222
   19  N   1.81797   1.12681   1.21716   1.22708
   20  C   1.15873   1.00471   0.93242   1.02590
   21  C   1.16511   0.97958   0.93501   0.97922
   22  C   1.13201   0.93011   0.88296   1.03700
   23  C   1.17926   0.94274   0.97126   0.96151
   24  C   1.18264   1.00570   0.93056   1.03417
   25  C   1.14207   0.91154   0.81299   0.98117
   26  C   1.18209   0.94738   0.98603   1.03753
   27  C   1.17768   0.99136   0.92108   0.97112
   28  N   1.47976   1.33468   1.08185   1.36863
   29  C   1.15112   0.88125   0.92776   0.91528
   30  C   1.17196   1.00256   1.00301   0.99252
   31  C   1.17652   0.95909   0.94478   0.97291
   32  C   1.17830   1.01763   0.95348   1.00758
   33  C   1.16956   0.93931   0.98275   0.94392
   34  C   1.15907   0.99797   0.93069   1.00263
   35  C   1.15910   0.98916   0.94037   1.00138
   36  C   1.15109   0.95841   0.83915   0.92671
   37  C   1.17183   1.01399   0.99134   0.99335
   38  C   1.17643   0.97554   0.92609   0.97553
   39  C   1.17826   0.98865   0.98722   1.00305
   40  C   1.16958   0.96400   0.95421   0.94762
   41  C   1.18158   0.84517   0.85118   0.72413
   42  O   1.91033   1.15931   1.85479   1.44919
   43  O   1.83984   1.42033   1.18718   1.86196
   44  H   0.86259
   45  H   0.87857
   46  H   0.87002
   47  H   0.88281
   48  H   0.88652
   49  H   0.87755
   50  H   0.87347
   51  H   0.87490
   52  H   0.86696
   53  H   0.86808
   54  H   0.88349
   55  H   0.87641
   56  H   0.89791
   57  H   0.89121
   58  H   0.89166
   59  H   0.87706
   60  H   0.89835
   61  H   0.89129
   62  H   0.89158
   63  H   0.75414
 ******************** TDHF POLARIZABILITIES ********************



          MOLECULAR WEIGHT =  572.64



          ROTATIONAL CONSTANTS IN CM(-1)

          A =    0.00975176   B =    0.00053888   C =    0.00051945



           PRINCIPAL MOMENTS OF INERTIA IN UNITS OF 10**(-40)*GRAM-CM**2

          A =     2870.5346   B =    51946.3614   C =    53888.7558


 ROTATION MATRIX FOR ORIENTATION OF MOLECULE:

         0.327011   -0.850690   -0.411571
         0.943554    0.318163    0.092072
         0.052622   -0.418448    0.906715


          CARTESIAN COORDINATES 

    NO.       ATOM         X         Y         Z

     1         N        9.3651    2.1069    1.0460
     2         C        9.7431    1.1234    0.5702
     3         C       10.2267   -0.0766   -0.0116
     4         C        9.4141   -1.0457   -0.4663
     5         C        7.9633   -0.9385   -0.4442
     6         C        7.3262    0.2092   -0.9078
     7         C        5.9385    0.2857   -0.8898
     8         C        5.1927   -0.7856   -0.4060
     9         C        5.8309   -1.9382    0.0522
    10         C        7.2149   -2.0176    0.0268
    11         C        3.7364   -0.7187   -0.3800
    12         C        2.9589   -1.7196   -0.8617
    13         C        1.5269   -1.6574   -0.8240
    14         C        0.8717   -0.5917   -0.2942
    15         C        1.6358    0.5051    0.2401
    16         C        3.1063    0.4410    0.1870
    17         N        3.6986    1.5107    0.7092
    18         S        2.4952    2.5447    1.2423
    19         N        1.1732    1.6181    0.7996
    20         C       -0.5280   -0.5168   -0.2477
    21         C       -1.7084   -0.4468   -0.2115
    22         C       -3.1114   -0.3591   -0.1706
    23         C       -3.7153    0.7507    0.4236
    24         C       -5.0979    0.8426    0.4733
    25         C       -5.8728   -0.1781   -0.0877
    26         C       -5.2727   -1.2889   -0.6897
    27         C       -3.8893   -1.3779   -0.7227
    28         N       -7.2821   -0.0856   -0.0460
    29         C       -8.0493    1.0362   -0.4243
    30         C       -7.6376    2.2602   -0.9420
    31         C       -8.6278    3.1847   -1.2391
    32         C       -9.9823    2.9017   -1.0388
    33         C      -10.3922    1.6732   -0.5413
    34         C       -9.4243    0.7313   -0.2345
    35         C       -9.4977   -0.6160    0.2728
    36         C       -8.1654   -1.0987    0.3820
    37         C       -7.8874   -2.3680    0.8795
    38         C       -8.9705   -3.1562    1.2387
    39         C      -10.2858   -2.6980    1.1176
    40         C      -10.5605   -1.4245    0.6402
    41         C       11.6849   -0.2556   -0.0846
    42         O       12.2747   -1.2433   -0.4984
    43         O       12.3891    0.8046    0.3577
    44         H        9.8265   -1.9806   -0.8750
    45         H        7.9076    1.0487   -1.3029
    46         H        5.4428    1.1903   -1.2570
    47         H        5.2450   -2.7757    0.4432
    48         H        7.7175   -2.9210    0.3864
    49         H        3.4131   -2.6122   -1.3065
    50         H        0.9670   -2.5027   -1.2380
    51         H       -3.0965    1.5440    0.8561
    52         H       -5.5704    1.7006    0.9629
    53         H       -5.8814   -2.0759   -1.1468
    54         H       -3.4086   -2.2437   -1.1885
    55         H       -6.5844    2.4836   -1.1227
    56         H       -8.3418    4.1609   -1.6437
    57         H      -10.7290    3.6620   -1.2842
    58         H      -11.4504    1.4440   -0.3933
    59         H       -6.8635   -2.7273    0.9990
    60         H       -8.7911   -4.1625    1.6302
    61         H      -11.1096   -3.3550    1.4099
    62         H      -11.5865   -1.0585    0.5543
    63         H       13.3416    0.6415    0.2947


 ENERGY OF "REORIENTED" SYSTEM WITHOUT FIELD:      169.9385562103


  NFREQ=  3  IWFLB=  0  IBET=  1  IGAM=  1
  ATOL= 0.10000D-02  BTOL= 0.10000D-02    MAXITU=  500    MAXITA=  150


 *****************************************************************
 CALCULATION OF STATIC FIELD QUANTITIES
 *****************************************************************

 +++++ ALPHA AT       0.00000 EV.

                           COMPONENTS OF ALPHA

                     *X           *Y           *Z
           *=X:     812.7562       1.3836      -3.7820
           *=Y:       1.3922     425.9382      14.2089
           *=Z:      -3.7534      14.2099     141.8623

  ISOTROPIC AVERAGE ALPHA =     460.18557 A.U. =     68.19246 ANG.**3

 +++++ BETA (SECOND HARMONIC GENERATION) AT       0.00000 EV.

                              COMPONENTS OF BETA
            *XX         *XY         *YY         *XZ         *YZ         *ZZ
   *=X -7127.99045    28.06203   765.83381   -66.45046  -142.62656   149.15074
   *=Y    28.29810   765.74147   133.50499  -142.58039    67.19775    67.13746
   *=Z   -66.40961  -142.62372    67.27783   149.18443    67.13449    71.75364


 AVERAGE BETAX(SHG) VALUE AT   0.00000 EV =      -3727.8270 a.u. = -0.322063E-28 ESU
 AVERAGE BETAY(SHG) VALUE AT   0.00000 EV =        137.2687 a.u. =  0.118592E-29 ESU
 AVERAGE BETAZ(SHG) VALUE AT   0.00000 EV =         43.5247 a.u. =  0.376028E-30 ESU



 AVERAGE BETA (SHG) VALUE AT   0.00000 EV =       3730.6074 a.u. =  0.322303E-28 ESU
   (1 a.u. = 8.639418X10-33 esu)



 +++++ ALPHA AT       0.00000 EV.

                           COMPONENTS OF ALPHA

                     *X           *Y           *Z
           *=X:     812.7562       1.3836      -3.7820
           *=Y:       1.3922     425.9382      14.2089
           *=Z:      -3.7534      14.2099     141.8623

  ISOTROPIC AVERAGE ALPHA =     460.18557 A.U. =     68.19246 ANG.**3


 GAMMA (THIRD HARMONIC GENERATION) AT    0.00000 EV.


 GAMMA(X,X,X,X) =       3815931.11273
 GAMMA(Y,Y,Y,Y) =         77290.65609
 GAMMA(Z,Z,Z,Z) =          6849.64062
 GAMMA(X,X,Y,Y) =        -23424.28265
 GAMMA(X,X,Z,Z) =         -4084.80662
 GAMMA(Y,Y,X,X) =        -23424.62714
 GAMMA(Y,Y,Z,Z) =         15242.74222
 GAMMA(Z,Z,X,X) =         -4085.22024
 GAMMA(Z,Z,Y,Y) =         15242.80204


 AVERAGE GAMMA VALUE AT    0.00000 =        775107.60341 a.u. =       390398.64658 ESU (X10-39)




 **********************************************************************
 CALCULATION FOR A FREQUENCY OF    0.25000 EV  =       0.00919 A.U. 
                  WAVELENGTH OF    4959.37 NM  =    2016.38525 CM(-1)
 **********************************************************************

 +++++ ALPHA AT       0.25000 EV.

                           COMPONENTS OF ALPHA

                     *X           *Y           *Z
           *=X:     816.5880       1.4167      -3.7556
           *=Y:       1.4238     426.7165      14.2047
           *=Z:      -3.7247      14.2061     142.0764

  ISOTROPIC AVERAGE ALPHA =     461.79366 A.U. =     68.43076 ANG.**3

 +++++ BETA (SECOND HARMONIC GENERATION) AT       0.25000 EV.

                              COMPONENTS OF BETA
            *XX         *XY         *YY         *XZ         *YZ         *ZZ
   *=X -7472.78931    12.12085   789.96920   -77.14547  -146.22665   154.49148
   *=Y    29.81848   780.68025   136.28969  -146.03690    69.09539    68.63180
   *=Z   -69.02493  -146.20545    69.65937   152.08467    68.28581    72.53475


 AVERAGE BETAX(SHG) VALUE AT   0.25000 EV =      -3921.6755 a.u. = -0.338810E-28 ESU
 AVERAGE BETAY(SHG) VALUE AT   0.25000 EV =        133.6265 a.u. =  0.115446E-29 ESU
 AVERAGE BETAZ(SHG) VALUE AT   0.25000 EV =         40.4277 a.u. =  0.349272E-30 ESU



 AVERAGE BETA (SHG) VALUE AT   0.25000 EV =       3924.1597 a.u. =  0.339025E-28 ESU
   (1 a.u. = 8.639418X10-33 esu)



 +++++ ALPHA AT       0.75000 EV.

                           COMPONENTS OF ALPHA

                     *X           *Y           *Z
           *=X:     849.5207       1.6765      -3.5034
           *=Y:       1.6821     433.1093      14.1741
           *=Z:      -3.4762      14.1752     143.8415

  ISOTROPIC AVERAGE ALPHA =     475.49052 A.U. =     70.46042 ANG.**3


 GAMMA (THIRD HARMONIC GENERATION) AT    0.25000 EV.


 GAMMA(X,X,X,X) =       4233273.13301
 GAMMA(Y,Y,Y,Y) =         81014.45890
 GAMMA(Z,Z,Z,Z) =          7094.44136
 GAMMA(X,X,Y,Y) =        -26078.85433
 GAMMA(X,X,Z,Z) =         -4875.71025
 GAMMA(Y,Y,X,X) =        -24235.87652
 GAMMA(Y,Y,Z,Z) =         15997.16305
 GAMMA(Z,Z,X,X) =         -4439.85576
 GAMMA(Z,Z,Y,Y) =         15942.21058


 AVERAGE GAMMA VALUE AT    0.25000 =        858738.22201 a.u. =       432520.90182 ESU (X10-39)




 **********************************************************************
 CALCULATION FOR A FREQUENCY OF    0.50000 EV  =       0.01837 A.U. 
                  WAVELENGTH OF    2479.68 NM  =    4032.77050 CM(-1)
 **********************************************************************

 +++++ ALPHA AT       0.50000 EV.

                           COMPONENTS OF ALPHA

                     *X           *Y           *Z
           *=X:     828.4465       1.5142      -3.6657
           *=Y:       1.5195     429.0781      14.1929
           *=Z:      -3.6355      14.1944     142.7282

  ISOTROPIC AVERAGE ALPHA =     466.75093 A.U. =     69.16535 ANG.**3

 +++++ BETA (SECOND HARMONIC GENERATION) AT       0.50000 EV.

                              COMPONENTS OF BETA
            *XX         *XY         *YY         *XZ         *YZ         *ZZ
   *=X -8692.00919   -49.79278   873.34288  -117.36121  -158.19134   172.98065
   *=Y    37.11802   828.72643   145.54530  -157.03190    75.41012    73.57681
   *=Z   -77.11138  -157.73912    77.59564   161.39691    72.05276    75.07948


 AVERAGE BETAX(SHG) VALUE AT   0.50000 EV =      -4609.8915 a.u. = -0.398268E-28 ESU
 AVERAGE BETAY(SHG) VALUE AT   0.50000 EV =        118.3701 a.u. =  0.102265E-29 ESU
 AVERAGE BETAZ(SHG) VALUE AT   0.50000 EV =         28.3641 a.u. =  0.245049E-30 ESU



 AVERAGE BETA (SHG) VALUE AT   0.50000 EV =       4611.4982 a.u. =  0.398407E-28 ESU
   (1 a.u. = 8.639418X10-33 esu)



 +++++ ALPHA AT       1.50000 EV.

                           COMPONENTS OF ALPHA

                     *X           *Y           *Z
           *=X:    1005.5084       2.5992      -2.3289
           *=Y:       2.6021     457.3370      14.1066
           *=Z:      -2.2799      14.1078     150.5070

  ISOTROPIC AVERAGE ALPHA =     537.78412 A.U. =     79.69138 ANG.**3


 GAMMA (THIRD HARMONIC GENERATION) AT    0.50000 EV.


 GAMMA(X,X,X,X) =       6109906.48692
 GAMMA(Y,Y,Y,Y) =         94172.28637
 GAMMA(Z,Z,Z,Z) =          7949.68107
 GAMMA(X,X,Y,Y) =        -38300.99282
 GAMMA(X,X,Z,Z) =         -8619.36272
 GAMMA(Y,Y,X,X) =        -27235.15767
 GAMMA(Y,Y,Z,Z) =         18662.89036
 GAMMA(Z,Z,X,X) =         -5720.46495
 GAMMA(Z,Z,Y,Y) =         18411.66815


 AVERAGE GAMMA VALUE AT    0.50000 =       1233845.40694 a.u. =       621451.23443 ESU (X10-39)



 **********************
 *                    *
 * JOB ENDED NORMALLY *
 *                    *
 **********************



 TOTAL JOB TIME:           230.79 SECONDS

 == MOPAC DONE ==
