 *******************************************************************************
 ** Site#: 4824         For non-commercial use only    Version 21.013L 64BITS **
 *******************************************************************************
 ** Cite this program as: MOPAC2016, Version: 21.013L, James J. P. Stewart,   **
 ** Stewart Computational Chemistry, web: HTTP://OpenMOPAC.net. Days left:  87**
 *******************************************************************************
 **                                                                           **
 **                                MOPAC2016                                  **
 **                                                                           **
 *******************************************************************************

                              RM1 CALCULATION RESULTS

 *******************************************************************************
 *  CALCULATION DONE:                                Mon Oct 18 08:18:39 2021  *
 *  RM1        - The RM1 Hamiltonian to be used
 *  POLAR      - CALCULATE FIRST, SECOND AND THIRD-ORDER POLARIZABILITIES
 *  PRECISE    - TIGHTER CRITERIA TO BE USED
 *  T=         - A TIME OF 172800.0 SECONDS REQUESTED
 *  DUMP=N     - RESTART FILE WRITTEN EVERY 7200.0 SECONDS REQUESTED
 *  GNORM      - EXIT WHEN GRADIENT NORM DROPS BELOW 0.100
 *******************************************************************************
RM1 PRECISE POLAR GNORM=0.1


  ATOM    CHEMICAL      BOND LENGTH      BOND ANGLE     TWIST ANGLE 
 NUMBER    SYMBOL       (ANGSTROMS)      (DEGREES)       (DEGREES) 
   (I)                     NA:I           NB:NA:I       NC:NB:NA:I       NA    NB    NC 
     1       C          0.00000000       0.0000000       0.0000000        0     0     0
     2       C          1.54790000  *    0.0000000       0.0000000        1     0     0
     3       C          1.55210000  *  111.3879000  *    0.0000000        2     1     0
     4       C          1.54890000  *  111.3350000  *  178.1250000  *     3     2     1
     5       N          1.46020000  *  116.9478000  *  171.2408000  *     4     3     2
     6       C          1.42950000  *  130.5990000  *   23.1035000  *     5     4     3
     7       C          1.34260000  *  133.3278000  *  -15.1791000  *     6     5     4
     8       C          1.47610000  *  118.8863000  * -178.9256000  *     7     6     5
     9       C          1.35290000  *  121.7739000  *    0.3125000  *     8     7     6
    10       C          1.48040000  *  118.8551000  *    0.1381000  *     9     8     7
    11       C          1.34010000  *  118.3731000  *   -0.1867000  *    10     9     8
    12       C          1.45430000  *  130.7594000  *  179.3200000  *    11    10     9
    13       C          1.34470000  *  108.1621000  * -179.5083000  *    12    11    10
    14       C          1.46620000  *  119.7090000  * -179.7260000  *    13    12    11
    15       C          1.34700000  *  118.8796000  *    0.4465000  *    14    13    12
    16       C          1.48340000  *  121.0581000  *    0.3928000  *    15    14    13
    17       C          1.34910000  *  119.7343000  *   -1.5630000  *    16    15    14
    18       C          1.47320000  *  120.8927000  * -178.8530000  *    16    15    14
    19       C          1.34910000  *  123.8919000  *  128.5717000  *    18    16    17
    20       C          1.47460000  *  120.9152000  * -179.6907000  *    19    18    16
    21       O          1.23230000  *  121.0647000  *   -1.1059000  *    20    19    18
    22       O          1.35570000  *  119.9531000  *  179.5078000  *    20    19    18
    23       C          1.42970000  *  121.1577000  *   -1.3888000  *    19    18    16
    24       N          1.15820000  *  179.8795000  *  179.9707000  *    23    19    18
    25       C          1.47280000  *  121.7098000  *  179.4668000  *     9     8     7
    26       C          1.35030000  *  128.1410000  *    6.1113000  *    25     9     8
    27       C          1.48650000  *  116.2546000  * -179.7238000  *    26    25     9
    28       C          1.34900000  *  116.1273000  *   -0.0783000  *    27    26    25
    29       S          1.82140000  *  106.5793000  *   -0.0317000  *    28    27    26
    30       C          1.47040000  *  127.4228000  * -179.9581000  *    28    27    26
    31       C          1.47610000  *  120.8191000  *  -18.5052000  *    30    28    27
    32       C          1.34450000  *  120.5736000  * -179.8411000  *    31    30    28
    33       C          1.47120000  *  120.6632000  *   -0.1571000  *    32    31    30
    34       C          1.34750000  *  118.8673000  *    0.2890000  *    33    32    31
    35       C          1.34830000  *  120.6491000  *  161.8567000  *    30    28    27
    36       O          1.36130000  *  117.4314000  * -179.7443000  *    33    32    31
    37       C          1.39530000  *  126.7813000  *   -0.3373000  *    36    33    34
    38       H          1.05310000  *  117.2046000  *  -49.6308000  *    18    16    17
    39       H          1.09100000  *  110.0560000  *   59.9733000  *     1     2     3
    40       H          1.09090000  *  109.5056000  *  179.7751000  *     1     2     3
    41       H          1.09100000  *  109.9984000  *  -60.4886000  *     1     2     3
    42       H          1.09220000  *  108.8184000  *  -59.4560000  *     2     1    40
    43       H          1.09230000  *  108.8448000  *   58.9365000  *     2     1    40
    44       H          1.09210000  *  108.8939000  *  178.3874000  *     3     2    42
    45       H          1.09160000  *  108.4011000  *  -62.2583000  *     3     2    42
    46       H          1.09310000  *  108.5149000  *  173.5416000  *     4     3    44
    47       H          1.09360000  *  107.3985000  *  170.1401000  *     4     3    45
    48       H          1.04600000  *  122.1145000  *    0.1763000  *     7     6     5
    49       H          1.05030000  *  117.8042000  *  179.7817000  *     8     7     6
    50       H          1.04980000  *  121.2197000  *  179.5364000  *    10     9     8
    51       H          1.04980000  *  120.8646000  * -178.8846000  *    14    13    12
    52       H          1.05150000  *  119.1385000  * -178.8299000  *    15    14    13
    53       H          1.05070000  *  121.0202000  *   -1.5250000  *    17    16    18
    54       H          0.94080000  *  121.0251000  *    0.5480000  *    22    20    21
    55       H          1.04840000  *  122.9523000  *    0.3670000  *    26    25     9
    56       H          1.04870000  *  121.0979000  * -179.5412000  *    27    26    25
    57       H          1.05070000  *  120.3791000  *  179.1127000  *    31    30    35
    58       H          1.05120000  *  119.6455000  *  179.6521000  *    32    31    30
    59       H          1.05040000  *  120.7508000  *    0.0540000  *    34    33    36
    60       H          1.05120000  *  120.5459000  *   -0.5232000  *    35    30    28
    61       H          1.09060000  *  110.2073000  *   59.9746000  *    37    36    33
    62       H          1.09060000  *  108.8676000  *  179.3651000  *    37    36    33
    63       H          1.09070000  *  110.1521000  *  -61.2471000  *    37    36    33
 


          CARTESIAN COORDINATES 

    NO.       ATOM           X           Y           Z

     1         C          0.0000      0.0000      0.0000
     2         C          1.5479      0.0000      0.0000
     3         C          2.1139      1.4452      0.0000
     4         C          3.6621      1.4441      0.0472
     5         N          4.3310      2.7276     -0.1461
     6         C          3.8574      4.0621      0.0495
     7         C          2.6338      4.5915      0.2081
     8         C          2.5045      6.0533      0.3673
     9         C          3.5830      6.8699      0.3511
    10         C          4.9262      6.2757      0.1653
    11         C          5.0206      4.9465      0.0238
    12         C          6.1802      4.0937     -0.1836
    13         C          5.7539      2.8216     -0.2753
    14         C          6.7252      1.7428     -0.4815
    15         C          8.0334      2.0527     -0.5660
    16         C          8.4967      3.4567     -0.4453
    17         C          7.5954      4.4468     -0.2793
    18         C          9.9258      3.7944     -0.5633
    19         C         10.8975      3.2231      0.1779
    20         C         12.3087      3.6164      0.0099
    21         O         12.6384      4.4611     -0.8246
    22         O         13.2683      3.0368      0.7722
    23         C         10.5895      2.2453      1.1744
    24         N         10.3424      1.4530      1.9822
    25         C          3.4513      8.3293      0.4985
    26         C          2.3385      9.0426      0.7743
    27         C          2.5065     10.5172      0.8581
    28         C          3.7545     10.9856      0.6511
    29         S          4.8078      9.5345      0.3312
    30         C          4.1984     12.3872      0.6760
    31         C          3.2270     13.4906      0.5432
    32         C          3.6388     14.7704      0.5634
    33         C          5.0644     15.0974      0.7218
    34         C          5.9533     14.0917      0.8406
    35         C          5.5045     12.6921      0.8138
    36         O          5.4075     16.4147      0.7388
    37         C          6.6912     16.9418      0.8834
    38         H         10.1873      4.5474     -1.2515
    39         H         -0.3741      0.5128     -0.8873
    40         H         -0.3643     -1.0283     -0.0040
    41         H         -0.3731      0.5050      0.8922
    42         H          1.9002     -0.5289      0.8883
    43         H          1.9007     -0.5299     -0.8876
    44         H          1.7797      1.9559     -0.9057
    45         H          1.7304      1.9655      0.8796
    46         H          3.9797      1.0349      1.0098
    47         H          4.0128      0.7712     -0.7403
    48         H          1.7691      4.0029      0.2088
    49         H          1.5392      6.4496      0.4868
    50         H          5.7876      6.8753      0.1396
    51         H          6.4110      0.7454     -0.5730
    52         H          8.7318      1.2844     -0.7324
    53         H          7.8999      5.4500     -0.2093
    54         H         14.1733      3.2758      0.6771
    55         H          1.4002      8.5999      0.9254
    56         H          1.6938     11.1435      1.0752
    57         H          2.2038     13.2859      0.4204
    58         H          2.9351     15.5447      0.4621
    59         H          6.9781     14.2914      0.9553
    60         H          6.2231     11.9314      0.9135
    61         H          7.3347     16.5939      0.0745
    62         H          6.6320     18.0302      0.8447
    63         H          7.1137     16.6443      1.8439

  H: (RM1): G.B. ROCHA, R.O. FREIRE, A.M.SIMAS, J.J.P. STEWART, J. COMP. CHEM. 27, 1101 (2006)
  C: (RM1): G.B. ROCHA, R.O. FREIRE, A.M.SIMAS, J.J.P. STEWART, J. COMP. CHEM. 27, 1101 (2006)
  N: (RM1): G.B. ROCHA, R.O. FREIRE, A.M.SIMAS, J.J.P. STEWART, J. COMP. CHEM. 27, 1101 (2006)
  O: (RM1): G.B. ROCHA, R.O. FREIRE, A.M.SIMAS, J.J.P. STEWART, J. COMP. CHEM. 27, 1101 (2006)
  S: (RM1): G.B. ROCHA, R.O. FREIRE, A.M.SIMAS, J.J.P. STEWART, J. COMP. CHEM. 27, 1101 (2006)

           Empirical Formula: C31 H26 N2 O3 S  =    63 atoms



      MOLECULAR POINT GROUP   :   C1  


      RHF CALCULATION, NO. OF DOUBLY OCCUPIED LEVELS = 92


          Geometry optimization using L-BFGS
 CYCLE:     1 TIME:   0.227 TIME LEFT:  2.00D  GRAD.:   520.657 HEAT:  68.62278
 CYCLE:     2 TIME:   0.127 TIME LEFT:  2.00D  GRAD.:   410.707 HEAT:  66.27485
 CYCLE:     3 TIME:   0.119 TIME LEFT:  2.00D  GRAD.:   413.568 HEAT:  59.61547
 CYCLE:     4 TIME:   0.119 TIME LEFT:  2.00D  GRAD.:   411.003 HEAT:  66.27470
 CYCLE:     5 TIME:   0.119 TIME LEFT:  2.00D  GRAD.:   414.402 HEAT:  59.61614
 CYCLE:     6 TIME:   0.119 TIME LEFT:  2.00D  GRAD.:   341.070 HEAT:  55.79047
 CYCLE:     7 TIME:   0.117 TIME LEFT:  2.00D  GRAD.:   414.512 HEAT:  47.59718
 CYCLE:     8 TIME:   0.117 TIME LEFT:  2.00D  GRAD.:   386.167 HEAT:  36.73067
 CYCLE:     9 TIME:   0.125 TIME LEFT:  2.00D  GRAD.:   434.776 HEAT:  24.32104
 CYCLE:    10 TIME:   0.127 TIME LEFT:  2.00D  GRAD.:   306.706 HEAT:  20.97379
 CYCLE:    11 TIME:   0.115 TIME LEFT:  2.00D  GRAD.:   105.744 HEAT:  20.11502
 CYCLE:    12 TIME:   0.107 TIME LEFT:  2.00D  GRAD.:    90.599 HEAT:  19.80489
 CYCLE:    13 TIME:   0.109 TIME LEFT:  2.00D  GRAD.:    93.565 HEAT:  18.94580
 CYCLE:    14 TIME:   0.113 TIME LEFT:  2.00D  GRAD.:   116.334 HEAT:  17.68156
 CYCLE:    15 TIME:   0.117 TIME LEFT:  2.00D  GRAD.:   197.941 HEAT:  17.19317
 CYCLE:    16 TIME:   0.109 TIME LEFT:  2.00D  GRAD.:    71.413 HEAT:  16.40539
 CYCLE:    17 TIME:   0.086 TIME LEFT:  2.00D  GRAD.:    57.382 HEAT:  16.05998
 CYCLE:    18 TIME:   0.107 TIME LEFT:  2.00D  GRAD.:    81.868 HEAT:  15.60689
 CYCLE:    19 TIME:   0.113 TIME LEFT:  2.00D  GRAD.:   103.468 HEAT:  14.78654
 CYCLE:    20 TIME:   0.111 TIME LEFT:  2.00D  GRAD.:    99.629 HEAT:  13.94581
 CYCLE:    21 TIME:   0.113 TIME LEFT:  2.00D  GRAD.:    67.491 HEAT:  13.52447
 CYCLE:    22 TIME:   0.102 TIME LEFT:  2.00D  GRAD.:    29.660 HEAT:  13.26391
 CYCLE:    23 TIME:   0.088 TIME LEFT:  2.00D  GRAD.:    38.088 HEAT:  13.12840
 CYCLE:    24 TIME:   0.086 TIME LEFT:  2.00D  GRAD.:   147.686 HEAT:  13.08159
 CYCLE:    25 TIME:   0.090 TIME LEFT:  2.00D  GRAD.:    49.993 HEAT:  12.89862
 CYCLE:    26 TIME:   0.080 TIME LEFT:  2.00D  GRAD.:    31.689 HEAT:  12.78700
 CYCLE:    27 TIME:   0.094 TIME LEFT:  2.00D  GRAD.:    40.498 HEAT:  12.68574
 CYCLE:    28 TIME:   0.086 TIME LEFT:  2.00D  GRAD.:    40.487 HEAT:  12.58010
 CYCLE:    29 TIME:   0.098 TIME LEFT:  2.00D  GRAD.:   121.737 HEAT:  12.74743
 CYCLE:    30 TIME:   0.088 TIME LEFT:  2.00D  GRAD.:    31.445 HEAT:  12.34317
 CYCLE:    31 TIME:   0.076 TIME LEFT:  2.00D  GRAD.:    21.317 HEAT:  12.29614
 CYCLE:    32 TIME:   0.084 TIME LEFT:  2.00D  GRAD.:    24.866 HEAT:  12.18922
 CYCLE:    33 TIME:   0.082 TIME LEFT:  2.00D  GRAD.:    24.249 HEAT:  12.11036
 CYCLE:    34 TIME:   0.084 TIME LEFT:  2.00D  GRAD.:    45.029 HEAT:  11.98865
 CYCLE:    35 TIME:   0.086 TIME LEFT:  2.00D  GRAD.:    37.363 HEAT:  11.94230
 CYCLE:    36 TIME:   0.080 TIME LEFT:  2.00D  GRAD.:    17.378 HEAT:  11.88244
 CYCLE:    37 TIME:   0.078 TIME LEFT:  2.00D  GRAD.:    15.264 HEAT:  11.84160
 CYCLE:    38 TIME:   0.113 TIME LEFT:  2.00D  GRAD.:    44.450 HEAT:  11.77756
 CYCLE:    39 TIME:   0.088 TIME LEFT:  2.00D  GRAD.:    54.215 HEAT:  11.70871
 CYCLE:    40 TIME:   0.088 TIME LEFT:  2.00D  GRAD.:    28.578 HEAT:  11.64766
 CYCLE:    41 TIME:   0.080 TIME LEFT:  2.00D  GRAD.:    16.471 HEAT:  11.59236
 CYCLE:    42 TIME:   0.080 TIME LEFT:  2.00D  GRAD.:    16.880 HEAT:  11.56256
 CYCLE:    43 TIME:   0.100 TIME LEFT:  2.00D  GRAD.:    22.531 HEAT:  11.43997
 CYCLE:    44 TIME:   0.125 TIME LEFT:  2.00D  GRAD.:    75.990 HEAT:  11.46885
 CYCLE:    45 TIME:   0.111 TIME LEFT:  2.00D  GRAD.:    38.221 HEAT:  11.35732
 CYCLE:    46 TIME:   0.107 TIME LEFT:  2.00D  GRAD.:    12.877 HEAT:  11.30297
 CYCLE:    47 TIME:   0.111 TIME LEFT:  2.00D  GRAD.:    15.690 HEAT:  11.27238
 CYCLE:    48 TIME:   0.096 TIME LEFT:  2.00D  GRAD.:    26.218 HEAT:  11.22494
 CYCLE:    49 TIME:   0.109 TIME LEFT:  2.00D  GRAD.:    35.656 HEAT:  11.16796
 CYCLE:    50 TIME:   0.104 TIME LEFT:  2.00D  GRAD.:    21.721 HEAT:  11.07213
 CYCLE:    51 TIME:   0.098 TIME LEFT:  2.00D  GRAD.:    29.845 HEAT:  11.00894
 CYCLE:    52 TIME:   0.119 TIME LEFT:  2.00D  GRAD.:    70.066 HEAT:  10.98209
 CYCLE:    53 TIME:   0.084 TIME LEFT:  2.00D  GRAD.:    38.191 HEAT:  10.94460
 CYCLE:    54 TIME:   0.113 TIME LEFT:  2.00D  GRAD.:    16.410 HEAT:  10.89851
 CYCLE:    55 TIME:   0.117 TIME LEFT:  2.00D  GRAD.:    32.187 HEAT:  10.85433
 CYCLE:    56 TIME:   0.111 TIME LEFT:  2.00D  GRAD.:    36.410 HEAT:  10.80627
 CYCLE:    57 TIME:   0.125 TIME LEFT:  2.00D  GRAD.:    50.594 HEAT:  10.67105
 CYCLE:    58 TIME:   0.113 TIME LEFT:  2.00D  GRAD.:    21.586 HEAT:  10.53391
 CYCLE:    59 TIME:   0.084 TIME LEFT:  2.00D  GRAD.:    21.435 HEAT:  10.45508
 CYCLE:    60 TIME:   0.100 TIME LEFT:  2.00D  GRAD.:    43.395 HEAT:  10.40263
 CYCLE:    61 TIME:   0.086 TIME LEFT:  2.00D  GRAD.:    29.421 HEAT:  10.35236
 CYCLE:    62 TIME:   0.113 TIME LEFT:  2.00D  GRAD.:    24.959 HEAT:  10.27202
 CYCLE:    63 TIME:   0.094 TIME LEFT:  2.00D  GRAD.:    18.993 HEAT:  10.21066
 CYCLE:    64 TIME:   0.105 TIME LEFT:  2.00D  GRAD.:    40.482 HEAT:  10.13676
 CYCLE:    65 TIME:   0.100 TIME LEFT:  2.00D  GRAD.:    33.830 HEAT:  10.02779
 CYCLE:    66 TIME:   0.113 TIME LEFT:  2.00D  GRAD.:    76.928 HEAT:  9.881808
 CYCLE:    67 TIME:   0.109 TIME LEFT:  2.00D  GRAD.:   129.107 HEAT:  9.777904
 CYCLE:    68 TIME:   0.125 TIME LEFT:  2.00D  GRAD.:   804.846 HEAT:  15.40788
 CYCLE:    69 TIME:   0.123 TIME LEFT:  2.00D  GRAD.:   673.662 HEAT:  15.12097
 CYCLE:    70 TIME:   0.119 TIME LEFT:  2.00D  GRAD.:   629.179 HEAT:  14.10890
 CYCLE:    71 TIME:   0.111 TIME LEFT:  2.00D  GRAD.:   259.002 HEAT:  12.75511
 CYCLE:    72 TIME:   0.113 TIME LEFT:  2.00D  GRAD.:   504.546 HEAT:  19.99972
 CYCLE:    73 TIME:   0.127 TIME LEFT:  2.00D  GRAD.:   508.402 HEAT:  18.40967
 CYCLE:    74 TIME:   0.141 TIME LEFT:  2.00D  GRAD.:   335.961 HEAT:  11.29340
 CYCLE:    75 TIME:   0.133 TIME LEFT:  2.00D  GRAD.:   152.080 HEAT:  10.07352
 CYCLE:    76 TIME:   0.143 TIME LEFT:  2.00D  GRAD.:   102.162 HEAT:  10.57794
 CYCLE:    77 TIME:   0.131 TIME LEFT:  2.00D  GRAD.:   115.577 HEAT:  9.462915
 CYCLE:    78 TIME:   0.129 TIME LEFT:  2.00D  GRAD.:   110.338 HEAT:  9.586320
 CYCLE:    79 TIME:   0.117 TIME LEFT:  2.00D  GRAD.:    46.936 HEAT:  9.400497
 CYCLE:    80 TIME:   0.123 TIME LEFT:  2.00D  GRAD.:   231.616 HEAT:  9.798962
 CYCLE:    81 TIME:   0.107 TIME LEFT:  2.00D  GRAD.:    49.590 HEAT:  9.186822
 CYCLE:    82 TIME:   0.086 TIME LEFT:  2.00D  GRAD.:    30.669 HEAT:  9.150942
 CYCLE:    83 TIME:   0.076 TIME LEFT:  2.00D  GRAD.:    25.808 HEAT:  9.110974
 CYCLE:    84 TIME:   0.082 TIME LEFT:  2.00D  GRAD.:    44.339 HEAT:  8.928161
 CYCLE:    85 TIME:   0.084 TIME LEFT:  2.00D  GRAD.:    48.548 HEAT:  8.791809
 CYCLE:    86 TIME:   0.094 TIME LEFT:  2.00D  GRAD.:    30.546 HEAT:  8.671812
 CYCLE:    87 TIME:   0.088 TIME LEFT:  2.00D  GRAD.:    20.774 HEAT:  8.559834
 CYCLE:    88 TIME:   0.086 TIME LEFT:  2.00D  GRAD.:    22.279 HEAT:  8.447239
 CYCLE:    89 TIME:   0.084 TIME LEFT:  2.00D  GRAD.:    26.276 HEAT:  8.280441
 CYCLE:    90 TIME:   0.113 TIME LEFT:  2.00D  GRAD.:    72.774 HEAT:  8.254337
 CYCLE:    91 TIME:   0.094 TIME LEFT:  2.00D  GRAD.:    20.726 HEAT:  8.125675
 CYCLE:    92 TIME:   0.096 TIME LEFT:  2.00D  GRAD.:    16.942 HEAT:  8.090484
 CYCLE:    93 TIME:   0.102 TIME LEFT:  2.00D  GRAD.:    16.761 HEAT:  8.032044
 CYCLE:    94 TIME:   0.082 TIME LEFT:  2.00D  GRAD.:    28.295 HEAT:  7.964198
 CYCLE:    95 TIME:   0.111 TIME LEFT:  2.00D  GRAD.:   290.170 HEAT:  8.547292
 CYCLE:    96 TIME:   0.096 TIME LEFT:  2.00D  GRAD.:   147.751 HEAT:  8.084720
 CYCLE:    97 TIME:   0.084 TIME LEFT:  2.00D  GRAD.:    18.050 HEAT:  7.905163
 CYCLE:    98 TIME:   0.080 TIME LEFT:  2.00D  GRAD.:    15.929 HEAT:  7.895665
 CYCLE:    99 TIME:   0.094 TIME LEFT:  2.00D  GRAD.:    19.514 HEAT:  7.852026
 CYCLE:   100 TIME:   0.082 TIME LEFT:  2.00D  GRAD.:    23.848 HEAT:  7.813694
 CYCLE:   101 TIME:   0.076 TIME LEFT:  2.00D  GRAD.:    16.400 HEAT:  7.770749
 CYCLE:   102 TIME:   0.090 TIME LEFT:  2.00D  GRAD.:    19.886 HEAT:  7.709123
 CYCLE:   103 TIME:   0.086 TIME LEFT:  2.00D  GRAD.:    21.876 HEAT:  7.642238
 CYCLE:   104 TIME:   0.090 TIME LEFT:  2.00D  GRAD.:    53.414 HEAT:  7.648888
 CYCLE:   105 TIME:   0.080 TIME LEFT:  2.00D  GRAD.:    14.224 HEAT:  7.589053
 CYCLE:   106 TIME:   0.100 TIME LEFT:  2.00D  GRAD.:    10.682 HEAT:  7.574313
 CYCLE:   107 TIME:   0.107 TIME LEFT:  2.00D  GRAD.:    13.506 HEAT:  7.546764
 CYCLE:   108 TIME:   0.082 TIME LEFT:  2.00D  GRAD.:    12.855 HEAT:  7.522971
 CYCLE:   109 TIME:   0.090 TIME LEFT:  2.00D  GRAD.:    12.847 HEAT:  7.475660
 CYCLE:   110 TIME:   0.086 TIME LEFT:  2.00D  GRAD.:    18.933 HEAT:  7.440632
 CYCLE:   111 TIME:   0.086 TIME LEFT:  2.00D  GRAD.:    24.676 HEAT:  7.407616
 CYCLE:   112 TIME:   0.111 TIME LEFT:  2.00D  GRAD.:    45.785 HEAT:  7.404920
 CYCLE:   113 TIME:   0.094 TIME LEFT:  2.00D  GRAD.:    11.648 HEAT:  7.381946
 CYCLE:   114 TIME:   0.129 TIME LEFT:  2.00D  GRAD.:    14.124 HEAT:  7.374830
 CYCLE:   115 TIME:   0.119 TIME LEFT:  2.00D  GRAD.:    16.653 HEAT:  7.359413
 CYCLE:   116 TIME:   0.148 TIME LEFT:  2.00D  GRAD.:    15.034 HEAT:  7.335023
 CYCLE:   117 TIME:   0.143 TIME LEFT:  2.00D  GRAD.:    12.906 HEAT:  7.302591
 CYCLE:   118 TIME:   0.143 TIME LEFT:  2.00D  GRAD.:    37.179 HEAT:  7.295512
 CYCLE:   119 TIME:   0.145 TIME LEFT:  2.00D  GRAD.:    31.380 HEAT:  7.269309
 CYCLE:   120 TIME:   0.123 TIME LEFT:  2.00D  GRAD.:    12.588 HEAT:  7.237967
 CYCLE:   121 TIME:   0.113 TIME LEFT:  2.00D  GRAD.:    10.375 HEAT:  7.217134
 CYCLE:   122 TIME:   0.129 TIME LEFT:  2.00D  GRAD.:    15.677 HEAT:  7.195294
 CYCLE:   123 TIME:   0.127 TIME LEFT:  2.00D  GRAD.:    25.044 HEAT:  7.166538
 CYCLE:   124 TIME:   0.146 TIME LEFT:  2.00D  GRAD.:    19.149 HEAT:  7.144920
 CYCLE:   125 TIME:   0.131 TIME LEFT:  2.00D  GRAD.:    10.044 HEAT:  7.132681
 CYCLE:   126 TIME:   0.143 TIME LEFT:  2.00D  GRAD.:    12.237 HEAT:  7.123047
 CYCLE:   127 TIME:   0.115 TIME LEFT:  2.00D  GRAD.:    20.449 HEAT:  7.112970
 CYCLE:   128 TIME:   0.131 TIME LEFT:  2.00D  GRAD.:    14.203 HEAT:  7.091381
 CYCLE:   129 TIME:   0.146 TIME LEFT:  2.00D  GRAD.:    13.825 HEAT:  7.076881
 CYCLE:   130 TIME:   0.148 TIME LEFT:  2.00D  GRAD.:    13.189 HEAT:  7.059883
 CYCLE:   131 TIME:   0.164 TIME LEFT:  2.00D  GRAD.:    10.067 HEAT:  7.051713
 CYCLE:   132 TIME:   0.174 TIME LEFT:  2.00D  GRAD.:    12.611 HEAT:  7.035381
 CYCLE:   133 TIME:   0.137 TIME LEFT:  2.00D  GRAD.:    23.390 HEAT:  7.012669
 CYCLE:   134 TIME:   0.281 TIME LEFT:  2.00D  GRAD.:    11.195 HEAT:  6.988459
 CYCLE:   135 TIME:   0.412 TIME LEFT:  2.00D  GRAD.:     9.015 HEAT:  6.981309
 CYCLE:   136 TIME:   0.354 TIME LEFT:  2.00D  GRAD.:     7.899 HEAT:  6.966434
 CYCLE:   137 TIME:   0.127 TIME LEFT:  2.00D  GRAD.:    11.352 HEAT:  6.952712
 CYCLE:   138 TIME:   0.121 TIME LEFT:  2.00D  GRAD.:    22.400 HEAT:  6.941281
 CYCLE:   139 TIME:   0.127 TIME LEFT:  2.00D  GRAD.:     8.738 HEAT:  6.928266
 CYCLE:   140 TIME:   0.119 TIME LEFT:  2.00D  GRAD.:     7.394 HEAT:  6.922139
 CYCLE:   141 TIME:   0.105 TIME LEFT:  2.00D  GRAD.:     8.191 HEAT:  6.913928
 CYCLE:   142 TIME:   0.137 TIME LEFT:  2.00D  GRAD.:    11.681 HEAT:  6.897210
 CYCLE:   143 TIME:   0.109 TIME LEFT:  2.00D  GRAD.:    25.106 HEAT:  6.886267
 CYCLE:   144 TIME:   0.119 TIME LEFT:  2.00D  GRAD.:     9.258 HEAT:  6.874023
 CYCLE:   145 TIME:   0.123 TIME LEFT:  2.00D  GRAD.:     9.737 HEAT:  6.867718
 CYCLE:   146 TIME:   0.117 TIME LEFT:  2.00D  GRAD.:     9.259 HEAT:  6.860047
 CYCLE:   147 TIME:   0.113 TIME LEFT:  2.00D  GRAD.:     8.222 HEAT:  6.843251
 CYCLE:   148 TIME:   0.123 TIME LEFT:  2.00D  GRAD.:    28.346 HEAT:  6.845444
 CYCLE:   149 TIME:   0.105 TIME LEFT:  2.00D  GRAD.:     6.347 HEAT:  6.830049
 CYCLE:   150 TIME:   0.104 TIME LEFT:  2.00D  GRAD.:     5.005 HEAT:  6.826952
 CYCLE:   151 TIME:   0.113 TIME LEFT:  2.00D  GRAD.:     5.140 HEAT:  6.821736
 CYCLE:   152 TIME:   0.117 TIME LEFT:  2.00D  GRAD.:    29.712 HEAT:  6.823880
 CYCLE:   153 TIME:   0.133 TIME LEFT:  2.00D  GRAD.:     8.350 HEAT:  6.813458
 CYCLE:   154 TIME:   0.109 TIME LEFT:  2.00D  GRAD.:     4.893 HEAT:  6.810699
 CYCLE:   155 TIME:   0.123 TIME LEFT:  2.00D  GRAD.:     5.594 HEAT:  6.807615
 CYCLE:   156 TIME:   0.111 TIME LEFT:  2.00D  GRAD.:     7.120 HEAT:  6.805029
 CYCLE:   157 TIME:   0.113 TIME LEFT:  2.00D  GRAD.:    16.797 HEAT:  6.803108
 CYCLE:   158 TIME:   0.104 TIME LEFT:  2.00D  GRAD.:     6.148 HEAT:  6.799177
 CYCLE:   159 TIME:   0.104 TIME LEFT:  2.00D  GRAD.:     5.196 HEAT:  6.797521
 CYCLE:   160 TIME:   0.121 TIME LEFT:  2.00D  GRAD.:     7.805 HEAT:  6.793381
 CYCLE:   161 TIME:   0.117 TIME LEFT:  2.00D  GRAD.:     7.412 HEAT:  6.789807
 CYCLE:   162 TIME:   0.129 TIME LEFT:  2.00D  GRAD.:    11.837 HEAT:  6.785999
 CYCLE:   163 TIME:   0.127 TIME LEFT:  2.00D  GRAD.:    10.094 HEAT:  6.780324
 CYCLE:   164 TIME:   0.154 TIME LEFT:  2.00D  GRAD.:     6.484 HEAT:  6.776512
 CYCLE:   165 TIME:   0.160 TIME LEFT:  2.00D  GRAD.:     4.278 HEAT:  6.771316
 CYCLE:   166 TIME:   0.156 TIME LEFT:  2.00D  GRAD.:     5.154 HEAT:  6.767463
 CYCLE:   167 TIME:   0.160 TIME LEFT:  2.00D  GRAD.:     7.259 HEAT:  6.761662
 CYCLE:   168 TIME:   0.174 TIME LEFT:  2.00D  GRAD.:    22.830 HEAT:  6.762758
 CYCLE:   169 TIME:   0.154 TIME LEFT:  2.00D  GRAD.:    19.962 HEAT:  6.762911
 CYCLE:   170 TIME:   0.143 TIME LEFT:  2.00D  GRAD.:     4.400 HEAT:  6.755111
 CYCLE:   171 TIME:   0.125 TIME LEFT:  2.00D  GRAD.:     4.166 HEAT:  6.753697
 CYCLE:   172 TIME:   0.115 TIME LEFT:  2.00D  GRAD.:     8.282 HEAT:  6.750806
 CYCLE:   173 TIME:   0.127 TIME LEFT:  2.00D  GRAD.:    14.597 HEAT:  6.749940
 CYCLE:   174 TIME:   0.113 TIME LEFT:  2.00D  GRAD.:     5.706 HEAT:  6.747224
 CYCLE:   175 TIME:   0.117 TIME LEFT:  2.00D  GRAD.:     4.003 HEAT:  6.745831
 CYCLE:   176 TIME:   0.104 TIME LEFT:  2.00D  GRAD.:     5.434 HEAT:  6.744132
 CYCLE:   177 TIME:   0.111 TIME LEFT:  2.00D  GRAD.:     6.362 HEAT:  6.741133
 CYCLE:   178 TIME:   0.131 TIME LEFT:  2.00D  GRAD.:    13.359 HEAT:  6.736046
 CYCLE:   179 TIME:   0.113 TIME LEFT:  2.00D  GRAD.:     5.693 HEAT:  6.732571
 CYCLE:   180 TIME:   0.117 TIME LEFT:  2.00D  GRAD.:     4.093 HEAT:  6.730736
 CYCLE:   181 TIME:   0.121 TIME LEFT:  2.00D  GRAD.:     4.571 HEAT:  6.727741
 CYCLE:   182 TIME:   0.117 TIME LEFT:  2.00D  GRAD.:     4.888 HEAT:  6.722901
 CYCLE:   183 TIME:   0.123 TIME LEFT:  2.00D  GRAD.:    12.383 HEAT:  6.719841
 CYCLE:   184 TIME:   0.139 TIME LEFT:  2.00D  GRAD.:     4.494 HEAT:  6.715565
 CYCLE:   185 TIME:   0.123 TIME LEFT:  2.00D  GRAD.:     3.462 HEAT:  6.713964
 CYCLE:   186 TIME:   0.127 TIME LEFT:  2.00D  GRAD.:     6.789 HEAT:  6.712388
 CYCLE:   187 TIME:   0.113 TIME LEFT:  2.00D  GRAD.:     6.285 HEAT:  6.710074
 CYCLE:   188 TIME:   0.115 TIME LEFT:  2.00D  GRAD.:    12.681 HEAT:  6.705714
 CYCLE:   189 TIME:   0.131 TIME LEFT:  2.00D  GRAD.:     7.253 HEAT:  6.702912
 CYCLE:   190 TIME:   0.125 TIME LEFT:  2.00D  GRAD.:     3.101 HEAT:  6.701602
 CYCLE:   191 TIME:   0.117 TIME LEFT:  2.00D  GRAD.:     3.084 HEAT:  6.700893
 CYCLE:   192 TIME:   0.125 TIME LEFT:  2.00D  GRAD.:     3.114 HEAT:  6.699452
 CYCLE:   193 TIME:   0.133 TIME LEFT:  2.00D  GRAD.:    29.935 HEAT:  6.709101
 CYCLE:   194 TIME:   0.111 TIME LEFT:  2.00D  GRAD.:     4.914 HEAT:  6.696091
 CYCLE:   195 TIME:   0.104 TIME LEFT:  2.00D  GRAD.:     2.925 HEAT:  6.695196
 CYCLE:   196 TIME:   0.135 TIME LEFT:  2.00D  GRAD.:     2.568 HEAT:  6.694000
 CYCLE:   197 TIME:   0.135 TIME LEFT:  2.00D  GRAD.:     2.388 HEAT:  6.692931
 CYCLE:   198 TIME:   0.119 TIME LEFT:  2.00D  GRAD.:     3.052 HEAT:  6.689069
 CYCLE:   199 TIME:   0.121 TIME LEFT:  2.00D  GRAD.:    19.036 HEAT:  6.692117
 CYCLE:   200 TIME:   0.113 TIME LEFT:  2.00D  GRAD.:     3.076 HEAT:  6.687093
 CYCLE:   201 TIME:   0.111 TIME LEFT:  2.00D  GRAD.:     1.946 HEAT:  6.686627
 CYCLE:   202 TIME:   0.107 TIME LEFT:  2.00D  GRAD.:     2.263 HEAT:  6.685752
 CYCLE:   203 TIME:   0.143 TIME LEFT:  2.00D  GRAD.:     7.882 HEAT:  6.685060
 CYCLE:   204 TIME:   0.102 TIME LEFT:  2.00D  GRAD.:     6.094 HEAT:  6.683895
 CYCLE:   205 TIME:   0.088 TIME LEFT:  2.00D  GRAD.:     3.133 HEAT:  6.681468
 CYCLE:   206 TIME:   0.105 TIME LEFT:  2.00D  GRAD.:     2.813 HEAT:  6.680449
 CYCLE:   207 TIME:   0.100 TIME LEFT:  2.00D  GRAD.:     2.368 HEAT:  6.679556
 CYCLE:   208 TIME:   0.086 TIME LEFT:  2.00D  GRAD.:     7.600 HEAT:  6.678694
 CYCLE:   209 TIME:   0.104 TIME LEFT:  2.00D  GRAD.:     2.315 HEAT:  6.677311
 CYCLE:   210 TIME:   0.121 TIME LEFT:  2.00D  GRAD.:     2.201 HEAT:  6.676647
 CYCLE:   211 TIME:   0.121 TIME LEFT:  2.00D  GRAD.:     2.897 HEAT:  6.675390
 CYCLE:   212 TIME:   0.111 TIME LEFT:  2.00D  GRAD.:     5.860 HEAT:  6.674104
 CYCLE:   213 TIME:   0.115 TIME LEFT:  2.00D  GRAD.:     2.745 HEAT:  6.672465
 CYCLE:   214 TIME:   0.111 TIME LEFT:  2.00D  GRAD.:     2.556 HEAT:  6.671686
 CYCLE:   215 TIME:   0.094 TIME LEFT:  2.00D  GRAD.:     2.917 HEAT:  6.671253
 CYCLE:   216 TIME:   0.113 TIME LEFT:  2.00D  GRAD.:     8.098 HEAT:  6.670923
 CYCLE:   217 TIME:   0.109 TIME LEFT:  2.00D  GRAD.:     4.269 HEAT:  6.670281
 CYCLE:   218 TIME:   0.100 TIME LEFT:  2.00D  GRAD.:     6.263 HEAT:  6.669286
 CYCLE:   219 TIME:   0.104 TIME LEFT:  2.00D  GRAD.:     3.494 HEAT:  6.668658
 CYCLE:   220 TIME:   0.109 TIME LEFT:  2.00D  GRAD.:     1.676 HEAT:  6.668228
 CYCLE:   221 TIME:   0.123 TIME LEFT:  2.00D  GRAD.:     2.981 HEAT:  6.667944
 CYCLE:   222 TIME:   0.102 TIME LEFT:  2.00D  GRAD.:     3.015 HEAT:  6.667484
 CYCLE:   223 TIME:   0.111 TIME LEFT:  2.00D  GRAD.:     3.031 HEAT:  6.666544
 CYCLE:   224 TIME:   0.111 TIME LEFT:  2.00D  GRAD.:     3.806 HEAT:  6.666101
 CYCLE:   225 TIME:   0.109 TIME LEFT:  2.00D  GRAD.:     2.287 HEAT:  6.665693
 CYCLE:   226 TIME:   0.111 TIME LEFT:  2.00D  GRAD.:     3.145 HEAT:  6.664808
 CYCLE:   227 TIME:   0.104 TIME LEFT:  2.00D  GRAD.:     2.759 HEAT:  6.664301
 CYCLE:   228 TIME:   0.117 TIME LEFT:  2.00D  GRAD.:     4.116 HEAT:  6.663563
 CYCLE:   229 TIME:   0.119 TIME LEFT:  2.00D  GRAD.:     2.632 HEAT:  6.662930
 CYCLE:   230 TIME:   0.109 TIME LEFT:  2.00D  GRAD.:     1.786 HEAT:  6.662571
 CYCLE:   231 TIME:   0.129 TIME LEFT:  2.00D  GRAD.:     4.363 HEAT:  6.662140
 CYCLE:   232 TIME:   0.109 TIME LEFT:  2.00D  GRAD.:     2.035 HEAT:  6.661573
 CYCLE:   233 TIME:   0.111 TIME LEFT:  2.00D  GRAD.:     3.286 HEAT:  6.661287
 CYCLE:   234 TIME:   0.107 TIME LEFT:  2.00D  GRAD.:     1.622 HEAT:  6.660835
 CYCLE:   235 TIME:   0.115 TIME LEFT:  2.00D  GRAD.:     1.817 HEAT:  6.660311
 CYCLE:   236 TIME:   0.125 TIME LEFT:  2.00D  GRAD.:     2.003 HEAT:  6.660016
 CYCLE:   237 TIME:   0.127 TIME LEFT:  2.00D  GRAD.:     3.339 HEAT:  6.659462
 CYCLE:   238 TIME:   0.121 TIME LEFT:  2.00D  GRAD.:     2.020 HEAT:  6.658851
 CYCLE:   239 TIME:   0.119 TIME LEFT:  2.00D  GRAD.:     1.296 HEAT:  6.658489
 CYCLE:   240 TIME:   0.111 TIME LEFT:  2.00D  GRAD.:     2.047 HEAT:  6.658023
 CYCLE:   241 TIME:   0.109 TIME LEFT:  2.00D  GRAD.:     2.602 HEAT:  6.657416
 CYCLE:   242 TIME:   0.135 TIME LEFT:  2.00D  GRAD.:     5.419 HEAT:  6.656747
 CYCLE:   243 TIME:   0.133 TIME LEFT:  2.00D  GRAD.:     1.477 HEAT:  6.656067
 CYCLE:   244 TIME:   0.131 TIME LEFT:  2.00D  GRAD.:     1.725 HEAT:  6.655817
 CYCLE:   245 TIME:   0.090 TIME LEFT:  2.00D  GRAD.:     1.409 HEAT:  6.655596
 CYCLE:   246 TIME:   0.115 TIME LEFT:  2.00D  GRAD.:     7.947 HEAT:  6.655707
 CYCLE:   247 TIME:   0.105 TIME LEFT:  2.00D  GRAD.:     1.757 HEAT:  6.655198
 CYCLE:   248 TIME:   0.102 TIME LEFT:  2.00D  GRAD.:     1.676 HEAT:  6.655126
 CYCLE:   249 TIME:   0.102 TIME LEFT:  2.00D  GRAD.:     1.644 HEAT:  6.654922
 CYCLE:   250 TIME:   0.107 TIME LEFT:  2.00D  GRAD.:     3.157 HEAT:  6.654176
 CYCLE:   251 TIME:   0.121 TIME LEFT:  2.00D  GRAD.:     1.486 HEAT:  6.653819
 CYCLE:   252 TIME:   0.121 TIME LEFT:  2.00D  GRAD.:     1.203 HEAT:  6.653726
 CYCLE:   253 TIME:   0.117 TIME LEFT:  2.00D  GRAD.:     1.015 HEAT:  6.653430
 CYCLE:   254 TIME:   0.117 TIME LEFT:  2.00D  GRAD.:     4.158 HEAT:  6.653257
 CYCLE:   255 TIME:   0.105 TIME LEFT:  2.00D  GRAD.:     1.127 HEAT:  6.653005
 CYCLE:   256 TIME:   0.119 TIME LEFT:  2.00D  GRAD.:     0.880 HEAT:  6.652962
 CYCLE:   257 TIME:   0.109 TIME LEFT:  2.00D  GRAD.:     0.894 HEAT:  6.652811
 CYCLE:   258 TIME:   0.121 TIME LEFT:  2.00D  GRAD.:     7.670 HEAT:  6.653422
 CYCLE:   259 TIME:   0.105 TIME LEFT:  2.00D  GRAD.:     0.915 HEAT:  6.652445
 CYCLE:   260 TIME:   0.105 TIME LEFT:  2.00D  GRAD.:     0.694 HEAT:  6.652404
 CYCLE:   261 TIME:   0.121 TIME LEFT:  2.00D  GRAD.:     2.168 HEAT:  6.652312
 CYCLE:   262 TIME:   0.135 TIME LEFT:  2.00D  GRAD.:     1.064 HEAT:  6.652224
 CYCLE:   263 TIME:   0.143 TIME LEFT:  2.00D  GRAD.:     0.928 HEAT:  6.652179
 CYCLE:   264 TIME:   0.141 TIME LEFT:  2.00D  GRAD.:     0.841 HEAT:  6.652019
 CYCLE:   265 TIME:   0.129 TIME LEFT:  2.00D  GRAD.:     1.115 HEAT:  6.651896
 CYCLE:   266 TIME:   0.139 TIME LEFT:  2.00D  GRAD.:     0.955 HEAT:  6.651799
 CYCLE:   267 TIME:   0.125 TIME LEFT:  2.00D  GRAD.:     0.746 HEAT:  6.651712
 CYCLE:   268 TIME:   0.117 TIME LEFT:  2.00D  GRAD.:     0.934 HEAT:  6.651518
 CYCLE:   269 TIME:   0.146 TIME LEFT:  2.00D  GRAD.:     3.413 HEAT:  6.651622
 CYCLE:   270 TIME:   0.141 TIME LEFT:  2.00D  GRAD.:     0.852 HEAT:  6.651408
 CYCLE:   271 TIME:   0.150 TIME LEFT:  2.00D  GRAD.:     0.673 HEAT:  6.651375
 CYCLE:   272 TIME:   0.125 TIME LEFT:  2.00D  GRAD.:     0.990 HEAT:  6.651307
 CYCLE:   273 TIME:   0.139 TIME LEFT:  2.00D  GRAD.:     0.722 HEAT:  6.651183
 CYCLE:   274 TIME:   0.145 TIME LEFT:  2.00D  GRAD.:     0.883 HEAT:  6.651057
 CYCLE:   275 TIME:   0.133 TIME LEFT:  2.00D  GRAD.:     5.171 HEAT:  6.651174
 CYCLE:   276 TIME:   0.123 TIME LEFT:  2.00D  GRAD.:     0.619 HEAT:  6.650956
 CYCLE:   277 TIME:   0.127 TIME LEFT:  2.00D  GRAD.:     0.525 HEAT:  6.650944
 CYCLE:   278 TIME:   0.154 TIME LEFT:  2.00D  GRAD.:     0.888 HEAT:  6.650900
 CYCLE:   279 TIME:   0.141 TIME LEFT:  2.00D  GRAD.:     0.585 HEAT:  6.650814
 CYCLE:   280 TIME:   0.115 TIME LEFT:  2.00D  GRAD.:     0.634 HEAT:  6.650697
 CYCLE:   281 TIME:   0.117 TIME LEFT:  2.00D  GRAD.:     1.109 HEAT:  6.650569
 CYCLE:   282 TIME:   0.115 TIME LEFT:  2.00D  GRAD.:     0.533 HEAT:  6.650446
 CYCLE:   283 TIME:   0.107 TIME LEFT:  2.00D  GRAD.:     0.665 HEAT:  6.650359
 CYCLE:   284 TIME:   0.113 TIME LEFT:  2.00D  GRAD.:     1.279 HEAT:  6.650302
 CYCLE:   285 TIME:   0.104 TIME LEFT:  2.00D  GRAD.:     0.662 HEAT:  6.650235
 CYCLE:   286 TIME:   0.104 TIME LEFT:  2.00D  GRAD.:     0.759 HEAT:  6.650164
 CYCLE:   287 TIME:   0.107 TIME LEFT:  2.00D  GRAD.:     0.671 HEAT:  6.650091
 CYCLE:   288 TIME:   0.119 TIME LEFT:  2.00D  GRAD.:     0.539 HEAT:  6.650038
 CYCLE:   289 TIME:   0.080 TIME LEFT:  2.00D  GRAD.:     1.731 HEAT:  6.649979
 CYCLE:   290 TIME:   0.104 TIME LEFT:  2.00D  GRAD.:     1.032 HEAT:  6.649891
 CYCLE:   291 TIME:   0.104 TIME LEFT:  2.00D  GRAD.:     0.622 HEAT:  6.649854
 CYCLE:   292 TIME:   0.117 TIME LEFT:  2.00D  GRAD.:     0.847 HEAT:  6.649822
 CYCLE:   293 TIME:   0.092 TIME LEFT:  2.00D  GRAD.:     0.975 HEAT:  6.649794
 CYCLE:   294 TIME:   0.117 TIME LEFT:  2.00D  GRAD.:     0.991 HEAT:  6.649725
 CYCLE:   295 TIME:   0.119 TIME LEFT:  2.00D  GRAD.:     0.851 HEAT:  6.649649
 CYCLE:   296 TIME:   0.111 TIME LEFT:  2.00D  GRAD.:     0.769 HEAT:  6.649589
 CYCLE:   297 TIME:   0.098 TIME LEFT:  2.00D  GRAD.:     0.446 HEAT:  6.649539
 CYCLE:   298 TIME:   0.094 TIME LEFT:  2.00D  GRAD.:     0.518 HEAT:  6.649496
 CYCLE:   299 TIME:   0.115 TIME LEFT:  2.00D  GRAD.:     0.642 HEAT:  6.649461
 CYCLE:   300 TIME:   0.117 TIME LEFT:  2.00D  GRAD.:     2.577 HEAT:  6.649569
 CYCLE:   301 TIME:   0.104 TIME LEFT:  2.00D  GRAD.:     0.333 HEAT:  6.649403
 CYCLE:   302 TIME:   0.107 TIME LEFT:  2.00D  GRAD.:     0.277 HEAT:  6.649389
 CYCLE:   303 TIME:   0.109 TIME LEFT:  2.00D  GRAD.:     4.706 HEAT:  6.649502
 CYCLE:   304 TIME:   0.100 TIME LEFT:  2.00D  GRAD.:     0.716 HEAT:  6.649351
 CYCLE:   305 TIME:   0.107 TIME LEFT:  2.00D  GRAD.:     0.348 HEAT:  6.649342
 CYCLE:   306 TIME:   0.088 TIME LEFT:  2.00D  GRAD.:     0.465 HEAT:  6.649335
 CYCLE:   307 TIME:   0.088 TIME LEFT:  2.00D  GRAD.:     0.409 HEAT:  6.649329
 CYCLE:   308 TIME:   0.088 TIME LEFT:  2.00D  GRAD.:     0.468 HEAT:  6.649314
 CYCLE:   309 TIME:   0.088 TIME LEFT:  2.00D  GRAD.:     0.340 HEAT:  6.649302
 CYCLE:   310 TIME:   0.090 TIME LEFT:  2.00D  GRAD.:     0.273 HEAT:  6.649290
 CYCLE:   311 TIME:   0.092 TIME LEFT:  2.00D  GRAD.:     0.217 HEAT:  6.649274
 CYCLE:   312 TIME:   0.084 TIME LEFT:  2.00D  GRAD.:     0.335 HEAT:  6.649262
 CYCLE:   313 TIME:   0.107 TIME LEFT:  2.00D  GRAD.:     0.278 HEAT:  6.649247
 CYCLE:   314 TIME:   0.107 TIME LEFT:  2.00D  GRAD.:     0.406 HEAT:  6.649231
 CYCLE:   315 TIME:   0.107 TIME LEFT:  2.00D  GRAD.:     0.370 HEAT:  6.649213
 CYCLE:   316 TIME:   0.107 TIME LEFT:  2.00D  GRAD.:     0.839 HEAT:  6.649199
 CYCLE:   317 TIME:   0.105 TIME LEFT:  2.00D  GRAD.:     2.648 HEAT:  6.649227
 CYCLE:   318 TIME:   0.105 TIME LEFT:  2.00D  GRAD.:     0.251 HEAT:  6.649180
 CYCLE:   319 TIME:   0.104 TIME LEFT:  2.00D  GRAD.:     0.176 HEAT:  6.649179
 CYCLE:   320 TIME:   0.104 TIME LEFT:  2.00D  GRAD.:     0.366 HEAT:  6.649177
 CYCLE:   321 TIME:   0.105 TIME LEFT:  2.00D  GRAD.:     0.266 HEAT:  6.649170
 CYCLE:   322 TIME:   0.107 TIME LEFT:  2.00D  GRAD.:     0.246 HEAT:  6.649159
 CYCLE:   323 TIME:   0.098 TIME LEFT:  2.00D  GRAD.:     0.225 HEAT:  6.649152
 CYCLE:   324 TIME:   0.104 TIME LEFT:  2.00D  GRAD.:     1.044 HEAT:  6.649178
 CYCLE:   325 TIME:   0.109 TIME LEFT:  2.00D  GRAD.:     0.236 HEAT:  6.649143
 CYCLE:   326 TIME:   0.104 TIME LEFT:  2.00D  GRAD.:     0.151 HEAT:  6.649139
 CYCLE:   327 TIME:   0.113 TIME LEFT:  2.00D  GRAD.:     0.236 HEAT:  6.649135
 CYCLE:   328 TIME:   0.107 TIME LEFT:  2.00D  GRAD.:     0.238 HEAT:  6.649127
 CYCLE:   329 TIME:   0.082 TIME LEFT:  2.00D  GRAD.:     0.339 HEAT:  6.649109
 CYCLE:   330 TIME:   0.082 TIME LEFT:  2.00D  GRAD.:     0.578 HEAT:  6.649103
 CYCLE:   331 TIME:   0.105 TIME LEFT:  2.00D  GRAD.:     1.716 HEAT:  6.649115
 CYCLE:   332 TIME:   0.084 TIME LEFT:  2.00D  GRAD.:     0.168 HEAT:  6.649091
 CYCLE:   333 TIME:   0.100 TIME LEFT:  2.00D  GRAD.:     0.300 HEAT:  6.649089
 CYCLE:   334 TIME:   0.107 TIME LEFT:  2.00D  GRAD.:     0.245 HEAT:  6.649085
 CYCLE:   335 TIME:   0.100 TIME LEFT:  2.00D  GRAD.:     0.638 HEAT:  6.649087
 CYCLE:   336 TIME:   0.080 TIME LEFT:  2.00D  GRAD.:     0.222 HEAT:  6.649077
 CYCLE:   337 TIME:   0.096 TIME LEFT:  2.00D  GRAD.:     0.165 HEAT:  6.649073
 CYCLE:   338 TIME:   0.104 TIME LEFT:  2.00D  GRAD.:     0.955 HEAT:  6.649105
 CYCLE:   339 TIME:   0.109 TIME LEFT:  2.00D  GRAD.:     0.163 HEAT:  6.649070
 CYCLE:   340 TIME:   0.104 TIME LEFT:  2.00D  GRAD.:     0.164 HEAT:  6.649065
 CYCLE:   341 TIME:   0.082 TIME LEFT:  2.00D  GRAD.:     0.368 HEAT:  6.649058
 CYCLE:   342 TIME:   0.090 TIME LEFT:  2.00D  GRAD.:     0.445 HEAT:  6.649048
 CYCLE:   343 TIME:   0.104 TIME LEFT:  2.00D  GRAD.:     0.230 HEAT:  6.649037
 CYCLE:   344 TIME:   0.109 TIME LEFT:  2.00D  GRAD.:     0.201 HEAT:  6.649029
 CYCLE:   345 TIME:   0.098 TIME LEFT:  2.00D  GRAD.:     0.224 HEAT:  6.649021
 CYCLE:   346 TIME:   0.109 TIME LEFT:  2.00D  GRAD.:     0.993 HEAT:  6.649046
 CYCLE:   347 TIME:   0.105 TIME LEFT:  2.00D  GRAD.:     2.360 HEAT:  6.649043
 CYCLE:   348 TIME:   0.092 TIME LEFT:  2.00D  GRAD.:     1.432 HEAT:  6.649010
 CYCLE:   349 TIME:   0.088 TIME LEFT:  2.00D  GRAD.:     0.211 HEAT:  6.648993
 CYCLE:   350 TIME:   0.100 TIME LEFT:  2.00D  GRAD.:     0.218 HEAT:  6.648991
 CYCLE:   351 TIME:   0.094 TIME LEFT:  2.00D  GRAD.:     0.332 HEAT:  6.648987
 CYCLE:   352 TIME:   0.084 TIME LEFT:  2.00D  GRAD.:     0.253 HEAT:  6.648979
 CYCLE:   353 TIME:   0.090 TIME LEFT:  2.00D  GRAD.:     0.825 HEAT:  6.648986
 CYCLE:   354 TIME:   0.086 TIME LEFT:  2.00D  GRAD.:     0.239 HEAT:  6.648968
 CYCLE:   355 TIME:   0.078 TIME LEFT:  2.00D  GRAD.:     0.174 HEAT:  6.648964
 CYCLE:   356 TIME:   0.086 TIME LEFT:  2.00D  GRAD.:     0.194 HEAT:  6.648955
 CYCLE:   357 TIME:   0.105 TIME LEFT:  2.00D  GRAD.:     0.418 HEAT:  6.648932
 CYCLE:   358 TIME:   0.094 TIME LEFT:  2.00D  GRAD.:     0.509 HEAT:  6.648924
 CYCLE:   359 TIME:   0.082 TIME LEFT:  2.00D  GRAD.:     0.293 HEAT:  6.648908
 CYCLE:   360 TIME:   0.090 TIME LEFT:  2.00D  GRAD.:     0.296 HEAT:  6.648890
 CYCLE:   361 TIME:   0.100 TIME LEFT:  2.00D  GRAD.:     0.418 HEAT:  6.648881
 CYCLE:   362 TIME:   0.082 TIME LEFT:  2.00D  GRAD.:     0.879 HEAT:  6.648874
 CYCLE:   363 TIME:   0.092 TIME LEFT:  2.00D  GRAD.:     0.912 HEAT:  6.648869
 CYCLE:   364 TIME:   0.104 TIME LEFT:  2.00D  GRAD.:     4.017 HEAT:  6.649070
 CYCLE:   365 TIME:   0.086 TIME LEFT:  2.00D  GRAD.:     0.372 HEAT:  6.648852
 CYCLE:   366 TIME:   0.094 TIME LEFT:  2.00D  GRAD.:     0.369 HEAT:  6.648846
 CYCLE:   367 TIME:   0.111 TIME LEFT:  2.00D  GRAD.:     0.349 HEAT:  6.648847
 CYCLE:   368 TIME:   0.092 TIME LEFT:  2.00D  GRAD.:     1.467 HEAT:  6.648889
 CYCLE:   369 TIME:   0.107 TIME LEFT:  2.00D  GRAD.:     0.301 HEAT:  6.648821
 CYCLE:   370 TIME:   0.104 TIME LEFT:  2.00D  GRAD.:     0.253 HEAT:  6.648814
 CYCLE:   371 TIME:   0.105 TIME LEFT:  2.00D  GRAD.:     0.615 HEAT:  6.648786
 CYCLE:   372 TIME:   0.098 TIME LEFT:  2.00D  GRAD.:     0.555 HEAT:  6.648765
 CYCLE:   373 TIME:   0.096 TIME LEFT:  2.00D  GRAD.:     0.449 HEAT:  6.648735
 CYCLE:   374 TIME:   0.100 TIME LEFT:  2.00D  GRAD.:     0.312 HEAT:  6.648694
 CYCLE:   375 TIME:   0.104 TIME LEFT:  2.00D  GRAD.:     0.386 HEAT:  6.648666
 CYCLE:   376 TIME:   0.109 TIME LEFT:  2.00D  GRAD.:     0.998 HEAT:  6.648654
 CYCLE:   377 TIME:   0.098 TIME LEFT:  2.00D  GRAD.:     0.541 HEAT:  6.648634
 CYCLE:   378 TIME:   0.092 TIME LEFT:  2.00D  GRAD.:     0.846 HEAT:  6.648623
 CYCLE:   379 TIME:   0.100 TIME LEFT:  2.00D  GRAD.:     0.639 HEAT:  6.648587
 CYCLE:   380 TIME:   0.115 TIME LEFT:  2.00D  GRAD.:     0.908 HEAT:  6.648580
 CYCLE:   381 TIME:   0.094 TIME LEFT:  2.00D  GRAD.:     1.012 HEAT:  6.648570
 CYCLE:   382 TIME:   0.090 TIME LEFT:  2.00D  GRAD.:     0.382 HEAT:  6.648543
 CYCLE:   383 TIME:   0.088 TIME LEFT:  2.00D  GRAD.:     0.530 HEAT:  6.648557
 CYCLE:   384 TIME:   0.080 TIME LEFT:  2.00D  GRAD.:     0.481 HEAT:  6.648518
 CYCLE:   385 TIME:   0.109 TIME LEFT:  2.00D  GRAD.:     0.784 HEAT:  6.648514
 CYCLE:   386 TIME:   0.107 TIME LEFT:  2.00D  GRAD.:     0.659 HEAT:  6.648479
 CYCLE:   387 TIME:   0.115 TIME LEFT:  2.00D  GRAD.:     0.625 HEAT:  6.648492
 CYCLE:   388 TIME:   0.109 TIME LEFT:  2.00D  GRAD.:     0.811 HEAT:  6.648444
 CYCLE:   389 TIME:   0.111 TIME LEFT:  2.00D  GRAD.:     0.581 HEAT:  6.648459
 CYCLE:   390 TIME:   0.113 TIME LEFT:  2.00D  GRAD.:     0.356 HEAT:  6.648386
 CYCLE:   391 TIME:   0.135 TIME LEFT:  2.00D  GRAD.:     0.840 HEAT:  6.648437
 CYCLE:   392 TIME:   0.156 TIME LEFT:  2.00D  GRAD.:     1.138 HEAT:  6.648345
 CYCLE:   393 TIME:   0.123 TIME LEFT:  2.00D  GRAD.:     2.393 HEAT:  6.648414
 CYCLE:   394 TIME:   0.141 TIME LEFT:  2.00D  GRAD.:     0.356 HEAT:  6.648322
 CYCLE:   395 TIME:   0.279 TIME LEFT:  2.00D  GRAD.:     4.490 HEAT:  6.648556
 CYCLE:   396 TIME:   0.252 TIME LEFT:  2.00D  GRAD.:     0.939 HEAT:  6.648322
 CYCLE:   397 TIME:   0.229 TIME LEFT:  2.00D  GRAD.:     6.712 HEAT:  6.649159
 CYCLE:   398 TIME:   0.113 TIME LEFT:  2.00D  GRAD.:     0.378 HEAT:  6.648318
 CYCLE:   399 TIME:   0.119 TIME LEFT:  2.00D  GRAD.:     7.642 HEAT:  6.649214
 CYCLE:   400 TIME:   0.109 TIME LEFT:  2.00D  GRAD.:     1.318 HEAT:  6.648372
 CYCLE:   401 TIME:   0.115 TIME LEFT:  2.00D  GRAD.:     9.239 HEAT:  6.650103
 CYCLE:   402 TIME:   0.109 TIME LEFT:  2.00D  GRAD.:     2.667 HEAT:  6.648526
 CYCLE:   403 TIME:   0.094 TIME LEFT:  2.00D  GRAD.:     7.148 HEAT:  6.649309
 CYCLE:   404 TIME:   0.096 TIME LEFT:  2.00D  GRAD.:     1.080 HEAT:  6.648305
 CYCLE:   405 TIME:   0.119 TIME LEFT:  2.00D  GRAD.:    11.827 HEAT:  6.651478
 CYCLE:   406 TIME:   0.117 TIME LEFT:  2.00D  GRAD.:     2.515 HEAT:  6.648475
 CYCLE:   407 TIME:   0.107 TIME LEFT:  2.00D  GRAD.:    23.161 HEAT:  6.658139
 CYCLE:   408 TIME:   0.109 TIME LEFT:  2.00D  GRAD.:     1.330 HEAT:  6.648323
 CYCLE:   409 TIME:   0.105 TIME LEFT:  2.00D  GRAD.:    23.480 HEAT:  6.660504
 CYCLE:   410 TIME:   0.111 TIME LEFT:  2.00D  GRAD.:     7.464 HEAT:  6.648738
 CYCLE:   411 TIME:   0.100 TIME LEFT:  2.00D  GRAD.:    64.680 HEAT:  6.682209
 CYCLE:   412 TIME:   0.080 TIME LEFT:  2.00D  GRAD.:     2.496 HEAT:  6.648521
 CYCLE:   413 TIME:   0.088 TIME LEFT:  2.00D  GRAD.:     4.428 HEAT:  6.648767
 CYCLE:   414 TIME:   0.104 TIME LEFT:  2.00D  GRAD.:     3.590 HEAT:  6.648505
 CYCLE:   415 TIME:   0.102 TIME LEFT:  2.00D  GRAD.:     1.026 HEAT:  6.648312
 CYCLE:   416 TIME:   0.090 TIME LEFT:  2.00D  GRAD.:     1.760 HEAT:  6.648354
 CYCLE:   417 TIME:   0.080 TIME LEFT:  2.00D  GRAD.:     1.270 HEAT:  6.648287
 CYCLE:   418 TIME:   0.105 TIME LEFT:  2.00D  GRAD.:     1.024 HEAT:  6.648399
 CYCLE:   419 TIME:   0.109 TIME LEFT:  2.00D  GRAD.:     0.667 HEAT:  6.648278
 CYCLE:   420 TIME:   0.102 TIME LEFT:  2.00D  GRAD.:     2.254 HEAT:  6.649289
 CYCLE:   421 TIME:   0.090 TIME LEFT:  2.00D  GRAD.:     2.507 HEAT:  6.648317
 CYCLE:   422 TIME:   0.094 TIME LEFT:  2.00D  GRAD.:    13.405 HEAT:  6.649610
 CYCLE:   423 TIME:   0.092 TIME LEFT:  2.00D  GRAD.:     0.237 HEAT:  6.648253
 CYCLE:   424 TIME:   0.102 TIME LEFT:  2.00D  GRAD.:     0.431 HEAT:  6.648264
 CYCLE:   425 TIME:   0.092 TIME LEFT:  2.00D  GRAD.:     0.293 HEAT:  6.648263
 CYCLE:   426 TIME:   0.082 TIME LEFT:  2.00D  GRAD.:     0.907 HEAT:  6.648239
 CYCLE:   427 TIME:   0.102 TIME LEFT:  2.00D  GRAD.:     1.041 HEAT:  6.648228
 CYCLE:   428 TIME:   0.100 TIME LEFT:  2.00D  GRAD.:     0.847 HEAT:  6.648220
 CYCLE:   429 TIME:   0.078 TIME LEFT:  2.00D  GRAD.:     0.798 HEAT:  6.648208
 CYCLE:   430 TIME:   0.098 TIME LEFT:  2.00D  GRAD.:     0.557 HEAT:  6.648195
 CYCLE:   431 TIME:   0.096 TIME LEFT:  2.00D  GRAD.:     0.487 HEAT:  6.648185
 CYCLE:   432 TIME:   0.100 TIME LEFT:  2.00D  GRAD.:     0.740 HEAT:  6.648215
 CYCLE:   433 TIME:   0.100 TIME LEFT:  2.00D  GRAD.:     1.737 HEAT:  6.648220
 CYCLE:   434 TIME:   0.098 TIME LEFT:  2.00D  GRAD.:     5.191 HEAT:  6.648645
 CYCLE:   435 TIME:   0.086 TIME LEFT:  2.00D  GRAD.:     0.671 HEAT:  6.648197
 CYCLE:   436 TIME:   0.094 TIME LEFT:  2.00D  GRAD.:     0.718 HEAT:  6.648158
 CYCLE:   437 TIME:   0.084 TIME LEFT:  2.00D  GRAD.:     0.599 HEAT:  6.648144
 CYCLE:   438 TIME:   0.082 TIME LEFT:  2.00D  GRAD.:     0.268 HEAT:  6.648135
 CYCLE:   439 TIME:   0.080 TIME LEFT:  2.00D  GRAD.:     1.677 HEAT:  6.648217
 CYCLE:   440 TIME:   0.080 TIME LEFT:  2.00D  GRAD.:     0.578 HEAT:  6.648123
 CYCLE:   441 TIME:   0.098 TIME LEFT:  2.00D  GRAD.:     1.440 HEAT:  6.648227
 CYCLE:   442 TIME:   0.082 TIME LEFT:  2.00D  GRAD.:     0.319 HEAT:  6.648102
 CYCLE:   443 TIME:   0.086 TIME LEFT:  2.00D  GRAD.:     1.670 HEAT:  6.648275
 CYCLE:   444 TIME:   0.088 TIME LEFT:  2.00D  GRAD.:     0.917 HEAT:  6.648097
 CYCLE:   445 TIME:   0.088 TIME LEFT:  2.00D  GRAD.:     0.802 HEAT:  6.648225
 CYCLE:   446 TIME:   0.098 TIME LEFT:  2.00D  GRAD.:     2.133 HEAT:  6.648114
 CYCLE:   447 TIME:   0.098 TIME LEFT:  2.00D  GRAD.:     0.629 HEAT:  6.648081
 CYCLE:   448 TIME:   0.086 TIME LEFT:  2.00D  GRAD.:     0.252 HEAT:  6.648063
 CYCLE:   449 TIME:   0.094 TIME LEFT:  2.00D  GRAD.:     0.732 HEAT:  6.648106
 CYCLE:   450 TIME:   0.086 TIME LEFT:  2.00D  GRAD.:     0.277 HEAT:  6.648057
 CYCLE:   451 TIME:   0.084 TIME LEFT:  2.00D  GRAD.:     1.494 HEAT:  6.648460
 CYCLE:   452 TIME:   0.092 TIME LEFT:  2.00D  GRAD.:     0.866 HEAT:  6.648055
 CYCLE:   453 TIME:   0.092 TIME LEFT:  2.00D  GRAD.:     3.364 HEAT:  6.648289
 CYCLE:   454 TIME:   0.092 TIME LEFT:  2.00D  GRAD.:     0.137 HEAT:  6.648038
 CYCLE:   455 TIME:   0.092 TIME LEFT:  2.00D  GRAD.:     0.306 HEAT:  6.648039
 CYCLE:   456 TIME:   0.078 TIME LEFT:  2.00D  GRAD.:     1.041 HEAT:  6.648036
 CYCLE:   457 TIME:   0.078 TIME LEFT:  2.00D  GRAD.:     1.491 HEAT:  6.648039
 CYCLE:   458 TIME:   0.074 TIME LEFT:  2.00D  GRAD.:     0.290 HEAT:  6.648014
 CYCLE:   459 TIME:   0.096 TIME LEFT:  2.00D  GRAD.:     0.351 HEAT:  6.648003
 CYCLE:   460 TIME:   0.094 TIME LEFT:  2.00D  GRAD.:     1.069 HEAT:  6.647981
 CYCLE:   461 TIME:   0.102 TIME LEFT:  2.00D  GRAD.:     2.413 HEAT:  6.647999
 CYCLE:   462 TIME:   0.109 TIME LEFT:  2.00D  GRAD.:     1.212 HEAT:  6.647956
 CYCLE:   463 TIME:   0.107 TIME LEFT:  2.00D  GRAD.:     0.184 HEAT:  6.647944
 CYCLE:   464 TIME:   0.084 TIME LEFT:  2.00D  GRAD.:     0.207 HEAT:  6.647939
 CYCLE:   465 TIME:   0.078 TIME LEFT:  2.00D  GRAD.:     0.321 HEAT:  6.647936
 CYCLE:   466 TIME:   0.084 TIME LEFT:  2.00D  GRAD.:     0.226 HEAT:  6.647922
 CYCLE:   467 TIME:   0.104 TIME LEFT:  2.00D  GRAD.:     0.633 HEAT:  6.647904
 CYCLE:   468 TIME:   0.127 TIME LEFT:  2.00D  GRAD.:     1.166 HEAT:  6.647900
 CYCLE:   469 TIME:   0.119 TIME LEFT:  2.00D  GRAD.:     0.377 HEAT:  6.647887
 CYCLE:   470 TIME:   0.121 TIME LEFT:  2.00D  GRAD.:     0.280 HEAT:  6.647886
 CYCLE:   471 TIME:   0.117 TIME LEFT:  2.00D  GRAD.:     0.165 HEAT:  6.647879
 CYCLE:   472 TIME:   0.121 TIME LEFT:  2.00D  GRAD.:     0.447 HEAT:  6.647879
 CYCLE:   473 TIME:   0.119 TIME LEFT:  2.00D  GRAD.:     0.904 HEAT:  6.647868
 CYCLE:   474 TIME:   0.119 TIME LEFT:  2.00D  GRAD.:     1.016 HEAT:  6.647868
 CYCLE:   475 TIME:   0.133 TIME LEFT:  2.00D  GRAD.:     0.598 HEAT:  6.647846
 CYCLE:   476 TIME:   0.121 TIME LEFT:  2.00D  GRAD.:     0.291 HEAT:  6.647835
 CYCLE:   477 TIME:   0.119 TIME LEFT:  2.00D  GRAD.:     0.521 HEAT:  6.647824
 CYCLE:   478 TIME:   0.119 TIME LEFT:  2.00D  GRAD.:     0.817 HEAT:  6.647843
 CYCLE:   479 TIME:   0.139 TIME LEFT:  2.00D  GRAD.:     1.361 HEAT:  6.647825
 CYCLE:   480 TIME:   0.117 TIME LEFT:  2.00D  GRAD.:     0.526 HEAT:  6.647797
 CYCLE:   481 TIME:   0.117 TIME LEFT:  2.00D  GRAD.:     0.227 HEAT:  6.647792
 CYCLE:   482 TIME:   0.131 TIME LEFT:  2.00D  GRAD.:     0.727 HEAT:  6.647794
 CYCLE:   483 TIME:   0.135 TIME LEFT:  2.00D  GRAD.:     0.310 HEAT:  6.647781
 CYCLE:   484 TIME:   0.119 TIME LEFT:  2.00D  GRAD.:     0.435 HEAT:  6.647777
 CYCLE:   485 TIME:   0.104 TIME LEFT:  2.00D  GRAD.:     0.329 HEAT:  6.647776
 CYCLE:   486 TIME:   0.102 TIME LEFT:  2.00D  GRAD.:     0.578 HEAT:  6.647773
 CYCLE:   487 TIME:   0.104 TIME LEFT:  2.00D  GRAD.:     0.772 HEAT:  6.647769
 CYCLE:   488 TIME:   0.102 TIME LEFT:  2.00D  GRAD.:     0.272 HEAT:  6.647764
 CYCLE:   489 TIME:   0.105 TIME LEFT:  2.00D  GRAD.:     0.220 HEAT:  6.647764
 CYCLE:   490 TIME:   0.105 TIME LEFT:  2.00D  GRAD.:     0.192 HEAT:  6.647760
 CYCLE:   491 TIME:   0.100 TIME LEFT:  2.00D  GRAD.:     0.584 HEAT:  6.647758
 CYCLE:   492 TIME:   0.100 TIME LEFT:  2.00D  GRAD.:     0.251 HEAT:  6.647751
 CYCLE:   493 TIME:   0.092 TIME LEFT:  2.00D  GRAD.:     0.191 HEAT:  6.647747
 CYCLE:   494 TIME:   0.102 TIME LEFT:  2.00D  GRAD.:     0.269 HEAT:  6.647744
 CYCLE:   495 TIME:   0.105 TIME LEFT:  2.00D  GRAD.:     0.546 HEAT:  6.647741
 CYCLE:   496 TIME:   0.086 TIME LEFT:  2.00D  GRAD.:     0.249 HEAT:  6.647732
 CYCLE:   497 TIME:   0.088 TIME LEFT:  2.00D  GRAD.:     0.171 HEAT:  6.647729
 CYCLE:   498 TIME:   0.088 TIME LEFT:  2.00D  GRAD.:     0.543 HEAT:  6.647732
 CYCLE:   499 TIME:   0.080 TIME LEFT:  2.00D  GRAD.:     0.168 HEAT:  6.647725
 CYCLE:   500 TIME:   0.078 TIME LEFT:  2.00D  GRAD.:     0.126 HEAT:  6.647724
 CYCLE:   501 TIME:   0.082 TIME LEFT:  2.00D  GRAD.:     0.290 HEAT:  6.647721
 CYCLE:   502 TIME:   0.094 TIME LEFT:  2.00D  GRAD.:     0.462 HEAT:  6.647719
 CYCLE:   503 TIME:   0.092 TIME LEFT:  2.00D  GRAD.:     0.396 HEAT:  6.647715
 CYCLE:   504 TIME:   0.221 TIME LEFT:  2.00D  GRAD.:     0.219 HEAT:  6.647709
 CYCLE:   505 TIME:   0.082 TIME LEFT:  2.00D  GRAD.:     0.127 HEAT:  6.647706
 CYCLE:   506 TIME:   0.104 TIME LEFT:  2.00D  GRAD.:     0.456 HEAT:  6.647705
 CYCLE:   507 TIME:   0.107 TIME LEFT:  2.00D  GRAD.:     0.281 HEAT:  6.647706
 CYCLE:   508 TIME:   0.104 TIME LEFT:  2.00D  GRAD.:     0.153 HEAT:  6.647700
 CYCLE:   509 TIME:   0.100 TIME LEFT:  2.00D  GRAD.:     0.174 HEAT:  6.647699
 CYCLE:   510 TIME:   0.102 TIME LEFT:  2.00D  GRAD.:     0.449 HEAT:  6.647696
 CYCLE:   511 TIME:   0.100 TIME LEFT:  2.00D  GRAD.:     0.260 HEAT:  6.647694
 CYCLE:   512 TIME:   0.109 TIME LEFT:  2.00D  GRAD.:     0.694 HEAT:  6.647699
 CYCLE:   513 TIME:   0.105 TIME LEFT:  2.00D  GRAD.:     0.392 HEAT:  6.647695
 CYCLE:   514 TIME:   0.107 TIME LEFT:  2.00D  GRAD.:     0.839 HEAT:  6.647700
 CYCLE:   515 TIME:   0.105 TIME LEFT:  2.00D  GRAD.:     0.441 HEAT:  6.647695
 CYCLE:   516 TIME:   0.104 TIME LEFT:  2.00D  GRAD.:     0.167 HEAT:  6.647689
 CYCLE:   517 TIME:   0.111 TIME LEFT:  2.00D  GRAD.:     0.452 HEAT:  6.647690
 CYCLE:   518 TIME:   0.100 TIME LEFT:  2.00D  GRAD.:     0.265 HEAT:  6.647688
 CYCLE:   519 TIME:   0.105 TIME LEFT:  2.00D  GRAD.:     0.150 HEAT:  6.647686
 CYCLE:   520 TIME:   0.102 TIME LEFT:  2.00D  GRAD.:     0.316 HEAT:  6.647686
 CYCLE:   521 TIME:   0.104 TIME LEFT:  2.00D  GRAD.:     0.357 HEAT:  6.647686
 CYCLE:   522 TIME:   0.072 TIME LEFT:  2.00D  GRAD.:     0.250 HEAT:  6.647683
 CYCLE:   523 TIME:   0.080 TIME LEFT:  2.00D  GRAD.:     0.428 HEAT:  6.647682
 CYCLE:   524 TIME:   0.082 TIME LEFT:  2.00D  GRAD.:     0.417 HEAT:  6.647680
 CYCLE:   525 TIME:   0.078 TIME LEFT:  2.00D  GRAD.:     0.115 HEAT:  6.647677
 CYCLE:   526 TIME:   0.102 TIME LEFT:  2.00D  GRAD.:     0.303 HEAT:  6.647677
 CYCLE:   527 TIME:   0.098 TIME LEFT:  2.00D  GRAD.:     0.283 HEAT:  6.647675
 CYCLE:   528 TIME:   0.102 TIME LEFT:  2.00D  GRAD.:     0.412 HEAT:  6.647676
 CYCLE:   529 TIME:   0.090 TIME LEFT:  2.00D  GRAD.:     0.201 HEAT:  6.647672
 CYCLE:   530 TIME:   0.088 TIME LEFT:  2.00D  GRAD.:     0.129 HEAT:  6.647670
 CYCLE:   531 TIME:   0.092 TIME LEFT:  2.00D  GRAD.:     0.320 HEAT:  6.647674
 CYCLE:   532 TIME:   0.107 TIME LEFT:  2.00D  GRAD.:     0.539 HEAT:  6.647671
 CYCLE:   533 TIME:   0.092 TIME LEFT:  2.00D  GRAD.:     1.336 HEAT:  6.647713
 CYCLE:   534 TIME:   0.090 TIME LEFT:  2.00D  GRAD.:     1.442 HEAT:  6.647708
 CYCLE:   535 TIME:   0.123 TIME LEFT:  2.00D  GRAD.:     1.248 HEAT:  6.647719
 CYCLE:   536 TIME:   0.113 TIME LEFT:  2.00D  GRAD.:     1.231 HEAT:  6.647699
 CYCLE:   537 TIME:   0.125 TIME LEFT:  2.00D  GRAD.:     1.088 HEAT:  6.647695
 CYCLE:   538 TIME:   0.145 TIME LEFT:  2.00D  GRAD.:     0.708 HEAT:  6.647669
 CYCLE:   539 TIME:   0.217 TIME LEFT:  2.00D  GRAD.:     0.912 HEAT:  6.647670
 CYCLE:   540 TIME:   0.188 TIME LEFT:  2.00D  GRAD.:     0.292 HEAT:  6.647657
 CYCLE:   541 TIME:   0.148 TIME LEFT:  2.00D  GRAD.:     0.201 HEAT:  6.647657
 CYCLE:   542 TIME:   0.113 TIME LEFT:  2.00D  GRAD.:     4.347 HEAT:  6.647795
 CYCLE:   543 TIME:   0.098 TIME LEFT:  2.00D  GRAD.:     0.279 HEAT:  6.647657
 CYCLE:   544 TIME:   0.100 TIME LEFT:  2.00D  GRAD.:     0.124 HEAT:  6.647656
 CYCLE:   545 TIME:   0.096 TIME LEFT:  2.00D  GRAD.:     0.149 HEAT:  6.647655
 CYCLE:   546 TIME:   0.098 TIME LEFT:  2.00D  GRAD.:     0.122 HEAT:  6.647655
 CYCLE:   547 TIME:   0.098 TIME LEFT:  2.00D  GRAD.:     0.091 HEAT:  6.647653

 -------------------------------------------------------------------------------
 RM1 PRECISE POLAR GNORM=0.1




     HERBERTS TEST WAS SATISFIED IN BFGS                      
     SCF FIELD WAS ACHIEVED                                   


                              RM1 CALCULATION
                                                       MOPAC2016 (Version: 21.013L)
                                                       Mon Oct 18 08:19:39 2021
                                                       No. of days remaining =  87




          FINAL HEAT OF FORMATION =          6.64765 KCAL/MOL =      27.81378 KJ/MOL


          TOTAL ENERGY            =      -5805.15609 EV
          ELECTRONIC ENERGY       =     -49338.37379 EV  POINT GROUP:     C1  
          CORE-CORE REPULSION     =      43533.21770 EV
          COSMO AREA              =        527.40 SQUARE ANGSTROMS
          COSMO VOLUME            =        599.10 CUBIC ANGSTROMS

          GRADIENT NORM           =          0.09082 = 0.01144 PER ATOM
          IONIZATION POTENTIAL    =          8.179534 EV
          HOMO LUMO ENERGIES (EV) =         -8.180 -0.839
          NO. OF FILLED LEVELS    =         92
          MOLECULAR WEIGHT        =        506.6180

          MOLECULAR DIMENSIONS (Angstroms)

            Atom       Atom       Distance
            H    62    H    40    19.13334
            H    58    H    54    14.39460
            H    39    H    55     5.53152


          SCF CALCULATIONS        =        548
 
          WALL-CLOCK TIME         =  1 MINUTE AND  0.545 SECONDS
          COMPUTATION TIME        = 19 MINUTES AND 56.652 SECONDS




  ATOM    CHEMICAL      BOND LENGTH      BOND ANGLE     TWIST ANGLE 
 NUMBER    SYMBOL       (ANGSTROMS)      (DEGREES)       (DEGREES) 
   (I)                     NA:I           NB:NA:I       NC:NB:NA:I       NA    NB    NC 
     1       C          0.00000000       0.0000000       0.0000000        0     0     0
     2       C          1.51987514  *    0.0000000       0.0000000        1     0     0
     3       C          1.52567783  *  110.5266774  *    0.0000000        2     1     0
     4       C          1.53574243  *  110.0040779  * -179.8951995  *     3     2     1
     5       N          1.45999225  *  111.5566124  *  179.7716326  *     4     3     2
     6       C          1.41098966  *  125.7675776  *   87.0185791  *     5     4     3
     7       C          1.39252617  *  129.7067453  *   11.3151721  *     6     5     4
     8       C          1.38498500  *  117.3949050  *  177.6683804  *     7     6     5
     9       C          1.40412012  *  121.5915366  *    0.0556914  *     8     7     6
    10       C          1.39160386  *  121.0548568  *    0.1017273  *     9     8     7
    11       C          1.38416028  *  118.1423852  *    0.0890522  *    10     9     8
    12       C          1.44088025  *  132.4613281  *  179.5517942  *    11    10     9
    13       C          1.42475874  *  106.9742546  * -179.8139817  *    12    11    10
    14       C          1.39460087  *  121.3133915  *  178.6002583  *    13    12    11
    15       C          1.38378464  *  117.4850344  *    1.5757336  *    14    13    12
    16       C          1.40323079  *  121.4342177  *   -0.2818266  *    15    14    13
    17       C          1.39418979  *  121.1977408  *   -1.4216574  *    16    15    14
    18       C          1.45127465  *  120.3378613  *  179.7897720  *    16    15    14
    19       C          1.34607611  *  123.2802863  *  135.7368229  *    18    16    17
    20       C          1.46891395  *  119.6600948  *  178.8917106  *    19    18    16
    21       O          1.22302244  *  126.5176227  *    1.1606482  *    20    19    18
    22       O          1.34816025  *  114.0134472  * -178.6848725  *    20    19    18
    23       C          1.41783742  *  122.8475229  *   -2.6759494  *    19    18    16
    24       N          1.15638076  *  179.3110690  * -178.7642848  *    23    19    18
    25       C          1.44378269  *  118.5761278  * -179.3917988  *     9     8     7
    26       C          1.36342211  *  125.9260677  *   43.3695310  *    25     9     8
    27       C          1.43421407  *  112.0988496  * -179.5401361  *    26    25     9
    28       C          1.36345838  *  112.1030594  *    0.0074820  *    27    26    25
    29       S          1.71656730  *  112.1094423  *    0.3611378  *    28    27    26
    30       C          1.44302999  *  125.9395142  *  179.4561812  *    28    27    26
    31       C          1.39828973  *  119.1915699  *  -42.0296566  *    30    28    27
    32       C          1.38257144  *  120.3534641  *  179.4986262  *    31    30    28
    33       C          1.40284082  *  119.0571138  *   -0.0624385  *    32    31    30
    34       C          1.39188821  *  121.2398119  *    0.0174658  *    33    32    31
    35       C          1.39115078  *  120.9130922  *  137.3708700  *    30    28    27
    36       O          1.36390149  *  113.3186262  * -179.9810495  *    33    32    31
    37       C          1.40456217  *  117.4019452  *    0.0585537  *    36    33    34
    38       H          1.10083609  *  116.3085825  *  -43.6132885  *    18    16    17
    39       H          1.09960573  *  112.3067041  *   60.2581604  *     1     2     3
    40       H          1.09971732  *  111.7669858  * -179.9292506  *     1     2     3
    41       H          1.09960801  *  112.3084378  *  -60.1100099  *     1     2     3
    42       H          1.11079687  *  110.1317503  *  -57.4241174  *     2     1    40
    43       H          1.11081749  *  110.1308953  *   57.5402056  *     2     1    40
    44       H          1.11079321  *  110.6142861  * -179.9619914  *     3     2    42
    45       H          1.11045205  *  110.6151700  *  -64.4411068  *     3     2    42
    46       H          1.11450710  *  111.1134669  *  179.4047113  *     4     3    44
    47       H          1.11550319  *  111.0245256  * -179.2961831  *     4     3    45
    48       H          1.09154437  *  121.8846828  *   -2.4952443  *     7     6     5
    49       H          1.09518714  *  119.1513632  *  179.5894402  *     8     7     6
    50       H          1.09309072  *  121.6071492  * -179.4779820  *    10     9     8
    51       H          1.09193192  *  121.6857957  * -178.5361501  *    14    13    12
    52       H          1.09558836  *  118.8146388  * -178.7441247  *    15    14    13
    53       H          1.09382222  *  121.4828932  *   -0.1282073  *    17    16    18
    54       H          0.96820564  *  111.0710901  *    0.3844837  *    22    20    21
    55       H          1.08716260  *  125.2091753  *    1.3401990  *    26    25     9
    56       H          1.08714321  *  122.6927509  * -179.1887029  *    27    26    25
    57       H          1.09474518  *  119.9820405  *  179.6607713  *    31    30    35
    58       H          1.09401318  *  120.6902109  *  179.8876767  *    32    31    30
    59       H          1.09181886  *  122.5132100  *    0.1275497  *    34    33    36
    60       H          1.09486318  *  120.1377146  *    0.0923049  *    35    30    28
    61       H          1.10256008  *  113.3116539  *   62.4945860  *    37    36    33
    62       H          1.10112510  *  103.4649436  *  179.9394874  *    37    36    33
    63       H          1.10256106  *  113.3049691  *  -62.6210330  *    37    36    33

                             CARTESIAN COORDINATES

   1    C        0.000000000     0.000000000     0.000000000
   2    C        1.519875137     0.000000000     0.000000000
   3    C        2.054844096     1.428811058     0.000000000
   4    C        3.590520387     1.414804466    -0.002639570
   5    N        4.139304631     2.767720999    -0.008124066
   6    C        4.396122038     3.558163906     1.132111283
   7    C        4.403676572     3.201882511     2.478267155
   8    C        4.740941475     4.183399717     3.395360282
   9    C        5.062573344     5.488909327     2.990698795
  10    C        5.052102681     5.846753366     1.645931410
  11    C        4.713484376     4.879454243     0.715571405
  12    C        4.597544932     4.909179373    -0.720329131
  13    C        4.208277309     3.602339952    -1.133341115
  14    C        3.981379743     3.304275457    -2.476690152
  15    C        4.180920036     4.317176291    -3.398143076
  16    C        4.590214640     5.598860505    -2.999620623
  17    C        4.783624124     5.909455279    -1.654299532
  18    C        4.796799197     6.642396742    -3.986815161
  19    C        5.467827609     6.448289859    -5.137451625
  20    C        5.608852897     7.555527328    -6.092357515
  21    O        5.185610166     8.694566931    -5.953655494
  22    O        6.276485930     7.228427266    -7.216994235
  23    C        6.085348091     5.215832172    -5.469083133
  24    N        6.593550924     4.216225448    -5.751453012
  25    C        5.417564289     6.457355577     4.000947154
  26    C        6.240959754     6.237895936     5.065267235
  27    C        6.380438096     7.403694239     5.888935930
  28    C        5.656691120     8.457053865     5.413917442
  29    S        4.796120173     8.057006547     3.983538792
  30    C        5.572891332     9.766547577     6.014366748
  31    C        5.445955095     9.873321958     7.402783326
  32    C        5.374073220    11.116125006     8.004262633
  33    C        5.431648741    12.265601264     7.202170523
  34    C        5.558834450    12.175087771     5.819063909
  35    C        5.629205972    10.916063427     5.232866617
  36    O        5.351162990    13.425761176     7.914756155
  37    C        5.399231193    14.631025687     7.195157788
  38    H        4.379587789     7.632051832    -3.745242129
  39    H       -0.417371204     0.504683723    -0.883305370
  40    H       -0.407811224    -1.021306319     0.001261120
  41    H       -0.417402852     0.506960765     0.881988327
  42    H        1.902189247    -0.560445358     0.879549093
  43    H        1.902180779    -0.560848859    -0.879321582
  44    H        1.672134492     1.989699593    -0.879089848
  45    H        1.673121330     1.989218970     0.879394365
  46    H        3.988494428     0.863878861     0.880663166
  47    H        3.984201583     0.864650360    -0.889596699
  48    H        4.152655260     2.192363984     2.808917649
  49    H        4.749399572     3.936375936     4.462291667
  50    H        5.309083041     6.858044386     1.320203160
  51    H        3.660120784     2.311210203    -2.797516283
  52    H        3.988965475     4.112891361    -4.457262979
  53    H        5.086027269     6.911664554    -1.337162422
  54    H        6.347784313     7.988171872    -7.812919430
  55    H        6.754779535     5.303760708     5.278112548
  56    H        7.007869530     7.423927987     6.776517340
  57    H        5.395909012     8.969637431     8.018670231
  58    H        5.272878703    11.206048478     9.089867665
  59    H        5.607690767    13.055614794     5.175360843
  60    H        5.736982750    10.837255482     4.146174917
  61    H        4.559158714    14.752910916     6.491552116
  62    H        5.316702415    15.400678690     7.978292357
  63    H        6.348828676    14.778823502     6.654730818


           Empirical Formula: C31 H26 N2 O3 S  =    63 atoms



      MOLECULAR POINT GROUP   :   C1  


                  EIGENVALUES  
 -40.10060 -39.12311 -38.31158 -37.16481 -36.70607 -36.30119 -36.19802 -35.34933
 -34.98198 -34.31418 -33.06007 -31.83278 -30.78902 -30.11648 -30.02278 -29.69978
 -28.38897 -28.07285 -27.33102 -25.95513 -25.43208 -24.38707 -23.73063 -23.36454
 -22.48547 -22.32819 -21.82871 -21.77396 -21.72178 -21.24221 -20.99459 -19.38034
 -18.96539 -18.68173 -18.22285 -18.11954 -18.02384 -17.76419 -16.87849 -16.66046
 -16.43227 -16.28204 -16.22157 -16.21419 -16.13273 -16.02824 -15.79544 -15.52410
 -15.13577 -15.01611 -14.93229 -14.88322 -14.74987 -14.64027 -14.55566 -14.52609
 -14.25564 -14.22363 -14.18507 -13.89708 -13.75051 -13.64312 -13.61408 -13.45930
 -13.35910 -13.10954 -13.06003 -12.97203 -12.91475 -12.87285 -12.71269 -12.52184
 -12.40082 -12.36773 -12.32711 -12.27399 -12.15120 -11.94884 -11.75919 -11.69327
 -11.61127 -11.57485 -11.24909 -10.96339 -10.66053 -10.03721  -9.72551  -9.54705
  -9.23135  -8.84382  -8.61895  -8.17953  -0.83917  -0.32094  -0.23655   0.24162
   0.52195   0.62423   0.84662   0.92372   1.29099   1.39582   1.49349   1.67910
   1.76442   1.90804   2.26165   2.45556   2.65215   2.78721   2.97964   3.00457
   3.07967   3.23017   3.48285   3.64733   3.70952   3.72802   3.80466   3.84772
   3.87080   3.91957   3.97661   4.06196   4.09239   4.09698   4.11090   4.13283
   4.16158   4.27735   4.28218   4.29849   4.40903   4.45690   4.47199   4.54137
   4.57018   4.58106   4.59944   4.64543   4.68365   4.73281   4.75055   4.77724
   4.80164   4.80640   4.82308   4.88355   4.95396   5.04090   5.05802   5.06673
   5.07486   5.15086   5.24728   5.28485   5.31926   5.34397   5.45565   5.48664
   5.49296   5.61000   5.63643   5.73466   5.79448   5.86355   5.86645   5.98653
   6.04754   6.16637   6.28571   6.32662   6.60971   6.61657


              NET ATOMIC CHARGES AND DIPOLE CONTRIBUTIONS

  ATOM NO.   TYPE          CHARGE      No. of ELECS.   s-Pop       p-Pop       
   21          O          -0.378770        6.3788     1.91034     4.46843
   20          C           0.402022        3.5980     1.18107     2.41691
   22          O          -0.311578        6.3116     1.83997     4.47161
   54          H           0.244234        0.7558     0.75577
   23          C           0.052619        3.9474     1.19500     2.75239
   24          N          -0.149616        5.1496     1.84807     3.30155
    1          C          -0.178722        4.1787     1.15552     3.02320
    2          C          -0.108204        4.1082     1.16559     2.94261
    3          C          -0.166237        4.1662     1.17962     2.98662
    4          C           0.062701        3.9373     1.15832     2.77898
    5          N          -0.284733        5.2847     1.50750     3.77723
    6          C           0.113835        3.8862     1.15250     2.73367
    7          C          -0.162617        4.1626     1.17054     2.99208
    8          C          -0.051768        4.0518     1.17790     2.87387
    9          C          -0.024888        4.0249     1.14904     2.87585
   10          C          -0.041345        4.0413     1.16965     2.87169
   11          C          -0.083978        4.0840     1.15735     2.92662
   12          C          -0.112454        4.1125     1.15900     2.95345
   13          C           0.150754        3.8492     1.15325     2.69600
   14          C          -0.183975        4.1840     1.17177     3.01221
   15          C          -0.006493        4.0065     1.17534     2.83115
   16          C          -0.176931        4.1769     1.16219     3.01474
   17          C           0.013725        3.9863     1.16789     2.81838
   18          C           0.104494        3.8955     1.18530     2.71021
   19          C          -0.145670        4.1457     1.14236     3.00331
   25          C          -0.285691        4.2857     1.21235     3.07334
   26          C          -0.102603        4.1026     1.18133     2.92127
   27          C          -0.110421        4.1104     1.18146     2.92897
   28          C          -0.272182        4.2722     1.21219     3.05999
   29          S           0.424280        5.5757     1.88582     3.68990
   30          C          -0.041540        4.0415     1.14866     2.89288
   31          C          -0.046131        4.0461     1.17739     2.86874
   32          C          -0.163876        4.1639     1.17712     2.98675
   33          C           0.138477        3.8615     1.17148     2.69004
   34          C          -0.215547        4.2155     1.17625     3.03930
   35          C          -0.041860        4.0419     1.17536     2.86650
   36          O          -0.228805        6.2288     1.85983     4.36897
   37          C          -0.016905        4.0169     1.16163     2.85528
   38          H           0.131839        0.8682     0.86816
   39          H           0.061652        0.9383     0.93835
   40          H           0.060884        0.9391     0.93912
   41          H           0.061732        0.9383     0.93827
   42          H           0.061448        0.9386     0.93855
   43          H           0.062006        0.9380     0.93799
   44          H           0.080584        0.9194     0.91942
   45          H           0.082018        0.9180     0.91798
   46          H           0.080948        0.9191     0.91905
   47          H           0.080382        0.9196     0.91962
   48          H           0.120018        0.8800     0.87998
   49          H           0.112114        0.8879     0.88789
   50          H           0.116960        0.8830     0.88304
   51          H           0.127542        0.8725     0.87246
   52          H           0.114427        0.8856     0.88557
   53          H           0.113666        0.8863     0.88633
   55          H           0.125713        0.8743     0.87429
   56          H           0.126971        0.8730     0.87303
   57          H           0.111476        0.8885     0.88852
   58          H           0.130225        0.8698     0.86977
   59          H           0.121892        0.8781     0.87811
   60          H           0.108849        0.8912     0.89115
   61          H           0.055395        0.9446     0.94461
   62          H           0.082157        0.9178     0.91784
   63          H           0.055503        0.9445     0.94450
 DIPOLE           X         Y         Z       TOTAL
 POINT-CHG.    -3.330    -0.676     2.096     3.992
 HYBRID         0.792    -0.039     0.398     0.887
 SUM           -2.538    -0.715     2.494     3.629


          ATOMIC ORBITAL ELECTRON POPULATIONS

     Atom    s        px        py        pz   
    1  C   1.15552   0.95632   1.03334   1.03355
    2  C   1.16559   0.96188   0.95321   1.02752
    3  C   1.17962   0.94529   0.98695   1.05437
    4  C   1.15832   0.93665   0.80152   1.04080
    5  N   1.50750   1.59839   1.11676   1.06208
    6  C   1.15250   0.98090   0.88716   0.86561
    7  C   1.17054   1.07309   1.00292   0.91606
    8  C   1.17790   0.96390   0.92331   0.98666
    9  C   1.14904   1.03287   0.92749   0.91548
   10  C   1.16965   0.97239   0.97991   0.91940
   11  C   1.15735   1.06890   0.93610   0.92162
   12  C   1.15900   1.08427   0.93845   0.93073
   13  C   1.15325   0.94577   0.88038   0.86985
   14  C   1.17177   1.08696   1.00776   0.91749
   15  C   1.17534   0.93817   0.90738   0.98560
   16  C   1.16219   1.11944   0.95385   0.94145
   17  C   1.16789   0.93614   0.97354   0.90871
   18  C   1.18530   0.84102   0.98374   0.88545
   19  C   1.14236   1.10064   0.91185   0.99082
   20  C   1.18107   0.74439   0.86398   0.80855
   21  O   1.91034   1.47825   1.19812   1.79206
   22  O   1.83997   1.71465   1.45057   1.30639
   23  C   1.19500   0.91931   0.91372   0.91935
   24  N   1.84807   1.09953   1.11301   1.08901
   25  C   1.21235   1.06132   0.99700   1.01503
   26  C   1.18133   0.99005   0.98752   0.94370
   27  C   1.18146   1.00387   0.92240   1.00270
   28  C   1.21219   1.05483   0.98288   1.02228
   29  S   1.88582   1.46406   1.01147   1.21437
   30  C   1.14866   1.05279   0.90521   0.93489
   31  C   1.17739   0.95978   0.96925   0.93971
   32  C   1.17712   1.06424   0.91991   1.00261
   33  C   1.17148   0.93584   0.85252   0.90169
   34  C   1.17625   1.10409   0.99329   0.94192
   35  C   1.17536   0.96223   0.91836   0.98591
   36  O   1.85983   1.88702   1.12597   1.35598
   37  C   1.16163   1.01116   0.85544   0.98868
   38  H   0.86816
   39  H   0.93835
   40  H   0.93912
   41  H   0.93827
   42  H   0.93855
   43  H   0.93799
   44  H   0.91942
   45  H   0.91798
   46  H   0.91905
   47  H   0.91962
   48  H   0.87998
   49  H   0.88789
   50  H   0.88304
   51  H   0.87246
   52  H   0.88557
   53  H   0.88633
   54  H   0.75577
   55  H   0.87429
   56  H   0.87303
   57  H   0.88852
   58  H   0.86977
   59  H   0.87811
   60  H   0.89115
   61  H   0.94461
   62  H   0.91784
   63  H   0.94450
 ******************** TDHF POLARIZABILITIES ********************



          MOLECULAR WEIGHT =  506.62



          ROTATIONAL CONSTANTS IN CM(-1)

          A =    0.00360189   B =    0.00122550   C =    0.00095897



           PRINCIPAL MOMENTS OF INERTIA IN UNITS OF 10**(-40)*GRAM-CM**2

          A =     7771.6918   B =    22841.9395   C =    29190.6036


 ROTATION MATRIX FOR ORIENTATION OF MOLECULE:

        -0.090528    0.314253    0.945013
        -0.550135    0.775209   -0.310487
        -0.830154   -0.547993    0.102704


          CARTESIAN COORDINATES 

    NO.       ATOM         X         Y         Z

     1         C        4.9422   -5.9264   -2.6322
     2         C        4.8046   -5.4488   -1.1959
     3         C        3.9702   -4.1730   -1.1340
     4         C        3.8410   -3.6998    0.3213
     5         N        3.0516   -2.4756    0.4193
     6         C        1.6469   -2.4070    0.5337
     7         C        0.7247   -3.4185    0.7897
     8         C       -0.6071   -3.0542    0.8979
     9         C       -1.0185   -1.7193    0.7549
    10         C       -0.0980   -0.7083    0.4958
    11         C        1.2371   -1.0547    0.3806
    12         C        2.4233   -0.2812    0.1143
    13         C        3.5203   -1.1903    0.1098
    14         C        4.8200   -0.7565   -0.1501
    15         C        5.0097    0.5963   -0.3706
    16         C        3.9367    1.5001   -0.3408
    17         C        2.6315    1.0645   -0.1163
    18         C        4.1634    2.9150   -0.5710
    19         C        5.1647    3.6059    0.0052
    20         C        5.3355    5.0319   -0.3034
    21         O        4.6320    5.7059   -1.0428
    22         O        6.3886    5.6044    0.3136
    23         C        6.0621    3.0263    0.9374
    24         N        6.8004    2.5659    1.6990
    25         C       -2.4221   -1.4106    0.8934
    26         C       -3.2594   -1.9052    1.8490
    27         C       -4.5972   -1.4090    1.7034
    28         C       -4.7168   -0.5596    0.6437
    29         S       -3.2314   -0.3563   -0.1923
    30         C       -5.9281    0.1002    0.2196
    31         C       -7.1279   -0.6178    0.2090
    32         C       -8.3044   -0.0065   -0.1830
    33         C       -8.2762    1.3422   -0.5679
    34         C       -7.0897    2.0699   -0.5616
    35         C       -5.9168    1.4373   -0.1644
    36         O       -9.4987    1.8258   -0.9309
    37         C       -9.5687    3.1695   -1.3336
    38         H        3.4562    3.4187   -1.2477
    39         H        5.4356   -5.1823   -3.2741
    40         H        5.5399   -6.8470   -2.7004
    41         H        3.9689   -6.1479   -3.0935
    42         H        4.3482   -6.2451   -0.5703
    43         H        5.8085   -5.2815   -0.7508
    44         H        4.4260   -3.3768   -1.7601
    45         H        2.9664   -4.3405   -1.5784
    46         H        3.3748   -4.4859    0.9592
    47         H        4.8444   -3.5166    0.7731
    48         H        1.0283   -4.4611    0.8999
    49         H       -1.3577   -3.8277    1.0921
    50         H       -0.4072    0.3350    0.3912
    51         H        5.6618   -1.4515   -0.1783
    52         H        6.0187    0.9580   -0.5974
    53         H        1.7895    1.7626   -0.1092
    54         H        6.4589    6.5423    0.0839
    55         H       -2.9687   -2.5845    2.6465
    56         H       -5.4019   -1.6825    2.3813
    57         H       -7.1375   -1.6715    0.5056
    58         H       -9.2460   -0.5635   -0.1950
    59         H       -7.0441    3.1206   -0.8549
    60         H       -4.9811    2.0055   -0.1497
    61         H       -8.9756    3.3856   -2.2376
    62         H      -10.6348    3.3111   -1.5702
    63         H       -9.2873    3.8787   -0.5377


 ENERGY OF "REORIENTED" SYSTEM WITHOUT FIELD:        6.6476542376


  NFREQ=  3  IWFLB=  0  IBET=  1  IGAM=  1
  ATOL= 0.10000D-02  BTOL= 0.10000D-02    MAXITU=  500    MAXITA=  150


 *****************************************************************
 CALCULATION OF STATIC FIELD QUANTITIES
 *****************************************************************

 +++++ ALPHA AT       0.00000 EV.

                           COMPONENTS OF ALPHA

                     *X           *Y           *Z
           *=X:     537.9120       8.0538      18.1122
           *=Y:       8.0562     389.1208     -61.1295
           *=Z:      18.1341     -61.1296     157.0477

  ISOTROPIC AVERAGE ALPHA =     361.36015 A.U. =     53.54805 ANG.**3

 +++++ BETA (SECOND HARMONIC GENERATION) AT       0.00000 EV.

                              COMPONENTS OF BETA
            *XX         *XY         *YY         *XZ         *YZ         *ZZ
   *=X   798.73243  -232.31925 -1807.29180  -215.18064   257.44332   -43.52322
   *=Y  -231.98003 -1807.21938 -2421.26339   257.40670   139.45625    40.98816
   *=Z  -215.11167   257.32845   139.13599   -43.52517    41.01883   -64.79636


 AVERAGE BETAX(SHG) VALUE AT   0.00000 EV =       -631.2214 a.u. = -0.545339E-29 ESU
 AVERAGE BETAY(SHG) VALUE AT   0.00000 EV =      -1567.4766 a.u. = -0.135421E-28 ESU
 AVERAGE BETAZ(SHG) VALUE AT   0.00000 EV =        -84.3627 a.u. = -0.728845E-30 ESU



 AVERAGE BETA (SHG) VALUE AT   0.00000 EV =       1691.9043 a.u. =  0.146171E-28 ESU
   (1 a.u. = 8.639418X10-33 esu)



 +++++ ALPHA AT       0.00000 EV.

                           COMPONENTS OF ALPHA

                     *X           *Y           *Z
           *=X:     537.9120       8.0538      18.1122
           *=Y:       8.0562     389.1208     -61.1295
           *=Z:      18.1341     -61.1296     157.0477

  ISOTROPIC AVERAGE ALPHA =     361.36015 A.U. =     53.54805 ANG.**3


 GAMMA (THIRD HARMONIC GENERATION) AT    0.00000 EV.


 GAMMA(X,X,X,X) =       1031126.27901
 GAMMA(Y,Y,Y,Y) =        345707.36704
 GAMMA(Z,Z,Z,Z) =          5658.65406
 GAMMA(X,X,Y,Y) =        172959.75594
 GAMMA(X,X,Z,Z) =         17860.94417
 GAMMA(Y,Y,X,X) =        172959.96375
 GAMMA(Y,Y,Z,Z) =          7125.95924
 GAMMA(Z,Z,X,X) =         17860.92381
 GAMMA(Z,Z,Y,Y) =          7126.38233


 AVERAGE GAMMA VALUE AT    0.00000 =        355677.24587 a.u. =       179144.05019 ESU (X10-39)




 **********************************************************************
 CALCULATION FOR A FREQUENCY OF    0.25000 EV  =       0.00919 A.U. 
                  WAVELENGTH OF    4959.37 NM  =    2016.38525 CM(-1)
 **********************************************************************

 +++++ ALPHA AT       0.25000 EV.

                           COMPONENTS OF ALPHA

                     *X           *Y           *Z
           *=X:     539.8204       8.1860      18.1730
           *=Y:       8.1886     390.0539     -61.2180
           *=Z:      18.1975     -61.2181     157.2392

  ISOTROPIC AVERAGE ALPHA =     362.37116 A.U. =     53.69786 ANG.**3

 +++++ BETA (SECOND HARMONIC GENERATION) AT       0.25000 EV.

                              COMPONENTS OF BETA
            *XX         *XY         *YY         *XZ         *YZ         *ZZ
   *=X   815.34936  -260.14916 -1884.20604  -218.70485   263.84948   -44.07510
   *=Y  -243.94175 -1868.64566 -2498.10932   261.88290   143.17893    41.88418
   *=Z  -224.05659   261.32412   137.68394   -44.72898    41.78373   -65.41518


 AVERAGE BETAX(SHG) VALUE AT   0.25000 EV =       -661.7965 a.u. = -0.571754E-29 ESU
 AVERAGE BETAY(SHG) VALUE AT   0.25000 EV =      -1626.6233 a.u. = -0.140531E-28 ESU
 AVERAGE BETAZ(SHG) VALUE AT   0.25000 EV =        -86.7340 a.u. = -0.749331E-30 ESU



 AVERAGE BETA (SHG) VALUE AT   0.25000 EV =       1758.2379 a.u. =  0.151902E-28 ESU
   (1 a.u. = 8.639418X10-33 esu)



 +++++ ALPHA AT       0.75000 EV.

                           COMPONENTS OF ALPHA

                     *X           *Y           *Z
           *=X:     555.9545       9.3080      18.7277
           *=Y:       9.3116     397.8098     -61.9425
           *=Z:      18.7461     -61.9424     158.8100

  ISOTROPIC AVERAGE ALPHA =     370.85813 A.U. =     54.95550 ANG.**3


 GAMMA (THIRD HARMONIC GENERATION) AT    0.25000 EV.


 GAMMA(X,X,X,X) =       1121926.97212
 GAMMA(Y,Y,Y,Y) =        374781.58735
 GAMMA(Z,Z,Z,Z) =          5801.04442
 GAMMA(X,X,Y,Y) =        190676.68901
 GAMMA(X,X,Z,Z) =         19017.75087
 GAMMA(Y,Y,X,X) =        187251.33910
 GAMMA(Y,Y,Z,Z) =          7484.67668
 GAMMA(Z,Z,X,X) =         18912.48761
 GAMMA(Z,Z,Y,Y) =          7304.06245


 AVERAGE GAMMA VALUE AT    0.25000 =        386631.32192 a.u. =       194734.69766 ESU (X10-39)




 **********************************************************************
 CALCULATION FOR A FREQUENCY OF    0.50000 EV  =       0.01837 A.U. 
                  WAVELENGTH OF    2479.68 NM  =    4032.77050 CM(-1)
 **********************************************************************

 +++++ ALPHA AT       0.50000 EV.

                           COMPONENTS OF ALPHA

                     *X           *Y           *Z
           *=X:     545.6820       8.5931      18.3748
           *=Y:       8.5960     392.8984     -61.4862
           *=Z:      18.3941     -61.4861     157.8215

  ISOTROPIC AVERAGE ALPHA =     365.46727 A.U. =     54.15666 ANG.**3

 +++++ BETA (SECOND HARMONIC GENERATION) AT       0.50000 EV.

                              COMPONENTS OF BETA
            *XX         *XY         *YY         *XZ         *YZ         *ZZ
   *=X   869.14868  -359.85913 -2151.08860  -230.06469   285.59309   -45.86921
   *=Y  -284.05419 -2075.11903 -2755.88449   276.16166   155.39163    44.79441
   *=Z  -254.11267   273.76465   131.34729   -48.72334    44.31292   -67.37604


 AVERAGE BETAX(SHG) VALUE AT   0.50000 EV =       -767.4393 a.u. = -0.663023E-29 ESU
 AVERAGE BETAY(SHG) VALUE AT   0.50000 EV =      -1827.6011 a.u. = -0.157894E-28 ESU
 AVERAGE BETAZ(SHG) VALUE AT   0.50000 EV =        -94.8479 a.u. = -0.819431E-30 ESU



 AVERAGE BETA (SHG) VALUE AT   0.50000 EV =       1984.4609 a.u. =  0.171446E-28 ESU
   (1 a.u. = 8.639418X10-33 esu)



 +++++ ALPHA AT       1.50000 EV.

                           COMPONENTS OF ALPHA

                     *X           *Y           *Z
           *=X:     626.4395      14.2459      21.4099
           *=Y:      14.2618     429.0712     -64.6376
           *=Z:      21.4377     -64.6368     164.6387

  ISOTROPIC AVERAGE ALPHA =     406.71650 A.U. =     60.26917 ANG.**3


 GAMMA (THIRD HARMONIC GENERATION) AT    0.50000 EV.


 GAMMA(X,X,X,X) =       1499397.19008
 GAMMA(Y,Y,Y,Y) =        491389.56622
 GAMMA(Z,Z,Z,Z) =          6286.50603
 GAMMA(X,X,Y,Y) =        267199.93462
 GAMMA(X,X,Z,Z) =         23589.71687
 GAMMA(Y,Y,X,X) =        243547.36196
 GAMMA(Y,Y,Z,Z) =          8822.70841
 GAMMA(Z,Z,X,X) =         22854.64411
 GAMMA(Z,Z,Y,Y) =          7855.22303


 AVERAGE GAMMA VALUE AT    0.50000 =        514188.57027 a.u. =       258981.48984 ESU (X10-39)



 **********************
 *                    *
 * JOB ENDED NORMALLY *
 *                    *
 **********************



 TOTAL JOB TIME:           104.24 SECONDS

 == MOPAC DONE ==
