 *******************************************************************************
 ** Site#: 4824         For non-commercial use only    Version 21.013L 64BITS **
 *******************************************************************************
 ** Cite this program as: MOPAC2016, Version: 21.013L, James J. P. Stewart,   **
 ** Stewart Computational Chemistry, web: HTTP://OpenMOPAC.net. Days left:  87**
 *******************************************************************************
 **                                                                           **
 **                                MOPAC2016                                  **
 **                                                                           **
 *******************************************************************************

                              RM1 CALCULATION RESULTS

 *******************************************************************************
 *  CALCULATION DONE:                                Mon Oct 18 09:16:24 2021  *
 *  RM1        - The RM1 Hamiltonian to be used
 *  POLAR      - CALCULATE FIRST, SECOND AND THIRD-ORDER POLARIZABILITIES
 *  PRECISE    - TIGHTER CRITERIA TO BE USED
 *  T=         - A TIME OF 172800.0 SECONDS REQUESTED
 *  DUMP=N     - RESTART FILE WRITTEN EVERY 7200.0 SECONDS REQUESTED
 *  GNORM      - EXIT WHEN GRADIENT NORM DROPS BELOW 0.100
 *******************************************************************************
RM1 PRECISE POLAR GNORM=0.1


  ATOM    CHEMICAL      BOND LENGTH      BOND ANGLE     TWIST ANGLE 
 NUMBER    SYMBOL       (ANGSTROMS)      (DEGREES)       (DEGREES) 
   (I)                     NA:I           NB:NA:I       NC:NB:NA:I       NA    NB    NC 
     1       C          0.00000000       0.0000000       0.0000000        0     0     0
     2       O          1.39410000  *    0.0000000       0.0000000        1     0     0
     3       C          1.36020000  *  126.3302000  *    0.0000000        2     1     0
     4       C          1.48530000  *  122.9489000  *    3.1184000  *     3     2     1
     5       C          1.34800000  *  121.1183000  * -179.6016000  *     4     3     2
     6       C          1.46550000  *  118.7884000  *   -0.6568000  *     5     4     3
     7       C          1.34290000  *  119.6642000  *    0.8161000  *     6     5     4
     8       C          1.34810000  *  117.4445000  * -176.6493000  *     3     2     1
     9       C          1.45380000  *  107.8043000  *  178.9032000  *     7     6     5
    10       C          1.46040000  *  130.1366000  * -176.6404000  *     9     7     6
    11       C          1.35030000  *  118.3852000  *  177.4702000  *    10     9     7
    12       O          1.36180000  *  123.1327000  * -179.5330000  *    11    10     9
    13       C          1.39560000  *  126.5954000  *   -4.9159000  *    12    11    10
    14       C          1.48280000  *  119.6132000  *    0.6577000  *    11    10     9
    15       C          1.34790000  *  121.3249000  *   -0.4042000  *    14    11    10
    16       C          1.34190000  *  107.5625000  *    0.7435000  *     9     7     6
    17       N          1.42830000  *  130.7129000  * -179.9112000  *     6     5     4
    18       C          1.42060000  *  123.9736000  *  153.7026000  *    17     6     7
    19       C          1.48710000  *  120.4104000  *   59.9990000  *    18    17     6
    20       C          1.34910000  *  121.4311000  * -175.6565000  *    19    18    17
    21       C          1.46270000  *  118.3717000  *   -2.0239000  *    20    19    18
    22       C          1.34110000  *  120.0133000  *   -0.4517000  *    21    20    19
    23       C          1.35000000  *  120.3590000  * -118.1611000  *    18    17     6
    24       C          1.45280000  *  107.8140000  * -179.4896000  *    22    21    20
    25       C          1.45700000  *  130.0603000  *  177.7924000  *    24    22    21
    26       C          1.34780000  *  118.0153000  *  179.7510000  *    25    24    22
    27       C          1.48230000  *  120.3233000  *    0.2519000  *    26    25    24
    28       C          1.34850000  *  120.9052000  *    0.2723000  *    27    26    25
    29       C          1.34190000  *  107.7547000  *   -1.6474000  *    24    22    21
    30       N          1.42270000  *  130.7363000  *  177.5248000  *    21    20    19
    31       C          1.41130000  *  125.6816000  * -159.2280000  *    30    21    22
    32       C          1.47290000  *  120.4332000  *   50.4726000  *    31    30    21
    33       C          1.34470000  *  120.2574000  *  176.4968000  *    32    31    30
    34       C          1.47380000  *  120.1914000  *   -0.0271000  *    33    32    31
    35       C          1.34730000  *  119.4118000  *    2.0179000  *    34    33    32
    36       C          1.34650000  *  120.0760000  * -131.4613000  *    31    30    21
    37       C          1.47220000  *  121.2266000  * -177.2956000  *    34    33    32
    38       C          1.35040000  *  122.8233000  * -115.8362000  *    37    34    35
    39       C          1.47080000  *  122.0647000  *  173.8153000  *    38    37    34
    40       C          1.35060000  *  128.4051000  *    6.6710000  *    39    38    37
    41       C          1.48700000  *  116.0301000  * -174.5287000  *    40    39    38
    42       C          1.34770000  *  115.8425000  *   -0.6463000  *    41    40    39
    43       S          1.81910000  *  107.1609000  *   -0.5972000  *    42    41    40
    44       C          1.45700000  *  126.6987000  *  174.2635000  *    42    41    40
    45       C          1.34880000  *  126.8935000  *  165.6459000  *    44    42    41
    46       C          1.48770000  *  115.7099000  *  175.3421000  *    45    44    42
    47       C          1.34760000  *  115.4354000  *   -0.3389000  *    46    45    44
    48       S          1.81820000  *  107.8154000  *    0.5819000  *    47    46    45
    49       C          1.46100000  *  126.8956000  * -176.0191000  *    47    46    45
    50       C          1.34710000  *  122.6420000  *  -87.0266000  *    49    47    46
    51       C          1.47390000  *  120.7692000  * -178.8747000  *    50    49    47
    52       O          1.23220000  *  120.1797000  * -179.8213000  *    51    50    49
    53       O          1.35560000  *  120.7717000  *    1.2838000  *    51    50    49
    54       C          1.43000000  *  120.3831000  *    0.4850000  *    50    49    47
    55       N          1.15780000  *  179.8364000  *    1.0958000  *    54    50    49
    56       C          1.42990000  *  120.0412000  *   -1.1055000  *    38    37    34
    57       N          1.15870000  *  179.9991000  * -151.7637000  *    56    38    37
    58       N          1.40830000  *  119.4228000  * -175.2658000  *    26    25    24
    59       C          1.42070000  *  127.1584000  * -106.7103000  *    58    26    25
    60       C          1.34170000  *  130.3073000  *   -0.8246000  *    59    58    26
    61       C          1.47630000  *  118.1855000  *  179.9639000  *    60    59    58
    62       C          1.35160000  *  121.4049000  *    0.0355000  *    61    60    59
    63       C          1.48130000  *  119.8579000  *   -1.5165000  *    62    61    60
    64       C          1.34060000  *  118.0024000  *    1.3086000  *    63    62    61
    65       C          1.45880000  *  131.2280000  * -178.3121000  *    64    63    62
    66       C          1.41960000  *  124.7161000  *   68.3287000  *    58    26    25
    67       C          1.34130000  *  129.7279000  *    2.4051000  *    66    58    26
    68       C          1.47360000  *  118.2891000  * -179.4350000  *    67    66    58
    69       C          1.35320000  *  121.1651000  *   -0.2153000  *    68    67    66
    70       C          1.34060000  *  131.7626000  *    0.3849000  *    65    64    63
    71       O          1.36160000  *  123.0586000  *  179.3712000  *    69    68    67
    72       C          1.39570000  *  126.5417000  *   -5.2420000  *    71    69    68
    73       O          1.36100000  *  117.8442000  *  178.5964000  *    62    61    60
    74       C          1.39520000  *  125.9693000  * -171.2863000  *    73    62    61
    75       H          1.05150000  *  117.3194000  *   58.8932000  *    37    34    35
    76       H          1.05220000  *  117.6423000  *   94.2781000  *    49    47    46
    77       H          1.09060000  *  110.2816000  *   55.1309000  *     1     2     3
    78       H          1.09080000  *  108.8128000  *  174.4823000  *     1     2     3
    79       H          1.09060000  *  110.1032000  *  -66.1345000  *     1     2     3
    80       H          1.05100000  *  119.9522000  * -179.9467000  *     4     3     8
    81       H          1.04900000  *  120.0453000  *  179.6101000  *     5     4     3
    82       H          1.05060000  *  120.8569000  *   -0.0405000  *     8     3     2
    83       H          1.04950000  *  120.0206000  * -178.5987000  *    10     9    16
    84       H          1.09050000  *  110.2668000  *   63.5220000  *    13    12    11
    85       H          1.09040000  *  108.9259000  * -177.0015000  *    13    12    11
    86       H          1.09060000  *  110.1183000  *  -57.6601000  *    13    12    11
    87       H          1.05190000  *  119.2798000  *  179.1238000  *    14    11    10
    88       H          1.05020000  *  120.4824000  *  179.2291000  *    15    14    11
    89       H          1.05100000  *  119.5362000  * -177.9038000  *    19    18    23
    90       H          1.05030000  *  120.8175000  *  179.0033000  *    20    19    18
    91       H          1.04950000  *  121.4663000  *    0.2641000  *    23    18    17
    92       H          1.05010000  *  120.8051000  * -179.4052000  *    25    24    29
    93       H          1.05140000  *  119.5218000  * -178.7290000  *    27    26    25
    94       H          1.05000000  *  120.6686000  * -179.0292000  *    28    27    26
    95       H          1.05110000  *  119.9673000  *  178.8076000  *    32    31    36
    96       H          1.05130000  *  119.7123000  *  179.9100000  *    33    32    31
    97       H          1.05150000  *  120.2821000  *   -0.3679000  *    35    34    37
    98       H          1.05140000  *  120.2601000  *    1.3616000  *    36    31    30
    99       H          1.04830000  *  122.9654000  *    2.4568000  *    40    39    38
   100       H          1.04920000  *  121.5253000  *  176.5645000  *    41    40    39
   101       H          1.04900000  *  122.6393000  *   -2.6360000  *    45    44    42
   102       H          1.04910000  *  121.9735000  * -178.1341000  *    46    45    44
   103       H          0.94080000  *  121.1478000  *    0.1989000  *    53    51    52
   104       H          1.04990000  *  121.2424000  *   -0.4666000  *    60    59    58
   105       H          1.05200000  *  118.9706000  *  179.0168000  *    61    60    59
   106       H          1.04960000  *  121.2964000  * -177.6473000  *    63    62    61
   107       H          1.05000000  *  121.2566000  *    0.1189000  *    67    66    58
   108       H          1.05070000  *  118.2926000  *  179.5458000  *    68    67    66
   109       H          1.05010000  *  121.1160000  *   -0.6690000  *    70    65    64
   110       H          1.09070000  *  110.1286000  *   65.9170000  *    72    71    69
   111       H          1.09040000  *  108.9122000  * -174.6303000  *    72    71    69
   112       H          1.09090000  *  110.2421000  *  -55.2555000  *    72    71    69
   113       H          1.09090000  *  110.2487000  *   52.7154000  *    74    73    62
   114       H          1.09060000  *  108.9256000  *  172.0674000  *    74    73    62
   115       H          1.09050000  *  110.1411000  *  -68.4586000  *    74    73    62
 


          CARTESIAN COORDINATES 

    NO.       ATOM           X           Y           Z

     1         C          0.0000      0.0000      0.0000
     2         O          1.3941      0.0000      0.0000
     3         C          2.1999      1.0958      0.0000
     4         C          1.6759      2.4839      0.0678
     5         C          2.5084      3.5441      0.0574
     6         C          3.9530      3.3065     -0.0077
     7         C          4.4173      2.0481     -0.0721
     8         C          3.5302      0.8888     -0.0699
     9         C          5.8674      2.1129     -0.1529
    10         C          6.8504      1.0439     -0.3068
    11         C          8.1543      1.3803     -0.4074
    12         O          9.1496      0.4640     -0.5628
    13         C          9.0120     -0.9247     -0.5461
    14         C          8.5495      2.8081     -0.3448
    15         C          7.6311      3.7836     -0.1969
    16         C          6.2175      3.4078     -0.1172
    17         N          5.0479      4.2234     -0.0305
    18         C          4.9548      5.5594     -0.5044
    19         C          4.0176      6.5212      0.1346
    20         C          3.8489      7.7680     -0.3522
    21         C          4.6473      8.1770     -1.5076
    22         C          5.5272      7.3232     -2.0510
    23         C          5.6891      5.9603     -1.5639
    24         C          6.1752      7.9997     -3.1615
    25         C          7.2321      7.5390     -4.0523
    26         C          7.6554      8.3772     -5.0191
    27         C          7.0566      9.7264     -5.1548
    28         C          6.0863     10.1412     -4.3152
    29         C          5.6343      9.2232     -3.2671
    30         N          4.6502      9.3896     -2.2517
    31         C          4.1984     10.6426     -1.7855
    32         C          4.6713     11.1734     -0.4955
    33         C          4.2939     12.3978     -0.0873
    34         C          3.4043     13.2181     -0.9286
    35         C          2.9409     12.7141     -2.0890
    36         C          3.3597     11.3801     -2.5377
    37         C          3.0242     14.5840     -0.5320
    38         C          3.9206     15.5864     -0.4081
    39         C          3.5093     16.9731     -0.1416
    40         C          2.2741     17.4431      0.1368
    41         C          2.1456     18.9212      0.2372
    42         C          3.2808     19.6235      0.0519
    43         S          4.6124     18.4214     -0.2502
    44         C          3.4062     21.0734     -0.0178
    45         C          4.5440     21.7927      0.0662
    46         C          4.3981     23.2583     -0.1439
    47         C          3.1454     23.6844     -0.3996
    48         S          2.0485     22.2346     -0.3733
    49         C          2.7315     25.0478     -0.7225
    50         C          2.4298     25.9588      0.2229
    51         C          1.9929     27.3161     -0.1501
    52         O          1.7228     28.1419      0.7237
    53         O          1.8604     27.6688     -1.4523
    54         C          2.5159     25.6183      1.6090
    55         N          2.5866     25.3395      2.7306
    56         C          5.3091     15.3382     -0.6430
    57         N          6.4342     15.1371     -0.8333
    58         N          8.6033      7.9275     -5.9585
    59         C          9.9764      8.2849     -6.0306
    60         C         10.6972      9.1196     -5.2664
    61         C         12.1282      9.2954     -5.5840
    62         C         12.7068      8.6392     -6.6142
    63         C         11.9074      7.6955     -7.4296
    64         C         10.6103      7.5445     -7.1266
    65         C          9.5815      6.6866     -7.7044
    66         C          8.3540      6.9436     -6.9510
    67         C          7.2215      6.2859     -7.2408
    68         C          7.2492      5.2937     -8.3300
    69         C          8.3833      5.0504     -9.0269
    70         C          9.6220      5.7913     -8.7014
    71         O          8.4557      4.1341    -10.0315
    72         C          7.4480      3.2531    -10.4268
    73         O         14.0240      8.8773     -6.8601
    74         C         14.7441      8.4324     -7.9692
    75         H          1.9982     14.7874     -0.4244
    76         H          2.6517     25.3058     -1.7395
    77         H         -0.3780      0.5848     -0.8393
    78         H         -0.3518     -1.0277     -0.0993
    79         H         -0.3749      0.4144      0.9366
    80         H          0.6398      2.6516      0.1233
    81         H          2.1197      4.5175      0.0999
    82         H          3.9221     -0.0846     -0.1215
    83         H          6.5357      0.0437     -0.3524
    84         H          8.3876     -1.2524     -1.3779
    85         H          9.9984     -1.3790     -0.6441
    86         H          8.5672     -1.2464      0.3963
    87         H          9.5679      3.0633     -0.4097
    88         H          7.9268      4.7898     -0.1421
    89         H          3.4679      6.2250      0.9799
    90         H          3.1729      8.4343      0.0974
    91         H          6.3373      5.3020     -2.0618
    92         H          7.6336      6.5735     -3.9561
    93         H          7.3821     10.3625     -5.9261
    94         H          5.6542     11.0919     -4.4241
    95         H          5.3112     10.5966      0.1068
    96         H          4.6354     12.7676      0.8357
    97         H          2.3093     13.2892     -2.7022
    98         H          3.0212     11.0172     -3.4646
    99         H          1.4353     16.8216      0.2317
   100         H          1.2165     19.3815      0.3972
   101         H          5.4808     21.3521      0.2357
   102         H          5.2228     23.9065     -0.1289
   103         H          1.5699     28.5297     -1.6962
   104         H         10.2595      9.6415     -4.4675
   105         H         12.7014      9.9588     -5.0026
   106         H         12.3424      7.1468     -8.2115
   107         H          6.3361      6.4632     -6.7049
   108         H          6.3640      4.7732     -8.5522
   109         H         10.5100      5.6090     -9.2314
   110         H          6.6056      3.8080    -10.8415
   111         H          7.8433      2.5844    -11.1920
   112         H          7.1128      2.6571     -9.5767
   113         H         14.2319      8.7149     -8.8900
   114         H         15.7313      8.8959     -7.9592
   115         H         14.8606      7.3488     -7.9313

  H: (RM1): G.B. ROCHA, R.O. FREIRE, A.M.SIMAS, J.J.P. STEWART, J. COMP. CHEM. 27, 1101 (2006)
  C: (RM1): G.B. ROCHA, R.O. FREIRE, A.M.SIMAS, J.J.P. STEWART, J. COMP. CHEM. 27, 1101 (2006)
  N: (RM1): G.B. ROCHA, R.O. FREIRE, A.M.SIMAS, J.J.P. STEWART, J. COMP. CHEM. 27, 1101 (2006)
  O: (RM1): G.B. ROCHA, R.O. FREIRE, A.M.SIMAS, J.J.P. STEWART, J. COMP. CHEM. 27, 1101 (2006)
  S: (RM1): G.B. ROCHA, R.O. FREIRE, A.M.SIMAS, J.J.P. STEWART, J. COMP. CHEM. 27, 1101 (2006)

           Empirical Formula: C61 H41 N5 O6 S2  =   115 atoms



      MOLECULAR POINT GROUP   :   C1  


      RHF CALCULATION, NO. OF DOUBLY OCCUPIED LEVELS = 179


          Geometry optimization using L-BFGS
 CYCLE:     1 TIME:   3.418 TIME LEFT:  2.00D  GRAD.:   838.041 HEAT:  240.3213
 CYCLE:     2 TIME:   2.023 TIME LEFT:  2.00D  GRAD.:   642.806 HEAT:  235.2266
 CYCLE:     3 TIME:   1.648 TIME LEFT:  2.00D  GRAD.:   792.152 HEAT:  228.0962
 CYCLE:     4 TIME:   1.535 TIME LEFT:  2.00D  GRAD.:   644.858 HEAT:  235.2265
 CYCLE:     5 TIME:   1.754 TIME LEFT:  2.00D  GRAD.:   800.858 HEAT:  228.0737
 CYCLE:     6 TIME:   2.039 TIME LEFT:  2.00D  GRAD.:   667.386 HEAT:  217.7790
 CYCLE:     7 TIME:   1.797 TIME LEFT:  2.00D  GRAD.:   650.334 HEAT:  206.1542
 CYCLE:     8 TIME:   1.789 TIME LEFT:  2.00D  GRAD.:   850.669 HEAT:  178.8819
 CYCLE:     9 TIME:   2.070 TIME LEFT:  2.00D  GRAD.:   622.454 HEAT:  161.1508
 CYCLE:    10 TIME:   1.383 TIME LEFT:  2.00D  GRAD.:   441.387 HEAT:  150.6878
 CYCLE:    11 TIME:   1.789 TIME LEFT:  2.00D  GRAD.:   279.667 HEAT:  139.7175
 CYCLE:    12 TIME:   1.488 TIME LEFT:  2.00D  GRAD.:   237.864 HEAT:  135.6550
 CYCLE:    13 TIME:   1.473 TIME LEFT:  2.00D  GRAD.:   141.613 HEAT:  133.2242
 CYCLE:    14 TIME:   2.109 TIME LEFT:  2.00D  GRAD.:   151.320 HEAT:  131.6897
 CYCLE:    15 TIME:   1.855 TIME LEFT:  2.00D  GRAD.:   178.449 HEAT:  128.5664
 CYCLE:    16 TIME:   1.699 TIME LEFT:  2.00D  GRAD.:   144.515 HEAT:  126.7652
 CYCLE:    17 TIME:   1.770 TIME LEFT:  2.00D  GRAD.:   149.398 HEAT:  125.5735
 CYCLE:    18 TIME:   2.070 TIME LEFT:  2.00D  GRAD.:   223.751 HEAT:  124.3950
 CYCLE:    19 TIME:   1.906 TIME LEFT:  2.00D  GRAD.:   155.810 HEAT:  123.4009
 CYCLE:    20 TIME:   1.918 TIME LEFT:  2.00D  GRAD.:   115.019 HEAT:  122.2607
 CYCLE:    21 TIME:   1.492 TIME LEFT:  2.00D  GRAD.:    87.490 HEAT:  121.2092
 CYCLE:    22 TIME:   1.832 TIME LEFT:  2.00D  GRAD.:   100.634 HEAT:  119.4644
 CYCLE:    23 TIME:   2.203 TIME LEFT:  2.00D  GRAD.:   268.858 HEAT:  119.2280
 CYCLE:    24 TIME:   1.398 TIME LEFT:  2.00D  GRAD.:    85.536 HEAT:  118.1724
 CYCLE:    25 TIME:   1.570 TIME LEFT:  2.00D  GRAD.:    49.776 HEAT:  117.9324
 CYCLE:    26 TIME:   1.605 TIME LEFT:  2.00D  GRAD.:    54.470 HEAT:  117.7055
 CYCLE:    27 TIME:   1.254 TIME LEFT:  2.00D  GRAD.:    81.033 HEAT:  117.4203
 CYCLE:    28 TIME:   1.340 TIME LEFT:  2.00D  GRAD.:    75.188 HEAT:  117.0304
 CYCLE:    29 TIME:   1.051 TIME LEFT:  2.00D  GRAD.:   123.309 HEAT:  116.6454
 CYCLE:    30 TIME:   1.246 TIME LEFT:  2.00D  GRAD.:    69.375 HEAT:  116.4674
 CYCLE:    31 TIME:   1.129 TIME LEFT:  2.00D  GRAD.:    41.395 HEAT:  116.4078
 CYCLE:    32 TIME:   1.902 TIME LEFT:  2.00D  GRAD.:    45.405 HEAT:  116.3358
 CYCLE:    33 TIME:   1.488 TIME LEFT:  2.00D  GRAD.:    46.333 HEAT:  116.2199
 CYCLE:    34 TIME:   2.094 TIME LEFT:  2.00D  GRAD.:   129.316 HEAT:  115.9906
 CYCLE:    35 TIME:   1.234 TIME LEFT:  2.00D  GRAD.:    57.650 HEAT:  115.7809
 CYCLE:    36 TIME:   1.570 TIME LEFT:  2.00D  GRAD.:    31.955 HEAT:  115.6732
 CYCLE:    37 TIME:   1.234 TIME LEFT:  2.00D  GRAD.:    40.341 HEAT:  115.6103
 CYCLE:    38 TIME:   1.312 TIME LEFT:  2.00D  GRAD.:    44.379 HEAT:  115.5225
 CYCLE:    39 TIME:   1.531 TIME LEFT:  2.00D  GRAD.:    96.913 HEAT:  115.4365
 CYCLE:    40 TIME:   1.711 TIME LEFT:  2.00D  GRAD.:    31.231 HEAT:  115.3044
 CYCLE:    41 TIME:   1.348 TIME LEFT:  2.00D  GRAD.:    20.157 HEAT:  115.2561
 CYCLE:    42 TIME:   1.730 TIME LEFT:  2.00D  GRAD.:    29.411 HEAT:  115.2188
 CYCLE:    43 TIME:   2.062 TIME LEFT:  2.00D  GRAD.:    69.648 HEAT:  115.1886
 CYCLE:    44 TIME:   1.527 TIME LEFT:  2.00D  GRAD.:    41.251 HEAT:  115.1380
 CYCLE:    45 TIME:   1.629 TIME LEFT:  2.00D  GRAD.:    34.071 HEAT:  115.1044
 CYCLE:    46 TIME:   1.984 TIME LEFT:  2.00D  GRAD.:    27.455 HEAT:  115.0156
 CYCLE:    47 TIME:   1.770 TIME LEFT:  2.00D  GRAD.:    83.631 HEAT:  115.0250
 CYCLE:    48 TIME:   1.457 TIME LEFT:  2.00D  GRAD.:    28.643 HEAT:  114.9159
 CYCLE:    49 TIME:   1.473 TIME LEFT:  2.00D  GRAD.:    21.758 HEAT:  114.8792
 CYCLE:    50 TIME:   1.797 TIME LEFT:  2.00D  GRAD.:    46.865 HEAT:  114.8113
 CYCLE:    51 TIME:   1.215 TIME LEFT:  2.00D  GRAD.:    30.571 HEAT:  114.7556
 CYCLE:    52 TIME:   1.820 TIME LEFT:  2.00D  GRAD.:    21.382 HEAT:  114.7087
 CYCLE:    53 TIME:   0.867 TIME LEFT:  2.00D  GRAD.:    22.512 HEAT:  114.6541
 CYCLE:    54 TIME:   1.457 TIME LEFT:  2.00D  GRAD.:    26.843 HEAT:  114.5898
 CYCLE:    55 TIME:   1.316 TIME LEFT:  2.00D  GRAD.:    51.022 HEAT:  114.5410
 CYCLE:    56 TIME:   1.527 TIME LEFT:  2.00D  GRAD.:    45.220 HEAT:  114.4812
 CYCLE:    57 TIME:   2.148 TIME LEFT:  2.00D  GRAD.:    78.350 HEAT:  114.4708
 CYCLE:    58 TIME:   1.613 TIME LEFT:  2.00D  GRAD.:    30.763 HEAT:  114.4458
 CYCLE:    59 TIME:   1.078 TIME LEFT:  2.00D  GRAD.:    20.349 HEAT:  114.4352
 CYCLE:    60 TIME:   1.527 TIME LEFT:  2.00D  GRAD.:    29.840 HEAT:  114.4188
 CYCLE:    61 TIME:   1.430 TIME LEFT:  2.00D  GRAD.:    27.330 HEAT:  114.3937
 CYCLE:    62 TIME:   1.570 TIME LEFT:  2.00D  GRAD.:    20.837 HEAT:  114.3425
 CYCLE:    63 TIME:   1.469 TIME LEFT:  2.00D  GRAD.:    22.088 HEAT:  114.2976
 CYCLE:    64 TIME:   1.660 TIME LEFT:  2.00D  GRAD.:    37.591 HEAT:  114.2464
 CYCLE:    65 TIME:   1.445 TIME LEFT:  2.00D  GRAD.:    27.890 HEAT:  114.1985
 CYCLE:    66 TIME:   1.582 TIME LEFT:  2.00D  GRAD.:    37.825 HEAT:  114.1586
 CYCLE:    67 TIME:   1.227 TIME LEFT:  2.00D  GRAD.:    21.085 HEAT:  114.1229
 CYCLE:    68 TIME:   1.637 TIME LEFT:  2.00D  GRAD.:    23.119 HEAT:  114.0930
 CYCLE:    69 TIME:   2.242 TIME LEFT:  2.00D  GRAD.:    35.230 HEAT:  114.0361
 CYCLE:    70 TIME:   2.602 TIME LEFT:  2.00D  GRAD.:   133.812 HEAT:  114.0744
 CYCLE:    71 TIME:   1.734 TIME LEFT:  2.00D  GRAD.:    26.146 HEAT:  113.9856
 CYCLE:    72 TIME:   1.746 TIME LEFT:  2.00D  GRAD.:    30.696 HEAT:  113.9720
 CYCLE:    73 TIME:   1.508 TIME LEFT:  2.00D  GRAD.:    37.161 HEAT:  113.9562
 CYCLE:    74 TIME:   1.516 TIME LEFT:  2.00D  GRAD.:    29.865 HEAT:  113.9395
 CYCLE:    75 TIME:   1.430 TIME LEFT:  2.00D  GRAD.:    19.121 HEAT:  113.9091
 CYCLE:    76 TIME:   1.645 TIME LEFT:  2.00D  GRAD.:    17.163 HEAT:  113.8670
 CYCLE:    77 TIME:   1.523 TIME LEFT:  2.00D  GRAD.:    20.414 HEAT:  113.8308
 CYCLE:    78 TIME:   1.648 TIME LEFT:  2.00D  GRAD.:    17.101 HEAT:  113.8046
 CYCLE:    79 TIME:   0.906 TIME LEFT:  2.00D  GRAD.:    10.707 HEAT:  113.7915
 CYCLE:    80 TIME:   1.293 TIME LEFT:  2.00D  GRAD.:    19.617 HEAT:  113.7776
 CYCLE:    81 TIME:   1.105 TIME LEFT:  2.00D  GRAD.:    17.566 HEAT:  113.7603
 CYCLE:    82 TIME:   1.293 TIME LEFT:  2.00D  GRAD.:    39.200 HEAT:  113.7277
 CYCLE:    83 TIME:   0.895 TIME LEFT:  2.00D  GRAD.:    39.512 HEAT:  113.7095
 CYCLE:    84 TIME:   1.574 TIME LEFT:  2.00D  GRAD.:    15.782 HEAT:  113.6849
 CYCLE:    85 TIME:   1.164 TIME LEFT:  2.00D  GRAD.:    13.173 HEAT:  113.6704
 CYCLE:    86 TIME:   1.723 TIME LEFT:  2.00D  GRAD.:    90.726 HEAT:  113.6596
 CYCLE:    87 TIME:   1.480 TIME LEFT:  2.00D  GRAD.:    27.778 HEAT:  113.6245
 CYCLE:    88 TIME:   0.953 TIME LEFT:  2.00D  GRAD.:    15.300 HEAT:  113.6064
 CYCLE:    89 TIME:   1.652 TIME LEFT:  2.00D  GRAD.:    20.705 HEAT:  113.5906
 CYCLE:    90 TIME:   1.645 TIME LEFT:  2.00D  GRAD.:    23.332 HEAT:  113.5657
 CYCLE:    91 TIME:   1.473 TIME LEFT:  2.00D  GRAD.:    21.472 HEAT:  113.5194
 CYCLE:    92 TIME:   1.762 TIME LEFT:  2.00D  GRAD.:    63.131 HEAT:  113.5378
 CYCLE:    93 TIME:   1.648 TIME LEFT:  2.00D  GRAD.:    13.382 HEAT:  113.4833
 CYCLE:    94 TIME:   1.695 TIME LEFT:  2.00D  GRAD.:    11.505 HEAT:  113.4747
 CYCLE:    95 TIME:   1.395 TIME LEFT:  2.00D  GRAD.:    13.446 HEAT:  113.4527
 CYCLE:    96 TIME:   1.398 TIME LEFT:  2.00D  GRAD.:    34.781 HEAT:  113.4440
 CYCLE:    97 TIME:   1.602 TIME LEFT:  2.00D  GRAD.:    18.152 HEAT:  113.4151
 CYCLE:    98 TIME:   1.809 TIME LEFT:  2.00D  GRAD.:    10.829 HEAT:  113.4061
 CYCLE:    99 TIME:   1.461 TIME LEFT:  2.00D  GRAD.:    13.595 HEAT:  113.3863
 CYCLE:   100 TIME:   1.500 TIME LEFT:  2.00D  GRAD.:   143.199 HEAT:  113.4285
 CYCLE:   101 TIME:   1.086 TIME LEFT:  2.00D  GRAD.:    15.167 HEAT:  113.3700
 CYCLE:   102 TIME:   1.324 TIME LEFT:  2.00D  GRAD.:    13.941 HEAT:  113.3654
 CYCLE:   103 TIME:   1.230 TIME LEFT:  2.00D  GRAD.:    16.935 HEAT:  113.3482
 CYCLE:   104 TIME:   1.457 TIME LEFT:  2.00D  GRAD.:    11.678 HEAT:  113.3262
 CYCLE:   105 TIME:   1.633 TIME LEFT:  2.00D  GRAD.:    18.245 HEAT:  113.2947
 CYCLE:   106 TIME:   1.586 TIME LEFT:  2.00D  GRAD.:    30.830 HEAT:  113.2855
 CYCLE:   107 TIME:   1.340 TIME LEFT:  2.00D  GRAD.:    12.976 HEAT:  113.2675
 CYCLE:   108 TIME:   1.270 TIME LEFT:  2.00D  GRAD.:    11.384 HEAT:  113.2543
 CYCLE:   109 TIME:   1.281 TIME LEFT:  2.00D  GRAD.:    18.241 HEAT:  113.2316
 CYCLE:   110 TIME:   1.281 TIME LEFT:  2.00D  GRAD.:    21.605 HEAT:  113.1998
 CYCLE:   111 TIME:   1.383 TIME LEFT:  2.00D  GRAD.:    26.965 HEAT:  113.1707
 CYCLE:   112 TIME:   1.133 TIME LEFT:  2.00D  GRAD.:    27.379 HEAT:  113.1421
 CYCLE:   113 TIME:   0.891 TIME LEFT:  2.00D  GRAD.:    17.838 HEAT:  113.1228
 CYCLE:   114 TIME:   1.535 TIME LEFT:  2.00D  GRAD.:    23.962 HEAT:  113.0972
 CYCLE:   115 TIME:   1.105 TIME LEFT:  2.00D  GRAD.:    40.959 HEAT:  113.0674
 CYCLE:   116 TIME:   1.926 TIME LEFT:  2.00D  GRAD.:    79.680 HEAT:  113.0545
 CYCLE:   117 TIME:   1.930 TIME LEFT:  2.00D  GRAD.:    19.131 HEAT:  113.0233
 CYCLE:   118 TIME:   2.082 TIME LEFT:  2.00D  GRAD.:    14.374 HEAT:  113.0162
 CYCLE:   119 TIME:   2.176 TIME LEFT:  2.00D  GRAD.:    15.758 HEAT:  113.0089
 CYCLE:   120 TIME:   3.582 TIME LEFT:  2.00D  GRAD.:    18.457 HEAT:  112.9900
 CYCLE:   121 TIME:   1.883 TIME LEFT:  2.00D  GRAD.:    20.651 HEAT:  112.9610
 CYCLE:   122 TIME:   2.094 TIME LEFT:  2.00D  GRAD.:    93.888 HEAT:  113.0162
 CYCLE:   123 TIME:   1.621 TIME LEFT:  2.00D  GRAD.:    24.811 HEAT:  112.9124
 CYCLE:   124 TIME:   1.426 TIME LEFT:  2.00D  GRAD.:    14.566 HEAT:  112.8971
 CYCLE:   125 TIME:   1.750 TIME LEFT:  2.00D  GRAD.:    13.465 HEAT:  112.8739
 CYCLE:   126 TIME:   1.781 TIME LEFT:  2.00D  GRAD.:    15.234 HEAT:  112.8537
 CYCLE:   127 TIME:   2.086 TIME LEFT:  2.00D  GRAD.:    44.878 HEAT:  112.8340
 CYCLE:   128 TIME:   1.789 TIME LEFT:  2.00D  GRAD.:    15.759 HEAT:  112.8019
 CYCLE:   129 TIME:   1.891 TIME LEFT:  2.00D  GRAD.:    20.561 HEAT:  112.7933
 CYCLE:   130 TIME:   2.285 TIME LEFT:  2.00D  GRAD.:    13.641 HEAT:  112.7887
 CYCLE:   131 TIME:   2.027 TIME LEFT:  2.00D  GRAD.:    13.000 HEAT:  112.7842
 CYCLE:   132 TIME:   1.961 TIME LEFT:  2.00D  GRAD.:    62.602 HEAT:  112.7731
 CYCLE:   133 TIME:   2.051 TIME LEFT:  2.00D  GRAD.:    20.724 HEAT:  112.7562
 CYCLE:   134 TIME:   2.199 TIME LEFT:  2.00D  GRAD.:    14.701 HEAT:  112.7503
 CYCLE:   135 TIME:   2.367 TIME LEFT:  2.00D  GRAD.:    17.693 HEAT:  112.7452
 CYCLE:   136 TIME:   2.730 TIME LEFT:  2.00D  GRAD.:    16.843 HEAT:  112.7301
 CYCLE:   137 TIME:   2.012 TIME LEFT:  2.00D  GRAD.:    11.047 HEAT:  112.7164
 CYCLE:   138 TIME:   1.812 TIME LEFT:  2.00D  GRAD.:    12.450 HEAT:  112.7059
 CYCLE:   139 TIME:   1.840 TIME LEFT:  2.00D  GRAD.:    13.382 HEAT:  112.6984
 CYCLE:   140 TIME:   2.266 TIME LEFT:  2.00D  GRAD.:    12.435 HEAT:  112.6897
 CYCLE:   141 TIME:   2.547 TIME LEFT:  2.00D  GRAD.:    11.120 HEAT:  112.6664
 CYCLE:   142 TIME:   2.664 TIME LEFT:  2.00D  GRAD.:    32.485 HEAT:  112.6585
 CYCLE:   143 TIME:   2.562 TIME LEFT:  2.00D  GRAD.:    26.109 HEAT:  112.6526
 CYCLE:   144 TIME:   2.289 TIME LEFT:  2.00D  GRAD.:     7.063 HEAT:  112.6398
 CYCLE:   145 TIME:   1.938 TIME LEFT:  2.00D  GRAD.:     9.110 HEAT:  112.6340
 CYCLE:   146 TIME:   1.945 TIME LEFT:  2.00D  GRAD.:    19.483 HEAT:  112.6221
 CYCLE:   147 TIME:   1.945 TIME LEFT:  2.00D  GRAD.:    75.888 HEAT:  112.6295
 CYCLE:   148 TIME:   1.375 TIME LEFT:  2.00D  GRAD.:    11.624 HEAT:  112.6103
 CYCLE:   149 TIME:   1.734 TIME LEFT:  2.00D  GRAD.:    12.554 HEAT:  112.6075
 CYCLE:   150 TIME:   1.441 TIME LEFT:  2.00D  GRAD.:    12.847 HEAT:  112.6005
 CYCLE:   151 TIME:   1.801 TIME LEFT:  2.00D  GRAD.:     8.481 HEAT:  112.5939
 CYCLE:   152 TIME:   2.211 TIME LEFT:  2.00D  GRAD.:    10.922 HEAT:  112.5816
 CYCLE:   153 TIME:   2.148 TIME LEFT:  2.00D  GRAD.:    11.540 HEAT:  112.5715
 CYCLE:   154 TIME:   1.965 TIME LEFT:  2.00D  GRAD.:    21.927 HEAT:  112.5577
 CYCLE:   155 TIME:   1.477 TIME LEFT:  2.00D  GRAD.:    10.137 HEAT:  112.5450
 CYCLE:   156 TIME:   1.754 TIME LEFT:  2.00D  GRAD.:     8.315 HEAT:  112.5397
 CYCLE:   157 TIME:   1.898 TIME LEFT:  2.00D  GRAD.:    10.275 HEAT:  112.5296
 CYCLE:   158 TIME:   1.812 TIME LEFT:  2.00D  GRAD.:    13.416 HEAT:  112.5215
 CYCLE:   159 TIME:   1.723 TIME LEFT:  2.00D  GRAD.:    19.396 HEAT:  112.5123
 CYCLE:   160 TIME:   1.629 TIME LEFT:  2.00D  GRAD.:     9.956 HEAT:  112.5046
 CYCLE:   161 TIME:   2.402 TIME LEFT:  2.00D  GRAD.:    27.555 HEAT:  112.4988
 CYCLE:   162 TIME:   1.938 TIME LEFT:  2.00D  GRAD.:    13.865 HEAT:  112.4923
 CYCLE:   163 TIME:   1.809 TIME LEFT:  2.00D  GRAD.:     9.565 HEAT:  112.4874
 CYCLE:   164 TIME:   1.922 TIME LEFT:  2.00D  GRAD.:    13.308 HEAT:  112.4809
 CYCLE:   165 TIME:   1.609 TIME LEFT:  2.00D  GRAD.:     7.145 HEAT:  112.4772
 CYCLE:   166 TIME:   1.590 TIME LEFT:  2.00D  GRAD.:    11.058 HEAT:  112.4717
 CYCLE:   167 TIME:   2.234 TIME LEFT:  2.00D  GRAD.:     9.192 HEAT:  112.4670
 CYCLE:   168 TIME:   2.023 TIME LEFT:  2.00D  GRAD.:    11.007 HEAT:  112.4560
 CYCLE:   169 TIME:   2.117 TIME LEFT:  2.00D  GRAD.:    27.687 HEAT:  112.4505
 CYCLE:   170 TIME:   1.688 TIME LEFT:  2.00D  GRAD.:    10.574 HEAT:  112.4409
 CYCLE:   171 TIME:   1.289 TIME LEFT:  2.00D  GRAD.:     9.661 HEAT:  112.4338
 CYCLE:   172 TIME:   1.688 TIME LEFT:  2.00D  GRAD.:    10.211 HEAT:  112.4290
 CYCLE:   173 TIME:   1.652 TIME LEFT:  2.00D  GRAD.:    20.975 HEAT:  112.4187
 CYCLE:   174 TIME:   1.762 TIME LEFT:  2.00D  GRAD.:    44.705 HEAT:  112.4212
 CYCLE:   175 TIME:   1.699 TIME LEFT:  2.00D  GRAD.:    13.442 HEAT:  112.4085
 CYCLE:   176 TIME:   1.938 TIME LEFT:  2.00D  GRAD.:    10.173 HEAT:  112.4055
 CYCLE:   177 TIME:   1.551 TIME LEFT:  2.00D  GRAD.:    13.616 HEAT:  112.3994
 CYCLE:   178 TIME:   1.477 TIME LEFT:  2.00D  GRAD.:    12.288 HEAT:  112.3930
 CYCLE:   179 TIME:   1.434 TIME LEFT:  2.00D  GRAD.:    18.167 HEAT:  112.3880
 CYCLE:   180 TIME:   1.906 TIME LEFT:  2.00D  GRAD.:     9.548 HEAT:  112.3829
 CYCLE:   181 TIME:   1.395 TIME LEFT:  2.00D  GRAD.:    10.172 HEAT:  112.3784
 CYCLE:   182 TIME:   1.301 TIME LEFT:  2.00D  GRAD.:    10.321 HEAT:  112.3751
 CYCLE:   183 TIME:   1.402 TIME LEFT:  2.00D  GRAD.:    31.080 HEAT:  112.3670
 CYCLE:   184 TIME:   1.027 TIME LEFT:  2.00D  GRAD.:    10.643 HEAT:  112.3593
 CYCLE:   185 TIME:   0.738 TIME LEFT:  2.00D  GRAD.:     7.866 HEAT:  112.3559
 CYCLE:   186 TIME:   1.246 TIME LEFT:  2.00D  GRAD.:    10.197 HEAT:  112.3493
 CYCLE:   187 TIME:   1.285 TIME LEFT:  2.00D  GRAD.:    11.123 HEAT:  112.3421
 CYCLE:   188 TIME:   1.277 TIME LEFT:  2.00D  GRAD.:     9.255 HEAT:  112.3306
 CYCLE:   189 TIME:   1.312 TIME LEFT:  2.00D  GRAD.:    12.148 HEAT:  112.3200
 CYCLE:   190 TIME:   1.227 TIME LEFT:  2.00D  GRAD.:     9.077 HEAT:  112.3103
 CYCLE:   191 TIME:   1.516 TIME LEFT:  2.00D  GRAD.:    11.403 HEAT:  112.3020
 CYCLE:   192 TIME:   1.324 TIME LEFT:  2.00D  GRAD.:    30.548 HEAT:  112.2977
 CYCLE:   193 TIME:   1.578 TIME LEFT:  2.00D  GRAD.:   453.764 HEAT:  113.4888
 CYCLE:   194 TIME:   1.293 TIME LEFT:  2.00D  GRAD.:    57.446 HEAT:  112.3025
 CYCLE:   195 TIME:   1.430 TIME LEFT:  2.00D  GRAD.:    64.946 HEAT:  112.3136
 CYCLE:   196 TIME:   1.527 TIME LEFT:  2.00D  GRAD.:    39.905 HEAT:  112.2894
 CYCLE:   197 TIME:   1.352 TIME LEFT:  2.00D  GRAD.:    28.615 HEAT:  112.2729
 CYCLE:   198 TIME:   1.898 TIME LEFT:  2.00D  GRAD.:   117.703 HEAT:  112.3949
 CYCLE:   199 TIME:   1.445 TIME LEFT:  2.00D  GRAD.:   222.873 HEAT:  112.7064
 CYCLE:   200 TIME:   1.539 TIME LEFT:  2.00D  GRAD.:    88.583 HEAT:  112.3196
 CYCLE:   201 TIME:   1.414 TIME LEFT:  2.00D  GRAD.:    44.022 HEAT:  112.2844
 CYCLE:   202 TIME:   1.238 TIME LEFT:  2.00D  GRAD.:    95.260 HEAT:  112.3238
 CYCLE:   203 TIME:   1.344 TIME LEFT:  2.00D  GRAD.:    16.709 HEAT:  112.2513
 CYCLE:   204 TIME:   1.090 TIME LEFT:  2.00D  GRAD.:    13.352 HEAT:  112.2586
 CYCLE:   205 TIME:   1.270 TIME LEFT:  2.00D  GRAD.:    43.106 HEAT:  112.2604
 CYCLE:   206 TIME:   1.449 TIME LEFT:  2.00D  GRAD.:    22.160 HEAT:  112.2280
 CYCLE:   207 TIME:   2.164 TIME LEFT:  2.00D  GRAD.:    45.891 HEAT:  112.2202
 CYCLE:   208 TIME:   1.582 TIME LEFT:  2.00D  GRAD.:    16.496 HEAT:  112.2071
 CYCLE:   209 TIME:   1.410 TIME LEFT:  2.00D  GRAD.:    10.052 HEAT:  112.2022
 CYCLE:   210 TIME:   1.375 TIME LEFT:  2.00D  GRAD.:    20.934 HEAT:  112.1893
 CYCLE:   211 TIME:   1.277 TIME LEFT:  2.00D  GRAD.:    20.592 HEAT:  112.1785
 CYCLE:   212 TIME:   1.801 TIME LEFT:  2.00D  GRAD.:    14.684 HEAT:  112.1453
 CYCLE:   213 TIME:   1.539 TIME LEFT:  2.00D  GRAD.:    19.701 HEAT:  112.1251
 CYCLE:   214 TIME:   1.734 TIME LEFT:  2.00D  GRAD.:    33.406 HEAT:  112.0994
 CYCLE:   215 TIME:   1.832 TIME LEFT:  2.00D  GRAD.:    46.547 HEAT:  112.0919
 CYCLE:   216 TIME:   1.613 TIME LEFT:  2.00D  GRAD.:    20.488 HEAT:  112.0671
 CYCLE:   217 TIME:   1.883 TIME LEFT:  2.00D  GRAD.:    15.968 HEAT:  112.0624
 CYCLE:   218 TIME:   1.719 TIME LEFT:  2.00D  GRAD.:    40.545 HEAT:  112.0625
 CYCLE:   219 TIME:   1.773 TIME LEFT:  2.00D  GRAD.:    15.339 HEAT:  112.0473
 CYCLE:   220 TIME:   1.496 TIME LEFT:  2.00D  GRAD.:     9.633 HEAT:  112.0393
 CYCLE:   221 TIME:   1.285 TIME LEFT:  2.00D  GRAD.:    16.274 HEAT:  112.0194
 CYCLE:   222 TIME:   1.602 TIME LEFT:  2.00D  GRAD.:    48.733 HEAT:  112.0101
 CYCLE:   223 TIME:   0.938 TIME LEFT:  2.00D  GRAD.:    18.243 HEAT:  111.9972
 CYCLE:   224 TIME:   1.203 TIME LEFT:  2.00D  GRAD.:    10.583 HEAT:  111.9928
 CYCLE:   225 TIME:   1.625 TIME LEFT:  2.00D  GRAD.:    18.224 HEAT:  111.9863
 CYCLE:   226 TIME:   1.176 TIME LEFT:  2.00D  GRAD.:    16.645 HEAT:  111.9799
 CYCLE:   227 TIME:   1.199 TIME LEFT:  2.00D  GRAD.:    18.028 HEAT:  111.9677
 CYCLE:   228 TIME:   1.582 TIME LEFT:  2.00D  GRAD.:    12.983 HEAT:  111.9549
 CYCLE:   229 TIME:   1.484 TIME LEFT:  2.00D  GRAD.:    14.970 HEAT:  111.9444
 CYCLE:   230 TIME:   3.117 TIME LEFT:  2.00D  GRAD.:    33.740 HEAT:  111.9357
 CYCLE:   231 TIME:   2.637 TIME LEFT:  2.00D  GRAD.:    55.340 HEAT:  111.9308
 CYCLE:   232 TIME:   1.438 TIME LEFT:  2.00D  GRAD.:    37.403 HEAT:  111.9211
 CYCLE:   233 TIME:   1.426 TIME LEFT:  2.00D  GRAD.:    21.328 HEAT:  111.9065
 CYCLE:   234 TIME:   1.652 TIME LEFT:  2.00D  GRAD.:    16.208 HEAT:  111.8977
 CYCLE:   235 TIME:   1.973 TIME LEFT:  2.00D  GRAD.:   175.880 HEAT:  112.1883
 CYCLE:   236 TIME:   1.703 TIME LEFT:  2.00D  GRAD.:    35.725 HEAT:  111.8877
 CYCLE:   237 TIME:   1.297 TIME LEFT:  2.00D  GRAD.:    33.920 HEAT:  111.8850
 CYCLE:   238 TIME:   1.754 TIME LEFT:  2.00D  GRAD.:    11.381 HEAT:  111.8739
 CYCLE:   239 TIME:   1.652 TIME LEFT:  2.00D  GRAD.:    27.995 HEAT:  111.8727
 CYCLE:   240 TIME:   1.215 TIME LEFT:  2.00D  GRAD.:    10.826 HEAT:  111.8657
 CYCLE:   241 TIME:   1.199 TIME LEFT:  2.00D  GRAD.:    14.642 HEAT:  111.8594
 CYCLE:   242 TIME:   1.648 TIME LEFT:  2.00D  GRAD.:    19.763 HEAT:  111.8473
 CYCLE:   243 TIME:   1.531 TIME LEFT:  2.00D  GRAD.:    69.744 HEAT:  111.8524
 CYCLE:   244 TIME:   1.551 TIME LEFT:  2.00D  GRAD.:    20.509 HEAT:  111.8221
 CYCLE:   245 TIME:   1.535 TIME LEFT:  2.00D  GRAD.:    11.640 HEAT:  111.8138
 CYCLE:   246 TIME:   1.469 TIME LEFT:  2.00D  GRAD.:    12.671 HEAT:  111.8051
 CYCLE:   247 TIME:   1.793 TIME LEFT:  2.00D  GRAD.:    24.421 HEAT:  111.7782
 CYCLE:   248 TIME:   2.250 TIME LEFT:  2.00D  GRAD.:    19.367 HEAT:  111.7615
 CYCLE:   249 TIME:   2.293 TIME LEFT:  2.00D  GRAD.:    12.859 HEAT:  111.7301
 CYCLE:   250 TIME:   1.449 TIME LEFT:  2.00D  GRAD.:    19.923 HEAT:  111.7141
 CYCLE:   251 TIME:   1.547 TIME LEFT:  2.00D  GRAD.:    85.068 HEAT:  111.7201
 CYCLE:   252 TIME:   2.059 TIME LEFT:  2.00D  GRAD.:    24.691 HEAT:  111.6884
 CYCLE:   253 TIME:   1.805 TIME LEFT:  2.00D  GRAD.:    20.282 HEAT:  111.6794
 CYCLE:   254 TIME:   1.840 TIME LEFT:  2.00D  GRAD.:    37.388 HEAT:  111.6719
 CYCLE:   255 TIME:   1.168 TIME LEFT:  2.00D  GRAD.:    45.445 HEAT:  111.6505
 CYCLE:   256 TIME:   1.641 TIME LEFT:  2.00D  GRAD.:    13.352 HEAT:  111.6309
 CYCLE:   257 TIME:   1.586 TIME LEFT:  2.00D  GRAD.:    10.785 HEAT:  111.6248
 CYCLE:   258 TIME:   2.270 TIME LEFT:  2.00D  GRAD.:    17.539 HEAT:  111.6110
 CYCLE:   259 TIME:   1.988 TIME LEFT:  2.00D  GRAD.:    32.736 HEAT:  111.6076
 CYCLE:   260 TIME:   1.547 TIME LEFT:  2.00D  GRAD.:    12.817 HEAT:  111.5968
 CYCLE:   261 TIME:   1.828 TIME LEFT:  2.00D  GRAD.:    15.020 HEAT:  111.5902
 CYCLE:   262 TIME:   1.637 TIME LEFT:  1.99D  GRAD.:    16.796 HEAT:  111.5757
 CYCLE:   263 TIME:   1.668 TIME LEFT:  1.99D  GRAD.:    21.743 HEAT:  111.5316
 CYCLE:   264 TIME:   1.738 TIME LEFT:  1.99D  GRAD.:    46.047 HEAT:  111.5185
 CYCLE:   265 TIME:   1.688 TIME LEFT:  1.99D  GRAD.:    64.350 HEAT:  111.5006
 CYCLE:   266 TIME:   1.438 TIME LEFT:  1.99D  GRAD.:    11.441 HEAT:  111.4684
 CYCLE:   267 TIME:   1.758 TIME LEFT:  1.99D  GRAD.:    11.368 HEAT:  111.4599
 CYCLE:   268 TIME:   1.605 TIME LEFT:  1.99D  GRAD.:    15.734 HEAT:  111.4361
 CYCLE:   269 TIME:   1.094 TIME LEFT:  1.99D  GRAD.:    35.420 HEAT:  111.4141
 CYCLE:   270 TIME:   1.465 TIME LEFT:  1.99D  GRAD.:    31.047 HEAT:  111.3951
 CYCLE:   271 TIME:   1.355 TIME LEFT:  1.99D  GRAD.:    13.224 HEAT:  111.3858
 CYCLE:   272 TIME:   1.266 TIME LEFT:  1.99D  GRAD.:    25.141 HEAT:  111.3759
 CYCLE:   273 TIME:   1.285 TIME LEFT:  1.99D  GRAD.:    21.586 HEAT:  111.3674
 CYCLE:   274 TIME:   1.738 TIME LEFT:  1.99D  GRAD.:    20.291 HEAT:  111.3370
 CYCLE:   275 TIME:   1.637 TIME LEFT:  1.99D  GRAD.:    44.525 HEAT:  111.3334
 CYCLE:   276 TIME:   1.191 TIME LEFT:  1.99D  GRAD.:    17.780 HEAT:  111.3093
 CYCLE:   277 TIME:   1.520 TIME LEFT:  1.99D  GRAD.:    13.193 HEAT:  111.2969
 CYCLE:   278 TIME:   1.660 TIME LEFT:  1.99D  GRAD.:    14.008 HEAT:  111.2784
 CYCLE:   279 TIME:   1.312 TIME LEFT:  1.99D  GRAD.:    18.505 HEAT:  111.2489
 CYCLE:   280 TIME:   1.766 TIME LEFT:  1.99D  GRAD.:    56.286 HEAT:  111.2515
 CYCLE:   281 TIME:   0.914 TIME LEFT:  1.99D  GRAD.:    12.850 HEAT:  111.2213
 CYCLE:   282 TIME:   1.465 TIME LEFT:  1.99D  GRAD.:    12.077 HEAT:  111.2153
 CYCLE:   283 TIME:   1.789 TIME LEFT:  1.99D  GRAD.:    23.972 HEAT:  111.2005
 CYCLE:   284 TIME:   1.668 TIME LEFT:  1.99D  GRAD.:    56.889 HEAT:  111.1971
 CYCLE:   285 TIME:   1.895 TIME LEFT:  1.99D  GRAD.:    15.237 HEAT:  111.1811
 CYCLE:   286 TIME:   1.289 TIME LEFT:  1.99D  GRAD.:    13.355 HEAT:  111.1758
 CYCLE:   287 TIME:   1.004 TIME LEFT:  1.99D  GRAD.:    16.719 HEAT:  111.1697
 CYCLE:   288 TIME:   1.652 TIME LEFT:  1.99D  GRAD.:    21.135 HEAT:  111.1597
 CYCLE:   289 TIME:   1.645 TIME LEFT:  1.99D  GRAD.:    23.347 HEAT:  111.1374
 CYCLE:   290 TIME:   1.445 TIME LEFT:  1.99D  GRAD.:    22.892 HEAT:  111.1118
 CYCLE:   291 TIME:   1.250 TIME LEFT:  1.99D  GRAD.:    14.302 HEAT:  111.0900
 CYCLE:   292 TIME:   1.734 TIME LEFT:  1.99D  GRAD.:    13.778 HEAT:  111.0799
 CYCLE:   293 TIME:   1.000 TIME LEFT:  1.99D  GRAD.:    11.275 HEAT:  111.0739
 CYCLE:   294 TIME:   1.258 TIME LEFT:  1.99D  GRAD.:    17.833 HEAT:  111.0627
 CYCLE:   295 TIME:   1.500 TIME LEFT:  1.99D  GRAD.:    32.673 HEAT:  111.0603
 CYCLE:   296 TIME:   1.188 TIME LEFT:  1.99D  GRAD.:     7.850 HEAT:  111.0442
 CYCLE:   297 TIME:   1.426 TIME LEFT:  1.99D  GRAD.:     7.956 HEAT:  111.0397
 CYCLE:   298 TIME:   1.469 TIME LEFT:  1.99D  GRAD.:    13.054 HEAT:  111.0319
 CYCLE:   299 TIME:   1.355 TIME LEFT:  1.99D  GRAD.:    33.065 HEAT:  111.0207
 CYCLE:   300 TIME:   1.102 TIME LEFT:  1.99D  GRAD.:    13.229 HEAT:  111.0106
 CYCLE:   301 TIME:   0.887 TIME LEFT:  1.99D  GRAD.:    16.152 HEAT:  111.0044
 CYCLE:   302 TIME:   1.086 TIME LEFT:  1.99D  GRAD.:    16.275 HEAT:  110.9928
 CYCLE:   303 TIME:   1.301 TIME LEFT:  1.99D  GRAD.:    18.014 HEAT:  110.9893
 CYCLE:   304 TIME:   0.871 TIME LEFT:  1.99D  GRAD.:    13.557 HEAT:  110.9743
 CYCLE:   305 TIME:   1.246 TIME LEFT:  1.99D  GRAD.:     7.510 HEAT:  110.9684
 CYCLE:   306 TIME:   1.094 TIME LEFT:  1.99D  GRAD.:    11.164 HEAT:  110.9616
 CYCLE:   307 TIME:   1.031 TIME LEFT:  1.99D  GRAD.:    11.131 HEAT:  110.9538
 CYCLE:   308 TIME:   1.516 TIME LEFT:  1.99D  GRAD.:     8.084 HEAT:  110.9360
 CYCLE:   309 TIME:   1.176 TIME LEFT:  1.99D  GRAD.:    17.330 HEAT:  110.9278
 CYCLE:   310 TIME:   1.070 TIME LEFT:  1.99D  GRAD.:    15.950 HEAT:  110.9183
 CYCLE:   311 TIME:   0.852 TIME LEFT:  1.99D  GRAD.:    10.570 HEAT:  110.9110
 CYCLE:   312 TIME:   0.742 TIME LEFT:  1.99D  GRAD.:    13.611 HEAT:  110.9046
 CYCLE:   313 TIME:   0.961 TIME LEFT:  1.99D  GRAD.:    23.247 HEAT:  110.8992
 CYCLE:   314 TIME:   0.934 TIME LEFT:  1.99D  GRAD.:     9.259 HEAT:  110.8949
 CYCLE:   315 TIME:   1.102 TIME LEFT:  1.99D  GRAD.:    11.445 HEAT:  110.8894
 CYCLE:   316 TIME:   1.207 TIME LEFT:  1.99D  GRAD.:    14.799 HEAT:  110.8822
 CYCLE:   317 TIME:   1.137 TIME LEFT:  1.99D  GRAD.:    12.602 HEAT:  110.8713
 CYCLE:   318 TIME:   1.109 TIME LEFT:  1.99D  GRAD.:    14.260 HEAT:  110.8637
 CYCLE:   319 TIME:   1.273 TIME LEFT:  1.99D  GRAD.:    24.974 HEAT:  110.8606
 CYCLE:   320 TIME:   1.223 TIME LEFT:  1.99D  GRAD.:     7.078 HEAT:  110.8541
 CYCLE:   321 TIME:   1.031 TIME LEFT:  1.99D  GRAD.:     8.353 HEAT:  110.8499
 CYCLE:   322 TIME:   1.137 TIME LEFT:  1.99D  GRAD.:     9.525 HEAT:  110.8395
 CYCLE:   323 TIME:   1.430 TIME LEFT:  1.99D  GRAD.:    13.257 HEAT:  110.8298
 CYCLE:   324 TIME:   1.320 TIME LEFT:  1.99D  GRAD.:    12.531 HEAT:  110.8230
 CYCLE:   325 TIME:   1.336 TIME LEFT:  1.99D  GRAD.:    12.158 HEAT:  110.8159
 CYCLE:   326 TIME:   0.992 TIME LEFT:  1.99D  GRAD.:    10.028 HEAT:  110.8103
 CYCLE:   327 TIME:   1.242 TIME LEFT:  1.99D  GRAD.:    52.373 HEAT:  110.8067
 CYCLE:   328 TIME:   1.141 TIME LEFT:  1.99D  GRAD.:    10.593 HEAT:  110.7960
 CYCLE:   329 TIME:   1.215 TIME LEFT:  1.99D  GRAD.:    10.547 HEAT:  110.7926
 CYCLE:   330 TIME:   1.215 TIME LEFT:  1.99D  GRAD.:     7.841 HEAT:  110.7874
 CYCLE:   331 TIME:   1.059 TIME LEFT:  1.99D  GRAD.:     7.355 HEAT:  110.7794
 CYCLE:   332 TIME:   1.059 TIME LEFT:  1.99D  GRAD.:    10.365 HEAT:  110.7673
 CYCLE:   333 TIME:   1.074 TIME LEFT:  1.99D  GRAD.:    18.801 HEAT:  110.7632
 CYCLE:   334 TIME:   0.832 TIME LEFT:  1.99D  GRAD.:     7.933 HEAT:  110.7561
 CYCLE:   335 TIME:   1.270 TIME LEFT:  1.99D  GRAD.:     6.916 HEAT:  110.7521
 CYCLE:   336 TIME:   1.875 TIME LEFT:  1.99D  GRAD.:     8.213 HEAT:  110.7473
 CYCLE:   337 TIME:   1.227 TIME LEFT:  1.99D  GRAD.:    13.634 HEAT:  110.7404
 CYCLE:   338 TIME:   1.172 TIME LEFT:  1.99D  GRAD.:    11.155 HEAT:  110.7353
 CYCLE:   339 TIME:   1.082 TIME LEFT:  1.99D  GRAD.:     7.698 HEAT:  110.7319
 CYCLE:   340 TIME:   1.285 TIME LEFT:  1.99D  GRAD.:     9.322 HEAT:  110.7276
 CYCLE:   341 TIME:   1.113 TIME LEFT:  1.99D  GRAD.:    42.637 HEAT:  110.7279
 CYCLE:   342 TIME:   1.164 TIME LEFT:  1.99D  GRAD.:    10.429 HEAT:  110.7233
 CYCLE:   343 TIME:   1.137 TIME LEFT:  1.99D  GRAD.:     7.900 HEAT:  110.7215
 CYCLE:   344 TIME:   1.105 TIME LEFT:  1.99D  GRAD.:     6.250 HEAT:  110.7201
 CYCLE:   345 TIME:   1.145 TIME LEFT:  1.99D  GRAD.:     8.813 HEAT:  110.7167
 CYCLE:   346 TIME:   0.961 TIME LEFT:  1.99D  GRAD.:     7.064 HEAT:  110.7129
 CYCLE:   347 TIME:   1.020 TIME LEFT:  1.99D  GRAD.:     8.523 HEAT:  110.7072
 CYCLE:   348 TIME:   0.996 TIME LEFT:  1.99D  GRAD.:     6.797 HEAT:  110.7028
 CYCLE:   349 TIME:   1.055 TIME LEFT:  1.99D  GRAD.:     7.077 HEAT:  110.6982
 CYCLE:   350 TIME:   0.859 TIME LEFT:  1.99D  GRAD.:     7.252 HEAT:  110.6941
 CYCLE:   351 TIME:   1.074 TIME LEFT:  1.99D  GRAD.:    10.689 HEAT:  110.6893
 CYCLE:   352 TIME:   1.309 TIME LEFT:  1.99D  GRAD.:     7.197 HEAT:  110.6865
 CYCLE:   353 TIME:   1.387 TIME LEFT:  1.99D  GRAD.:     4.993 HEAT:  110.6848
 CYCLE:   354 TIME:   1.188 TIME LEFT:  1.99D  GRAD.:     7.784 HEAT:  110.6819
 CYCLE:   355 TIME:   1.211 TIME LEFT:  1.99D  GRAD.:     4.686 HEAT:  110.6786
 CYCLE:   356 TIME:   1.250 TIME LEFT:  1.99D  GRAD.:    36.652 HEAT:  110.6791
 CYCLE:   357 TIME:   1.164 TIME LEFT:  1.99D  GRAD.:     5.732 HEAT:  110.6750
 CYCLE:   358 TIME:   1.223 TIME LEFT:  1.99D  GRAD.:     4.762 HEAT:  110.6742
 CYCLE:   359 TIME:   1.586 TIME LEFT:  1.99D  GRAD.:    12.295 HEAT:  110.6718
 CYCLE:   360 TIME:   1.805 TIME LEFT:  1.99D  GRAD.:     8.609 HEAT:  110.6702
 CYCLE:   361 TIME:   2.598 TIME LEFT:  1.99D  GRAD.:    10.125 HEAT:  110.6667
 CYCLE:   362 TIME:   1.301 TIME LEFT:  1.99D  GRAD.:     9.037 HEAT:  110.6632
 CYCLE:   363 TIME:   1.230 TIME LEFT:  1.99D  GRAD.:     8.110 HEAT:  110.6597
 CYCLE:   364 TIME:   1.395 TIME LEFT:  1.99D  GRAD.:     9.217 HEAT:  110.6561
 CYCLE:   365 TIME:   1.105 TIME LEFT:  1.99D  GRAD.:     7.875 HEAT:  110.6518
 CYCLE:   366 TIME:   1.141 TIME LEFT:  1.99D  GRAD.:    10.373 HEAT:  110.6453
 CYCLE:   367 TIME:   1.199 TIME LEFT:  1.99D  GRAD.:     7.634 HEAT:  110.6418
 CYCLE:   368 TIME:   1.426 TIME LEFT:  1.99D  GRAD.:     9.582 HEAT:  110.6393
 CYCLE:   369 TIME:   1.148 TIME LEFT:  1.99D  GRAD.:     9.527 HEAT:  110.6380
 CYCLE:   370 TIME:   1.191 TIME LEFT:  1.99D  GRAD.:    29.491 HEAT:  110.6376
 CYCLE:   371 TIME:   1.191 TIME LEFT:  1.99D  GRAD.:     4.267 HEAT:  110.6333
 CYCLE:   372 TIME:   1.320 TIME LEFT:  1.99D  GRAD.:     5.985 HEAT:  110.6322
 CYCLE:   373 TIME:   1.559 TIME LEFT:  1.99D  GRAD.:     7.109 HEAT:  110.6306
 CYCLE:   374 TIME:   1.047 TIME LEFT:  1.99D  GRAD.:     6.037 HEAT:  110.6298
 CYCLE:   375 TIME:   1.176 TIME LEFT:  1.99D  GRAD.:     7.040 HEAT:  110.6290
 CYCLE:   376 TIME:   1.234 TIME LEFT:  1.99D  GRAD.:     4.589 HEAT:  110.6271
 CYCLE:   377 TIME:   1.137 TIME LEFT:  1.99D  GRAD.:     3.745 HEAT:  110.6255
 CYCLE:   378 TIME:   1.023 TIME LEFT:  1.99D  GRAD.:     4.845 HEAT:  110.6240
 CYCLE:   379 TIME:   1.027 TIME LEFT:  1.99D  GRAD.:     4.717 HEAT:  110.6220
 CYCLE:   380 TIME:   1.141 TIME LEFT:  1.99D  GRAD.:    10.101 HEAT:  110.6192
 CYCLE:   381 TIME:   0.965 TIME LEFT:  1.99D  GRAD.:     4.132 HEAT:  110.6171
 CYCLE:   382 TIME:   1.156 TIME LEFT:  1.99D  GRAD.:     3.713 HEAT:  110.6163
 CYCLE:   383 TIME:   0.895 TIME LEFT:  1.99D  GRAD.:     7.923 HEAT:  110.6146
 CYCLE:   384 TIME:   1.379 TIME LEFT:  1.99D  GRAD.:    11.180 HEAT:  110.6133
 CYCLE:   385 TIME:   1.516 TIME LEFT:  1.99D  GRAD.:     5.654 HEAT:  110.6117
 CYCLE:   386 TIME:   1.273 TIME LEFT:  1.99D  GRAD.:     4.373 HEAT:  110.6102
 CYCLE:   387 TIME:   1.023 TIME LEFT:  1.99D  GRAD.:     4.050 HEAT:  110.6094
 CYCLE:   388 TIME:   1.008 TIME LEFT:  1.99D  GRAD.:     9.549 HEAT:  110.6070
 CYCLE:   389 TIME:   1.375 TIME LEFT:  1.99D  GRAD.:    13.599 HEAT:  110.6061
 CYCLE:   390 TIME:   1.016 TIME LEFT:  1.99D  GRAD.:     4.049 HEAT:  110.6050
 CYCLE:   391 TIME:   0.965 TIME LEFT:  1.99D  GRAD.:     3.872 HEAT:  110.6042
 CYCLE:   392 TIME:   1.445 TIME LEFT:  1.99D  GRAD.:     3.633 HEAT:  110.6032
 CYCLE:   393 TIME:   1.090 TIME LEFT:  1.99D  GRAD.:     3.837 HEAT:  110.6006
 CYCLE:   394 TIME:   1.102 TIME LEFT:  1.99D  GRAD.:     9.949 HEAT:  110.5995
 CYCLE:   395 TIME:   1.078 TIME LEFT:  1.99D  GRAD.:     9.538 HEAT:  110.5985
 CYCLE:   396 TIME:   1.172 TIME LEFT:  1.99D  GRAD.:     3.609 HEAT:  110.5968
 CYCLE:   397 TIME:   0.867 TIME LEFT:  1.99D  GRAD.:     5.181 HEAT:  110.5964
 CYCLE:   398 TIME:   0.887 TIME LEFT:  1.99D  GRAD.:     5.452 HEAT:  110.5954
 CYCLE:   399 TIME:   1.238 TIME LEFT:  1.99D  GRAD.:     4.988 HEAT:  110.5945
 CYCLE:   400 TIME:   1.195 TIME LEFT:  1.99D  GRAD.:     3.775 HEAT:  110.5938
 CYCLE:   401 TIME:   0.891 TIME LEFT:  1.99D  GRAD.:     9.320 HEAT:  110.5925
 CYCLE:   402 TIME:   1.152 TIME LEFT:  1.99D  GRAD.:     4.979 HEAT:  110.5910
 CYCLE:   403 TIME:   1.223 TIME LEFT:  1.99D  GRAD.:    13.089 HEAT:  110.5902
 CYCLE:   404 TIME:   0.875 TIME LEFT:  1.99D  GRAD.:     5.682 HEAT:  110.5896
 CYCLE:   405 TIME:   1.371 TIME LEFT:  1.99D  GRAD.:     2.472 HEAT:  110.5894
 CYCLE:   406 TIME:   0.883 TIME LEFT:  1.99D  GRAD.:     2.280 HEAT:  110.5892
 CYCLE:   407 TIME:   1.176 TIME LEFT:  1.99D  GRAD.:     2.244 HEAT:  110.5886
 CYCLE:   408 TIME:   1.535 TIME LEFT:  1.99D  GRAD.:     2.475 HEAT:  110.5874
 CYCLE:   409 TIME:   1.512 TIME LEFT:  1.99D  GRAD.:     9.712 HEAT:  110.5870
 CYCLE:   410 TIME:   3.348 TIME LEFT:  1.99D  GRAD.:     5.979 HEAT:  110.5862
 CYCLE:   411 TIME:   3.816 TIME LEFT:  1.99D  GRAD.:     3.699 HEAT:  110.5851
 CYCLE:   412 TIME:   1.141 TIME LEFT:  1.99D  GRAD.:    10.660 HEAT:  110.5852
 CYCLE:   413 TIME:   1.434 TIME LEFT:  1.99D  GRAD.:    12.521 HEAT:  110.5843
 CYCLE:   414 TIME:   1.379 TIME LEFT:  1.99D  GRAD.:     2.590 HEAT:  110.5832
 CYCLE:   415 TIME:   1.113 TIME LEFT:  1.99D  GRAD.:     2.278 HEAT:  110.5829
 CYCLE:   416 TIME:   1.020 TIME LEFT:  1.99D  GRAD.:     2.393 HEAT:  110.5821
 CYCLE:   417 TIME:   1.094 TIME LEFT:  1.99D  GRAD.:     6.815 HEAT:  110.5817
 CYCLE:   418 TIME:   1.027 TIME LEFT:  1.99D  GRAD.:     6.185 HEAT:  110.5813
 CYCLE:   419 TIME:   1.133 TIME LEFT:  1.99D  GRAD.:     3.013 HEAT:  110.5810
 CYCLE:   420 TIME:   1.152 TIME LEFT:  1.99D  GRAD.:     2.252 HEAT:  110.5808
 CYCLE:   421 TIME:   0.922 TIME LEFT:  1.99D  GRAD.:     2.672 HEAT:  110.5805
 CYCLE:   422 TIME:   1.109 TIME LEFT:  1.99D  GRAD.:     6.706 HEAT:  110.5797
 CYCLE:   423 TIME:   0.906 TIME LEFT:  1.99D  GRAD.:     4.543 HEAT:  110.5789
 CYCLE:   424 TIME:   1.035 TIME LEFT:  1.99D  GRAD.:     2.089 HEAT:  110.5777
 CYCLE:   425 TIME:   1.125 TIME LEFT:  1.99D  GRAD.:     1.983 HEAT:  110.5774
 CYCLE:   426 TIME:   1.168 TIME LEFT:  1.99D  GRAD.:     3.692 HEAT:  110.5767
 CYCLE:   427 TIME:   1.035 TIME LEFT:  1.99D  GRAD.:    12.137 HEAT:  110.5786
 CYCLE:   428 TIME:   1.164 TIME LEFT:  1.99D  GRAD.:     2.556 HEAT:  110.5759
 CYCLE:   429 TIME:   1.184 TIME LEFT:  1.99D  GRAD.:     1.890 HEAT:  110.5756
 CYCLE:   430 TIME:   0.895 TIME LEFT:  1.99D  GRAD.:     2.049 HEAT:  110.5752
 CYCLE:   431 TIME:   1.281 TIME LEFT:  1.99D  GRAD.:    15.389 HEAT:  110.5751
 CYCLE:   432 TIME:   1.555 TIME LEFT:  1.99D  GRAD.:     7.341 HEAT:  110.5748
 CYCLE:   433 TIME:   1.137 TIME LEFT:  1.99D  GRAD.:     7.002 HEAT:  110.5746
 CYCLE:   434 TIME:   1.121 TIME LEFT:  1.99D  GRAD.:    11.697 HEAT:  110.5747
 CYCLE:   435 TIME:   1.047 TIME LEFT:  1.99D  GRAD.:     2.319 HEAT:  110.5739
 CYCLE:   436 TIME:   0.977 TIME LEFT:  1.99D  GRAD.:     1.996 HEAT:  110.5737
 CYCLE:   437 TIME:   1.129 TIME LEFT:  1.99D  GRAD.:     2.125 HEAT:  110.5735
 CYCLE:   438 TIME:   1.449 TIME LEFT:  1.99D  GRAD.:     1.958 HEAT:  110.5729
 CYCLE:   439 TIME:   1.262 TIME LEFT:  1.99D  GRAD.:     2.803 HEAT:  110.5725
 CYCLE:   440 TIME:   0.922 TIME LEFT:  1.99D  GRAD.:     2.216 HEAT:  110.5719
 CYCLE:   441 TIME:   1.137 TIME LEFT:  1.99D  GRAD.:     3.153 HEAT:  110.5713
 CYCLE:   442 TIME:   1.082 TIME LEFT:  1.99D  GRAD.:     2.910 HEAT:  110.5707
 CYCLE:   443 TIME:   1.043 TIME LEFT:  1.99D  GRAD.:     1.623 HEAT:  110.5705
 CYCLE:   444 TIME:   1.156 TIME LEFT:  1.99D  GRAD.:     7.514 HEAT:  110.5705
 CYCLE:   445 TIME:   1.023 TIME LEFT:  1.99D  GRAD.:     2.044 HEAT:  110.5701
 CYCLE:   446 TIME:   1.176 TIME LEFT:  1.99D  GRAD.:     1.598 HEAT:  110.5699
 CYCLE:   447 TIME:   1.051 TIME LEFT:  1.99D  GRAD.:     8.814 HEAT:  110.5700
 CYCLE:   448 TIME:   0.934 TIME LEFT:  1.99D  GRAD.:     1.931 HEAT:  110.5696
 CYCLE:   449 TIME:   1.098 TIME LEFT:  1.99D  GRAD.:     1.778 HEAT:  110.5695
 CYCLE:   450 TIME:   1.184 TIME LEFT:  1.99D  GRAD.:     3.969 HEAT:  110.5691
 CYCLE:   451 TIME:   1.109 TIME LEFT:  1.99D  GRAD.:     2.933 HEAT:  110.5689
 CYCLE:   452 TIME:   1.246 TIME LEFT:  1.99D  GRAD.:     2.044 HEAT:  110.5684
 CYCLE:   453 TIME:   1.168 TIME LEFT:  1.99D  GRAD.:     2.405 HEAT:  110.5681
 CYCLE:   454 TIME:   2.555 TIME LEFT:  1.99D  GRAD.:     3.483 HEAT:  110.5679
 CYCLE:   455 TIME:   0.871 TIME LEFT:  1.99D  GRAD.:     2.227 HEAT:  110.5676
 CYCLE:   456 TIME:   0.949 TIME LEFT:  1.99D  GRAD.:     1.522 HEAT:  110.5675
 CYCLE:   457 TIME:   1.418 TIME LEFT:  1.99D  GRAD.:     2.433 HEAT:  110.5673
 CYCLE:   458 TIME:   1.074 TIME LEFT:  1.99D  GRAD.:     3.621 HEAT:  110.5672
 CYCLE:   459 TIME:   1.145 TIME LEFT:  1.99D  GRAD.:     1.513 HEAT:  110.5670
 CYCLE:   460 TIME:   0.941 TIME LEFT:  1.99D  GRAD.:     1.444 HEAT:  110.5669
 CYCLE:   461 TIME:   1.266 TIME LEFT:  1.99D  GRAD.:     3.467 HEAT:  110.5667
 CYCLE:   462 TIME:   0.883 TIME LEFT:  1.99D  GRAD.:     2.495 HEAT:  110.5666
 CYCLE:   463 TIME:   1.043 TIME LEFT:  1.99D  GRAD.:     1.969 HEAT:  110.5665
 CYCLE:   464 TIME:   0.977 TIME LEFT:  1.99D  GRAD.:     1.188 HEAT:  110.5664
 CYCLE:   465 TIME:   1.285 TIME LEFT:  1.99D  GRAD.:     0.867 HEAT:  110.5662
 CYCLE:   466 TIME:   1.293 TIME LEFT:  1.99D  GRAD.:     1.347 HEAT:  110.5660
 CYCLE:   467 TIME:   1.242 TIME LEFT:  1.99D  GRAD.:     3.169 HEAT:  110.5657
 CYCLE:   468 TIME:   1.168 TIME LEFT:  1.99D  GRAD.:     2.124 HEAT:  110.5653
 CYCLE:   469 TIME:   1.203 TIME LEFT:  1.99D  GRAD.:     1.499 HEAT:  110.5652
 CYCLE:   470 TIME:   1.250 TIME LEFT:  1.99D  GRAD.:     1.526 HEAT:  110.5649
 CYCLE:   471 TIME:   1.379 TIME LEFT:  1.99D  GRAD.:    10.523 HEAT:  110.5652
 CYCLE:   472 TIME:   0.938 TIME LEFT:  1.99D  GRAD.:     3.896 HEAT:  110.5648
 CYCLE:   473 TIME:   0.832 TIME LEFT:  1.99D  GRAD.:     2.317 HEAT:  110.5646
 CYCLE:   474 TIME:   1.105 TIME LEFT:  1.99D  GRAD.:     5.242 HEAT:  110.5646
 CYCLE:   475 TIME:   0.969 TIME LEFT:  1.99D  GRAD.:     1.278 HEAT:  110.5645
 CYCLE:   476 TIME:   0.906 TIME LEFT:  1.99D  GRAD.:     0.946 HEAT:  110.5644
 CYCLE:   477 TIME:   1.090 TIME LEFT:  1.99D  GRAD.:     1.690 HEAT:  110.5642
 CYCLE:   478 TIME:   0.883 TIME LEFT:  1.99D  GRAD.:     2.449 HEAT:  110.5640
 CYCLE:   479 TIME:   1.066 TIME LEFT:  1.99D  GRAD.:     1.567 HEAT:  110.5638
 CYCLE:   480 TIME:   1.129 TIME LEFT:  1.99D  GRAD.:     1.142 HEAT:  110.5636
 CYCLE:   481 TIME:   1.188 TIME LEFT:  1.99D  GRAD.:     2.260 HEAT:  110.5634
 CYCLE:   482 TIME:   1.266 TIME LEFT:  1.99D  GRAD.:     2.168 HEAT:  110.5632
 CYCLE:   483 TIME:   1.055 TIME LEFT:  1.99D  GRAD.:     2.365 HEAT:  110.5631
 CYCLE:   484 TIME:   1.027 TIME LEFT:  1.99D  GRAD.:     2.673 HEAT:  110.5630
 CYCLE:   485 TIME:   1.414 TIME LEFT:  1.99D  GRAD.:     3.972 HEAT:  110.5630
 CYCLE:   486 TIME:   1.691 TIME LEFT:  1.99D  GRAD.:     1.197 HEAT:  110.5628
 CYCLE:   487 TIME:   0.938 TIME LEFT:  1.99D  GRAD.:     1.411 HEAT:  110.5627
 CYCLE:   488 TIME:   1.031 TIME LEFT:  1.99D  GRAD.:     2.449 HEAT:  110.5625
 CYCLE:   489 TIME:   1.402 TIME LEFT:  1.99D  GRAD.:     1.167 HEAT:  110.5623
 CYCLE:   490 TIME:   1.316 TIME LEFT:  1.99D  GRAD.:     1.097 HEAT:  110.5623
 CYCLE:   491 TIME:   1.266 TIME LEFT:  1.99D  GRAD.:     2.148 HEAT:  110.5621
 CYCLE:   492 TIME:   1.102 TIME LEFT:  1.99D  GRAD.:     1.243 HEAT:  110.5620
 CYCLE:   493 TIME:   1.156 TIME LEFT:  1.99D  GRAD.:     1.288 HEAT:  110.5617
 CYCLE:   494 TIME:   1.211 TIME LEFT:  1.99D  GRAD.:     1.929 HEAT:  110.5615
 CYCLE:   495 TIME:   1.109 TIME LEFT:  1.99D  GRAD.:     2.071 HEAT:  110.5612
 CYCLE:   496 TIME:   1.012 TIME LEFT:  1.99D  GRAD.:     1.438 HEAT:  110.5609
 CYCLE:   497 TIME:   0.977 TIME LEFT:  1.99D  GRAD.:     2.641 HEAT:  110.5607
 CYCLE:   498 TIME:   2.078 TIME LEFT:  1.99D  GRAD.:     3.887 HEAT:  110.5606
 CYCLE:   499 TIME:   0.996 TIME LEFT:  1.99D  GRAD.:     2.703 HEAT:  110.5606
 CYCLE:   500 TIME:   0.867 TIME LEFT:  1.99D  GRAD.:    12.088 HEAT:  110.5610
 CYCLE:   501 TIME:   1.043 TIME LEFT:  1.99D  GRAD.:     1.731 HEAT:  110.5603
 CYCLE:   502 TIME:   1.000 TIME LEFT:  1.99D  GRAD.:     1.560 HEAT:  110.5603
 CYCLE:   503 TIME:   1.184 TIME LEFT:  1.99D  GRAD.:     1.381 HEAT:  110.5601
 CYCLE:   504 TIME:   1.312 TIME LEFT:  1.99D  GRAD.:     3.587 HEAT:  110.5599
 CYCLE:   505 TIME:   0.777 TIME LEFT:  1.99D  GRAD.:     1.694 HEAT:  110.5597
 CYCLE:   506 TIME:   3.184 TIME LEFT:  1.99D  GRAD.:     2.308 HEAT:  110.5597
 CYCLE:   507 TIME:   1.102 TIME LEFT:  1.99D  GRAD.:     1.624 HEAT:  110.5595
 CYCLE:   508 TIME:   1.066 TIME LEFT:  1.99D  GRAD.:     0.963 HEAT:  110.5592
 CYCLE:   509 TIME:   1.234 TIME LEFT:  1.99D  GRAD.:     1.151 HEAT:  110.5589
 CYCLE:   510 TIME:   1.426 TIME LEFT:  1.99D  GRAD.:     1.659 HEAT:  110.5587
 CYCLE:   511 TIME:   1.340 TIME LEFT:  1.99D  GRAD.:     4.117 HEAT:  110.5585
 CYCLE:   512 TIME:   0.816 TIME LEFT:  1.99D  GRAD.:     1.391 HEAT:  110.5584
 CYCLE:   513 TIME:   1.164 TIME LEFT:  1.99D  GRAD.:     2.609 HEAT:  110.5582
 CYCLE:   514 TIME:   0.887 TIME LEFT:  1.99D  GRAD.:     5.538 HEAT:  110.5582
 CYCLE:   515 TIME:   1.398 TIME LEFT:  1.99D  GRAD.:     2.004 HEAT:  110.5579
 CYCLE:   516 TIME:   1.043 TIME LEFT:  1.99D  GRAD.:     2.168 HEAT:  110.5579
 CYCLE:   517 TIME:   0.684 TIME LEFT:  1.99D  GRAD.:     1.900 HEAT:  110.5577
 CYCLE:   518 TIME:   0.840 TIME LEFT:  1.99D  GRAD.:     1.435 HEAT:  110.5575
 CYCLE:   519 TIME:   1.113 TIME LEFT:  1.99D  GRAD.:     1.367 HEAT:  110.5574
 CYCLE:   520 TIME:   1.652 TIME LEFT:  1.99D  GRAD.:     4.081 HEAT:  110.5572
 CYCLE:   521 TIME:   1.055 TIME LEFT:  1.99D  GRAD.:     1.671 HEAT:  110.5570
 CYCLE:   522 TIME:   1.195 TIME LEFT:  1.99D  GRAD.:     1.743 HEAT:  110.5570
 CYCLE:   523 TIME:   0.965 TIME LEFT:  1.99D  GRAD.:     1.514 HEAT:  110.5569
 CYCLE:   524 TIME:   1.305 TIME LEFT:  1.99D  GRAD.:     4.532 HEAT:  110.5568
 CYCLE:   525 TIME:   1.047 TIME LEFT:  1.99D  GRAD.:     1.721 HEAT:  110.5564
 CYCLE:   526 TIME:   0.980 TIME LEFT:  1.99D  GRAD.:     1.068 HEAT:  110.5564
 CYCLE:   527 TIME:   1.566 TIME LEFT:  1.99D  GRAD.:     3.125 HEAT:  110.5562
 CYCLE:   528 TIME:   1.578 TIME LEFT:  1.99D  GRAD.:     1.561 HEAT:  110.5559
 CYCLE:   529 TIME:   0.992 TIME LEFT:  1.99D  GRAD.:     0.787 HEAT:  110.5557
 CYCLE:   530 TIME:   1.195 TIME LEFT:  1.99D  GRAD.:     3.789 HEAT:  110.5555
 CYCLE:   531 TIME:   1.047 TIME LEFT:  1.99D  GRAD.:     6.355 HEAT:  110.5559
 CYCLE:   532 TIME:   0.758 TIME LEFT:  1.99D  GRAD.:     3.134 HEAT:  110.5555
 CYCLE:   533 TIME:   1.094 TIME LEFT:  1.99D  GRAD.:     1.775 HEAT:  110.5559
 CYCLE:   534 TIME:   1.000 TIME LEFT:  1.99D  GRAD.:    13.987 HEAT:  110.5572
 CYCLE:   535 TIME:   0.805 TIME LEFT:  1.99D  GRAD.:    34.641 HEAT:  110.5624
 CYCLE:   536 TIME:   1.062 TIME LEFT:  1.99D  GRAD.:    14.616 HEAT:  110.5567
 CYCLE:   537 TIME:   1.109 TIME LEFT:  1.99D  GRAD.:    28.902 HEAT:  110.5626
 CYCLE:   538 TIME:   1.184 TIME LEFT:  1.99D  GRAD.:     5.133 HEAT:  110.5553
 CYCLE:   539 TIME:   0.719 TIME LEFT:  1.99D  GRAD.:     4.491 HEAT:  110.5551
 CYCLE:   540 TIME:   0.934 TIME LEFT:  1.99D  GRAD.:     9.095 HEAT:  110.5552
 CYCLE:   541 TIME:   0.785 TIME LEFT:  1.99D  GRAD.:     2.893 HEAT:  110.5549
 CYCLE:   542 TIME:   1.031 TIME LEFT:  1.99D  GRAD.:     1.075 HEAT:  110.5549
 CYCLE:   543 TIME:   1.816 TIME LEFT:  1.99D  GRAD.:     1.737 HEAT:  110.5549
 CYCLE:   544 TIME:   1.125 TIME LEFT:  1.99D  GRAD.:     1.724 HEAT:  110.5548
 CYCLE:   545 TIME:   1.066 TIME LEFT:  1.99D  GRAD.:     3.171 HEAT:  110.5548
 CYCLE:   546 TIME:   0.988 TIME LEFT:  1.99D  GRAD.:     1.127 HEAT:  110.5545
 CYCLE:   547 TIME:   1.117 TIME LEFT:  1.99D  GRAD.:     0.868 HEAT:  110.5545
 CYCLE:   548 TIME:   1.148 TIME LEFT:  1.99D  GRAD.:     5.082 HEAT:  110.5548
 CYCLE:   549 TIME:   0.645 TIME LEFT:  1.99D  GRAD.:     1.871 HEAT:  110.5542
 CYCLE:   550 TIME:   1.117 TIME LEFT:  1.99D  GRAD.:     1.666 HEAT:  110.5541
 CYCLE:   551 TIME:   0.703 TIME LEFT:  1.99D  GRAD.:     1.390 HEAT:  110.5539
 CYCLE:   552 TIME:   0.996 TIME LEFT:  1.99D  GRAD.:     3.252 HEAT:  110.5536
 CYCLE:   553 TIME:   1.164 TIME LEFT:  1.99D  GRAD.:     1.164 HEAT:  110.5535
 CYCLE:   554 TIME:   0.977 TIME LEFT:  1.99D  GRAD.:     1.263 HEAT:  110.5534
 CYCLE:   555 TIME:   2.441 TIME LEFT:  1.99D  GRAD.:     1.845 HEAT:  110.5531
 CYCLE:   556 TIME:   2.246 TIME LEFT:  1.99D  GRAD.:    19.642 HEAT:  110.5540
 CYCLE:   557 TIME:   0.758 TIME LEFT:  1.99D  GRAD.:     2.994 HEAT:  110.5531
 CYCLE:   558 TIME:   1.098 TIME LEFT:  1.99D  GRAD.:     6.874 HEAT:  110.5532
 CYCLE:   559 TIME:   0.820 TIME LEFT:  1.99D  GRAD.:     2.722 HEAT:  110.5528
 CYCLE:   560 TIME:   0.848 TIME LEFT:  1.99D  GRAD.:     3.549 HEAT:  110.5528
 CYCLE:   561 TIME:   0.852 TIME LEFT:  1.99D  GRAD.:     2.169 HEAT:  110.5526
 CYCLE:   562 TIME:   0.816 TIME LEFT:  1.99D  GRAD.:     1.204 HEAT:  110.5524
 CYCLE:   563 TIME:   0.859 TIME LEFT:  1.99D  GRAD.:     2.262 HEAT:  110.5522
 CYCLE:   564 TIME:   0.801 TIME LEFT:  1.99D  GRAD.:     1.768 HEAT:  110.5521
 CYCLE:   565 TIME:   1.066 TIME LEFT:  1.99D  GRAD.:     1.126 HEAT:  110.5518
 CYCLE:   566 TIME:   0.938 TIME LEFT:  1.99D  GRAD.:     1.616 HEAT:  110.5517
 CYCLE:   567 TIME:   1.023 TIME LEFT:  1.99D  GRAD.:     2.313 HEAT:  110.5514
 CYCLE:   568 TIME:   1.055 TIME LEFT:  1.99D  GRAD.:     2.386 HEAT:  110.5510
 CYCLE:   569 TIME:   0.898 TIME LEFT:  1.99D  GRAD.:     4.119 HEAT:  110.5508
 CYCLE:   570 TIME:   0.988 TIME LEFT:  1.99D  GRAD.:     4.479 HEAT:  110.5504
 CYCLE:   571 TIME:   0.578 TIME LEFT:  1.99D  GRAD.:     2.155 HEAT:  110.5504
 CYCLE:   572 TIME:   0.941 TIME LEFT:  1.99D  GRAD.:     9.166 HEAT:  110.5508
 CYCLE:   573 TIME:   0.637 TIME LEFT:  1.99D  GRAD.:     2.011 HEAT:  110.5501
 CYCLE:   574 TIME:   0.895 TIME LEFT:  1.99D  GRAD.:     1.089 HEAT:  110.5500
 CYCLE:   575 TIME:   0.633 TIME LEFT:  1.99D  GRAD.:     2.520 HEAT:  110.5499
 CYCLE:   576 TIME:   1.027 TIME LEFT:  1.99D  GRAD.:     4.889 HEAT:  110.5496
 CYCLE:   577 TIME:   0.758 TIME LEFT:  1.99D  GRAD.:     4.512 HEAT:  110.5494
 CYCLE:   578 TIME:   0.758 TIME LEFT:  1.99D  GRAD.:     2.247 HEAT:  110.5492
 CYCLE:   579 TIME:   0.746 TIME LEFT:  1.99D  GRAD.:     1.488 HEAT:  110.5490
 CYCLE:   580 TIME:   1.102 TIME LEFT:  1.99D  GRAD.:     1.883 HEAT:  110.5489
 CYCLE:   581 TIME:   1.066 TIME LEFT:  1.99D  GRAD.:     1.501 HEAT:  110.5488
 CYCLE:   582 TIME:   0.980 TIME LEFT:  1.99D  GRAD.:     2.026 HEAT:  110.5485
 CYCLE:   583 TIME:   0.930 TIME LEFT:  1.99D  GRAD.:     2.191 HEAT:  110.5481
 CYCLE:   584 TIME:   1.137 TIME LEFT:  1.99D  GRAD.:    10.546 HEAT:  110.5481
 CYCLE:   585 TIME:   1.012 TIME LEFT:  1.99D  GRAD.:     6.545 HEAT:  110.5481
 CYCLE:   586 TIME:   0.938 TIME LEFT:  1.99D  GRAD.:     2.326 HEAT:  110.5476
 CYCLE:   587 TIME:   1.219 TIME LEFT:  1.99D  GRAD.:     5.843 HEAT:  110.5478
 CYCLE:   588 TIME:   0.961 TIME LEFT:  1.99D  GRAD.:     2.941 HEAT:  110.5474
 CYCLE:   589 TIME:   0.824 TIME LEFT:  1.99D  GRAD.:     1.382 HEAT:  110.5474
 CYCLE:   590 TIME:   0.934 TIME LEFT:  1.99D  GRAD.:     3.105 HEAT:  110.5473
 CYCLE:   591 TIME:   1.059 TIME LEFT:  1.99D  GRAD.:     1.451 HEAT:  110.5471
 CYCLE:   592 TIME:   1.352 TIME LEFT:  1.99D  GRAD.:     1.751 HEAT:  110.5467
 CYCLE:   593 TIME:   1.406 TIME LEFT:  1.99D  GRAD.:     3.645 HEAT:  110.5464
 CYCLE:   594 TIME:   0.875 TIME LEFT:  1.99D  GRAD.:     5.461 HEAT:  110.5462
 CYCLE:   595 TIME:   0.844 TIME LEFT:  1.99D  GRAD.:     2.024 HEAT:  110.5459
 CYCLE:   596 TIME:   1.176 TIME LEFT:  1.99D  GRAD.:     2.726 HEAT:  110.5457
 CYCLE:   597 TIME:   0.855 TIME LEFT:  1.99D  GRAD.:     2.288 HEAT:  110.5454
 CYCLE:   598 TIME:   1.258 TIME LEFT:  1.99D  GRAD.:     4.565 HEAT:  110.5449
 CYCLE:   599 TIME:   0.785 TIME LEFT:  1.99D  GRAD.:     2.759 HEAT:  110.5445
 CYCLE:   600 TIME:   0.895 TIME LEFT:  1.99D  GRAD.:     2.189 HEAT:  110.5445
 CYCLE:   601 TIME:   0.875 TIME LEFT:  1.99D  GRAD.:     2.127 HEAT:  110.5443
 CYCLE:   602 TIME:   0.711 TIME LEFT:  1.99D  GRAD.:     1.592 HEAT:  110.5441
 CYCLE:   603 TIME:   1.055 TIME LEFT:  1.99D  GRAD.:     1.661 HEAT:  110.5438
 CYCLE:   604 TIME:   1.152 TIME LEFT:  1.99D  GRAD.:     3.165 HEAT:  110.5435
 CYCLE:   605 TIME:   0.945 TIME LEFT:  1.99D  GRAD.:    45.614 HEAT:  110.5520
 CYCLE:   606 TIME:   0.973 TIME LEFT:  1.99D  GRAD.:     4.855 HEAT:  110.5434
 CYCLE:   607 TIME:   1.207 TIME LEFT:  1.99D  GRAD.:     3.229 HEAT:  110.5433
 CYCLE:   608 TIME:   1.129 TIME LEFT:  1.99D  GRAD.:     7.470 HEAT:  110.5435
 CYCLE:   609 TIME:   0.711 TIME LEFT:  1.99D  GRAD.:     2.792 HEAT:  110.5427
 CYCLE:   610 TIME:   1.066 TIME LEFT:  1.99D  GRAD.:     2.108 HEAT:  110.5425
 CYCLE:   611 TIME:   1.027 TIME LEFT:  1.99D  GRAD.:     1.225 HEAT:  110.5425
 CYCLE:   612 TIME:   1.027 TIME LEFT:  1.99D  GRAD.:     5.968 HEAT:  110.5425
 CYCLE:   613 TIME:   0.945 TIME LEFT:  1.99D  GRAD.:     2.417 HEAT:  110.5422
 CYCLE:   614 TIME:   1.082 TIME LEFT:  1.99D  GRAD.:     2.097 HEAT:  110.5420
 CYCLE:   615 TIME:   0.859 TIME LEFT:  1.99D  GRAD.:     1.962 HEAT:  110.5418
 CYCLE:   616 TIME:   1.098 TIME LEFT:  1.99D  GRAD.:     2.528 HEAT:  110.5416
 CYCLE:   617 TIME:   0.957 TIME LEFT:  1.99D  GRAD.:     3.137 HEAT:  110.5412
 CYCLE:   618 TIME:   0.879 TIME LEFT:  1.99D  GRAD.:     3.890 HEAT:  110.5409
 CYCLE:   619 TIME:   1.059 TIME LEFT:  1.99D  GRAD.:     5.127 HEAT:  110.5406
 CYCLE:   620 TIME:   1.035 TIME LEFT:  1.99D  GRAD.:     2.428 HEAT:  110.5405
 CYCLE:   621 TIME:   0.832 TIME LEFT:  1.99D  GRAD.:     9.983 HEAT:  110.5406
 CYCLE:   622 TIME:   0.965 TIME LEFT:  1.99D  GRAD.:     2.610 HEAT:  110.5402
 CYCLE:   623 TIME:   0.863 TIME LEFT:  1.99D  GRAD.:     1.834 HEAT:  110.5400
 CYCLE:   624 TIME:   0.773 TIME LEFT:  1.99D  GRAD.:     1.502 HEAT:  110.5399
 CYCLE:   625 TIME:   1.188 TIME LEFT:  1.99D  GRAD.:    10.453 HEAT:  110.5426
 CYCLE:   626 TIME:   0.793 TIME LEFT:  1.99D  GRAD.:     4.312 HEAT:  110.5396
 CYCLE:   627 TIME:   0.855 TIME LEFT:  1.99D  GRAD.:     3.070 HEAT:  110.5392
 CYCLE:   628 TIME:   0.734 TIME LEFT:  1.99D  GRAD.:     1.812 HEAT:  110.5391
 CYCLE:   629 TIME:   1.086 TIME LEFT:  1.99D  GRAD.:     1.450 HEAT:  110.5390
 CYCLE:   630 TIME:   0.754 TIME LEFT:  1.99D  GRAD.:     2.224 HEAT:  110.5385
 CYCLE:   631 TIME:   0.789 TIME LEFT:  1.99D  GRAD.:     2.522 HEAT:  110.5379
 CYCLE:   632 TIME:   0.762 TIME LEFT:  1.99D  GRAD.:     9.483 HEAT:  110.5378
 CYCLE:   633 TIME:   0.910 TIME LEFT:  1.99D  GRAD.:    16.320 HEAT:  110.5398
 CYCLE:   634 TIME:   1.105 TIME LEFT:  1.99D  GRAD.:     9.270 HEAT:  110.5379
 CYCLE:   635 TIME:   1.055 TIME LEFT:  1.99D  GRAD.:    24.276 HEAT:  110.5403
 CYCLE:   636 TIME:   0.859 TIME LEFT:  1.99D  GRAD.:     3.453 HEAT:  110.5368
 CYCLE:   637 TIME:   0.969 TIME LEFT:  1.99D  GRAD.:     2.573 HEAT:  110.5368
 CYCLE:   638 TIME:   1.207 TIME LEFT:  1.99D  GRAD.:     7.554 HEAT:  110.5368
 CYCLE:   639 TIME:   0.770 TIME LEFT:  1.99D  GRAD.:    11.159 HEAT:  110.5365
 CYCLE:   640 TIME:   1.020 TIME LEFT:  1.99D  GRAD.:     2.627 HEAT:  110.5363
 CYCLE:   641 TIME:   1.191 TIME LEFT:  1.99D  GRAD.:     2.581 HEAT:  110.5361
 CYCLE:   642 TIME:   1.215 TIME LEFT:  1.99D  GRAD.:     1.481 HEAT:  110.5359
 CYCLE:   643 TIME:   1.410 TIME LEFT:  1.99D  GRAD.:     4.672 HEAT:  110.5357
 CYCLE:   644 TIME:   1.398 TIME LEFT:  1.99D  GRAD.:     5.011 HEAT:  110.5354
 CYCLE:   645 TIME:   1.445 TIME LEFT:  1.99D  GRAD.:     3.694 HEAT:  110.5352
 CYCLE:   646 TIME:   1.316 TIME LEFT:  1.99D  GRAD.:     2.126 HEAT:  110.5349
 CYCLE:   647 TIME:   0.898 TIME LEFT:  1.99D  GRAD.:     1.994 HEAT:  110.5348
 CYCLE:   648 TIME:   1.230 TIME LEFT:  1.99D  GRAD.:     4.918 HEAT:  110.5345
 CYCLE:   649 TIME:   1.270 TIME LEFT:  1.99D  GRAD.:     3.786 HEAT:  110.5342
 CYCLE:   650 TIME:   1.039 TIME LEFT:  1.99D  GRAD.:     8.813 HEAT:  110.5341
 CYCLE:   651 TIME:   0.859 TIME LEFT:  1.99D  GRAD.:     2.087 HEAT:  110.5338
 CYCLE:   652 TIME:   1.172 TIME LEFT:  1.99D  GRAD.:     1.636 HEAT:  110.5335
 CYCLE:   653 TIME:   1.344 TIME LEFT:  1.99D  GRAD.:     2.087 HEAT:  110.5332
 CYCLE:   654 TIME:   0.883 TIME LEFT:  1.99D  GRAD.:     3.057 HEAT:  110.5328
 CYCLE:   655 TIME:   1.441 TIME LEFT:  1.99D  GRAD.:     3.429 HEAT:  110.5325
 CYCLE:   656 TIME:   1.051 TIME LEFT:  1.99D  GRAD.:     9.595 HEAT:  110.5322
 CYCLE:   657 TIME:   1.758 TIME LEFT:  1.99D  GRAD.:    41.339 HEAT:  110.5470
 CYCLE:   658 TIME:   1.430 TIME LEFT:  1.99D  GRAD.:    27.015 HEAT:  110.5395
 CYCLE:   659 TIME:   1.113 TIME LEFT:  1.99D  GRAD.:    20.707 HEAT:  110.5361
 CYCLE:   660 TIME:   1.137 TIME LEFT:  1.99D  GRAD.:    38.356 HEAT:  110.5467
 CYCLE:   661 TIME:   1.555 TIME LEFT:  1.99D  GRAD.:   175.141 HEAT:  110.9810
 CYCLE:   662 TIME:   1.438 TIME LEFT:  1.99D  GRAD.:    54.491 HEAT:  110.5762
 CYCLE:   663 TIME:   1.246 TIME LEFT:  1.99D  GRAD.:    47.774 HEAT:  110.5648
 CYCLE:   664 TIME:   0.949 TIME LEFT:  1.99D  GRAD.:    29.008 HEAT:  110.5432
 CYCLE:   665 TIME:   1.000 TIME LEFT:  1.99D  GRAD.:    10.197 HEAT:  110.5325
 CYCLE:   666 TIME:   1.191 TIME LEFT:  1.99D  GRAD.:    38.289 HEAT:  110.5347
 CYCLE:   667 TIME:   1.359 TIME LEFT:  1.99D  GRAD.:   243.080 HEAT:  110.7364
 CYCLE:   668 TIME:   1.566 TIME LEFT:  1.99D  GRAD.:   227.236 HEAT:  110.7130
 CYCLE:   669 TIME:   1.230 TIME LEFT:  1.99D  GRAD.:   215.047 HEAT:  110.6744
 CYCLE:   670 TIME:   1.320 TIME LEFT:  1.99D  GRAD.:    88.880 HEAT:  110.6766
 CYCLE:   671 TIME:   1.289 TIME LEFT:  1.99D  GRAD.:    50.500 HEAT:  110.5764
 CYCLE:   672 TIME:   1.441 TIME LEFT:  1.99D  GRAD.:    88.688 HEAT:  110.6479
 CYCLE:   673 TIME:   1.652 TIME LEFT:  1.99D  GRAD.:   432.148 HEAT:  113.5406
 CYCLE:   674 TIME:   1.531 TIME LEFT:  1.99D  GRAD.:   268.481 HEAT:  111.7354
 CYCLE:   675 TIME:   1.340 TIME LEFT:  1.99D  GRAD.:   168.073 HEAT:  111.0045
 CYCLE:   676 TIME:   1.465 TIME LEFT:  1.99D  GRAD.:   106.420 HEAT:  110.6392
 CYCLE:   677 TIME:   1.164 TIME LEFT:  1.99D  GRAD.:    55.679 HEAT:  110.5742
 CYCLE:   678 TIME:   1.227 TIME LEFT:  1.99D  GRAD.:   150.791 HEAT:  110.8798
 CYCLE:   679 TIME:   1.336 TIME LEFT:  1.99D  GRAD.:    29.889 HEAT:  110.5440
 CYCLE:   680 TIME:   1.535 TIME LEFT:  1.99D  GRAD.:    85.576 HEAT:  110.6680
 CYCLE:   681 TIME:   1.312 TIME LEFT:  1.99D  GRAD.:    11.473 HEAT:  110.5308
 CYCLE:   682 TIME:   1.461 TIME LEFT:  1.99D  GRAD.:    43.870 HEAT:  110.5487
 CYCLE:   683 TIME:   1.473 TIME LEFT:  1.99D  GRAD.:     4.592 HEAT:  110.5287
 CYCLE:   684 TIME:   0.855 TIME LEFT:  1.99D  GRAD.:     6.330 HEAT:  110.5287
 CYCLE:   685 TIME:   0.977 TIME LEFT:  1.99D  GRAD.:     1.988 HEAT:  110.5286
 CYCLE:   686 TIME:   1.441 TIME LEFT:  1.99D  GRAD.:     2.158 HEAT:  110.5285
 CYCLE:   687 TIME:   1.453 TIME LEFT:  1.99D  GRAD.:     1.949 HEAT:  110.5284
 CYCLE:   688 TIME:   1.148 TIME LEFT:  1.99D  GRAD.:     1.459 HEAT:  110.5277
 CYCLE:   689 TIME:   1.582 TIME LEFT:  1.99D  GRAD.:     3.130 HEAT:  110.5270
 CYCLE:   690 TIME:   1.531 TIME LEFT:  1.99D  GRAD.:     3.161 HEAT:  110.5264
 CYCLE:   691 TIME:   1.250 TIME LEFT:  1.99D  GRAD.:     2.514 HEAT:  110.5257
 CYCLE:   692 TIME:   0.980 TIME LEFT:  1.99D  GRAD.:     2.613 HEAT:  110.5250
 CYCLE:   693 TIME:   1.422 TIME LEFT:  1.99D  GRAD.:     2.061 HEAT:  110.5242
 CYCLE:   694 TIME:   1.387 TIME LEFT:  1.99D  GRAD.:     3.049 HEAT:  110.5237
 CYCLE:   695 TIME:   1.098 TIME LEFT:  1.99D  GRAD.:     2.794 HEAT:  110.5232
 CYCLE:   696 TIME:   1.414 TIME LEFT:  1.99D  GRAD.:     6.700 HEAT:  110.5227
 CYCLE:   697 TIME:   1.484 TIME LEFT:  1.99D  GRAD.:    10.381 HEAT:  110.5214
 CYCLE:   698 TIME:   1.516 TIME LEFT:  1.99D  GRAD.:    10.071 HEAT:  110.5211
 CYCLE:   699 TIME:   1.195 TIME LEFT:  1.99D  GRAD.:    22.119 HEAT:  110.5225
 CYCLE:   700 TIME:   1.184 TIME LEFT:  1.99D  GRAD.:     7.120 HEAT:  110.5200
 CYCLE:   701 TIME:   1.539 TIME LEFT:  1.99D  GRAD.:    10.418 HEAT:  110.5209
 CYCLE:   702 TIME:   1.527 TIME LEFT:  1.99D  GRAD.:     6.096 HEAT:  110.5195
 CYCLE:   703 TIME:   1.359 TIME LEFT:  1.99D  GRAD.:    20.706 HEAT:  110.5214
 CYCLE:   704 TIME:   1.457 TIME LEFT:  1.99D  GRAD.:     9.308 HEAT:  110.5197
 CYCLE:   705 TIME:   1.590 TIME LEFT:  1.99D  GRAD.:     7.093 HEAT:  110.5198
 CYCLE:   706 TIME:   1.758 TIME LEFT:  1.99D  GRAD.:     7.013 HEAT:  110.5190
 CYCLE:   707 TIME:   1.777 TIME LEFT:  1.99D  GRAD.:    12.603 HEAT:  110.5206
 CYCLE:   708 TIME:   0.934 TIME LEFT:  1.99D  GRAD.:     2.256 HEAT:  110.5179
 CYCLE:   709 TIME:   1.539 TIME LEFT:  1.99D  GRAD.:     3.830 HEAT:  110.5178
 CYCLE:   710 TIME:   1.316 TIME LEFT:  1.99D  GRAD.:     2.857 HEAT:  110.5171
 CYCLE:   711 TIME:   1.117 TIME LEFT:  1.99D  GRAD.:     4.807 HEAT:  110.5165
 CYCLE:   712 TIME:   1.211 TIME LEFT:  1.99D  GRAD.:     2.959 HEAT:  110.5160
 CYCLE:   713 TIME:   1.023 TIME LEFT:  1.99D  GRAD.:     3.118 HEAT:  110.5154
 CYCLE:   714 TIME:   1.230 TIME LEFT:  1.99D  GRAD.:     7.071 HEAT:  110.5150
 CYCLE:   715 TIME:   1.375 TIME LEFT:  1.99D  GRAD.:     2.852 HEAT:  110.5145
 CYCLE:   716 TIME:   1.223 TIME LEFT:  1.99D  GRAD.:     4.239 HEAT:  110.5141
 CYCLE:   717 TIME:   1.137 TIME LEFT:  1.99D  GRAD.:    15.149 HEAT:  110.5148
 CYCLE:   718 TIME:   1.078 TIME LEFT:  1.99D  GRAD.:     1.704 HEAT:  110.5138
 CYCLE:   719 TIME:   1.562 TIME LEFT:  1.99D  GRAD.:     1.684 HEAT:  110.5137
 CYCLE:   720 TIME:   1.309 TIME LEFT:  1.99D  GRAD.:     1.413 HEAT:  110.5133
 CYCLE:   721 TIME:   1.395 TIME LEFT:  1.99D  GRAD.:     1.924 HEAT:  110.5127
 CYCLE:   722 TIME:   1.512 TIME LEFT:  1.99D  GRAD.:     4.372 HEAT:  110.5122
 CYCLE:   723 TIME:   1.117 TIME LEFT:  1.99D  GRAD.:     2.614 HEAT:  110.5113
 CYCLE:   724 TIME:   1.203 TIME LEFT:  1.99D  GRAD.:     5.038 HEAT:  110.5116
 CYCLE:   725 TIME:   1.344 TIME LEFT:  1.99D  GRAD.:     2.982 HEAT:  110.5107
 CYCLE:   726 TIME:   1.285 TIME LEFT:  1.99D  GRAD.:     9.795 HEAT:  110.5111
 CYCLE:   727 TIME:   1.402 TIME LEFT:  1.99D  GRAD.:     1.818 HEAT:  110.5104
 CYCLE:   728 TIME:   1.508 TIME LEFT:  1.99D  GRAD.:     1.762 HEAT:  110.5101
 CYCLE:   729 TIME:   1.352 TIME LEFT:  1.99D  GRAD.:     2.975 HEAT:  110.5094
 CYCLE:   730 TIME:   1.578 TIME LEFT:  1.99D  GRAD.:     4.760 HEAT:  110.5088
 CYCLE:   731 TIME:   1.355 TIME LEFT:  1.99D  GRAD.:     7.969 HEAT:  110.5084
 CYCLE:   732 TIME:   1.410 TIME LEFT:  1.99D  GRAD.:     2.138 HEAT:  110.5086
 CYCLE:   733 TIME:   1.297 TIME LEFT:  1.99D  GRAD.:    20.642 HEAT:  110.5091
 CYCLE:   734 TIME:   1.352 TIME LEFT:  1.99D  GRAD.:     9.889 HEAT:  110.5078
 CYCLE:   735 TIME:   1.301 TIME LEFT:  1.99D  GRAD.:     5.673 HEAT:  110.5080
 CYCLE:   736 TIME:   0.949 TIME LEFT:  1.99D  GRAD.:     6.782 HEAT:  110.5074
 CYCLE:   737 TIME:   1.262 TIME LEFT:  1.99D  GRAD.:     1.984 HEAT:  110.5073
 CYCLE:   738 TIME:   1.277 TIME LEFT:  1.99D  GRAD.:     4.699 HEAT:  110.5071
 CYCLE:   739 TIME:   0.996 TIME LEFT:  1.99D  GRAD.:     2.649 HEAT:  110.5067
 CYCLE:   740 TIME:   0.746 TIME LEFT:  1.99D  GRAD.:     1.859 HEAT:  110.5064
 CYCLE:   741 TIME:   1.023 TIME LEFT:  1.99D  GRAD.:     2.704 HEAT:  110.5058
 CYCLE:   742 TIME:   1.277 TIME LEFT:  1.99D  GRAD.:     5.789 HEAT:  110.5056
 CYCLE:   743 TIME:   1.281 TIME LEFT:  1.99D  GRAD.:    19.722 HEAT:  110.5082
 CYCLE:   744 TIME:   1.055 TIME LEFT:  1.99D  GRAD.:     4.457 HEAT:  110.5048
 CYCLE:   745 TIME:   0.844 TIME LEFT:  1.99D  GRAD.:     5.440 HEAT:  110.5042
 CYCLE:   746 TIME:   1.078 TIME LEFT:  1.99D  GRAD.:     3.385 HEAT:  110.5042
 CYCLE:   747 TIME:   0.941 TIME LEFT:  1.99D  GRAD.:     1.851 HEAT:  110.5037
 CYCLE:   748 TIME:   0.914 TIME LEFT:  1.99D  GRAD.:     1.778 HEAT:  110.5033
 CYCLE:   749 TIME:   0.949 TIME LEFT:  1.99D  GRAD.:     5.448 HEAT:  110.5028
 CYCLE:   750 TIME:   1.301 TIME LEFT:  1.99D  GRAD.:    13.386 HEAT:  110.5069
 CYCLE:   751 TIME:   1.180 TIME LEFT:  1.99D  GRAD.:    20.327 HEAT:  110.5051
 CYCLE:   752 TIME:   0.887 TIME LEFT:  1.99D  GRAD.:     9.994 HEAT:  110.5029
 CYCLE:   753 TIME:   1.184 TIME LEFT:  1.99D  GRAD.:     2.435 HEAT:  110.5022
 CYCLE:   754 TIME:   1.363 TIME LEFT:  1.99D  GRAD.:     4.082 HEAT:  110.5012
 CYCLE:   755 TIME:   1.172 TIME LEFT:  1.99D  GRAD.:    45.878 HEAT:  110.5114
 CYCLE:   756 TIME:   0.836 TIME LEFT:  1.99D  GRAD.:     1.957 HEAT:  110.5008
 CYCLE:   757 TIME:   0.828 TIME LEFT:  1.99D  GRAD.:     2.941 HEAT:  110.5006
 CYCLE:   758 TIME:   1.043 TIME LEFT:  1.99D  GRAD.:     4.315 HEAT:  110.5000
 CYCLE:   759 TIME:   1.059 TIME LEFT:  1.99D  GRAD.:     3.229 HEAT:  110.4995
 CYCLE:   760 TIME:   0.727 TIME LEFT:  1.99D  GRAD.:     1.744 HEAT:  110.4992
[...]
   91          H           0.132987        0.8670     0.86701
   92          H           0.132777        0.8672     0.86722
   93          H           0.127752        0.8722     0.87225
   94          H           0.128248        0.8718     0.87175
   95          H           0.135491        0.8645     0.86451
   96          H           0.121420        0.8786     0.87858
   97          H           0.114730        0.8853     0.88527
   98          H           0.132613        0.8674     0.86739
   99          H           0.129203        0.8708     0.87080
  100          H           0.133903        0.8661     0.86610
  101          H           0.141567        0.8584     0.85843
  102          H           0.139717        0.8603     0.86028
  
  104          H           0.122723        0.8773     0.87728
  105          H           0.126305        0.8737     0.87370
  106          H           0.125521        0.8745     0.87448
  107          H           0.121676        0.8783     0.87832
  108          H           0.116397        0.8836     0.88360
  109          H           0.128601        0.8714     0.87140
  110          H           0.047245        0.9528     0.95276
  111          H           0.075792        0.9242     0.92421
  112          H           0.055680        0.9443     0.94432
  113          H           0.052716        0.9473     0.94728
  114          H           0.079625        0.9204     0.92038
  115          H           0.054228        0.9458     0.94577
 DIPOLE           X         Y         Z       TOTAL
 POINT-CHG.    -5.838     0.469    -3.534     6.840
 HYBRID        -1.589    -0.757     1.546     2.343
 SUM           -7.427    -0.289    -1.988     7.694


          ATOMIC ORBITAL ELECTRON POPULATIONS

     Atom    s        px        py        pz   
    1  C   1.16080   0.81453   1.02970   1.00873
    2  O   1.86188   1.19288   1.26410   1.91511
    3  C   1.17006   0.93547   0.84856   0.98223
    4  C   1.17503   1.00971   0.93653   1.01904
    5  C   1.16860   0.93833   0.98396   1.03600
    6  C   1.14991   0.90751   0.85249   0.99803
    7  C   1.15764   0.94884   0.93391   1.02355
    8  C   1.16786   0.94142   0.97212   0.99969
    9  C   1.15490   0.94592   0.92563   1.02136
   10  C   1.16673   0.94068   1.00115   1.03802
   11  C   1.17098   0.87543   0.92419   0.94635
   12  O   1.86052   1.42317   1.23607   1.71042
   13  C   1.16100   1.02909   0.82173   1.00347
   14  C   1.17529   0.99743   0.93001   1.00202
   15  C   1.16996   0.93236   0.99990   1.01962
   16  C   1.15001   0.87404   0.92611   0.96884
   17  N   1.47543   1.17621   1.08781   1.51235
   18  C   1.14083   1.04670   0.81356   0.91387
   19  C   1.18042   0.99796   0.97574   0.93681
   20  C   1.17067   1.05796   0.91715   0.99871
   21  C   1.15076   0.99067   0.81099   0.93692
   22  C   1.15706   1.06162   0.92758   0.92727
   23  C   1.17287   0.99799   0.90876   0.99235
   24  C   1.15697   1.06253   0.91967   0.93499
   25  C   1.17275   0.99289   0.94476   0.96196
   26  C   1.14090   1.03350   0.91438   0.82527
   27  C   1.18062   0.98606   0.99640   0.92755
   28  C   1.17091   1.05813   0.93251   0.98138
   29  C   1.15082   0.98734   0.92003   0.83133
   30  N   1.47813   1.63559   1.06068   1.08199
   31  C   1.14233   0.94171   0.94877   0.82035
   32  C   1.18300   1.00334   1.02733   0.93026
   33  C   1.17821   0.95136   0.94909   0.97651
   34  C   1.16219   0.99100   0.99431   0.93331
   35  C   1.17666   0.97943   0.97991   0.92180
   36  C   1.18237   0.97725   0.99765   0.99122
   37  C   1.18135   0.99171   0.94038   0.92631
   38  C   1.12485   0.86404   1.03247   0.93355
   39  C   1.21300   1.05877   1.05576   1.00226
   40  C   1.18183   0.97081   0.99717   0.93566
   41  C   1.18236   0.98990   0.94357   0.98049
   42  C   1.20337   1.05209   1.01653   1.00676
   43  S   1.88557   1.31508   1.21794   1.06383
   44  C   1.20333   0.99399   1.02650   1.01265
   45  C   1.18478   0.98230   0.98710   0.96390
   46  C   1.18465   0.94391   0.93552   0.96240
   47  C   1.21629   1.01343   1.09221   1.08429
   48  S   1.88529   1.04415   1.32060   1.25380
   49  C   1.17024   0.90275   0.89769   0.90184
   50  C   1.14302   1.03520   0.99537   0.95005
   51  C   1.18075   0.79058   0.80212   0.82968
   52  O   1.90966   1.65354   1.55212   1.23026
   53  O   1.83990   1.37038   1.55764   1.56433
   54  C   1.19683   0.92005   0.92131   0.92250
   55  N   1.84814   1.10420   1.10089   1.08288
   56  C   1.20984   0.92864   0.92800   0.92302
   57  N   1.84811   1.11312   1.08871   1.08903
   58  N   1.47558   1.35350   1.37172   1.05079
   59  C   1.14994   0.92220   0.91262   0.93552
   60  C   1.16982   0.97268   0.98733   0.99123
   61  C   1.17515   1.00330   0.99322   0.93465
   62  C   1.17092   0.91140   0.90534   0.92870
   63  C   1.16677   0.98719   0.99925   0.99401
   64  C   1.15491   0.98593   0.98653   0.91816
   65  C   1.15768   0.99192   0.98966   0.92846
   66  C   1.15013   0.95360   0.97284   0.82872
   67  C   1.16893   0.98314   1.00454   0.97279
   68  C   1.17556   1.00655   1.02312   0.92846
   69  C   1.16999   0.95033   0.98479   0.83570
   70  C   1.16812   0.95951   0.99108   0.95895
   71  O   1.86242   1.81768   1.29285   1.26215
   72  C   1.16090   0.99283   0.85595   1.00420
   73  O   1.86050   1.58863   1.54003   1.24138
   74  C   1.16099   1.01837   1.00999   0.82589
   75  H   0.87468
   76  H   0.86831
   77  H   0.94503
   78  H   0.92324
   79  H   0.95245
   80  H   0.88439
   81  H   0.87953
   82  H   0.87088
   83  H   0.87463
   84  H   0.94766
   85  H   0.92015
   86  H   0.94564
   87  H   0.87309
   88  H   0.87658
   89  H   0.87287
   90  H   0.87308
   91  H   0.86701
   92  H   0.86722
   93  H   0.87225
   94  H   0.87175
   95  H   0.86451
   96  H   0.87858
   97  H   0.88527
   98  H   0.86739
   99  H   0.87080
  100  H   0.86610
  101  H   0.85843
  102  H   0.86028
  103  H   0.75311
  104  H   0.87728
  105  H   0.87370
  106  H   0.87448
  107  H   0.87832
  108  H   0.88360
  109  H   0.87140
  110  H   0.95276
  111  H   0.92421
  112  H   0.94432
  113  H   0.94728
  114  H   0.92038
  115  H   0.94577
 ******************** TDHF POLARIZABILITIES ********************



          MOLECULAR WEIGHT = 1004.14



          ROTATIONAL CONSTANTS IN CM(-1)

          A =    0.00087000   B =    0.00024682   C =    0.00020514



           PRINCIPAL MOMENTS OF INERTIA IN UNITS OF 10**(-40)*GRAM-CM**2

          A =    32175.6950   B =   113414.1404   C =   136458.0341


 ROTATION MATRIX FOR ORIENTATION OF MOLECULE:

         0.114466    0.175625    0.977780
        -0.493998    0.863995   -0.097356
        -0.861895   -0.471878    0.185656


          CARTESIAN COORDINATES 

    NO.       ATOM         X         Y         Z

     1         C        7.1897   -8.5781   -3.4026
     2         O        7.3505   -8.3313   -2.0285
     3         C        6.8115   -7.1624   -1.5600
     4         C        5.6581   -6.5737   -2.0966
     5         C        5.1291   -5.4242   -1.5300
     6         C        5.7699   -4.8992   -0.4127
     7         C        6.9454   -5.4961    0.1229
     8         C        7.4775   -6.6358   -0.4522
     9         C        7.3592   -4.6893    1.2434
    10         C        8.4248   -4.8027    2.1263
    11         C        8.5239   -3.8410    3.1223
    12         O        9.5124   -3.7859    4.0658
    13         C       10.4302   -4.8476    4.0939
    14         C        7.5903   -2.7901    3.2558
    15         C        6.5313   -2.6753    2.3771
    16         C        6.4285   -3.6266    1.3625
    17         N        5.4615   -3.7528    0.3445
    18         C        4.3459   -2.9049    0.1533
    19         C        3.0642   -3.4771    0.0478
    20         C        1.9469   -2.6828   -0.1454
    21         C        2.1383   -1.3048   -0.2040
    22         C        3.4333   -0.7275   -0.1059
    23         C        4.5492   -1.5270    0.0694
    24         C        3.2756    0.6992   -0.2408
    25         C        4.1848    1.7423   -0.2097
    26         C        3.6846    3.0355   -0.3653
    27         C        2.3093    3.2885   -0.5273
    28         C        1.3942    2.2499   -0.5407
    29         C        1.8887    0.9543   -0.4152
    30         N        1.1972   -0.2737   -0.3956
    31         C       -0.2003   -0.4396   -0.5327
    32         C       -0.8969   -1.2243    0.3904
    33         C       -2.2684   -1.3827    0.2462
    34         C       -2.9392   -0.7556   -0.8007
    35         C       -2.2357    0.0189   -1.7222
    36         C       -0.8648    0.1819   -1.5953
    37         C       -4.3774   -0.9178   -0.9592
    38         C       -5.2464   -0.7237    0.0451
    39         C       -6.6667   -0.9209   -0.1213
    40         C       -7.2401   -1.8947   -0.8921
    41         C       -8.6686   -1.8219   -0.8672
    42         C       -9.1107   -0.7969   -0.0773
    43         S       -7.8256    0.0782    0.6339
    44         C      -10.4729   -0.4444    0.1733
    45         C      -11.0678   -0.3104    1.3972
    46         C      -12.4508    0.0392    1.2829
    47         C      -12.8408    0.1548   -0.0237
    48         S      -11.5569   -0.1405   -1.1142
    49         C      -14.1467    0.5081   -0.5062
    50         C      -15.2803    0.0787    0.0761
    51         C      -16.6196    0.4768   -0.3851
    52         O      -17.6536    0.4771    0.2600
    53         O      -16.6437    0.8775   -1.6764
    54         C      -15.2897   -0.8078    1.1841
    55         N      -15.3117   -1.5428    2.0764
    56         C       -4.8174   -0.2977    1.3351
    57         N       -4.4797    0.0465    2.3862
    58         N        4.5851    4.1259   -0.3537
    59         C        4.4556    5.2987    0.4177
    60         C        3.5001    5.6294    1.3782
    61         C        3.6205    6.8542    2.0044
    62         C        4.6818    7.7264    1.6784
    63         C        5.6494    7.4022    0.7374
    64         C        5.5297    6.1706    0.1076
    65         C        6.3403    5.5132   -0.8864
    66         C        5.7328    4.2560   -1.1590
    67         C        6.2573    3.3805   -2.1049
    68         C        7.4137    3.7638   -2.7655
    69         C        8.0216    4.9936   -2.4756
    70         C        7.5005    5.8878   -1.5406
    71         O        9.1290    5.4528   -3.1396
    72         C       10.0769    4.4747   -3.4880
    73         O        4.6308    8.8984    2.3815
    74         C        5.7002    9.7921    2.2140
    75         H       -4.7240   -1.1998   -1.9609
    76         H      -14.1758    1.1591   -1.3921
    77         H        7.3969   -7.7075   -4.0460
    78         H        7.9285   -9.3648   -3.6202
    79         H        6.1869   -8.9680   -3.6438
    80         H        5.1549   -7.0077   -2.9642
    81         H        4.2440   -4.9467   -1.9565
    82         H        8.3778   -7.1049   -0.0484
    83         H        9.1268   -5.6287    2.0043
    84         H       11.0574   -4.9030    3.1886
    85         H       11.0754   -4.6078    4.9532
    86         H        9.9610   -5.8302    4.2680
    87         H        7.7097   -2.0629    4.0657
    88         H        5.7959   -1.8745    2.4849
    89         H        2.9424   -4.5632    0.1282
    90         H        0.9552   -3.1284   -0.2520
    91         H        5.5469   -1.0823    0.1282
    92         H        5.2500    1.5458   -0.0568
    93         H        1.9539    4.3177   -0.6523
    94         H        0.3241    2.4478   -0.6379
    95         H       -0.3788   -1.6957    1.2325
    96         H       -2.8151   -2.0097    0.9587
    97         H       -2.7651    0.5026   -2.5496
    98         H       -0.3140    0.7781   -2.3304
    99         H       -6.7001   -2.6539   -1.4530
   100         H       -9.3053   -2.5170   -1.4095
   101         H      -10.5746   -0.4591    2.3555
   102         H      -13.0837    0.2083    2.1526
   103         H      -17.5391    1.1265   -1.9473
   104         H        2.6926    4.9415    1.6397
   105         H        2.8899    7.1544    2.7628
   106         H        6.4842    8.0525    0.4723
   107         H        5.7701    2.4302   -2.3346
   108         H        7.8345    3.0945   -3.5203
   109         H        7.9787    6.8490   -1.3380
   110         H        9.8039    3.9415   -4.4136
   111         H       10.9978    5.0474   -3.6773
   112         H       10.2751    3.7325   -2.6975
   113         H        5.7664   10.2033    1.1930
   114         H        5.4611   10.6130    2.9077
   115         H        6.6776    9.3661    2.4951


 ENERGY OF "REORIENTED" SYSTEM WITHOUT FIELD:      110.3566371559


  NFREQ=  3  IWFLB=  0  IBET=  1  IGAM=  1
  ATOL= 0.10000D-02  BTOL= 0.10000D-02    MAXITU=  500    MAXITA=  150


 *****************************************************************
 CALCULATION OF STATIC FIELD QUANTITIES
 *****************************************************************

 +++++ ALPHA AT       0.00000 EV.

                           COMPONENTS OF ALPHA

                     *X           *Y           *Z
           *=X:    1088.1899     -27.4207     -31.5342
           *=Y:     -27.4205     728.4293     103.4051
           *=Z:     -31.5635     103.4035     534.3177

  ISOTROPIC AVERAGE ALPHA =     783.64564 A.U. =    116.12430 ANG.**3

 +++++ BETA (SECOND HARMONIC GENERATION) AT       0.00000 EV.

                              COMPONENTS OF BETA
            *XX         *XY         *YY         *XZ         *YZ         *ZZ
   *=X  6739.66232   -37.64140    21.96601   533.44198    76.16645  -530.92073
   *=Y   -37.55708    21.97713   110.24651    76.18193    55.05007    73.50431
   *=Z   533.00995    76.18314    55.17000  -531.08868    73.50394  -116.50660


 AVERAGE BETAX(SHG) VALUE AT   0.00000 EV =       3738.3618 a.u. =  0.322973E-28 ESU
 AVERAGE BETAY(SHG) VALUE AT   0.00000 EV =         87.6824 a.u. =  0.757525E-30 ESU
 AVERAGE BETAZ(SHG) VALUE AT   0.00000 EV =        283.1289 a.u. =  0.244607E-29 ESU



 AVERAGE BETA (SHG) VALUE AT   0.00000 EV =       3750.0932 a.u. =  0.323986E-28 ESU
   (1 a.u. = 8.639418X10-33 esu)



 +++++ ALPHA AT       0.00000 EV.

                           COMPONENTS OF ALPHA

                     *X           *Y           *Z
           *=X:    1088.1899     -27.4207     -31.5342
           *=Y:     -27.4205     728.4293     103.4051
           *=Z:     -31.5635     103.4035     534.3177

  ISOTROPIC AVERAGE ALPHA =     783.64564 A.U. =    116.12430 ANG.**3


 GAMMA (THIRD HARMONIC GENERATION) AT    0.00000 EV.


 GAMMA(X,X,X,X) =       3720155.76655
 GAMMA(Y,Y,Y,Y) =        671225.97167
 GAMMA(Z,Z,Z,Z) =         99014.09076
 GAMMA(X,X,Y,Y) =        286798.80725
 GAMMA(X,X,Z,Z) =         29257.04747
 GAMMA(Y,Y,X,X) =        286798.69208
 GAMMA(Y,Y,Z,Z) =         64948.06570
 GAMMA(Z,Z,X,X) =         29256.84750
 GAMMA(Z,Z,Y,Y) =         64948.03595


 AVERAGE GAMMA VALUE AT    0.00000 =       1050480.66498 a.u. =       529095.86755 ESU (X10-39)




 **********************************************************************
 CALCULATION FOR A FREQUENCY OF    0.25000 EV  =       0.00919 A.U. 
                  WAVELENGTH OF    4959.37 NM  =    2016.38525 CM(-1)
 **********************************************************************

 +++++ ALPHA AT       0.25000 EV.

                           COMPONENTS OF ALPHA

                     *X           *Y           *Z
           *=X:    1092.7754     -27.4999     -31.8112
           *=Y:     -27.4998     730.4867     103.6840
           *=Z:     -31.8361     103.6825     535.3644

  ISOTROPIC AVERAGE ALPHA =     786.20884 A.U. =    116.50413 ANG.**3

 +++++ BETA (SECOND HARMONIC GENERATION) AT       0.25000 EV.

                              COMPONENTS OF BETA
            *XX         *XY         *YY         *XZ         *YZ         *ZZ
   *=X  7076.34299   -41.55224    23.38502   548.98707    76.36099  -552.78900
   *=Y   -24.78780    34.04350   112.81646    79.40055    56.59107    75.17400
   *=Z   530.21220    78.17686    56.10759  -545.68532    74.64467  -121.19656


 AVERAGE BETAX(SHG) VALUE AT   0.25000 EV =       3935.2683 a.u. =  0.339984E-28 ESU
 AVERAGE BETAY(SHG) VALUE AT   0.25000 EV =         91.0041 a.u. =  0.786222E-30 ESU
 AVERAGE BETAZ(SHG) VALUE AT   0.25000 EV =        286.7773 a.u. =  0.247759E-29 ESU



 AVERAGE BETA (SHG) VALUE AT   0.25000 EV =       3946.7530 a.u. =  0.340976E-28 ESU
   (1 a.u. = 8.639418X10-33 esu)



 +++++ ALPHA AT       0.75000 EV.

                           COMPONENTS OF ALPHA

                     *X           *Y           *Z
           *=X:    1131.9114     -28.1571     -34.1461
           *=Y:     -28.1571     747.6986     105.9785
           *=Z:     -34.1751     105.9762     543.9950

  ISOTROPIC AVERAGE ALPHA =     807.86835 A.U. =    119.71374 ANG.**3


 GAMMA (THIRD HARMONIC GENERATION) AT    0.25000 EV.


 GAMMA(X,X,X,X) =       4120121.75005
 GAMMA(Y,Y,Y,Y) =        727162.01199
 GAMMA(Z,Z,Z,Z) =        103981.02522
 GAMMA(X,X,Y,Y) =        313723.15987
 GAMMA(X,X,Z,Z) =         29685.54912
 GAMMA(Y,Y,X,X) =        312910.52880
 GAMMA(Y,Y,Z,Z) =         68920.32570
 GAMMA(Z,Z,X,X) =         31968.44828
 GAMMA(Z,Z,Y,Y) =         68173.43011


 AVERAGE GAMMA VALUE AT    0.25000 =       1155329.24583 a.u. =       581904.97931 ESU (X10-39)




 **********************************************************************
 CALCULATION FOR A FREQUENCY OF    0.50000 EV  =       0.01837 A.U. 
                  WAVELENGTH OF    2479.68 NM  =    4032.77050 CM(-1)
 **********************************************************************

 +++++ ALPHA AT       0.50000 EV.

                           COMPONENTS OF ALPHA

                     *X           *Y           *Z
           *=X:    1106.9147     -27.7414     -32.6583
           *=Y:     -27.7413     736.7781     104.5313
           *=Z:     -32.6787     104.5299     538.5449

  ISOTROPIC AVERAGE ALPHA =     794.07927 A.U. =    117.67041 ANG.**3

 +++++ BETA (SECOND HARMONIC GENERATION) AT       0.50000 EV.

                              COMPONENTS OF BETA
            *XX         *XY         *YY         *XZ         *YZ         *ZZ
   *=X  8263.02920   -55.52121    27.38096   601.88639    76.46233  -627.90950
   *=Y    21.73686    78.20876   121.81764    90.55526    61.66373    80.78454
   *=Z   514.54771    84.57892    59.45004  -593.61127    78.26983  -136.66417


 AVERAGE BETAX(SHG) VALUE AT   0.50000 EV =       4631.5508 a.u. =  0.400139E-28 ESU
 AVERAGE BETAY(SHG) VALUE AT   0.50000 EV =        102.6943 a.u. =  0.887219E-30 ESU
 AVERAGE BETAZ(SHG) VALUE AT   0.50000 EV =        298.2211 a.u. =  0.257646E-29 ESU



 AVERAGE BETA (SHG) VALUE AT   0.50000 EV =       4642.2780 a.u. =  0.401066E-28 ESU
   (1 a.u. = 8.639418X10-33 esu)



 +++++ ALPHA AT       1.50000 EV.

                           COMPONENTS OF ALPHA

                     *X           *Y           *Z
           *=X:    1310.5844     -30.7316     -44.9965
           *=Y:     -30.7316     818.8669     114.5525
           *=Z:     -45.0515     114.5443     577.4639

  ISOTROPIC AVERAGE ALPHA =     902.30506 A.U. =    133.70781 ANG.**3


 GAMMA (THIRD HARMONIC GENERATION) AT    0.50000 EV.


 GAMMA(X,X,X,X) =       5881124.35398
 GAMMA(Y,Y,Y,Y) =        953472.92078
 GAMMA(Z,Z,Z,Z) =        121604.36088
 GAMMA(X,X,Y,Y) =        427320.40589
 GAMMA(X,X,Z,Z) =         29025.74684
 GAMMA(Y,Y,X,X) =        422458.15311
 GAMMA(Y,Y,Z,Z) =         83901.51356
 GAMMA(Z,Z,X,X) =         42655.66252
 GAMMA(Z,Z,Y,Y) =         79782.80320


 AVERAGE GAMMA VALUE AT    0.50000 =       1608269.18415 a.u. =       810037.35490 ESU (X10-39)



 **********************
 *                    *
 * JOB ENDED NORMALLY *
 *                    *
 **********************



 TOTAL JOB TIME:          3003.88 SECONDS

 == MOPAC DONE ==
