 *******************************************************************************
 ** Site#: 4824         For non-commercial use only    Version 21.013L 64BITS **
 *******************************************************************************
 ** Cite this program as: MOPAC2016, Version: 21.013L, James J. P. Stewart,   **
 ** Stewart Computational Chemistry, web: HTTP://OpenMOPAC.net. Days left:  87**
 *******************************************************************************
 **                                                                           **
 **                                MOPAC2016                                  **
 **                                                                           **
 *******************************************************************************

                              RM1 CALCULATION RESULTS

 *******************************************************************************
 *  CALCULATION DONE:                                Mon Oct 18 18:01:14 2021  *
 *  RM1        - The RM1 Hamiltonian to be used
 *  POLAR      - CALCULATE FIRST, SECOND AND THIRD-ORDER POLARIZABILITIES
 *  PRECISE    - TIGHTER CRITERIA TO BE USED
 *  XYZ        - CARTESIAN COORDINATE SYSTEM TO BE USED
 *  T=         - A TIME OF 172800.0 SECONDS REQUESTED
 *  DUMP=N     - RESTART FILE WRITTEN EVERY 7200.0 SECONDS REQUESTED
 *  GNORM      - EXIT WHEN GRADIENT NORM DROPS BELOW 0.100
 *******************************************************************************
RM1 PRECISE POLAR XYZ GNORM=0.1


   ATOM   CHEMICAL          X               Y               Z
  NUMBER   SYMBOL      (ANGSTROMS)     (ANGSTROMS)     (ANGSTROMS)
 
     1       C          0.05351929  *   0.23852665  *   0.84250470  *
     2       C          1.56571654  *   0.23306789  *   0.68868672  *
     3       C          2.11247370  *   1.65827576  *   0.66325626  *
     4       C          3.63111228  *   1.65332664  *   0.50109640  *
     5       C          4.17875569  *   3.07996471  *   0.49268213  *
     6       C          5.69237274  *   3.11388055  *   0.27881319  *
     7       C          6.13303361  *   3.56667998  *  -1.11981944  *
     8       C          5.54188216  *   2.69551110  *  -2.22580131  *
     9       C          6.06877121  *   3.08919158  *  -3.60333226  *
    10       C          5.41436062  *   2.25031341  *  -4.70077669  *
    11       C          3.93436978  *   2.59000051  *  -4.84456686  *
    12       C          3.20655052  *   1.61173568  *  -5.76224824  *
    13       C          3.73700242  *   1.65687185  *  -7.18501310  *
    14       C          5.83735319  *   5.03232236  *  -1.33693508  *
    15       C          4.61653506  *   5.65639834  *  -1.43004367  *
    16       C          4.60548850  *   7.05065072  *  -1.61747477  *
    17       C          5.78701363  *   7.78576858  *  -1.72258876  *
    18       C          7.01885176  *   7.13416568  *  -1.64998770  *
    19       C          7.03481386  *   5.76949233  *  -1.45612769  *
    20       C          8.15464985  *   4.85012530  *  -1.35205891  *
    21       C          7.64524799  *   3.54860224  *  -1.17026308  *
    22       C          8.49095131  *   2.47055504  *  -1.05490082  *
    23       C          9.87138804  *   2.70488830  *  -1.12232625  *
    24       C         10.37474555  *   3.98903170  *  -1.29741182  *
    25       C          9.51239547  *   5.08128946  *  -1.41430060  *
    26       C         10.79224909  *   1.57704135  *  -1.00558094  *
    27       C         11.80816738  *   1.40805046  *  -1.94466108  *
    28       C         12.68345334  *   0.33771686  *  -1.83213087  *
    29       C         12.54074035  *  -0.57305269  *  -0.78558598  *
    30       C         11.52934951  *  -0.39956599  *   0.15631502  *
    31       C         10.65590059  *   0.67444537  *   0.04601807  *
    32       C         13.46756262  *  -1.69358800  *  -0.68398281  *
    33       C         13.04967567  *  -2.92145533  *  -0.35593228  *
    34       C         13.98804687  *  -4.02884101  *  -0.23076845  *
    35       C         15.27772715  *  -3.94537416  *   0.16336004  *
    36       C         16.08781596  *  -5.13489876  *   0.24677508  *
    37       C         17.39674981  *  -5.09762883  *   0.61311112  *
    38       C         18.05846047  *  -3.88754092  *   0.93014413  *
    39       N         18.60300345  *  -2.89936674  *   1.18718881  *
    40       C         18.19131490  *  -6.26508209  *   0.70140044  *
    41       N         18.84487468  *  -7.21740477  *   0.77568499  *
    42       C         15.41549619  *  -6.36477689  *  -0.08577211  *
    43       C         14.11751092  *  -6.34987851  *  -0.46497101  *
    44       O         13.37730598  *  -5.20751800  *  -0.55065570  *
    45       C         13.35088260  *  -7.53616778  *  -0.81668841  *
    46       C         12.29242574  *  -7.50927305  *  -1.63971258  *
    47       C         11.54754781  *  -8.69002073  *  -1.98809158  *
    48       C         10.56807914  *  -8.73104525  *  -2.94662546  *
    49       C          9.99809448  * -10.03388672  *  -3.07723900  *
    50       C         10.56747438  * -10.92645086  *  -2.20932837  *
    51       S         11.78133199  * -10.20941329  *  -1.24493492  *
    52       C         10.23264588  * -12.30830759  *  -2.07248280  *
    53       C          9.98943745  * -12.97637737  *  -0.90356002  *
    54       C          9.69500138  * -14.35782545  *  -1.12956942  *
    55       C          9.72876291  * -14.67487453  *  -2.46058242  *
    56       S         10.10151576  * -13.32482923  *  -3.44089105  *
    57       C          9.46722326  * -15.95935684  *  -3.04774350  *
    58       C          9.86759653  * -17.11315500  *  -2.48524713  *
    59       C          9.56077198  * -18.43352264  *  -3.05752576  *
    60       O          9.52565138  * -19.50208453  *  -2.47271581  *
    61       O          9.29609552  * -18.39342970  *  -4.38296668  *
    62       C         10.63376611  * -17.16273433  *  -1.29215402  *
    63       N         11.27223058  * -17.21564477  *  -0.32958113  *
    64       N          3.36100722  *   7.71569524  *  -1.70084988  *
    65       C          2.29096650  *   7.58593497  *  -0.79142767  *
    66       C          2.18147205  *   6.81179244  *   0.35832671  *
    67       C          0.99402576  *   6.89395160  *   1.06807234  *
    68       C         -0.06839937  *   7.72219675  *   0.67087534  *
    69       C          0.06013512  *   8.50670078  *  -0.46891578  *
    70       C          1.23704385  *   8.44400681  *  -1.19816948  *
    71       C          1.67916721  *   9.12757296  *  -2.38958211  *
    72       C          2.99049199  *   8.66407450  *  -2.67682793  *
    73       C          3.68143586  *   9.11496098  *  -3.79344266  *
    74       C          3.05321037  *  10.05519374  *  -4.59950307  *
    75       C          1.76890679  *  10.53937345  *  -4.32319253  *
    76       C          1.07671807  *  10.06361732  *  -3.21058754  *
    77       C          1.08682196  *  11.56494625  *  -5.19130087  *
    78       C         -0.21205125  *  10.96552797  *  -5.73844796  *
    79       C          1.93404567  *  12.01396837  *  -6.38319508  *
    80       C          0.77690212  *  12.80229354  *  -4.34353966  *
    81       C         -1.31473485  *   7.72315169  *   1.51730378  *
    82       C         -0.95179915  *   8.16218719  *   2.93874870  *
    83       C         -2.39618190  *   8.67149219  *   0.99569160  *
    84       C         -1.90061802  *   6.30850877  *   1.53836787  *
    85       H         14.51732901  *  -1.46629301  *  -0.90866897  *
    86       H         11.99183478  *  -3.15445332  *  -0.18359078  *
    87       H         13.72283227  *  -8.46356854  *  -0.36536954  *
    88       H         11.93968073  *  -6.57769277  *  -2.10282563  *
    89       H          8.91366038  * -15.95410258  *  -3.99778279  *
    90       H         -0.35935413  *  -0.78052744  *   0.86136108  *
    91       H         -0.26934763  *   0.72642174  *   1.77349081  *
    92       H         -0.44801690  *   0.76581942  *   0.01815556  *
    93       H          2.03165739  *  -0.34810433  *   1.51248456  *
    94       H          1.85333593  *  -0.31099759  *  -0.23584648  *
    95       H          1.63614161  *   2.23639923  *  -0.15672477  *
    96       H          1.82357871  *   2.19654749  *   1.59065829  *
    97       H          4.10170908  *   1.06549679  *   1.31794205  *
    98       H          3.91714651  *   1.11879021  *  -0.42878536  *
    99       H          3.63988361  *   3.69631777  *  -0.26028126  *
   100       H          3.92865802  *   3.57569281  *   1.45633945  *
   101       H          6.15940715  *   3.78819767  *   1.02964198  *
   102       H          6.14257913  *   2.12189388  *   0.49795255  *
   103       H          5.77045675  *   1.62807094  *  -2.02008641  *
   104       H          4.43141171  *   2.75782427  *  -2.22163020  *
   105       H          5.90083650  *   4.17019943  *  -3.79428635  *
   106       H          7.17218529  *   2.96698892  *  -3.64459012  *
   107       H          5.94531375  *   2.42205833  *  -5.66098293  *
   108       H          5.55263934  *   1.16799656  *  -4.49519473  *
   109       H          3.44549849  *   2.59460023  *  -3.84386846  *
   110       H          3.81304782  *   3.63023611  *  -5.21434767  *
   111       H          3.27097174  *   0.57830936  *  -5.36019163  *
   112       H          2.11875278  *   1.84099233  *  -5.75878188  *
   113       H          4.74373898  *   1.22491639  *  -7.27579033  *
   114       H          3.09694145  *   1.08895594  *  -7.87661345  *
   115       H          3.79220491  *   2.68190322  *  -7.57887835  *
   116       H          3.68683330  *   5.07785766  *  -1.36319858  *
   117       H          5.75978993  *   8.87318935  *  -1.84716169  *
   118       H          7.94971761  *   7.70025171  *  -1.73808411  *
   119       H          8.10205684  *   1.45670868  *  -0.92861534  *
   120       H         11.45608554  *   4.15372644  *  -1.33460410  *
   121       H          9.90592338  *   6.09125899  *  -1.55128802  *
   122       H         11.91232497  *   2.11324612  *  -2.77512864  *
   123       H         13.48084063  *   0.20637216  *  -2.57024093  *
   124       H         11.42702459  *  -1.09522817  *   0.99488598  *
   125       H          9.86897867  *   0.81594614  *   0.79333366  *
   126       H         15.71475954  *  -2.98120364  *   0.43772928  *
   127       H         15.96307844  *  -7.31028559  *  -0.03383563  *
   128       H         10.24622259  *  -7.88361782  *  -3.54817762  *
   129       H          9.20111745  * -10.26275963  *  -3.78078348  *
   130       H         10.00656162  * -12.53332973  *   0.08973657  *
   131       H          9.45143551  * -15.04310848  *  -0.31932134  *
   132       H          9.10598605  * -19.27780222  *  -4.72766121  *
   133       H          2.99947496  *   6.17453233  *   0.70191449  *
   134       H          0.90624271  *   6.28232661  *   1.97224745  *
   135       H         -0.72248987  *   9.17979979  *  -0.82562843  *
   136       H          4.67582082  *   8.73770256  *  -4.04187018  *
   137       H          3.61426942  *  10.40188537  *  -5.47196903  *
   138       H          0.06799425  *  10.40324197  *  -2.96071285  *
   139       H         -0.02762910  *  10.03731172  *  -6.29782564  *
   140       H         -0.94039624  *  10.71999603  *  -4.95348462  *
   141       H         -0.72746758  *  11.65450744  *  -6.42359988  *
   142       H          2.17510101  *  11.18599342  *  -7.06506937  *
   143       H          1.41190000  *  12.76535683  *  -6.99523083  *
   144       H          2.88008530  *  12.48203024  *  -6.07581179  *
   145       H          0.31174919  *  13.60275627  *  -4.93734453  *
   146       H          0.08336953  *  12.59838948  *  -3.51628000  *
   147       H          1.68639265  *  13.22578169  *  -3.89409703  *
   148       H         -0.26269658  *   7.47107783  *   3.44320275  *
   149       H         -0.47005142  *   9.15027621  *   2.94855505  *
   150       H         -1.83732225  *   8.23188170  *   3.58745977  *
   151       H         -2.73589947  *   8.40828512  *  -0.01614224  *
   152       H         -3.29607329  *   8.65325361  *   1.62934862  *
   153       H         -2.06359584  *   9.71911254  *   0.97536912  *
   154       H         -2.12226368  *   5.94481499  *   0.52490706  *
   155       H         -1.23118233  *   5.56891445  *   1.99849266  *
   156       H         -2.84056488  *   6.26071405  *   2.10756456  *
 


          CARTESIAN COORDINATES 

    NO.       ATOM           X           Y           Z

     1         C          0.0535      0.2385      0.8425
     2         C          1.5657      0.2331      0.6887
     3         C          2.1125      1.6583      0.6633
     4         C          3.6311      1.6533      0.5011
     5         C          4.1788      3.0800      0.4927
     6         C          5.6924      3.1139      0.2788
     7         C          6.1330      3.5667     -1.1198
     8         C          5.5419      2.6955     -2.2258
     9         C          6.0688      3.0892     -3.6033
    10         C          5.4144      2.2503     -4.7008
    11         C          3.9344      2.5900     -4.8446
    12         C          3.2066      1.6117     -5.7622
    13         C          3.7370      1.6569     -7.1850
    14         C          5.8374      5.0323     -1.3369
    15         C          4.6165      5.6564     -1.4300
    16         C          4.6055      7.0507     -1.6175
    17         C          5.7870      7.7858     -1.7226
    18         C          7.0189      7.1342     -1.6500
    19         C          7.0348      5.7695     -1.4561
    20         C          8.1546      4.8501     -1.3521
    21         C          7.6452      3.5486     -1.1703
    22         C          8.4910      2.4706     -1.0549
    23         C          9.8714      2.7049     -1.1223
    24         C         10.3747      3.9890     -1.2974
    25         C          9.5124      5.0813     -1.4143
    26         C         10.7922      1.5770     -1.0056
    27         C         11.8082      1.4081     -1.9447
    28         C         12.6835      0.3377     -1.8321
    29         C         12.5407     -0.5731     -0.7856
    30         C         11.5293     -0.3996      0.1563
    31         C         10.6559      0.6744      0.0460
    32         C         13.4676     -1.6936     -0.6840
    33         C         13.0497     -2.9215     -0.3559
    34         C         13.9880     -4.0288     -0.2308
    35         C         15.2777     -3.9454      0.1634
    36         C         16.0878     -5.1349      0.2468
    37         C         17.3967     -5.0976      0.6131
    38         C         18.0585     -3.8875      0.9301
    39         N         18.6030     -2.8994      1.1872
    40         C         18.1913     -6.2651      0.7014
    41         N         18.8449     -7.2174      0.7757
    42         C         15.4155     -6.3648     -0.0858
    43         C         14.1175     -6.3499     -0.4650
    44         O         13.3773     -5.2075     -0.5507
    45         C         13.3509     -7.5362     -0.8167
    46         C         12.2924     -7.5093     -1.6397
    47         C         11.5475     -8.6900     -1.9881
    48         C         10.5681     -8.7310     -2.9466
    49         C          9.9981    -10.0339     -3.0772
    50         C         10.5675    -10.9265     -2.2093
    51         S         11.7813    -10.2094     -1.2449
    52         C         10.2326    -12.3083     -2.0725
    53         C          9.9894    -12.9764     -0.9036
    54         C          9.6950    -14.3578     -1.1296
    55         C          9.7288    -14.6749     -2.4606
    56         S         10.1015    -13.3248     -3.4409
    57         C          9.4672    -15.9594     -3.0477
    58         C          9.8676    -17.1132     -2.4852
    59         C          9.5608    -18.4335     -3.0575
    60         O          9.5257    -19.5021     -2.4727
    61         O          9.2961    -18.3934     -4.3830
    62         C         10.6338    -17.1627     -1.2922
    63         N         11.2722    -17.2156     -0.3296
    64         N          3.3610      7.7157     -1.7008
    65         C          2.2910      7.5859     -0.7914
    66         C          2.1815      6.8118      0.3583
    67         C          0.9940      6.8940      1.0681
    68         C         -0.0684      7.7222      0.6709
    69         C          0.0601      8.5067     -0.4689
    70         C          1.2370      8.4440     -1.1982
    71         C          1.6792      9.1276     -2.3896
    72         C          2.9905      8.6641     -2.6768
    73         C          3.6814      9.1150     -3.7934
    74         C          3.0532     10.0552     -4.5995
    75         C          1.7689     10.5394     -4.3232
    76         C          1.0767     10.0636     -3.2106
    77         C          1.0868     11.5649     -5.1913
    78         C         -0.2121     10.9655     -5.7384
    79         C          1.9340     12.0140     -6.3832
    80         C          0.7769     12.8023     -4.3435
    81         C         -1.3147      7.7232      1.5173
    82         C         -0.9518      8.1622      2.9387
    83         C         -2.3962      8.6715      0.9957
    84         C         -1.9006      6.3085      1.5384
    85         H         14.5173     -1.4663     -0.9087
    86         H         11.9918     -3.1545     -0.1836
    87         H         13.7228     -8.4636     -0.3654
    88         H         11.9397     -6.5777     -2.1028
    89         H          8.9137    -15.9541     -3.9978
    90         H         -0.3594     -0.7805      0.8614
    91         H         -0.2693      0.7264      1.7735
    92         H         -0.4480      0.7658      0.0182
    93         H          2.0317     -0.3481      1.5125
    94         H          1.8533     -0.3110     -0.2358
    95         H          1.6361      2.2364     -0.1567
    96         H          1.8236      2.1965      1.5907
    97         H          4.1017      1.0655      1.3179
    98         H          3.9171      1.1188     -0.4288
    99         H          3.6399      3.6963     -0.2603
   100         H          3.9287      3.5757      1.4563
   101         H          6.1594      3.7882      1.0296
   102         H          6.1426      2.1219      0.4980
   103         H          5.7705      1.6281     -2.0201
   104         H          4.4314      2.7578     -2.2216
   105         H          5.9008      4.1702     -3.7943
   106         H          7.1722      2.9670     -3.6446
   107         H          5.9453      2.4221     -5.6610
   108         H          5.5526      1.1680     -4.4952
   109         H          3.4455      2.5946     -3.8439
   110         H          3.8130      3.6302     -5.2143
   111         H          3.2710      0.5783     -5.3602
   112         H          2.1188      1.8410     -5.7588
   113         H          4.7437      1.2249     -7.2758
   114         H          3.0969      1.0890     -7.8766
   115         H          3.7922      2.6819     -7.5789
   116         H          3.6868      5.0779     -1.3632
   117         H          5.7598      8.8732     -1.8472
   118         H          7.9497      7.7003     -1.7381
   119         H          8.1021      1.4567     -0.9286
   120         H         11.4561      4.1537     -1.3346
   121         H          9.9059      6.0913     -1.5513
   122         H         11.9123      2.1132     -2.7751
   123         H         13.4808      0.2064     -2.5702
   124         H         11.4270     -1.0952      0.9949
   125         H          9.8690      0.8159      0.7933
   126         H         15.7148     -2.9812      0.4377
   127         H         15.9631     -7.3103     -0.0338
   128         H         10.2462     -7.8836     -3.5482
   129         H          9.2011    -10.2628     -3.7808
   130         H         10.0066    -12.5333      0.0897
   131         H          9.4514    -15.0431     -0.3193
   132         H          9.1060    -19.2778     -4.7277
   133         H          2.9995      6.1745      0.7019
   134         H          0.9062      6.2823      1.9722
   135         H         -0.7225      9.1798     -0.8256
   136         H          4.6758      8.7377     -4.0419
   137         H          3.6143     10.4019     -5.4720
   138         H          0.0680     10.4032     -2.9607
   139         H         -0.0276     10.0373     -6.2978
   140         H         -0.9404     10.7200     -4.9535
   141         H         -0.7275     11.6545     -6.4236
   142         H          2.1751     11.1860     -7.0651
   143         H          1.4119     12.7654     -6.9952
   144         H          2.8801     12.4820     -6.0758
   145         H          0.3117     13.6028     -4.9373
   146         H          0.0834     12.5984     -3.5163
   147         H          1.6864     13.2258     -3.8941
   148         H         -0.2627      7.4711      3.4432
   149         H         -0.4701      9.1503      2.9486
   150         H         -1.8373      8.2319      3.5875
   151         H         -2.7359      8.4083     -0.0161
   152         H         -3.2961      8.6533      1.6293
   153         H         -2.0636      9.7191      0.9754
   154         H         -2.1223      5.9448      0.5249
   155         H         -1.2312      5.5689      1.9985
   156         H         -2.8406      6.2607      2.1076

  H: (RM1): G.B. ROCHA, R.O. FREIRE, A.M.SIMAS, J.J.P. STEWART, J. COMP. CHEM. 27, 1101 (2006)
  C: (RM1): G.B. ROCHA, R.O. FREIRE, A.M.SIMAS, J.J.P. STEWART, J. COMP. CHEM. 27, 1101 (2006)
  N: (RM1): G.B. ROCHA, R.O. FREIRE, A.M.SIMAS, J.J.P. STEWART, J. COMP. CHEM. 27, 1101 (2006)
  O: (RM1): G.B. ROCHA, R.O. FREIRE, A.M.SIMAS, J.J.P. STEWART, J. COMP. CHEM. 27, 1101 (2006)
  S: (RM1): G.B. ROCHA, R.O. FREIRE, A.M.SIMAS, J.J.P. STEWART, J. COMP. CHEM. 27, 1101 (2006)

           Empirical Formula: C75 H72 N4 O3 S2  =   156 atoms



      MOLECULAR POINT GROUP   :   C1  


      RHF CALCULATION, NO. OF DOUBLY OCCUPIED LEVELS = 211


          Geometry optimization using L-BFGS
 CYCLE:     1 TIME:   0.855 TIME LEFT:  2.00D  GRAD.:     1.822 HEAT:  132.8842
 CYCLE:     2 TIME:   0.504 TIME LEFT:  2.00D  GRAD.:     1.748 HEAT:  132.8842
 CYCLE:     3 TIME:   0.465 TIME LEFT:  2.00D  GRAD.:     0.562 HEAT:  132.8837
 CYCLE:     4 TIME:   0.441 TIME LEFT:  2.00D  GRAD.:     1.758 HEAT:  132.8842
 CYCLE:     5 TIME:   0.422 TIME LEFT:  2.00D  GRAD.:     0.564 HEAT:  132.8837
 CYCLE:     6 TIME:   0.418 TIME LEFT:  2.00D  GRAD.:     0.549 HEAT:  132.8836
 CYCLE:     7 TIME:   0.445 TIME LEFT:  2.00D  GRAD.:     0.646 HEAT:  132.8833
 CYCLE:     8 TIME:   0.461 TIME LEFT:  2.00D  GRAD.:     2.208 HEAT:  132.8836
 CYCLE:     9 TIME:   0.414 TIME LEFT:  2.00D  GRAD.:     0.422 HEAT:  132.8832
 CYCLE:    10 TIME:   0.414 TIME LEFT:  2.00D  GRAD.:     0.329 HEAT:  132.8832
 CYCLE:    11 TIME:   0.426 TIME LEFT:  2.00D  GRAD.:     0.345 HEAT:  132.8831
 CYCLE:    12 TIME:   0.453 TIME LEFT:  2.00D  GRAD.:     0.357 HEAT:  132.8830
 CYCLE:    13 TIME:   0.504 TIME LEFT:  2.00D  GRAD.:     1.120 HEAT:  132.8830
 CYCLE:    14 TIME:   0.477 TIME LEFT:  2.00D  GRAD.:     0.234 HEAT:  132.8829
 CYCLE:    15 TIME:   0.520 TIME LEFT:  2.00D  GRAD.:     0.212 HEAT:  132.8828
 CYCLE:    16 TIME:   0.465 TIME LEFT:  2.00D  GRAD.:     0.312 HEAT:  132.8828
 CYCLE:    17 TIME:   0.473 TIME LEFT:  2.00D  GRAD.:     0.453 HEAT:  132.8827
 CYCLE:    18 TIME:   0.434 TIME LEFT:  2.00D  GRAD.:     0.320 HEAT:  132.8826
 CYCLE:    19 TIME:   0.445 TIME LEFT:  2.00D  GRAD.:     0.326 HEAT:  132.8826
 CYCLE:    20 TIME:   0.441 TIME LEFT:  2.00D  GRAD.:     0.491 HEAT:  132.8825
 CYCLE:    21 TIME:   0.449 TIME LEFT:  2.00D  GRAD.:     0.305 HEAT:  132.8825
 CYCLE:    22 TIME:   0.484 TIME LEFT:  2.00D  GRAD.:     0.323 HEAT:  132.8824
 CYCLE:    23 TIME:   0.477 TIME LEFT:  2.00D  GRAD.:     0.404 HEAT:  132.8823
 CYCLE:    24 TIME:   0.484 TIME LEFT:  2.00D  GRAD.:     0.983 HEAT:  132.8823
 CYCLE:    25 TIME:   0.457 TIME LEFT:  2.00D  GRAD.:     0.287 HEAT:  132.8822
 CYCLE:    26 TIME:   0.434 TIME LEFT:  2.00D  GRAD.:     0.254 HEAT:  132.8822
 CYCLE:    27 TIME:   0.434 TIME LEFT:  2.00D  GRAD.:     0.349 HEAT:  132.8822
 CYCLE:    28 TIME:   0.457 TIME LEFT:  2.00D  GRAD.:     0.448 HEAT:  132.8821
 CYCLE:    29 TIME:   0.586 TIME LEFT:  2.00D  GRAD.:     0.822 HEAT:  132.8820
 CYCLE:    30 TIME:   0.547 TIME LEFT:  2.00D  GRAD.:     0.446 HEAT:  132.8819
 CYCLE:    31 TIME:   0.477 TIME LEFT:  2.00D  GRAD.:     0.350 HEAT:  132.8818
 CYCLE:    32 TIME:   0.469 TIME LEFT:  2.00D  GRAD.:     0.354 HEAT:  132.8817
 CYCLE:    33 TIME:   0.449 TIME LEFT:  2.00D  GRAD.:     0.357 HEAT:  132.8816
 CYCLE:    34 TIME:   0.473 TIME LEFT:  2.00D  GRAD.:     0.824 HEAT:  132.8816
 CYCLE:    35 TIME:   0.438 TIME LEFT:  2.00D  GRAD.:     0.329 HEAT:  132.8815
 CYCLE:    36 TIME:   0.418 TIME LEFT:  2.00D  GRAD.:     0.247 HEAT:  132.8814
 CYCLE:    37 TIME:   0.473 TIME LEFT:  2.00D  GRAD.:     0.361 HEAT:  132.8814
 CYCLE:    38 TIME:   0.445 TIME LEFT:  2.00D  GRAD.:     0.462 HEAT:  132.8813
 CYCLE:    39 TIME:   0.484 TIME LEFT:  2.00D  GRAD.:     0.521 HEAT:  132.8812
 CYCLE:    40 TIME:   0.453 TIME LEFT:  2.00D  GRAD.:     0.282 HEAT:  132.8812
 CYCLE:    41 TIME:   0.445 TIME LEFT:  2.00D  GRAD.:     0.259 HEAT:  132.8811
 CYCLE:    42 TIME:   0.516 TIME LEFT:  2.00D  GRAD.:     0.487 HEAT:  132.8811
 CYCLE:    43 TIME:   0.430 TIME LEFT:  2.00D  GRAD.:     0.442 HEAT:  132.8810
 CYCLE:    44 TIME:   0.426 TIME LEFT:  2.00D  GRAD.:     0.275 HEAT:  132.8809
 CYCLE:    45 TIME:   0.441 TIME LEFT:  2.00D  GRAD.:     0.339 HEAT:  132.8809
 CYCLE:    46 TIME:   0.547 TIME LEFT:  2.00D  GRAD.:     0.682 HEAT:  132.8808
 CYCLE:    47 TIME:   0.461 TIME LEFT:  2.00D  GRAD.:     0.416 HEAT:  132.8808
 CYCLE:    48 TIME:   0.434 TIME LEFT:  2.00D  GRAD.:     0.224 HEAT:  132.8807
 CYCLE:    49 TIME:   0.469 TIME LEFT:  2.00D  GRAD.:     0.260 HEAT:  132.8807
 CYCLE:    50 TIME:   0.449 TIME LEFT:  2.00D  GRAD.:     0.280 HEAT:  132.8806
 CYCLE:    51 TIME:   0.477 TIME LEFT:  2.00D  GRAD.:     0.646 HEAT:  132.8806
 CYCLE:    52 TIME:   0.488 TIME LEFT:  2.00D  GRAD.:     0.182 HEAT:  132.8806
 CYCLE:    53 TIME:   0.520 TIME LEFT:  2.00D  GRAD.:     0.231 HEAT:  132.8805
 CYCLE:    54 TIME:   0.531 TIME LEFT:  2.00D  GRAD.:     0.155 HEAT:  132.8805
 CYCLE:    55 TIME:   0.516 TIME LEFT:  2.00D  GRAD.:     0.321 HEAT:  132.8805
 CYCLE:    56 TIME:   0.477 TIME LEFT:  2.00D  GRAD.:     0.275 HEAT:  132.8805
 CYCLE:    57 TIME:   0.543 TIME LEFT:  2.00D  GRAD.:     0.218 HEAT:  132.8804
 CYCLE:    58 TIME:   0.492 TIME LEFT:  2.00D  GRAD.:     0.200 HEAT:  132.8804
 CYCLE:    59 TIME:   0.504 TIME LEFT:  2.00D  GRAD.:     0.221 HEAT:  132.8804
 CYCLE:    60 TIME:   0.516 TIME LEFT:  2.00D  GRAD.:     0.312 HEAT:  132.8803
 CYCLE:    61 TIME:   0.496 TIME LEFT:  2.00D  GRAD.:     0.212 HEAT:  132.8803
 CYCLE:    62 TIME:   0.465 TIME LEFT:  2.00D  GRAD.:     0.157 HEAT:  132.8803
 CYCLE:    63 TIME:   0.504 TIME LEFT:  2.00D  GRAD.:     0.222 HEAT:  132.8802
 CYCLE:    64 TIME:   0.547 TIME LEFT:  2.00D  GRAD.:     0.333 HEAT:  132.8802
 CYCLE:    65 TIME:   0.551 TIME LEFT:  2.00D  GRAD.:     0.201 HEAT:  132.8802
 CYCLE:    66 TIME:   0.539 TIME LEFT:  2.00D  GRAD.:     0.224 HEAT:  132.8802
 CYCLE:    67 TIME:   0.445 TIME LEFT:  2.00D  GRAD.:     0.212 HEAT:  132.8801
 CYCLE:    68 TIME:   0.445 TIME LEFT:  2.00D  GRAD.:     0.199 HEAT:  132.8801
 CYCLE:    69 TIME:   0.449 TIME LEFT:  2.00D  GRAD.:     0.170 HEAT:  132.8801
 CYCLE:    70 TIME:   0.488 TIME LEFT:  2.00D  GRAD.:     0.423 HEAT:  132.8801
 CYCLE:    71 TIME:   0.449 TIME LEFT:  2.00D  GRAD.:     0.182 HEAT:  132.8801
 CYCLE:    72 TIME:   0.445 TIME LEFT:  2.00D  GRAD.:     0.121 HEAT:  132.8800
 CYCLE:    73 TIME:   0.477 TIME LEFT:  2.00D  GRAD.:     0.188 HEAT:  132.8800
 CYCLE:    74 TIME:   0.449 TIME LEFT:  2.00D  GRAD.:     1.036 HEAT:  132.8800
 CYCLE:    75 TIME:   0.418 TIME LEFT:  2.00D  GRAD.:     0.213 HEAT:  132.8800
 CYCLE:    76 TIME:   0.465 TIME LEFT:  2.00D  GRAD.:     0.167 HEAT:  132.8800
 CYCLE:    77 TIME:   0.457 TIME LEFT:  2.00D  GRAD.:     0.181 HEAT:  132.8799
 CYCLE:    78 TIME:   0.449 TIME LEFT:  2.00D  GRAD.:     0.317 HEAT:  132.8799
 CYCLE:    79 TIME:   0.488 TIME LEFT:  2.00D  GRAD.:     0.245 HEAT:  132.8799
 CYCLE:    80 TIME:   0.523 TIME LEFT:  2.00D  GRAD.:     0.165 HEAT:  132.8799
 CYCLE:    81 TIME:   0.492 TIME LEFT:  2.00D  GRAD.:     0.173 HEAT:  132.8798
 CYCLE:    82 TIME:   0.445 TIME LEFT:  2.00D  GRAD.:     0.194 HEAT:  132.8798
 CYCLE:    83 TIME:   0.461 TIME LEFT:  2.00D  GRAD.:     0.452 HEAT:  132.8798
 CYCLE:    84 TIME:   0.414 TIME LEFT:  2.00D  GRAD.:     0.147 HEAT:  132.8798
 CYCLE:    85 TIME:   0.430 TIME LEFT:  2.00D  GRAD.:     0.272 HEAT:  132.8798
 CYCLE:    86 TIME:   0.410 TIME LEFT:  2.00D  GRAD.:     0.167 HEAT:  132.8798
 CYCLE:    87 TIME:   0.430 TIME LEFT:  2.00D  GRAD.:     0.261 HEAT:  132.8797
 CYCLE:    88 TIME:   0.539 TIME LEFT:  2.00D  GRAD.:     0.177 HEAT:  132.8797
 CYCLE:    89 TIME:   0.570 TIME LEFT:  2.00D  GRAD.:     0.155 HEAT:  132.8797
 CYCLE:    90 TIME:   0.508 TIME LEFT:  2.00D  GRAD.:     0.217 HEAT:  132.8797
 CYCLE:    91 TIME:   0.508 TIME LEFT:  2.00D  GRAD.:     0.325 HEAT:  132.8796
 CYCLE:    92 TIME:   0.605 TIME LEFT:  2.00D  GRAD.:     0.195 HEAT:  132.8796
 CYCLE:    93 TIME:   0.492 TIME LEFT:  2.00D  GRAD.:     0.148 HEAT:  132.8796
 CYCLE:    94 TIME:   0.477 TIME LEFT:  2.00D  GRAD.:     0.189 HEAT:  132.8796
 CYCLE:    95 TIME:   0.469 TIME LEFT:  2.00D  GRAD.:     0.229 HEAT:  132.8796
 CYCLE:    96 TIME:   0.457 TIME LEFT:  2.00D  GRAD.:     0.263 HEAT:  132.8795
 CYCLE:    97 TIME:   0.461 TIME LEFT:  2.00D  GRAD.:     0.193 HEAT:  132.8795
 CYCLE:    98 TIME:   0.422 TIME LEFT:  2.00D  GRAD.:     0.189 HEAT:  132.8795
 CYCLE:    99 TIME:   0.434 TIME LEFT:  2.00D  GRAD.:     0.165 HEAT:  132.8794
 CYCLE:   100 TIME:   0.457 TIME LEFT:  2.00D  GRAD.:     0.397 HEAT:  132.8794
 CYCLE:   101 TIME:   0.445 TIME LEFT:  2.00D  GRAD.:     0.170 HEAT:  132.8794
 CYCLE:   102 TIME:   0.418 TIME LEFT:  2.00D  GRAD.:     0.131 HEAT:  132.8794
 CYCLE:   103 TIME:   0.457 TIME LEFT:  2.00D  GRAD.:     0.340 HEAT:  132.8793
 CYCLE:   104 TIME:   0.426 TIME LEFT:  2.00D  GRAD.:     0.634 HEAT:  132.8794
 CYCLE:   105 TIME:   0.504 TIME LEFT:  2.00D  GRAD.:     0.156 HEAT:  132.8793
 CYCLE:   106 TIME:   0.547 TIME LEFT:  2.00D  GRAD.:     0.117 HEAT:  132.8793
 CYCLE:   107 TIME:   0.469 TIME LEFT:  2.00D  GRAD.:     0.132 HEAT:  132.8793
 CYCLE:   108 TIME:   0.551 TIME LEFT:  2.00D  GRAD.:     0.357 HEAT:  132.8793
 CYCLE:   109 TIME:   0.473 TIME LEFT:  2.00D  GRAD.:     0.183 HEAT:  132.8792
 CYCLE:   110 TIME:   0.477 TIME LEFT:  2.00D  GRAD.:     0.112 HEAT:  132.8792
 CYCLE:   111 TIME:   0.492 TIME LEFT:  2.00D  GRAD.:     0.320 HEAT:  132.8792
 CYCLE:   112 TIME:   0.547 TIME LEFT:  2.00D  GRAD.:     0.150 HEAT:  132.8792
 CYCLE:   113 TIME:   0.535 TIME LEFT:  2.00D  GRAD.:     0.111 HEAT:  132.8792
 CYCLE:   114 TIME:   0.496 TIME LEFT:  2.00D  GRAD.:     0.181 HEAT:  132.8792
 CYCLE:   115 TIME:   0.414 TIME LEFT:  2.00D  GRAD.:     0.191 HEAT:  132.8792
 CYCLE:   116 TIME:   0.418 TIME LEFT:  2.00D  GRAD.:     0.165 HEAT:  132.8792
 CYCLE:   117 TIME:   0.418 TIME LEFT:  2.00D  GRAD.:     0.118 HEAT:  132.8791
 CYCLE:   118 TIME:   0.441 TIME LEFT:  2.00D  GRAD.:     0.142 HEAT:  132.8791
 CYCLE:   119 TIME:   0.414 TIME LEFT:  2.00D  GRAD.:     0.210 HEAT:  132.8791
 CYCLE:   120 TIME:   0.418 TIME LEFT:  2.00D  GRAD.:     0.153 HEAT:  132.8791
 CYCLE:   121 TIME:   0.422 TIME LEFT:  2.00D  GRAD.:     0.141 HEAT:  132.8791
 CYCLE:   122 TIME:   0.461 TIME LEFT:  2.00D  GRAD.:     0.251 HEAT:  132.8790
 CYCLE:   123 TIME:   0.422 TIME LEFT:  2.00D  GRAD.:     0.161 HEAT:  132.8790
 CYCLE:   124 TIME:   0.473 TIME LEFT:  2.00D  GRAD.:     0.141 HEAT:  132.8790
 CYCLE:   125 TIME:   0.422 TIME LEFT:  2.00D  GRAD.:     0.203 HEAT:  132.8790
 CYCLE:   126 TIME:   0.445 TIME LEFT:  2.00D  GRAD.:     0.158 HEAT:  132.8790
 CYCLE:   127 TIME:   0.422 TIME LEFT:  2.00D  GRAD.:     0.201 HEAT:  132.8789
 CYCLE:   128 TIME:   0.422 TIME LEFT:  2.00D  GRAD.:     0.143 HEAT:  132.8789
 CYCLE:   129 TIME:   0.449 TIME LEFT:  2.00D  GRAD.:     0.306 HEAT:  132.8789
 CYCLE:   130 TIME:   0.422 TIME LEFT:  2.00D  GRAD.:     0.222 HEAT:  132.8789
 CYCLE:   131 TIME:   0.453 TIME LEFT:  2.00D  GRAD.:     0.237 HEAT:  132.8789
 CYCLE:   132 TIME:   0.422 TIME LEFT:  2.00D  GRAD.:     0.309 HEAT:  132.8789
 CYCLE:   133 TIME:   0.422 TIME LEFT:  2.00D  GRAD.:     0.153 HEAT:  132.8788
 CYCLE:   134 TIME:   0.422 TIME LEFT:  2.00D  GRAD.:     0.093 HEAT:  132.8788

 -------------------------------------------------------------------------------
 RM1 PRECISE POLAR XYZ GNORM=0.1




     HERBERTS TEST WAS SATISFIED IN BFGS                      
     SCF FIELD WAS ACHIEVED                                   


                              RM1 CALCULATION
                                                       MOPAC2016 (Version: 21.013L)
                                                       Mon Oct 18 18:02:17 2021
                                                       No. of days remaining =  87




          FINAL HEAT OF FORMATION =        132.87883 KCAL/MOL =     555.96501 KJ/MOL


          TOTAL ENERGY            =     -12574.26996 EV
          ELECTRONIC ENERGY       =    -166867.37198 EV  POINT GROUP:     C1  
          CORE-CORE REPULSION     =     154293.10202 EV
          COSMO AREA              =       1163.46 SQUARE ANGSTROMS
          COSMO VOLUME            =       1437.99 CUBIC ANGSTROMS

          GRADIENT NORM           =          0.09320 = 0.00746 PER ATOM
          IONIZATION POTENTIAL    =          7.909093 EV
          HOMO LUMO ENERGIES (EV) =         -7.909 -1.605
          NO. OF FILLED LEVELS    =        211
          MOLECULAR WEIGHT        =       1141.5388

          MOLECULAR DIMENSIONS (Angstroms)

            Atom       Atom       Distance
            H   145    O    60    34.44660
            N    39    H   156    18.30687
            H   150    H   114    11.63983


          SCF CALCULATIONS        =        135
 
          WALL-CLOCK TIME         =  1 MINUTE AND  3.477 SECONDS
          COMPUTATION TIME        =  9 MINUTES AND 29.522 SECONDS




   ATOM   CHEMICAL          X               Y               Z
  NUMBER   SYMBOL      (ANGSTROMS)     (ANGSTROMS)     (ANGSTROMS)
 
     1       C          0.05130783  *   0.24285400  *   0.84607957  *
     2       C          1.56331710  *   0.23452800  *   0.69083506  *
     3       C          2.11156364  *   1.65904792  *   0.65869823  *
     4       C          3.63027854  *   1.65157030  *   0.49727115  *
     5       C          4.18074382  *   3.07715669  *   0.49094734  *
     6       C          5.69436160  *   3.10899672  *   0.27615686  *
     7       C          6.13509984  *   3.56561009  *  -1.12123742  *
     8       C          5.54439318  *   2.69671108  *  -2.22926390  *
     9       C          6.06888633  *   3.09628142  *  -3.60601393  *
    10       C          5.41252382  *   2.26148267  *  -4.70531253  *
    11       C          3.93046795  *   2.59600088  *  -4.83989388  *
    12       C          3.20081201  *   1.61580428  *  -5.75394501  *
    13       C          3.72461242  *   1.66166584  *  -7.17905121  *
    14       C          5.83865935  *   5.03146447  *  -1.33602845  *
    15       C          4.61738022  *   5.65442965  *  -1.43026392  *
    16       C          4.60535192  *   7.04859747  *  -1.61754328  *
    17       C          5.78637354  *   7.78480136  *  -1.72136658  *
    18       C          7.01872802  *   7.13424746  *  -1.64814445  *
    19       C          7.03562622  *   5.76955898  *  -1.45452321  *
    20       C          8.15607541  *   4.85081675  *  -1.35106234  *
    21       C          7.64735713  *   3.54864924  *  -1.17136291  *
    22       C          8.49374383  *   2.47117838  *  -1.05630364  *
    23       C          9.87408322  *   2.70673061  *  -1.12174348  *
    24       C         10.37672376  *   3.99121534  *  -1.29601753  *
    25       C          9.51366330  *   5.08297082  *  -1.41245665  *
    26       C         10.79480266  *   1.57903166  *  -1.00315456  *
    27       C         11.81253408  *   1.40984972  *  -1.94017025  *
    28       C         12.68615035  *   0.33824094  *  -1.82685963  *
    29       C         12.54004691  *  -0.57339636  *  -0.78145011  *
    30       C         11.52760312  *  -0.39894143  *   0.15917268  *
    31       C         10.65567699  *   0.67616973  *   0.04789542  *
    32       C         13.46461374  *  -1.69568612  *  -0.68000424  *
    33       C         13.04639390  *  -2.92184141  *  -0.34666031  *
    34       C         13.98513258  *  -4.02945570  *  -0.22412129  *
    35       C         15.27488530  *  -3.94578144  *   0.16874442  *
    36       C         16.08692336  *  -5.13432837  *   0.24629329  *
    37       C         17.39681571  *  -5.09658864  *   0.60965960  *
    38       C         18.05648734  *  -3.88734911  *   0.93341672  *
    39       N         18.59909658  *  -2.89970981  *   1.19699277  *
    40       C         18.19373323  *  -6.26324022  *   0.68761018  *
    41       N         18.84879308  *  -7.21502521  *   0.75239283  *
    42       C         15.41569606  *  -6.36394101  *  -0.08942549  *
    43       C         14.11683397  *  -6.34946068  *  -0.46455449  *
    44       O         13.37459417  *  -5.20792933  *  -0.54551783  *
    45       C         13.35017713  *  -7.53584307  *  -0.81677632  *
    46       C         12.29594067  *  -7.50959213  *  -1.64469851  *
    47       C         11.55028921  *  -8.69017123  *  -1.99255952  *
    48       C         10.56885438  *  -8.73146733  *  -2.94902966  *
    49       C          9.99889048  * -10.03450509  *  -3.07848539  *
    50       C         10.56979264  * -10.92703676  *  -2.21155975  *
    51       S         11.78572782  * -10.20965916  *  -1.24970149  *
    52       C         10.23619693  * -12.30924965  *  -2.07454898  *
    53       C          9.99316783  * -12.97693865  *  -0.90531589  *
    54       C          9.69927874  * -14.35854391  *  -1.13068607  *
    55       C          9.73386385  * -14.67608920  *  -2.46170369  *
    56       S         10.10722933  * -13.32665873  *  -3.44240995  *
    57       C          9.47178928  * -15.96023743  *  -3.04918970  *
    58       C          9.86503678  * -17.11516422  *  -2.48363632  *
    59       C          9.55752855  * -18.43495418  *  -3.05741524  *
    60       O          9.51417985  * -19.50288563  *  -2.47193275  *
    61       O          9.30282657  * -18.39519249  *  -4.38478968  *
    62       C         10.62312825  * -17.16763442  *  -1.28523541  *
    63       N         11.25458052  * -17.22314034  *  -0.31824041  *
    64       N          3.36034002  *   7.71246274  *  -1.70203604  *
    65       C          2.29063531  *   7.58406376  *  -0.79208576  *
    66       C          2.18083302  *   6.80954224  *   0.35733888  *
    67       C          0.99352714  *   6.89225390  *   1.06720849  *
    68       C         -0.06814615  *   7.72171987  *   0.67066930  *
    69       C          0.06090076  *   8.50697332  *  -0.46858481  *
    70       C          1.23747274  *   8.44321990  *  -1.19843237  *
    71       C          1.67970908  *   9.12575990  *  -2.39035532  *
    72       C          2.99038127  *   8.66086712  *  -2.67807692  *
    73       C          3.68076301  *   9.10964456  *  -3.79588075  *
    74       C          3.05285705  *  10.04957529  *  -4.60249279  *
    75       C          1.76953615  *  10.53574132  *  -4.32531601  *
    76       C          1.07748549  *  10.06146191  *  -3.21200424  *
    77       C          1.08893288  *  11.56233554  *  -5.19341284  *
    78       C         -0.20774759  *  10.96278127  *  -5.74537042  *
    79       C          1.93956945  *  12.01487452  *  -6.38161888  *
    80       C          0.77521047  *  12.79766393  *  -4.34400786  *
    81       C         -1.31419920  *   7.72273416  *   1.51753293  *
    82       C         -0.95159563  *   8.16862999  *   2.93693836  *
    83       C         -2.39840709  *   8.66575650  *   0.99201052  *
    84       C         -1.89633282  *   6.30652867  *   1.54487218  *
    85       H         14.51403900  *  -1.47187940  *  -0.91003135  *
    86       H         11.98954228  *  -3.15399407  *  -0.16769374  *
    87       H         13.71870279  *  -8.46233309  *  -0.36064537  *
    88       H         11.94671569  *  -6.57835684  *  -2.11136282  *
    89       H          8.92384752  * -15.95385526  *  -4.00276147  *
    90       H         -0.36309040  *  -0.77540913  *   0.87156207  *
    91       H         -0.26983073  *   0.73666202  *   1.77456403  *
    92       H         -0.45008144  *   0.76615222  *   0.01912627  *
    93       H          2.02904420  *  -0.34376666  *   1.51677125  *
    94       H          1.84992533  *  -0.31383274  *  -0.23146841  *
    95       H          1.63647950  *   2.23368896  *  -0.16444159  *
    96       H          1.82253446  *   2.20232157  *   1.58315847  *
    97       H          4.09928244  *   1.06216791  *   1.31385634  *
    98       H          3.91569183  *   1.11749287  *  -0.43308987  *
    99       H          3.64244812  *   3.69571100  *  -0.26060982  *
   100       H          3.93230385  *   3.57137166  *   1.45585583  *
   101       H          6.16297335  *   3.78010190  *   1.02890537  *
   102       H          6.14298448  *   2.11545892  *   0.49166642  *
   103       H          5.77494199  *   1.62894633  *  -2.02729009  *
   104       H          4.43364382  *   2.75704740  *  -2.22399626  *
   105       H          5.89965813  *   4.17796278  *  -3.79234566  *
   106       H          7.17231376  *   2.97475835  *  -3.64969153  *
   107       H          5.93852104  *   2.44108664  *  -5.66675708  *
   108       H          5.55586607  *   1.17851461  *  -4.50692181  *
   109       H          3.44750863  *   2.59751292  *  -3.83618462  *
   110       H          3.80325962  *   3.63614517  *  -5.20784560  *
   111       H          3.26978411  *   0.58255546  *  -5.35225652  *
   112       H          2.11247332  *   1.84221518  *  -5.74535874  *
   113       H          4.73309050  *   1.23468103  *  -7.27382496  *
   114       H          3.08412417  *   1.08952027  *  -7.86674795  *
   115       H          3.77313671  *   2.68647481  *  -7.57422672  *
   116       H          3.68822049  *   5.07477512  *  -1.36503117  *
   117       H          5.75803168  *   8.87219187  *  -1.84581942  *
   118       H          7.94939349  *   7.70075468  *  -1.73604227  *
   119       H          8.10566369  *   1.45679903  *  -0.93150439  *
   120       H         11.45796162  *   4.15651430  *  -1.33275723  *
   121       H          9.90712697  *   6.09317869  *  -1.54791138  *
   122       H         11.91920125  *   2.11594914  *  -2.76955304  *
   123       H         13.48513726  *   0.20693205  *  -2.56329080  *
   124       H         11.42343766  *  -1.09443875  *   0.99769076  *
   125       H          9.86773231  *   0.81829136  *   0.79404322  *
   126       H         15.71133471  *  -2.98196605  *   0.44550169  *
   127       H         15.96501394  *  -7.30888171  *  -0.04272122  *
   128       H         10.24574718  *  -7.88446052  *  -3.55056524  *
   129       H          9.20117181  * -10.26396240  *  -3.78107017  *
   130       H         10.00996779  * -12.53291914  *   0.08762086  *
   131       H          9.45471540  * -15.04305366  *  -0.32003128  *
   132       H          9.11297735  * -19.27952529  *  -4.72980021  *
   133       H          2.99821813  *   6.17132654  *   0.70044174  *
   134       H          0.90539848  *   6.27978892  *   1.97074544  *
   135       H         -0.72085234  *   9.18149306  *  -0.82448492  *
   136       H          4.67435200  *   8.73092643  *  -4.04492246  *
   137       H          3.61308172  *  10.39383946  *  -5.47646790  *
   138       H          0.06898696  *  10.40168289  *  -2.96216418  *
   139       H         -0.02039269  *  10.03844792  *  -6.31017405  *
   140       H         -0.93602807  *  10.71061783  *  -4.96243220  *
   141       H         -0.72444353  *  11.65446015  *  -6.42684067  *
   142       H          2.18416384  *  11.18872749  *  -7.06447868  *
   143       H          1.41854372  *  12.76667744  *  -6.99412076  *
   144       H          2.88401625  *  12.48339396  *  -6.06993007  *
   145       H          0.31662537  *  13.60132325  *  -4.93866010  *
   146       H          0.07447059  *  12.59261864  *  -3.52310177  *
   147       H          1.68216429  *  13.21716370  *  -3.88577611  *
   148       H         -0.25963051  *   7.48206384  *   3.44370929  *
   149       H         -0.47325655  *   9.15841018  *   2.94269120  *
   150       H         -1.83693191  *   8.23794348  *   3.58593652  *
   151       H         -2.73706378  *   8.39708372  *  -0.01878133  *
   152       H         -3.29818517  *   8.64769203  *   1.62586077  *
   153       H         -2.06897972  *   9.71430681  *   0.96729816  *
   154       H         -2.11554901  *   5.93713146  *   0.53293179  *
   155       H         -1.22551255  *   5.57101888  *   2.00960744  *
   156       H         -2.83693582  *   6.25866522  *   2.11301653  *

                             CARTESIAN COORDINATES

   1    C        0.051307831     0.242854000     0.846079575
   2    C        1.563317097     0.234528001     0.690835057
   3    C        2.111563641     1.659047918     0.658698228
   4    C        3.630278536     1.651570303     0.497271154
   5    C        4.180743817     3.077156695     0.490947336
   6    C        5.694361600     3.108996720     0.276156863
   7    C        6.135099836     3.565610093    -1.121237422
   8    C        5.544393185     2.696711077    -2.229263901
   9    C        6.068886328     3.096281418    -3.606013933
  10    C        5.412523821     2.261482670    -4.705312526
  11    C        3.930467951     2.596000880    -4.839893877
  12    C        3.200812006     1.615804282    -5.753945008
  13    C        3.724612420     1.661665844    -7.179051205
  14    C        5.838659351     5.031464468    -1.336028448
  15    C        4.617380221     5.654429654    -1.430263921
  16    C        4.605351925     7.048597468    -1.617543284
  17    C        5.786373538     7.784801361    -1.721366583
  18    C        7.018728020     7.134247459    -1.648144449
  19    C        7.035626215     5.769558976    -1.454523210
  20    C        8.156075406     4.850816748    -1.351062336
  21    C        7.647357126     3.548649242    -1.171362910
  22    C        8.493743828     2.471178382    -1.056303642
  23    C        9.874083215     2.706730605    -1.121743482
  24    C       10.376723758     3.991215341    -1.296017533
  25    C        9.513663299     5.082970819    -1.412456651
  26    C       10.794802662     1.579031664    -1.003154556
  27    C       11.812534078     1.409849717    -1.940170254
  28    C       12.686150350     0.338240941    -1.826859625
  29    C       12.540046907    -0.573396356    -0.781450111
  30    C       11.527603115    -0.398941430     0.159172683
  31    C       10.655676991     0.676169726     0.047895422
  32    C       13.464613739    -1.695686121    -0.680004244
  33    C       13.046393905    -2.921841413    -0.346660307
  34    C       13.985132581    -4.029455696    -0.224121289
  35    C       15.274885296    -3.945781440     0.168744418
  36    C       16.086923360    -5.134328368     0.246293289
  37    C       17.396815711    -5.096588645     0.609659603
  38    C       18.056487338    -3.887349107     0.933416716
  39    N       18.599096582    -2.899709807     1.196992768
  40    C       18.193733233    -6.263240218     0.687610182
  41    N       18.848793075    -7.215025207     0.752392825
  42    C       15.415696058    -6.363941009    -0.089425491
  43    C       14.116833966    -6.349460684    -0.464554487
  44    O       13.374594169    -5.207929333    -0.545517830
  45    C       13.350177134    -7.535843066    -0.816776321
  46    C       12.295940667    -7.509592131    -1.644698505
  47    C       11.550289214    -8.690171231    -1.992559516
  48    C       10.568854378    -8.731467333    -2.949029663
  49    C        9.998890479   -10.034505086    -3.078485394
  50    C       10.569792638   -10.927036759    -2.211559748
  51    S       11.785727817   -10.209659157    -1.249701491
  52    C       10.236196928   -12.309249653    -2.074548982
  53    C        9.993167829   -12.976938654    -0.905315886
  54    C        9.699278744   -14.358543908    -1.130686073
  55    C        9.733863851   -14.676089199    -2.461703686
  56    S       10.107229334   -13.326658732    -3.442409950
  57    C        9.471789283   -15.960237430    -3.049189704
  58    C        9.865036778   -17.115164215    -2.483636319
  59    C        9.557528553   -18.434954181    -3.057415242
  60    O        9.514179849   -19.502885632    -2.471932748
  61    O        9.302826571   -18.395192490    -4.384789682
  62    C       10.623128248   -17.167634418    -1.285235414
  63    N       11.254580518   -17.223140339    -0.318240409
  64    N        3.360340016     7.712462737    -1.702036043
  65    C        2.290635310     7.584063755    -0.792085762
  66    C        2.180833015     6.809542237     0.357338883
  67    C        0.993527145     6.892253902     1.067208487
  68    C       -0.068146146     7.721719871     0.670669305
  69    C        0.060900757     8.506973318    -0.468584806
  70    C        1.237472744     8.443219896    -1.198432366
  71    C        1.679709076     9.125759903    -2.390355321
  72    C        2.990381265     8.660867120    -2.678076916
  73    C        3.680763010     9.109644558    -3.795880753
  74    C        3.052857050    10.049575289    -4.602492791
  75    C        1.769536152    10.535741322    -4.325316007
  76    C        1.077485494    10.061461914    -3.212004239
  77    C        1.088932881    11.562335545    -5.193412836
  78    C       -0.207747595    10.962781273    -5.745370416
  79    C        1.939569451    12.014874524    -6.381618882
  80    C        0.775210468    12.797663931    -4.344007861
  81    C       -1.314199204     7.722734164     1.517532925
  82    C       -0.951595632     8.168629985     2.936938358
  83    C       -2.398407085     8.665756503     0.992010517
  84    C       -1.896332821     6.306528668     1.544872183
  85    H       14.514038996    -1.471879397    -0.910031355
  86    H       11.989542277    -3.153994065    -0.167693739
  87    H       13.718702793    -8.462333087    -0.360645371
  88    H       11.946715688    -6.578356842    -2.111362816
  89    H        8.923847520   -15.953855265    -4.002761474
  90    H       -0.363090400    -0.775409127     0.871562072
  91    H       -0.269830725     0.736662016     1.774564033
  92    H       -0.450081436     0.766152219     0.019126273
  93    H        2.029044202    -0.343766664     1.516771251
  94    H        1.849925334    -0.313832743    -0.231468412
  95    H        1.636479505     2.233688959    -0.164441592
  96    H        1.822534457     2.202321566     1.583158467
  97    H        4.099282445     1.062167909     1.313856343
  98    H        3.915691829     1.117492873    -0.433089866
  99    H        3.642448118     3.695711004    -0.260609822
 100    H        3.932303852     3.571371661     1.455855832
 101    H        6.162973346     3.780101905     1.028905367
 102    H        6.142984480     2.115458920     0.491666422
 103    H        5.774941993     1.628946326    -2.027290085
 104    H        4.433643825     2.757047402    -2.223996258
 105    H        5.899658134     4.177962781    -3.792345663
 106    H        7.172313755     2.974758355    -3.649691534
 107    H        5.938521041     2.441086644    -5.666757084
 108    H        5.555866067     1.178514608    -4.506921810
 109    H        3.447508634     2.597512916    -3.836184623
 110    H        3.803259616     3.636145167    -5.207845596
 111    H        3.269784106     0.582555456    -5.352256524
 112    H        2.112473324     1.842215185    -5.745358739
 113    H        4.733090497     1.234681026    -7.273824963
 114    H        3.084124171     1.089520270    -7.866747949
 115    H        3.773136707     2.686474809    -7.574226716
 116    H        3.688220490     5.074775115    -1.365031166
 117    H        5.758031675     8.872191873    -1.845819419
 118    H        7.949393494     7.700754684    -1.736042267
 119    H        8.105663691     1.456799034    -0.931504387
 120    H       11.457961619     4.156514296    -1.332757233
 121    H        9.907126974     6.093178689    -1.547911375
 122    H       11.919201255     2.115949139    -2.769553042
 123    H       13.485137262     0.206932046    -2.563290798
 124    H       11.423437663    -1.094438755     0.997690764
 125    H        9.867732314     0.818291361     0.794043216
 126    H       15.711334711    -2.981966052     0.445501692
 127    H       15.965013936    -7.308881705    -0.042721216
 128    H       10.245747179    -7.884460521    -3.550565238
 129    H        9.201171808   -10.263962405    -3.781070168
 130    H       10.009967786   -12.532919139     0.087620857
 131    H        9.454715404   -15.043053659    -0.320031276
 132    H        9.112977348   -19.279525285    -4.729800212
 133    H        2.998218128     6.171326540     0.700441739
 134    H        0.905398484     6.279788922     1.970745440
 135    H       -0.720852340     9.181493056    -0.824484923
 136    H        4.674352004     8.730926434    -4.044922456
 137    H        3.613081716    10.393839460    -5.476467898
 138    H        0.068986963    10.401682894    -2.962164180
 139    H       -0.020392686    10.038447918    -6.310174046
 140    H       -0.936028072    10.710617826    -4.962432204
 141    H       -0.724443533    11.654460152    -6.426840668
 142    H        2.184163837    11.188727490    -7.064478681
 143    H        1.418543717    12.766677438    -6.994120760
 144    H        2.884016254    12.483393961    -6.069930067
 145    H        0.316625374    13.601323248    -4.938660102
 146    H        0.074470588    12.592618643    -3.523101769
 147    H        1.682164289    13.217163702    -3.885776110
 148    H       -0.259630512     7.482063841     3.443709290
 149    H       -0.473256553     9.158410177     2.942691202
 150    H       -1.836931907     8.237943485     3.585936524
 151    H       -2.737063777     8.397083716    -0.018781329
 152    H       -3.298185169     8.647692028     1.625860773
 153    H       -2.068979722     9.714306811     0.967298157
 154    H       -2.115549006     5.937131458     0.532931792
 155    H       -1.225512550     5.571018879     2.009607441
 156    H       -2.836935822     6.258665225     2.113016532


           Empirical Formula: C75 H72 N4 O3 S2  =   156 atoms



      MOLECULAR POINT GROUP   :   C1  


                  EIGENVALUES  
 -40.11972 -39.92236 -39.36739 -39.28853 -37.83359 -37.34664 -37.33726 -37.22844
 -37.00254 -36.71564 -36.36466 -36.24845 -36.03052 -35.98322 -35.60130 -35.51870
 -34.84380 -34.63507 -34.37779 -34.21168 -33.80137 -33.65379 -33.24048 -32.24406
 -31.98748 -31.27928 -31.06481 -30.74556 -30.29242 -30.16123 -29.80577 -29.62339
 -29.24077 -28.95325 -28.66462 -28.02416 -27.87241 -27.64640 -27.57073 -27.00727
 -26.98514 -26.98059 -26.59741 -26.39957 -26.09553 -25.88502 -25.17313 -24.67966
 -24.48380 -24.03743 -23.79372 -23.66227 -23.58358 -23.15341 -23.12476 -22.79639
 -22.67783 -22.38106 -22.08480 -21.85436 -21.55997 -21.52092 -21.26933 -21.19601
 -20.87577 -20.77517 -20.58106 -20.52197 -20.22798 -20.20430 -20.09722 -19.90405
 -19.40824 -19.07397 -18.94692 -18.68948 -18.59185 -18.21521 -18.09081 -18.06522
 -17.86672 -17.67384 -17.63180 -17.57497 -17.28239 -17.15548 -16.90977 -16.80311
 -16.63372 -16.53385 -16.49861 -16.36633 -16.30356 -16.21355 -16.08587 -15.98837
 -15.96189 -15.81890 -15.76006 -15.64099 -15.51770 -15.48910 -15.43261 -15.27784
 -15.16790 -15.10630 -15.08028 -15.05780 -15.00919 -14.99546 -14.87868 -14.85530
 -14.79838 -14.78955 -14.74074 -14.71468 -14.68569 -14.68107 -14.61538 -14.57538
 -14.45878 -14.42724 -14.39321 -14.33916 -14.31416 -14.24118 -14.19278 -14.13268
 -14.07960 -14.03178 -14.01171 -13.99409 -13.92884 -13.86935 -13.79326 -13.73616
 -13.66614 -13.59617 -13.58889 -13.57258 -13.53662 -13.48419 -13.42320 -13.38164
 -13.36906 -13.32758 -13.27116 -13.23679 -13.16007 -13.14330 -13.06076 -13.03576
 -12.92194 -12.87263 -12.79201 -12.74808 -12.67488 -12.65718 -12.63826 -12.63128
 -12.55953 -12.48162 -12.46195 -12.41435 -12.37964 -12.37524 -12.32507 -12.31406
 -12.28928 -12.27906 -12.27344 -12.15725 -12.14075 -12.11493 -12.02991 -11.97972
 -11.90971 -11.88593 -11.80873 -11.77257 -11.74049 -11.66381 -11.63687 -11.62145
 -11.61792 -11.50380 -11.45653 -11.38308 -11.35303 -11.33081 -11.30506 -11.28562
 -11.16858 -11.04761 -10.94007 -10.80865 -10.41018 -10.28317 -10.02372  -9.97996
  -9.91902  -9.86907  -9.83483  -9.63871  -9.55629  -9.45537  -9.27244  -8.82595
  -8.73343  -8.48190  -7.90909  -1.60478  -1.29120  -1.01209  -0.59193  -0.42640
  -0.21301   0.00789   0.12867   0.23487   0.31734   0.37964   0.40559   0.42240
   0.61693   0.73122   0.84639   0.95562   0.95917   1.05084   1.16980   1.22929
   1.25266   1.30869   1.33161   1.42573   1.59786   1.63937   1.67090   1.76802
   1.96914   2.02162   2.15660   2.25200   2.39737   2.65518   2.75359   2.82926
   2.90349   2.93742   3.04432   3.06995   3.24623   3.26799   3.37099   3.39954
   3.42225   3.43051   3.49472   3.53187   3.61419   3.66458   3.66808   3.73353
   3.75833   3.76072   3.79962   3.80703   3.82843   3.87701   3.88222   3.90287
   3.91086   3.92212   3.94391   3.94874   3.95265   3.97558   3.98636   3.99366
   4.01198   4.03592   4.04392   4.08732   4.11911   4.13229   4.15756   4.16163
   4.17754   4.20309   4.20916   4.21661   4.22362   4.25313   4.27226   4.28551
   4.30054   4.32318   4.33953   4.37521   4.39797   4.41146   4.42953   4.45738
   4.46786   4.48916   4.50230   4.51170   4.53585   4.54728   4.56548   4.58487
   4.59197   4.62120   4.62661   4.63962   4.65532   4.66074   4.66611   4.69420
   4.70557   4.71328   4.71490   4.72737   4.75600   4.76241   4.78856   4.79466
   4.79733   4.80694   4.81415   4.82405   4.82469   4.84006   4.85475   4.86085
   4.88638   4.90559   4.91942   4.94984   4.96762   4.97353   4.99186   5.00126
   5.01014   5.02229   5.04215   5.05561   5.06909   5.08066   5.08997   5.09397
   5.12095   5.13006   5.14049   5.16532   5.17226   5.18239   5.18576   5.19579
   5.19639   5.21292   5.22104   5.24985   5.26532   5.27155   5.28696   5.29340
   5.29539   5.32392   5.36956   5.41349   5.42093   5.42346   5.43917   5.46944
   5.50825   5.51186   5.51486   5.53039   5.54000   5.55959   5.57317   5.60028
   5.63379   5.63700   5.64221   5.66140   5.67581   5.74627   5.75081   5.77056
   5.77430   5.88782   5.91680   5.98085   6.02008   6.07919   6.07968   6.09467
   6.12527   6.18205   6.29725   6.35664   6.37200   6.53010   6.54225   6.76753


              NET ATOMIC CHARGES AND DIPOLE CONTRIBUTIONS

  ATOM NO.   TYPE          CHARGE      No. of ELECS.   s-Pop       p-Pop
   60          O          -0.345006        6.3450     1.90967     4.43534
   59          C           0.396571        3.6034     1.18070     2.42273
   61          O          -0.332028        6.3320     1.83987     4.49216
  132          H           0.247183        0.7528     0.75282
   63          N          -0.135570        5.1356     1.84815     3.28743
   62          C           0.038920        3.9611     1.19687     2.76421
    1          C          -0.177760        4.1778     1.15575     3.02201
    2          C          -0.111693        4.1117     1.16673     2.94496
    3          C          -0.124789        4.1248     1.17103     2.95376
    4          C          -0.123550        4.1235     1.17189     2.95166
    5          C          -0.129212        4.1292     1.17211     2.95710
    6          C          -0.120595        4.1206     1.17314     2.94745
    7          C           0.054183        3.9458     1.16856     2.77725
    8          C          -0.118982        4.1190     1.17179     2.94719
    9          C          -0.129849        4.1298     1.17117     2.95867
   10          C          -0.120057        4.1201     1.16998     2.95008
   11          C          -0.123908        4.1239     1.17092     2.95299
   12          C          -0.110391        4.1104     1.16624     2.94416
   13          C          -0.175173        4.1752     1.15531     3.01986
   14          C          -0.026856        4.0269     1.18349     2.84336
   15          C          -0.144244        4.1442     1.17809     2.96615
   16          C           0.147465        3.8525     1.14238     2.71016
   17          C          -0.155660        4.1557     1.18220     2.97346
   18          C          -0.056852        4.0569     1.17146     2.88539
   19          C          -0.056723        4.0567     1.16354     2.89318
   20          C          -0.017578        4.0176     1.16212     2.85545
   21          C          -0.067880        4.0679     1.18618     2.88170
   22          C          -0.088165        4.0882     1.17259     2.91557
   23          C          -0.035673        4.0357     1.16235     2.87332
   24          C          -0.097270        4.0973     1.17866     2.91861
   25          C          -0.091113        4.0911     1.17325     2.91787
   26          C          -0.002520        4.0025     1.16284     2.83968
   27          C          -0.107045        4.1070     1.17950     2.92754
   28          C          -0.081681        4.0817     1.17819     2.90349
   29          C          -0.068620        4.0686     1.16311     2.90551
   30          C          -0.082248        4.0822     1.17817     2.90407
   31          C          -0.108724        4.1087     1.17954     2.92919
   32          C          -0.017098        4.0171     1.18261     2.83449
   33          C          -0.170624        4.1706     1.17825     2.99238
   34          C           0.184172        3.8158     1.17916     2.63667
   35          C          -0.274878        4.2749     1.18167     3.09321
   36          C           0.197153        3.8028     1.14761     2.65524
   37          C          -0.115473        4.1155     1.10404     3.01143
   38          C           0.051506        3.9485     1.19756     2.75093
   39          N          -0.167943        5.1679     1.84896     3.31899
   40          C           0.050875        3.9491     1.19730     2.75182
   41          N          -0.165992        5.1660     1.84894     3.31705
   42          C          -0.272490        4.2725     1.18209     3.09040
   43          C           0.187845        3.8122     1.17780     2.63436
   44          O          -0.166380        6.1664     1.84898     4.31740
   45          C          -0.189044        4.1890     1.17786     3.01118
   46          C           0.044894        3.9551     1.16837     2.78674
   47          C          -0.357386        4.3574     1.21921     3.13817
   48          C          -0.068646        4.0686     1.18324     2.88540
   49          C          -0.106954        4.1070     1.18260     2.92435
   50          C          -0.267250        4.2673     1.20348     3.06377
   51          S           0.509818        5.4902     1.88367     3.60652
   52          C          -0.241322        4.2413     1.20363     3.03769
   53          C          -0.119282        4.1193     1.18437     2.93491
   54          C          -0.027392        4.0274     1.18442     2.84297
   55          C          -0.406007        4.4060     1.21649     3.18951
   56          S           0.504049        5.4960     1.88507     3.61089
   57          C           0.125778        3.8742     1.17012     2.70410
   58          C          -0.121813        4.1218     1.14306     2.97876
   64          N          -0.263462        5.2635     1.47948     3.78398
   65          C           0.121592        3.8784     1.14983     2.72857
   66          C          -0.171753        4.1718     1.17191     2.99985
   67          C          -0.060916        4.0609     1.17713     2.88378
   68          C          -0.094830        4.0948     1.17889     2.91594
   69          C          -0.041316        4.0413     1.16856     2.87275
   70          C          -0.092333        4.0923     1.15959     2.93274
   71          C          -0.088903        4.0889     1.15920     2.92971
   72          C           0.119772        3.8802     1.14993     2.73030
   73          C          -0.171189        4.1712     1.17201     2.99918
   74          C          -0.059109        4.0591     1.17557     2.88354
   75          C          -0.093430        4.0934     1.17894     2.91449
   76          C          -0.045436        4.0454     1.17007     2.87537
   77          C           0.063893        3.9361     1.16584     2.77027
   78          C          -0.186209        4.1862     1.16146     3.02475
   79          C          -0.187772        4.1878     1.16080     3.02697
   80          C          -0.186288        4.1863     1.16151     3.02478
   81          C           0.064263        3.9357     1.16571     2.77003
   82          C          -0.186311        4.1863     1.16135     3.02496
   83          C          -0.188424        4.1884     1.16091     3.02751
   84          C          -0.185890        4.1859     1.16137     3.02452
   85          H           0.118664        0.8813     0.88134
   86          H           0.142345        0.8577     0.85766
   87          H           0.137468        0.8625     0.86253
   88          H           0.121166        0.8788     0.87883
   89          H           0.131794        0.8682     0.86821
   90          H           0.056098        0.9439     0.94390
   91          H           0.058161        0.9418     0.94184
   92          H           0.058793        0.9412     0.94121
   93          H           0.059266        0.9407     0.94073
   94          H           0.059117        0.9409     0.94088
   95          H           0.063756        0.9362     0.93624
   96          H           0.063100        0.9369     0.93690
   97          H           0.061110        0.9389     0.93889
   98          H           0.063020        0.9370     0.93698
   99          H           0.072294        0.9277     0.92771
  100          H           0.061696        0.9383     0.93830
  101          H           0.071812        0.9282     0.92819
  102          H           0.069569        0.9304     0.93043
  103          H           0.066622        0.9334     0.93338
  104          H           0.076941        0.9231     0.92306
  105          H           0.072763        0.9272     0.92724
  106          H           0.067603        0.9324     0.93240
  107          H           0.061818        0.9382     0.93818
  108          H           0.060434        0.9396     0.93957
  109          H           0.060484        0.9395     0.93952
  110          H           0.065264        0.9347     0.93474
  111          H           0.057820        0.9422     0.94218
  112          H           0.057111        0.9429     0.94289
  113          H           0.056771        0.9432     0.94323
  114          H           0.053476        0.9465     0.94652
  115          H           0.059718        0.9403     0.94028
  116          H           0.137636        0.8624     0.86236
  117          H           0.129735        0.8703     0.87026
  118          H           0.113350        0.8866     0.88665
  119          H           0.117266        0.8827     0.88273
  120          H           0.112904        0.8871     0.88710
  121          H           0.113760        0.8862     0.88624
  122          H           0.117909        0.8821     0.88209
  123          H           0.111585        0.8884     0.88841
  124          H           0.111958        0.8880     0.88804
  125          H           0.117084        0.8829     0.88292
  126          H           0.159373        0.8406     0.84063
  127          H           0.159973        0.8400     0.84003
  128          H           0.129162        0.8708     0.87084
  129          H           0.133563        0.8664     0.86644
  130          H           0.139580        0.8604     0.86042
  131          H           0.139931        0.8601     0.86007
  133          H           0.122054        0.8779     0.87795
  134          H           0.104830        0.8952     0.89517
  135          H           0.113224        0.8868     0.88678
  136          H           0.121919        0.8781     0.87808
  137          H           0.106790        0.8932     0.89321
  138          H           0.111697        0.8883     0.88830
  139          H           0.064573        0.9354     0.93543
  140          H           0.060256        0.9397     0.93974
  141          H           0.058842        0.9412     0.94116
  142          H           0.062104        0.9379     0.93790
  143          H           0.061172        0.9388     0.93883
  144          H           0.062083        0.9379     0.93792
  145          H           0.058867        0.9411     0.94113
  146          H           0.060404        0.9396     0.93960
  147          H           0.064521        0.9355     0.93548
  148          H           0.059970        0.9400     0.94003
  149          H           0.065161        0.9348     0.93484
  150          H           0.059034        0.9410     0.94097
  151          H           0.062286        0.9377     0.93771
  152          H           0.061184        0.9388     0.93882
  153          H           0.062624        0.9374     0.93738
  154          H           0.064179        0.9358     0.93582
  155          H           0.059422        0.9406     0.94058
  156          H           0.059006        0.9410     0.94099
 DIPOLE           X         Y         Z       TOTAL
 POINT-CHG.    -8.420     3.874    -5.595    10.826
 HYBRID        -1.572    -0.236    -0.189     1.601
 SUM           -9.992     3.638    -5.784    12.105


          ATOMIC ORBITAL ELECTRON POPULATIONS

     Atom    s        px        py        pz   
    1  C   1.15575   0.96459   1.02827   1.02916
    2  C   1.16673   0.95410   0.96634   1.02452
    3  C   1.17103   0.95236   0.97129   1.03011
    4  C   1.17189   0.95869   0.96516   1.02782
    5  C   1.17211   0.94946   0.97399   1.03364
    6  C   1.17314   0.96304   1.03028   0.95413
    7  C   1.16856   0.90944   0.91545   0.95236
    8  C   1.17179   1.01625   0.99100   0.93995
    9  C   1.17117   1.00899   1.01160   0.93808
   10  C   1.16998   0.95872   1.00128   0.99007
   11  C   1.17092   0.95532   0.99690   1.00077
   12  C   1.16624   0.99655   0.99696   0.95065
   13  C   1.15531   1.02092   1.02900   0.96994
   14  C   1.18349   0.92946   0.94859   0.96531
   15  C   1.17809   0.98828   0.93423   1.04364
   16  C   1.14238   0.82023   0.89649   0.99344
   17  C   1.18220   0.92455   1.00340   1.04550
   18  C   1.17146   0.97085   0.93729   0.97725
   19  C   1.16354   0.93459   0.93429   1.02430
   20  C   1.16212   0.92603   0.93325   0.99617
   21  C   1.18618   0.95029   0.93938   0.99203
   22  C   1.17259   0.92679   0.98339   1.00539
   23  C   1.16235   0.93086   0.93047   1.01199
   24  C   1.17866   0.99264   0.92636   0.99961
   25  C   1.17325   0.93144   0.98491   1.00151
   26  C   1.16284   0.94713   0.94329   0.94926
   27  C   1.17950   0.95543   0.98184   0.99026
   28  C   1.17819   0.98784   0.94363   0.97202
   29  C   1.16311   0.96835   0.96077   0.97639
   30  C   1.17817   0.94502   0.97817   0.98088
   31  C   1.17954   0.99511   0.95219   0.98189
   32  C   1.18261   0.98979   0.92342   0.92128
   33  C   1.17825   0.99884   0.92354   1.07000
   34  C   1.17916   0.90741   0.82773   0.90154
   35  C   1.18167   0.95036   1.01956   1.12329
   36  C   1.14761   0.89934   0.90428   0.85162
   37  C   1.10404   0.92735   0.86150   1.22257
   38  C   1.19756   0.92073   0.91557   0.91463
   39  N   1.84896   1.08922   1.10903   1.12074
   40  C   1.19730   0.92032   0.91592   0.91559
   41  N   1.84894   1.09132   1.10715   1.11858
   42  C   1.18209   0.95777   1.01507   1.11756
   43  C   1.17780   0.89672   0.82860   0.90904
   44  O   1.84898   1.41563   1.14679   1.75498
   45  C   1.17786   0.99804   0.96724   1.04591
   46  C   1.16837   0.90868   0.95286   0.92521
   47  C   1.21921   1.06108   1.00976   1.06733
   48  C   1.18324   0.94591   0.97357   0.96592
   49  C   1.18260   1.00477   0.92552   0.99407
   50  C   1.20348   1.05043   0.96044   1.05290
   51  S   1.88367   1.31862   0.94130   1.34659
   52  C   1.20363   1.08227   0.96162   0.99381
   53  C   1.18437   1.01600   0.93961   0.97929
   54  C   1.18442   0.94696   0.95752   0.93849
   55  C   1.21649   1.17777   1.00856   1.00318
   56  S   1.88507   1.68439   0.91953   1.00697
   57  C   1.17012   0.87047   0.88612   0.94751
   58  C   1.14306   1.08514   0.93433   0.95929
   59  C   1.18070   0.73593   0.88278   0.80403
   60  O   1.90967   1.45215   1.28686   1.69633
   61  O   1.83987   1.83609   1.39950   1.25656
   62  C   1.19687   0.92224   0.92529   0.91668
   63  N   1.84815   1.09844   1.08031   1.10868
   64  N   1.47948   1.13125   1.39585   1.25689
   65  C   1.14983   0.85404   0.97009   0.90445
   66  C   1.17191   0.99793   1.03694   0.96497
   67  C   1.17713   0.92813   0.97334   0.98231
   68  C   1.17889   0.95860   0.98963   0.96770
   69  C   1.16856   0.95847   0.97574   0.93854
   70  C   1.15959   0.95420   1.00452   0.97402
   71  C   1.15920   0.94480   1.01091   0.97399
   72  C   1.14993   0.93584   0.89810   0.89636
   73  C   1.17201   1.01168   1.02401   0.96349
   74  C   1.17557   0.94384   0.95854   0.98115
   75  C   1.17894   0.94932   0.99485   0.97032
   76  C   1.17007   0.98582   0.95256   0.93699
   77  C   1.16584   0.93120   0.91785   0.92122
   78  C   1.16146   0.97731   1.02310   1.02434
   79  C   1.16080   1.01442   1.02472   0.98783
   80  C   1.16151   1.03006   0.98462   1.01009
   81  C   1.16571   0.90937   0.93397   0.92669
   82  C   1.16135   1.02788   1.03024   0.96684
   83  C   1.16091   0.99510   1.00565   1.02675
   84  C   1.16137   1.02094   0.97009   1.03349
   85  H   0.88134
   86  H   0.85766
   87  H   0.86253
   88  H   0.87883
   89  H   0.86821
   90  H   0.94390
   91  H   0.94184
   92  H   0.94121
   93  H   0.94073
   94  H   0.94088
   95  H   0.93624
   96  H   0.93690
   97  H   0.93889
   98  H   0.93698
   99  H   0.92771
  100  H   0.93830
  101  H   0.92819
  102  H   0.93043
  103  H   0.93338
  104  H   0.92306
  105  H   0.92724
  106  H   0.93240
  107  H   0.93818
  108  H   0.93957
  109  H   0.93952
  110  H   0.93474
  111  H   0.94218
  112  H   0.94289
  113  H   0.94323
  114  H   0.94652
  115  H   0.94028
  116  H   0.86236
  117  H   0.87026
  118  H   0.88665
  119  H   0.88273
  120  H   0.88710
  121  H   0.88624
  122  H   0.88209
  123  H   0.88841
  124  H   0.88804
  125  H   0.88292
  126  H   0.84063
  127  H   0.84003
  128  H   0.87084
  129  H   0.86644
  130  H   0.86042
  131  H   0.86007
  132  H   0.75282
  133  H   0.87795
  134  H   0.89517
  135  H   0.88678
  136  H   0.87808
  137  H   0.89321
  138  H   0.88830
  139  H   0.93543
  140  H   0.93974
  141  H   0.94116
  142  H   0.93790
  143  H   0.93883
  144  H   0.93792
  145  H   0.94113
  146  H   0.93960
  147  H   0.93548
  148  H   0.94003
  149  H   0.93484
  150  H   0.94097
  151  H   0.93771
  152  H   0.93882
  153  H   0.93738
  154  H   0.93582
  155  H   0.94058
  156  H   0.94099
 ******************** TDHF POLARIZABILITIES ********************



          MOLECULAR WEIGHT = 1141.54



          ROTATIONAL CONSTANTS IN CM(-1)

          A =    0.00081850   B =    0.00015442   C =    0.00013954



           PRINCIPAL MOMENTS OF INERTIA IN UNITS OF 10**(-40)*GRAM-CM**2

          A =    34200.1326   B =   181274.8267   C =   200601.3548


 ROTATION MATRIX FOR ORIENTATION OF MOLECULE:

         0.439944    0.886467   -0.143616
        -0.897916    0.436730   -0.054909
         0.014047    0.153112    0.988109


          CARTESIAN COORDINATES 

    NO.       ATOM         X         Y         Z

     1         C       -4.2056   -5.8588    3.3759
     2         C       -3.5351   -4.5458    3.0058
     3         C       -4.5734   -3.4426    2.8171
     4         C       -3.9008   -2.1243    2.4398
     5         C       -4.9388   -1.0147    2.2763
     6         C       -4.3045    0.3081    1.8449
     7         C       -4.5402    0.6842    0.3757
     8         C       -4.0355   -0.3885   -0.5866
     9         C       -4.1829    0.0401   -2.0442
    10         C       -3.7375   -1.0746   -2.9903
    11         C       -4.6918   -2.2629   -2.9288
    12         C       -4.1455   -3.4778   -3.6734
    13         C       -3.9762   -3.2116   -5.1593
    14         C       -5.9899    1.0288    0.1256
    15         C       -7.0879    0.2038    0.1737
    16         C       -8.3477    0.7733   -0.0862
    17         C       -8.4906    2.1259   -0.3988
    18         C       -7.3632    2.9454   -0.4677
    19         C       -6.1277    2.3940   -0.2039
    20         C       -4.8084    3.0019   -0.2122
    21         C       -3.8604    2.0097    0.1100
    22         C       -2.5190    2.3071    0.1613
    23         C       -2.1241    3.6236   -0.1146
    24         C       -3.0588    4.6034   -0.4295
    25         C       -4.4204    4.2973   -0.4805
    26         C       -0.7048    3.9654   -0.0677
    27         C       -0.1183    4.6502   -1.1304
    28         C        1.2298    4.9740   -1.0851
    29         C        1.9988    4.6064    0.0189
    30         C        1.4100    3.9291    1.0842
    31         C        0.0594    3.6087    1.0404
    32         C        3.4147    4.9514    0.0480
    33         C        4.3364    4.0962    0.5048
    34         C        5.7457    4.4634    0.5518
    35         C        6.2435    5.7034    0.7502
    36         C        7.6690    5.9161    0.7755
    37         C        8.2165    7.1494    0.9443
    38         C        7.4255    8.3118    1.1031
    39         N        6.7811    9.2645    1.2314
    40         C        9.6158    7.3582    0.9710
    41         N       10.7595    7.5332    0.9932
    42         C        8.4731    4.7326    0.6077
    43         C        7.8834    3.5301    0.4227
    44         O        6.5307    3.3583    0.3867
    45         C        8.6064    2.2785    0.2500
    46         C        8.1074    1.2286   -0.4182
    47         C        8.8345   -0.0012   -0.5900
    48         C        8.4264   -1.0357   -1.3919
    49         C        9.3439   -2.1299   -1.3664
    50         C       10.4086   -1.8809   -0.5427
    51         S       10.3129   -0.3424    0.1937
    52         C       11.5049   -2.7593   -0.2835
    53         C       12.0139   -3.0873    0.9434
    54         C       13.1220   -3.9857    0.8387
    55         C       13.4037   -4.2975   -0.4640
    56         S       12.3425   -3.5273   -1.5608
    57         C       14.4332   -5.1806   -0.9363
    58         C       15.6512   -5.2498   -0.3706
    59         C       16.6929   -6.1866   -0.8209
    60         O       17.6409   -6.6018   -0.1775
    61         O       16.5265   -6.5983   -2.0981
    62         C       16.0486   -4.4172    0.7076
    63         N       16.3899   -3.7336    1.5754
    64         N       -9.4927   -0.0534   -0.0273
    65         C       -9.8352   -0.9184    1.0325
    66         C       -9.1719   -1.1780    2.2265
    67         C       -9.7586   -2.0857    3.0939
    68         C      -10.9760   -2.7253    2.8090
    69         C      -11.6403   -2.4424    1.6217
    70         C      -11.0757   -1.5390    0.7350
    71         C      -11.5107   -1.0313   -0.5437
    72         C      -10.5207   -0.1166   -0.9907
    73         C      -10.6357    0.5203   -2.2190
    74         C      -11.7672    0.2507   -2.9775
    75         C      -12.7644   -0.6322   -2.5460
    76         C      -12.6274   -1.2824   -1.3205
    77         C      -13.9979   -0.9201   -3.3624
    78         C      -14.0377   -2.4159   -3.6886
    79         C      -14.0467   -0.1503   -4.6835
    80         C      -15.2332   -0.5287   -2.5459
    81         C      -11.5132   -3.6997    3.8247
    82         C      -11.7341   -2.9662    5.1507
    83         C      -12.8443   -4.3295    3.4094
    84         C      -10.4973   -4.8301    4.0131
    85         H        3.6722    5.9442   -0.3423
    86         H        4.0824    3.0854    0.8461
    87         H        9.6069    2.2704    0.6986
    88         H        7.1111    1.2543   -0.8803
    89         H       14.1730   -5.8095   -1.8002
    90         H       -3.4732   -6.6669    3.5165
    91         H       -4.7772   -5.7856    4.3123
    92         H       -4.9077   -6.2013    2.6020
    93         H       -2.7993   -4.2591    3.7867
    94         H       -2.9296   -4.6725    2.0834
    95         H       -5.3100   -3.7388    2.0404
    96         H       -5.1754   -3.3200    3.7422
    97         H       -3.1538   -1.8409    3.2117
    98         H       -3.3088   -2.2470    1.5089
    99         H       -5.7416   -1.3368    1.5770
   100         H       -5.4783   -0.8714    3.2382
   101         H       -4.6904    1.1318    2.4845
   102         H       -3.2120    0.3049    2.0480
   103         H       -2.9725   -0.6195   -0.3615
   104         H       -4.5783   -1.3460   -0.4251
   105         H       -5.2312    0.3340   -2.2634
   106         H       -3.5889    0.9585   -2.2392
   107         H       -3.6809   -0.6771   -4.0257
   108         H       -2.6992   -1.3901   -2.7554
   109         H       -4.8915   -2.5367   -1.8678
   110         H       -5.6869   -1.9778   -3.3312
   111         H       -3.1817   -3.8064   -3.2297
   112         H       -4.8275   -4.3423   -3.5210
   113         H       -3.1505   -2.5186   -5.3743
   114         H       -3.7539   -4.1345   -5.7154
   115         H       -4.8806   -2.7815   -5.6130
   116         H       -6.9753   -0.8631    0.4034
   117         H       -9.4812    2.5566   -0.5774
   118         H       -7.4637    4.0044   -0.7194
   119         H       -1.7771    1.5392    0.3960
   120         H       -2.7320    5.6285   -0.6301
   121         H       -5.1563    5.0666   -0.7264
   122         H       -0.7171    4.9262   -2.0041
   123         H        1.6889    5.5122   -1.9203
   124         H        2.0004    3.6614    1.9659
   125         H       -0.4043    3.0865    1.8830
   126         H        5.5739    6.5536    0.9081
   127         H        9.5639    4.8141    0.6268
   128         H        7.5153   -1.0443   -1.9863
   129         H        9.1891   -3.0448   -1.9334
   130         H       11.6366   -2.7264    1.8977
   131         H       13.6405   -4.3773    1.7125
   132         H       17.2322   -7.2056   -2.3632
   133         H       -8.2344   -0.6796    2.4832
   134         H       -9.2347   -2.2929    4.0330
   135         H      -12.5949   -2.8953    1.3452
   136         H       -9.8620    1.1975   -2.5870
   137         H      -11.8421    0.7638   -3.9404
   138         H      -13.3731   -1.9895   -0.9475
   139         H      -13.1333   -2.7400   -4.2229
   140         H      -14.1207   -3.0518   -2.7966
   141         H      -14.8957   -2.6762   -4.3258
   142         H      -13.2068   -0.3989   -5.3480
   143         H      -14.9595   -0.3777   -5.2551
   144         H      -14.0475    0.9392   -4.5369
   145         H      -16.1649   -0.6752   -3.1117
   146         H      -15.3458   -1.1137   -1.6228
   147         H      -15.2044    0.5287   -2.2464
   148         H      -10.8061   -2.5751    5.5898
   149         H      -12.4123   -2.1091    5.0333
   150         H      -12.1767   -3.6214    5.9153
   151         H      -12.7663   -4.9018    2.4740
   152         H      -13.2151   -5.0379    4.1659
   153         H      -13.6413   -3.5833    3.2801
   154         H      -10.2763   -5.3407    3.0650
   155         H       -9.5352   -4.4855    4.4164
   156         H      -10.8601   -5.5978    4.7122


 ENERGY OF "REORIENTED" SYSTEM WITHOUT FIELD:      132.8788276379


  NFREQ=  3  IWFLB=  0  IBET=  1  IGAM=  1
  ATOL= 0.10000D-02  BTOL= 0.10000D-02    MAXITU=  500    MAXITA=  150


 *****************************************************************
 CALCULATION OF STATIC FIELD QUANTITIES
 *****************************************************************

 +++++ ALPHA AT       0.00000 EV.

                           COMPONENTS OF ALPHA

                     *X           *Y           *Z
           *=X:    1148.3636      52.6884     116.4533
           *=Y:      52.6916     890.5361     -13.8501
           *=Z:     116.4545     -13.8167     566.4560

  ISOTROPIC AVERAGE ALPHA =     868.45187 A.U. =    128.69129 ANG.**3

 +++++ BETA (SECOND HARMONIC GENERATION) AT       0.00000 EV.

                              COMPONENTS OF BETA
            *XX         *XY         *YY         *XZ         *YZ         *ZZ
   *=X -7363.43491 -1551.96725  1409.63129   454.60987   183.32554   709.22038
   *=Y -1551.97678  1409.56448  -551.82018   183.33311  -254.53488   252.02939
   *=Z   454.48389   183.51702  -254.68365   709.37451   252.09923  -206.17805


 AVERAGE BETAX(SHG) VALUE AT   0.00000 EV =      -3146.7150 a.u. = -0.271858E-28 ESU
 AVERAGE BETAY(SHG) VALUE AT   0.00000 EV =      -1111.0288 a.u. = -0.959864E-29 ESU
 AVERAGE BETAZ(SHG) VALUE AT   0.00000 EV =         -3.7168 a.u. = -0.321109E-31 ESU



 AVERAGE BETA (SHG) VALUE AT   0.00000 EV =       3337.0967 a.u. =  0.288306E-28 ESU
   (1 a.u. = 8.639418X10-33 esu)



 +++++ ALPHA AT       0.00000 EV.

                           COMPONENTS OF ALPHA

                     *X           *Y           *Z
           *=X:    1148.3636      52.6884     116.4533
           *=Y:      52.6916     890.5361     -13.8501
           *=Z:     116.4545     -13.8167     566.4560

  ISOTROPIC AVERAGE ALPHA =     868.45187 A.U. =    128.69129 ANG.**3


 GAMMA (THIRD HARMONIC GENERATION) AT    0.00000 EV.


 GAMMA(X,X,X,X) =       3122678.30939
 GAMMA(Y,Y,Y,Y) =       1241841.97277
 GAMMA(Z,Z,Z,Z) =         92646.70540
 GAMMA(X,X,Y,Y) =        806509.00433
 GAMMA(X,X,Z,Z) =         34768.97736
 GAMMA(Y,Y,X,X) =        806508.75351
 GAMMA(Y,Y,Z,Z) =         43647.04201
 GAMMA(Z,Z,X,X) =         34768.47630
 GAMMA(Z,Z,Y,Y) =         43647.09106


 AVERAGE GAMMA VALUE AT    0.00000 =       1245403.26642 a.u. =       627272.58450 ESU (X10-39)




 **********************************************************************
 CALCULATION FOR A FREQUENCY OF    0.25000 EV  =       0.00919 A.U. 
                  WAVELENGTH OF    4959.37 NM  =    2016.38525 CM(-1)
 **********************************************************************

 +++++ ALPHA AT       0.25000 EV.

                           COMPONENTS OF ALPHA

                     *X           *Y           *Z
           *=X:    1152.6672      52.9111     116.7800
           *=Y:      52.9138     893.8779     -13.6497
           *=Z:     116.7811     -13.6215     567.3784

  ISOTROPIC AVERAGE ALPHA =     871.30788 A.U. =    129.11450 ANG.**3

 +++++ BETA (SECOND HARMONIC GENERATION) AT       0.25000 EV.

                              COMPONENTS OF BETA
            *XX         *XY         *YY         *XZ         *YZ         *ZZ
   *=X -7685.95746 -1608.83426  1447.58843   468.35921   188.69619   732.37639
   *=Y -1621.80610  1459.40990  -573.32038   193.62654  -260.27507   257.09782
   *=Z   450.18211   198.81897  -264.25003   726.70523   256.50346  -212.15126


 AVERAGE BETAX(SHG) VALUE AT   0.25000 EV =      -3301.1355 a.u. = -0.285199E-28 ESU
 AVERAGE BETAY(SHG) VALUE AT   0.25000 EV =      -1157.8662 a.u. = -0.100033E-28 ESU
 AVERAGE BETAZ(SHG) VALUE AT   0.25000 EV =         -6.8707 a.u. = -0.593587E-31 ESU



 AVERAGE BETA (SHG) VALUE AT   0.25000 EV =       3498.3134 a.u. =  0.302234E-28 ESU
   (1 a.u. = 8.639418X10-33 esu)



 +++++ ALPHA AT       0.75000 EV.

                           COMPONENTS OF ALPHA

                     *X           *Y           *Z
           *=X:    1189.2781      54.6787     119.4917
           *=Y:      54.6789     922.4652     -11.9104
           *=Z:     119.4918     -11.8746     574.9569

  ISOTROPIC AVERAGE ALPHA =     895.56676 A.U. =    132.70930 ANG.**3


 GAMMA (THIRD HARMONIC GENERATION) AT    0.25000 EV.


 GAMMA(X,X,X,X) =       3433588.37306
 GAMMA(Y,Y,Y,Y) =       1382104.49566
 GAMMA(Z,Z,Z,Z) =         96995.99766
 GAMMA(X,X,Y,Y) =        887592.61825
 GAMMA(X,X,Z,Z) =         36353.10102
 GAMMA(Y,Y,X,X) =        894414.24096
 GAMMA(Y,Y,Z,Z) =         46738.22444
 GAMMA(Z,Z,X,X) =         37404.51913
 GAMMA(Z,Z,Y,Y) =         47212.84346


 AVERAGE GAMMA VALUE AT    0.25000 =       1372480.88273 a.u. =       691277.80029 ESU (X10-39)




 **********************************************************************
 CALCULATION FOR A FREQUENCY OF    0.50000 EV  =       0.01837 A.U. 
                  WAVELENGTH OF    2479.68 NM  =    4032.77050 CM(-1)
 **********************************************************************

 +++++ ALPHA AT       0.50000 EV.

                           COMPONENTS OF ALPHA

                     *X           *Y           *Z
           *=X:    1165.9063      53.5776     117.7761
           *=Y:      53.5782     904.1998     -13.0309
           *=Z:     117.7768     -13.0066     570.1769

  ISOTROPIC AVERAGE ALPHA =     880.09433 A.U. =    130.41652 ANG.**3

 +++++ BETA (SECOND HARMONIC GENERATION) AT       0.50000 EV.

                              COMPONENTS OF BETA
            *XX         *XY         *YY         *XZ         *YZ         *ZZ
   *=X -8805.11625 -1805.96707  1573.20868   515.11455   206.26785   811.73981
   *=Y -1863.74034  1629.71341  -645.78425   229.33319  -278.37751   273.29128
   *=Z   431.11755   252.57827  -296.07507   783.35762   270.64241  -231.88036


 AVERAGE BETAX(SHG) VALUE AT   0.50000 EV =      -3840.8516 a.u. = -0.331827E-28 ESU
 AVERAGE BETAY(SHG) VALUE AT   0.50000 EV =      -1319.6902 a.u. = -0.114014E-28 ESU
 AVERAGE BETAZ(SHG) VALUE AT   0.50000 EV =        -17.4249 a.u. = -0.150541E-30 ESU



 AVERAGE BETA (SHG) VALUE AT   0.50000 EV =       4061.2839 a.u. =  0.350871E-28 ESU
   (1 a.u. = 8.639418X10-33 esu)



 +++++ ALPHA AT       1.50000 EV.

                           COMPONENTS OF ALPHA

                     *X           *Y           *Z
           *=X:    1354.5816      59.5316     130.1366
           *=Y:      59.5316    1054.6285      -2.2984
           *=Z:     130.1277      -2.2545     603.9494

  ISOTROPIC AVERAGE ALPHA =    1004.38648 A.U. =    148.83472 ANG.**3


 GAMMA (THIRD HARMONIC GENERATION) AT    0.50000 EV.


 GAMMA(X,X,X,X) =       4774408.41989
 GAMMA(Y,Y,Y,Y) =       2012082.34231
 GAMMA(Z,Z,Z,Z) =        112396.01068
 GAMMA(X,X,Y,Y) =       1246745.76293
 GAMMA(X,X,Z,Z) =         41857.78526
 GAMMA(Y,Y,X,X) =       1285869.17898
 GAMMA(Y,Y,Z,Z) =         59277.73256
 GAMMA(Z,Z,X,X) =         47854.13843
 GAMMA(Z,Z,Y,Y) =         61805.29544


 AVERAGE GAMMA VALUE AT    0.50000 =       1928459.33330 a.u. =       971307.60992 ESU (X10-39)



 **********************
 *                    *
 * JOB ENDED NORMALLY *
 *                    *
 **********************



 TOTAL JOB TIME:          1693.55 SECONDS

 == MOPAC DONE ==
