 *******************************************************************************
 ** Site#: 4824         For non-commercial use only    Version 21.013L 64BITS **
 *******************************************************************************
 ** Cite this program as: MOPAC2016, Version: 21.013L, James J. P. Stewart,   **
 ** Stewart Computational Chemistry, web: HTTP://OpenMOPAC.net. Days left:  87**
 *******************************************************************************
 **                                                                           **
 **                                MOPAC2016                                  **
 **                                                                           **
 *******************************************************************************

                              RM1 CALCULATION RESULTS

 *******************************************************************************
 *  CALCULATION DONE:                                Mon Oct 18 16:28:43 2021  *
 *  RM1        - The RM1 Hamiltonian to be used
 *  POLAR      - CALCULATE FIRST, SECOND AND THIRD-ORDER POLARIZABILITIES
 *  PRECISE    - TIGHTER CRITERIA TO BE USED
 *  XYZ        - CARTESIAN COORDINATE SYSTEM TO BE USED
 *  T=         - A TIME OF 172800.0 SECONDS REQUESTED
 *  DUMP=N     - RESTART FILE WRITTEN EVERY 7200.0 SECONDS REQUESTED
 *  GNORM      - EXIT WHEN GRADIENT NORM DROPS BELOW 0.100
 *******************************************************************************
RM1 PRECISE POLAR XYZ GNORM=0.1


   ATOM   CHEMICAL          X               Y               Z
  NUMBER   SYMBOL      (ANGSTROMS)     (ANGSTROMS)     (ANGSTROMS)
 
     1       N          0.02280874  *   0.03668446  *  -0.08426057  *
     2       C          1.17819110  *   0.02011028  *  -0.03717168  *
     3       C          2.59460078  *   0.02207330  *   0.00597334  *
     4       C          3.33565607  *  -1.09700488  *  -0.11369510  *
     5       C          2.77039508  *  -2.40851902  *  -0.23716259  *
     6       C          1.63849212  *  -2.88269497  *   0.37090536  *
     7       C          1.38338973  *  -4.24796317  *   0.03283464  *
     8       C          2.33175945  *  -4.75161591  *  -0.81584431  *
     9       S          3.53702537  *  -3.59994178  *  -1.19653271  *
    10       C          2.37534556  *  -6.07199326  *  -1.35703118  *
    11       C          2.65544094  *  -6.41409236  *  -2.65066717  *
    12       C          2.60641647  *  -7.83001099  *  -2.85374446  *
    13       C          2.29163198  *  -8.50142119  *  -1.70611064  *
    14       S          2.05735492  *  -7.44249158  *  -0.37836489  *
    15       C          2.15750478  *  -9.91468032  *  -1.55156805  *
    16       C          1.12180909  * -10.57528229  *  -0.95405164  *
    17       C          1.30802554  * -11.99533584  *  -0.97346592  *
    18       C          2.47655534  * -12.34969495  *  -1.58401348  *
    19       S          3.35942351  * -10.98800292  *  -2.13878578  *
    20       C          2.97007082  * -13.67722888  *  -1.77820473  *
    21       S          2.01504353  * -14.83700698  *  -2.64259993  *
    22       C          3.21860434  * -16.04199149  *  -2.43860545  *
    23       C          4.32687753  * -15.56020727  *  -1.72288086  *
    24       C          4.15603932  * -14.17630435  *  -1.34975110  *
    25       C          5.43661793  * -16.36294763  *  -1.42856543  *
    26       C          5.45744438  * -17.67927113  *  -1.84428774  *
    27       C          4.36853855  * -18.18378960  *  -2.55135356  *
    28       C          3.24593071  * -17.36682907  *  -2.85909387  *
    29       N          2.33304068  * -18.11641379  *  -3.62370111  *
    30       C          2.82663519  * -19.43587791  *  -3.71009727  *
    31       C          4.10211665  * -19.49124995  *  -3.08975357  *
    32       C          4.81934191  * -20.67911401  *  -3.08819037  *
    33       C          4.25254412  * -21.79066345  *  -3.68978164  *
    34       C          2.98520323  * -21.72808176  *  -4.28354503  *
    35       C          2.24923892  * -20.55567611  *  -4.30474956  *
    36       C          0.97811452  * -17.76999518  *  -3.89762473  *
    37       C          0.08030327  * -17.94531871  *  -2.83063638  *
    38       C         -1.27464953  * -17.68880238  *  -2.95786840  *
    39       C         -1.72019695  * -17.31006748  *  -4.23729476  *
    40       C         -0.83593117  * -17.13106869  *  -5.29463097  *
    41       C          0.54195695  * -17.32543889  *  -5.14531006  *
    42       C          1.38643487  * -17.08480212  *  -6.37504955  *
    43       C          1.17838678  * -18.27881670  *  -7.31161932  *
    44       C          2.88172268  * -16.91252201  *  -6.12109783  *
    45       C          0.90991460  * -15.80083971  *  -7.07305849  *
    46       O         -3.07044400  * -17.21041772  *  -4.41096786  *
    47       C         -3.52042957  * -16.26512655  *  -5.35147702  *
    48       C         -2.21230522  * -17.84989610  *  -1.78779493  *
    49       C         -1.44938949  * -18.00404213  *  -0.46556241  *
    50       C         -3.05189258  * -19.10923595  *  -2.00614821  *
    51       C         -3.11259223  * -16.61893492  *  -1.64209019  *
    52       C          3.26516477  *   1.32074464  *   0.15862148  *
    53       O          4.47160207  *   1.52018393  *   0.16009641  *
    54       O          2.41909593  *   2.35870906  *   0.31167115  *
    55       H          4.43540810  *  -1.03556852  *  -0.12560108  *
    56       H          1.00157630  *  -2.32321987  *   1.05393524  *
    57       H          0.52239497  *  -4.79643923  *   0.40827454  *
    58       H          2.87876160  *  -5.71354397  *  -3.45200510  *
    59       H          2.79155089  *  -8.29265893  *  -3.82028494  *
    60       H          0.24588377  * -10.10374606  *  -0.51510131  *
    61       H          0.59118323  * -12.68989146  *  -0.54193722  *
    62       H          4.90764586  * -13.63033340  *  -0.78440688  *
    63       H          6.27421885  * -15.93768425  *  -0.87081659  *
    64       H          6.30936965  * -18.32923133  *  -1.62796149  *
    65       H          5.80531631  * -20.72574748  *  -2.61954495  *
    66       H          4.79901664  * -22.73776379  *  -3.70105154  *
    67       H          2.56719176  * -22.63079524  *  -4.74003838  *
    68       H          1.25708594  * -20.50874475  *  -4.75829077  *
    69       H          0.48284329  * -18.30789249  *  -1.87417225  *
    70       H         -1.21474244  * -16.83511337  *  -6.28093829  *
    71       H          1.50234882  * -19.22355200  *  -6.85155845  *
    72       H          0.12740554  * -18.41353453  *  -7.60358252  *
    73       H          1.75118781  * -18.16981601  *  -8.24399687  *
    74       H          3.39235154  * -17.85181392  *  -5.86786819  *
    75       H          3.40558202  * -16.54353027  *  -7.01767859  *
    76       H          3.08987161  * -16.18415607  *  -5.32540194  *
    77       H          1.47583495  * -15.59324252  *  -7.99254298  *
    78       H         -0.14827626  * -15.84678376  *  -7.37638305  *
    79       H          1.01811203  * -14.92178937  *  -6.42268613  *
    80       H         -3.47631332  * -16.65002839  *  -6.38363482  *
    81       H         -4.57753137  * -16.11186864  *  -5.08372392  *
    82       H         -2.99718222  * -15.29610712  *  -5.30699226  *
    83       H         -0.72332734  * -18.83125022  *  -0.48711778  *
    84       H         -0.89253145  * -17.09316320  *  -0.20179592  *
    85       H         -2.12369608  * -18.21438316  *   0.37749371  *
    86       H         -2.42571721  * -20.01112198  *  -2.06586047  *
    87       H         -3.76659486  * -19.26970894  *  -1.18568743  *
    88       H         -3.64683735  * -19.07987933  *  -2.92865629  *
    89       H         -3.53248731  * -16.52995005  *  -0.62850130  *
    90       H         -2.56585013  * -15.68627339  *  -1.83832981  *
    91       H         -3.98556537  * -16.62967231  *  -2.30844810  *
    92       H          2.90358589  *   3.19181560  *   0.40612969  *
 


          CARTESIAN COORDINATES 

    NO.       ATOM           X           Y           Z

     1         N          0.0228      0.0367     -0.0843
     2         C          1.1782      0.0201     -0.0372
     3         C          2.5946      0.0221      0.0060
     4         C          3.3357     -1.0970     -0.1137
     5         C          2.7704     -2.4085     -0.2372
     6         C          1.6385     -2.8827      0.3709
     7         C          1.3834     -4.2480      0.0328
     8         C          2.3318     -4.7516     -0.8158
     9         S          3.5370     -3.5999     -1.1965
    10         C          2.3753     -6.0720     -1.3570
    11         C          2.6554     -6.4141     -2.6507
    12         C          2.6064     -7.8300     -2.8537
    13         C          2.2916     -8.5014     -1.7061
    14         S          2.0574     -7.4425     -0.3784
    15         C          2.1575     -9.9147     -1.5516
    16         C          1.1218    -10.5753     -0.9541
    17         C          1.3080    -11.9953     -0.9735
    18         C          2.4766    -12.3497     -1.5840
    19         S          3.3594    -10.9880     -2.1388
    20         C          2.9701    -13.6772     -1.7782
    21         S          2.0150    -14.8370     -2.6426
    22         C          3.2186    -16.0420     -2.4386
    23         C          4.3269    -15.5602     -1.7229
    24         C          4.1560    -14.1763     -1.3498
    25         C          5.4366    -16.3629     -1.4286
    26         C          5.4574    -17.6793     -1.8443
    27         C          4.3685    -18.1838     -2.5514
    28         C          3.2459    -17.3668     -2.8591
    29         N          2.3330    -18.1164     -3.6237
    30         C          2.8266    -19.4359     -3.7101
    31         C          4.1021    -19.4912     -3.0898
    32         C          4.8193    -20.6791     -3.0882
    33         C          4.2525    -21.7907     -3.6898
    34         C          2.9852    -21.7281     -4.2835
    35         C          2.2492    -20.5557     -4.3047
    36         C          0.9781    -17.7700     -3.8976
    37         C          0.0803    -17.9453     -2.8306
    38         C         -1.2746    -17.6888     -2.9579
    39         C         -1.7202    -17.3101     -4.2373
    40         C         -0.8359    -17.1311     -5.2946
    41         C          0.5420    -17.3254     -5.1453
    42         C          1.3864    -17.0848     -6.3750
    43         C          1.1784    -18.2788     -7.3116
    44         C          2.8817    -16.9125     -6.1211
    45         C          0.9099    -15.8008     -7.0731
    46         O         -3.0704    -17.2104     -4.4110
    47         C         -3.5204    -16.2651     -5.3515
    48         C         -2.2123    -17.8499     -1.7878
    49         C         -1.4494    -18.0040     -0.4656
    50         C         -3.0519    -19.1092     -2.0061
    51         C         -3.1126    -16.6189     -1.6421
    52         C          3.2652      1.3207      0.1586
    53         O          4.4716      1.5202      0.1601
    54         O          2.4191      2.3587      0.3117
    55         H          4.4354     -1.0356     -0.1256
    56         H          1.0016     -2.3232      1.0539
    57         H          0.5224     -4.7964      0.4083
    58         H          2.8788     -5.7135     -3.4520
    59         H          2.7916     -8.2927     -3.8203
    60         H          0.2459    -10.1037     -0.5151
    61         H          0.5912    -12.6899     -0.5419
    62         H          4.9076    -13.6303     -0.7844
    63         H          6.2742    -15.9377     -0.8708
    64         H          6.3094    -18.3292     -1.6280
    65         H          5.8053    -20.7257     -2.6195
    66         H          4.7990    -22.7378     -3.7011
    67         H          2.5672    -22.6308     -4.7400
    68         H          1.2571    -20.5087     -4.7583
    69         H          0.4828    -18.3079     -1.8742
    70         H         -1.2147    -16.8351     -6.2809
    71         H          1.5023    -19.2236     -6.8516
    72         H          0.1274    -18.4135     -7.6036
    73         H          1.7512    -18.1698     -8.2440
    74         H          3.3924    -17.8518     -5.8679
    75         H          3.4056    -16.5435     -7.0177
    76         H          3.0899    -16.1842     -5.3254
    77         H          1.4758    -15.5932     -7.9925
    78         H         -0.1483    -15.8468     -7.3764
    79         H          1.0181    -14.9218     -6.4227
    80         H         -3.4763    -16.6500     -6.3836
    81         H         -4.5775    -16.1119     -5.0837
    82         H         -2.9972    -15.2961     -5.3070
    83         H         -0.7233    -18.8313     -0.4871
    84         H         -0.8925    -17.0932     -0.2018
    85         H         -2.1237    -18.2144      0.3775
    86         H         -2.4257    -20.0111     -2.0659
    87         H         -3.7666    -19.2697     -1.1857
    88         H         -3.6468    -19.0799     -2.9287
    89         H         -3.5325    -16.5300     -0.6285
    90         H         -2.5659    -15.6863     -1.8383
    91         H         -3.9856    -16.6297     -2.3084
    92         H          2.9036      3.1918      0.4061

  H: (RM1): G.B. ROCHA, R.O. FREIRE, A.M.SIMAS, J.J.P. STEWART, J. COMP. CHEM. 27, 1101 (2006)
  C: (RM1): G.B. ROCHA, R.O. FREIRE, A.M.SIMAS, J.J.P. STEWART, J. COMP. CHEM. 27, 1101 (2006)
  N: (RM1): G.B. ROCHA, R.O. FREIRE, A.M.SIMAS, J.J.P. STEWART, J. COMP. CHEM. 27, 1101 (2006)
  O: (RM1): G.B. ROCHA, R.O. FREIRE, A.M.SIMAS, J.J.P. STEWART, J. COMP. CHEM. 27, 1101 (2006)
  S: (RM1): G.B. ROCHA, R.O. FREIRE, A.M.SIMAS, J.J.P. STEWART, J. COMP. CHEM. 27, 1101 (2006)

           Empirical Formula: C45 H38 N2 O3 S4  =    92 atoms



      MOLECULAR POINT GROUP   :   C1  


      RHF CALCULATION, NO. OF DOUBLY OCCUPIED LEVELS = 135


          Geometry optimization using L-BFGS
 CYCLE:     1 TIME:   0.410 TIME LEFT:  2.00D  GRAD.:     0.108 HEAT:  74.08608
 CYCLE:     2 TIME:   0.172 TIME LEFT:  2.00D  GRAD.:     0.098 HEAT:  74.08608

 -------------------------------------------------------------------------------
 RM1 PRECISE POLAR XYZ GNORM=0.1




     HERBERTS TEST WAS SATISFIED IN BFGS                      
     SCF FIELD WAS ACHIEVED                                   


                              RM1 CALCULATION
                                                       MOPAC2016 (Version: 21.013L)
                                                       Mon Oct 18 16:28:43 2021
                                                       No. of days remaining =  87




          FINAL HEAT OF FORMATION =         74.08608 KCAL/MOL =     309.97615 KJ/MOL


          TOTAL ENERGY            =      -8291.55844 EV
          ELECTRONIC ENERGY       =     -90223.98711 EV  POINT GROUP:     C1  
          CORE-CORE REPULSION     =      81932.42867 EV
          COSMO AREA              =        714.46 SQUARE ANGSTROMS
          COSMO VOLUME            =        901.93 CUBIC ANGSTROMS

          GRADIENT NORM           =          0.09794 = 0.01021 PER ATOM
          IONIZATION POTENTIAL    =          7.945452 EV
          HOMO LUMO ENERGIES (EV) =         -7.945 -1.333
          NO. OF FILLED LEVELS    =        135
          MOLECULAR WEIGHT        =        783.0468

          MOLECULAR DIMENSIONS (Angstroms)

            Atom       Atom       Distance
            H    92    H    67    26.33255
            H    81    H    63    11.58690
            H    77    H    85     9.42599


          SCF CALCULATIONS        =          3
 
          WALL-CLOCK TIME         =          0.766 SECONDS
          COMPUTATION TIME        =          8.652 SECONDS




   ATOM   CHEMICAL          X               Y               Z
  NUMBER   SYMBOL      (ANGSTROMS)     (ANGSTROMS)     (ANGSTROMS)
 
     1       N          0.02280853  *   0.03668440  *  -0.08426057  *
     2       C          1.17819143  *   0.02011029  *  -0.03717172  *
     3       C          2.59460090  *   0.02207332  *   0.00597334  *
     4       C          3.33565600  *  -1.09700477  *  -0.11369504  *
     5       C          2.77039497  *  -2.40851915  *  -0.23716255  *
     6       C          1.63849217  *  -2.88269491  *   0.37090531  *
     7       C          1.38338964  *  -4.24796316  *   0.03283461  *
     8       C          2.33175949  *  -4.75161591  *  -0.81584430  *
     9       S          3.53702538  *  -3.59994179  *  -1.19653259  *
    10       C          2.37534549  *  -6.07199331  *  -1.35703124  *
    11       C          2.65544081  *  -6.41409232  *  -2.65066715  *
    12       C          2.60641648  *  -7.83001103  *  -2.85374447  *
    13       C          2.29163202  *  -8.50142118  *  -1.70611067  *
    14       S          2.05735484  *  -7.44249161  *  -0.37836491  *
    15       C          2.15750474  *  -9.91468044  *  -1.55156802  *
    16       C          1.12180911  * -10.57528229  *  -0.95405162  *
    17       C          1.30802565  * -11.99533590  *  -0.97346594  *
    18       C          2.47655522  * -12.34969493  *  -1.58401338  *
    19       S          3.35942351  * -10.98800292  *  -2.13878568  *
    20       C          2.97007076  * -13.67722881  *  -1.77820475  *
    21       S          2.01504356  * -14.83700707  *  -2.64259995  *
    22       C          3.21860428  * -16.04199166  *  -2.43860545  *
    23       C          4.32687755  * -15.56020729  *  -1.72288088  *
    24       C          4.15603947  * -14.17630434  *  -1.34975115  *
    25       C          5.43661786  * -16.36294747  *  -1.42856541  *
    26       C          5.45744448  * -17.67927119  *  -1.84428773  *
    27       C          4.36853860  * -18.18378959  *  -2.55135357  *
    28       C          3.24593082  * -17.36682897  *  -2.85909386  *
    29       N          2.33304068  * -18.11641395  *  -3.62370119  *
    30       C          2.82663514  * -19.43587769  *  -3.71009727  *
    31       C          4.10211658  * -19.49124989  *  -3.08975358  *
    32       C          4.81934181  * -20.67911407  *  -3.08819038  *
    33       C          4.25254412  * -21.79066344  *  -3.68978162  *
    34       C          2.98520316  * -21.72808172  *  -4.28354500  *
    35       C          2.24923884  * -20.55567621  *  -4.30474954  *
    36       C          0.97811457  * -17.76999507  *  -3.89762467  *
    37       C          0.08030326  * -17.94531868  *  -2.83063635  *
    38       C         -1.27464950  * -17.68880238  *  -2.95786847  *
    39       C         -1.72019693  * -17.31006754  *  -4.23729467  *
    40       C         -0.83593104  * -17.13106875  *  -5.29463099  *
    41       C          0.54195685  * -17.32543886  *  -5.14530994  *
    42       C          1.38643485  * -17.08480212  *  -6.37504951  *
    43       C          1.17838681  * -18.27881666  *  -7.31161931  *
    44       C          2.88172262  * -16.91252202  *  -6.12109786  *
    45       C          0.90991466  * -15.80083973  *  -7.07305852  *
    46       O         -3.07044403  * -17.21041779  *  -4.41096788  *
    47       C         -3.52042956  * -16.26512658  *  -5.35147698  *
    48       C         -2.21230518  * -17.84989612  *  -1.78779492  *
    49       C         -1.44938949  * -18.00404216  *  -0.46556238  *
    50       C         -3.05189259  * -19.10923592  *  -2.00614817  *
    51       C         -3.11259220  * -16.61893492  *  -1.64209021  *
    52       C          3.26516469  *   1.32074463  *   0.15862153  *
    53       O          4.47160225  *   1.52018401  *   0.16009641  *
    54       O          2.41909597  *   2.35870912  *   0.31167107  *
    55       H          4.43540807  *  -1.03556858  *  -0.12560106  *
    56       H          1.00157631  *  -2.32321988  *   1.05393527  *
    57       H          0.52239501  *  -4.79643929  *   0.40827453  *
    58       H          2.87876173  *  -5.71354391  *  -3.45200510  *
    59       H          2.79155086  *  -8.29265890  *  -3.82028497  *
    60       H          0.24588376  * -10.10374607  *  -0.51510134  *
    61       H          0.59118317  * -12.68989148  *  -0.54193721  *
    62       H          4.90764585  * -13.63033330  *  -0.78440686  *
    63       H          6.27421888  * -15.93768416  *  -0.87081656  *
    64       H          6.30936978  * -18.32923128  *  -1.62796146  *
    65       H          5.80531632  * -20.72574752  *  -2.61954501  *
    66       H          4.79901664  * -22.73776376  *  -3.70105153  *
    67       H          2.56719183  * -22.63079526  *  -4.74003844  *
    68       H          1.25708600  * -20.50874487  *  -4.75829090  *
    69       H          0.48284319  * -18.30789257  *  -1.87417234  *
    70       H         -1.21474251  * -16.83511345  *  -6.28093827  *
    71       H          1.50234885  * -19.22355194  *  -6.85155842  *
    72       H          0.12740559  * -18.41353456  *  -7.60358249  *
    73       H          1.75118788  * -18.16981599  *  -8.24399688  *
    74       H          3.39235154  * -17.85181387  *  -5.86786813  *
    75       H          3.40558206  * -16.54353034  *  -7.01767858  *
    76       H          3.08987161  * -16.18415605  *  -5.32540207  *
    77       H          1.47583497  * -15.59324249  *  -7.99254309  *
    78       H         -0.14827616  * -15.84678378  *  -7.37638313  *
    79       H          1.01811198  * -14.92178934  *  -6.42268619  *
    80       H         -3.47631340  * -16.65002843  *  -6.38363477  *
    81       H         -4.57753141  * -16.11186853  *  -5.08372395  *
    82       H         -2.99718230  * -15.29610711  *  -5.30699232  *
    83       H         -0.72332736  * -18.83125028  *  -0.48711782  *
    84       H         -0.89253142  * -17.09316321  *  -0.20179593  *
    85       H         -2.12369618  * -18.21438319  *   0.37749373  *
    86       H         -2.42571727  * -20.01112201  *  -2.06586038  *
    87       H         -3.76659487  * -19.26970891  *  -1.18568733  *
    88       H         -3.64683730  * -19.07987925  *  -2.92865630  *
    89       H         -3.53248736  * -16.52995005  *  -0.62850134  *
    90       H         -2.56585013  * -15.68627336  *  -1.83832973  *
    91       H         -3.98556540  * -16.62967229  *  -2.30844809  *
    92       H          2.90358584  *   3.19181567  *   0.40612968  *

                             CARTESIAN COORDINATES

   1    N        0.022808527     0.036684395    -0.084260565
   2    C        1.178191427     0.020110293    -0.037171725
   3    C        2.594600905     0.022073317     0.005973336
   4    C        3.335656000    -1.097004768    -0.113695037
   5    C        2.770394968    -2.408519150    -0.237162553
   6    C        1.638492170    -2.882694906     0.370905314
   7    C        1.383389635    -4.247963164     0.032834609
   8    C        2.331759491    -4.751615906    -0.815844301
   9    S        3.537025377    -3.599941786    -1.196532590
  10    C        2.375345487    -6.071993306    -1.357031237
  11    C        2.655440810    -6.414092322    -2.650667155
  12    C        2.606416478    -7.830011027    -2.853744475
  13    C        2.291632017    -8.501421179    -1.706110666
  14    S        2.057354836    -7.442491614    -0.378364911
  15    C        2.157504744    -9.914680438    -1.551568016
  16    C        1.121809113   -10.575282287    -0.954051617
  17    C        1.308025647   -11.995335900    -0.973465944
  18    C        2.476555222   -12.349694932    -1.584013383
  19    S        3.359423515   -10.988002920    -2.138785676
  20    C        2.970070762   -13.677228810    -1.778204753
  21    S        2.015043555   -14.837007069    -2.642599954
  22    C        3.218604277   -16.041991658    -2.438605453
  23    C        4.326877551   -15.560207286    -1.722880878
  24    C        4.156039469   -14.176304335    -1.349751154
  25    C        5.436617860   -16.362947474    -1.428565414
  26    C        5.457444477   -17.679271187    -1.844287730
  27    C        4.368538601   -18.183789587    -2.551353570
  28    C        3.245930816   -17.366828967    -2.859093856
  29    N        2.333040677   -18.116413950    -3.623701186
  30    C        2.826635140   -19.435877690    -3.710097270
  31    C        4.102116584   -19.491249895    -3.089753581
  32    C        4.819341811   -20.679114065    -3.088190385
  33    C        4.252544124   -21.790663441    -3.689781621
  34    C        2.985203161   -21.728081718    -4.283544999
  35    C        2.249238840   -20.555676214    -4.304749542
  36    C        0.978114569   -17.769995071    -3.897624667
  37    C        0.080303261   -17.945318678    -2.830636352
  38    C       -1.274649502   -17.688802378    -2.957868467
  39    C       -1.720196928   -17.310067543    -4.237294671
  40    C       -0.835931036   -17.131068749    -5.294630990
  41    C        0.541956850   -17.325438861    -5.145309940
  42    C        1.386434848   -17.084802119    -6.375049506
  43    C        1.178386810   -18.278816665    -7.311619311
  44    C        2.881722622   -16.912522023    -6.121097860
  45    C        0.909914656   -15.800839726    -7.073058525
  46    O       -3.070444034   -17.210417786    -4.410967876
  47    C       -3.520429557   -16.265126579    -5.351476978
  48    C       -2.212305180   -17.849896118    -1.787794919
  49    C       -1.449389485   -18.004042156    -0.465562378
  50    C       -3.051892585   -19.109235924    -2.006148170
  51    C       -3.112592196   -16.618934924    -1.642090212
  52    C        3.265164690     1.320744625     0.158621530
  53    O        4.471602250     1.520184012     0.160096406
  54    O        2.419095969     2.358709120     0.311671067
  55    H        4.435408066    -1.035568580    -0.125601061
  56    H        1.001576312    -2.323219881     1.053935273
  57    H        0.522395012    -4.796439289     0.408274527
  58    H        2.878761733    -5.713543913    -3.452005103
  59    H        2.791550858    -8.292658896    -3.820284968
  60    H        0.245883761   -10.103746075    -0.515101339
  61    H        0.591183171   -12.689891477    -0.541937214
  62    H        4.907645846   -13.630333302    -0.784406859
  63    H        6.274218881   -15.937684164    -0.870816563
  64    H        6.309369776   -18.329231279    -1.627961459
  65    H        5.805316315   -20.725747519    -2.619545006
  66    H        4.799016636   -22.737763764    -3.701051533
  67    H        2.567191835   -22.630795262    -4.740038443
  68    H        1.257086003   -20.508744873    -4.758290905
  69    H        0.482843189   -18.307892568    -1.874172342
  70    H       -1.214742514   -16.835113448    -6.280938267
  71    H        1.502348851   -19.223551942    -6.851558425
  72    H        0.127405592   -18.413534565    -7.603582486
  73    H        1.751187880   -18.169815989    -8.243996877
  74    H        3.392351542   -17.851813869    -5.867868132
  75    H        3.405582057   -16.543530338    -7.017678584
  76    H        3.089871612   -16.184156055    -5.325402067
  77    H        1.475834969   -15.593242494    -7.992543088
  78    H       -0.148276159   -15.846783779    -7.376383127
  79    H        1.018111984   -14.921789344    -6.422686195
  80    H       -3.476313401   -16.650028435    -6.383634774
  81    H       -4.577531408   -16.111868528    -5.083723946
  82    H       -2.997182296   -15.296107110    -5.306992317
  83    H       -0.723327364   -18.831250285    -0.487117822
  84    H       -0.892531424   -17.093163213    -0.201795928
  85    H       -2.123696176   -18.214383185     0.377493733
  86    H       -2.425717275   -20.011122008    -2.065860380
  87    H       -3.766594868   -19.269708909    -1.185687335
  88    H       -3.646837303   -19.079879245    -2.928656304
  89    H       -3.532487361   -16.529950053    -0.628501335
  90    H       -2.565850133   -15.686273363    -1.838329729
  91    H       -3.985565399   -16.629672287    -2.308448090
  92    H        2.903585845     3.191815674     0.406129675


           Empirical Formula: C45 H38 N2 O3 S4  =    92 atoms



      MOLECULAR POINT GROUP   :   C1  


                  EIGENVALUES  
 -39.88231 -39.22310 -38.66038 -37.16160 -36.96461 -36.56142 -36.41364 -36.05639
 -35.95948 -35.47722 -35.27754 -35.07431 -33.76327 -33.37899 -33.00525 -31.11468
 -30.39411 -29.62956 -29.49786 -28.91507 -28.76971 -28.06991 -27.61179 -27.16145
 -26.94836 -26.92996 -26.69547 -26.57697 -26.39316 -25.30087 -24.29813 -23.96515
 -23.53955 -23.37602 -23.18994 -22.48999 -22.46372 -22.19919 -21.54233 -21.19905
 -20.57621 -20.49087 -20.18922 -20.13306 -19.99323 -19.69403 -19.01568 -18.36212
 -18.23813 -17.93365 -17.70837 -17.64469 -17.52400 -17.47528 -17.17845 -17.16737
 -16.82369 -16.51511 -16.33095 -16.30138 -16.27107 -16.06316 -15.75563 -15.61236
 -15.37028 -15.34634 -15.22356 -15.15854 -15.02981 -14.86528 -14.80679 -14.74347
 -14.68132 -14.63914 -14.58154 -14.49526 -14.47123 -14.36600 -14.28228 -14.17106
 -14.15217 -14.12476 -14.04121 -13.96520 -13.86453 -13.82590 -13.56123 -13.52831
 -13.48449 -13.39018 -13.24848 -13.15106 -13.03085 -12.98086 -12.94955 -12.90633
 -12.79302 -12.74175 -12.69207 -12.59765 -12.54324 -12.48390 -12.46459 -12.30005
 -12.22806 -12.15586 -12.11122 -12.00702 -11.95845 -11.91479 -11.85260 -11.80641
 -11.76999 -11.71997 -11.69574 -11.60642 -11.56684 -11.42871 -11.31249 -11.28570
 -11.18954 -11.02798 -10.36113 -10.10563  -9.96213  -9.72999  -9.57533  -9.54810
  -9.48469  -9.41427  -9.03797  -9.01806  -8.85886  -8.31211  -7.94545  -1.33328
  -0.72932  -0.44687  -0.05259   0.20189   0.24180   0.33773   0.34796   0.60647
   0.68262   0.86416   1.04592   1.08357   1.10060   1.24183   1.32589   1.44516
   1.54029   1.54600   1.58239   1.68243   1.77288   1.81886   1.88282   1.96925
   2.18575   2.40623   2.53662   2.75542   2.92598   2.93948   3.26620   3.59528
   3.62258   3.74090   3.75075   3.78908   3.87062   3.87388   3.92538   3.94756
   4.00111   4.02531   4.05993   4.13586   4.17000   4.19603   4.24409   4.29195
   4.31308   4.34228   4.35868   4.38302   4.40297   4.42708   4.45901   4.47780
   4.48392   4.49419   4.55622   4.57166   4.58759   4.61322   4.62081   4.63540
   4.68940   4.69982   4.72309   4.75286   4.76366   4.77481   4.81403   4.83986
   4.87696   4.88546   4.90230   4.92844   4.96016   4.97080   4.98741   5.03049
   5.07203   5.08096   5.08611   5.12076   5.14705   5.16499   5.19345   5.22694
   5.23298   5.25300   5.29661   5.31808   5.33918   5.39122   5.41714   5.49601
   5.50177   5.52554   5.56759   5.59735   5.61715   5.66215   5.67145   5.70049
   5.73763   5.76267   5.86923   5.89739   5.90572   5.97670   6.00221   6.11737
   6.19837   6.21564   6.43428   6.49504   6.50678   6.75179


              NET ATOMIC CHARGES AND DIPOLE CONTRIBUTIONS

  ATOM NO.   TYPE          CHARGE      No. of ELECS.   s-Pop       p-Pop
   53          O          -0.376095        6.3761     1.91038     4.46571
   52          C           0.401430        3.5986     1.18047     2.41810
   54          O          -0.310464        6.3105     1.83990     4.47056
   92          H           0.245507        0.7545     0.75449
    2          C           0.051553        3.9484     1.19482     2.75362
    1          N          -0.147260        5.1473     1.84821     3.29905
    3          C          -0.140163        4.1402     1.14245     2.99771
    4          C           0.135978        3.8640     1.17204     2.69198
    5          C          -0.416506        4.4165     1.21535     3.20116
    6          C          -0.015945        4.0159     1.18417     2.83177
    7          C          -0.136457        4.1365     1.18424     2.95221
    8          C          -0.215720        4.2157     1.20379     3.01193
    9          S           0.496526        5.5035     1.88528     3.61820
   10          C          -0.286715        4.2867     1.20176     3.08495
   11          C          -0.085371        4.0854     1.18194     2.90343
   12          C          -0.110586        4.1106     1.18208     2.92851
   13          C          -0.242226        4.2422     1.20204     3.04019
   14          S           0.469920        5.5301     1.88700     3.64308
   15          C          -0.268105        4.2681     1.20140     3.06670
   16          C          -0.097175        4.0972     1.18202     2.91516
   17          C          -0.100517        4.1005     1.18193     2.91859
   18          C          -0.256530        4.2565     1.20285     3.05368
   19          S           0.460084        5.5399     1.88745     3.65247
   20          C          -0.226951        4.2270     1.20077     3.02618
   21          S           0.414990        5.5850     1.89068     3.69433
   22          C          -0.333493        4.3335     1.20443     3.12906
   23          C           0.013953        3.9860     1.16102     2.82503
   24          C          -0.096455        4.0965     1.18054     2.91591
   25          C          -0.141967        4.1420     1.17244     2.96953
   26          C          -0.030488        4.0305     1.16881     2.86167
   27          C          -0.102023        4.1020     1.16020     2.94182
   28          C           0.173783        3.8262     1.13749     2.68872
   29          N          -0.246850        5.2468     1.49004     3.75681
   30          C           0.114462        3.8855     1.15290     2.73264
   31          C          -0.091968        4.0920     1.15867     2.93330
   32          C          -0.038777        4.0388     1.16921     2.86957
   33          C          -0.155636        4.1556     1.17810     2.97754
   34          C          -0.059316        4.0593     1.17656     2.88275
   35          C          -0.159157        4.1592     1.17170     2.98746
   36          C           0.040240        3.9598     1.14141     2.81835
   37          C          -0.084066        4.0841     1.18719     2.89688
   38          C          -0.088666        4.0887     1.17955     2.90911
   39          C           0.138110        3.8619     1.17028     2.69161
   40          C          -0.226686        4.2267     1.18287     3.04381
   41          C           0.024719        3.9753     1.18030     2.79498
   42          C           0.056768        3.9432     1.16808     2.77515
   43          C          -0.189532        4.1895     1.16201     3.02752
   44          C          -0.188627        4.1886     1.16037     3.02825
   45          C          -0.189869        4.1899     1.16394     3.02593
   46          O          -0.233281        6.2333     1.86009     4.37319
   47          C          -0.015747        4.0157     1.16210     2.85365
   48          C           0.080475        3.9195     1.16418     2.75535
   49          C          -0.196653        4.1967     1.16357     3.03308
   50          C          -0.188155        4.1882     1.16069     3.02747
   51          C          -0.184885        4.1849     1.16056     3.02432
   55          H           0.134303        0.8657     0.86570
   56          H           0.137426        0.8626     0.86257
   57          H           0.140094        0.8599     0.85991
   58          H           0.129710        0.8703     0.87029
   59          H           0.133652        0.8663     0.86635
   60          H           0.129243        0.8708     0.87076
   61          H           0.132656        0.8673     0.86734
   62          H           0.131351        0.8686     0.86865
   63          H           0.114058        0.8859     0.88594
   64          H           0.108604        0.8914     0.89140
   65          H           0.107096        0.8929     0.89290
   66          H           0.107405        0.8926     0.89260
   67          H           0.101427        0.8986     0.89857
   68          H           0.124266        0.8757     0.87573
   69          H           0.132551        0.8674     0.86745
   70          H           0.132703        0.8673     0.86730
   71          H           0.068789        0.9312     0.93121
   72          H           0.060476        0.9395     0.93952
   73          H           0.064104        0.9359     0.93590
   74          H           0.077854        0.9221     0.92215
   75          H           0.057588        0.9424     0.94241
   76          H           0.072704        0.9273     0.92730
   77          H           0.064976        0.9350     0.93502
   78          H           0.056374        0.9436     0.94363
   79          H           0.067753        0.9322     0.93225
   80          H           0.052041        0.9480     0.94796
   81          H           0.079253        0.9207     0.92075
   82          H           0.059596        0.9404     0.94040
   83          H           0.062811        0.9372     0.93719
   84          H           0.064827        0.9352     0.93517
   85          H           0.065285        0.9347     0.93471
   86          H           0.060230        0.9398     0.93977
   87          H           0.059018        0.9410     0.94098
   88          H           0.076708        0.9233     0.92329
   89          H           0.057170        0.9428     0.94283
   90          H           0.059611        0.9404     0.94039
   91          H           0.072871        0.9271     0.92713
 DIPOLE           X         Y         Z       TOTAL
 POINT-CHG.     0.458    -3.222    -1.956     3.797
 HYBRID        -0.362     0.760     0.612     1.041
 SUM            0.096    -2.461    -1.345     2.806


          ATOMIC ORBITAL ELECTRON POPULATIONS

     Atom    s        px        py        pz   
    1  N   1.84821   1.11269   1.08726   1.09910
    2  C   1.19482   0.91177   0.91978   0.92207
    3  C   1.14245   0.89025   0.93655   1.17091
    4  C   1.17204   0.99065   0.88680   0.81453
    5  C   1.21535   1.05464   1.01177   1.13475
    6  C   1.18417   0.92560   0.94595   0.96022
    7  C   1.18424   0.99893   0.95480   0.99849
    8  C   1.20379   1.01197   0.96961   1.03035
    9  S   1.88528   1.20446   0.95644   1.45730
   10  C   1.20176   1.12800   0.96514   0.99181
   11  C   1.18194   0.99858   0.95754   0.94731
   12  C   1.18208   1.01837   0.93282   0.97731
   13  C   1.20204   1.09363   0.95574   0.99082
   14  S   1.88700   1.69784   0.89570   1.04954
   15  C   1.20140   1.01891   0.95370   1.09410
   16  C   1.18202   0.97893   0.93610   1.00013
   17  C   1.18193   0.96544   0.95317   0.99998
   18  C   1.20285   1.01021   0.96498   1.07849
   19  S   1.88745   1.17771   0.89934   1.57542
   20  C   1.20077   0.99836   0.96337   1.06445
   21  S   1.89068   1.14550   0.96106   1.58778
   22  C   1.20443   1.02968   0.98348   1.11591
   23  C   1.16102   0.93190   0.92553   0.96760
   24  C   1.18054   0.96484   0.94694   1.00413
   25  C   1.17244   0.98231   0.94886   1.03835
   26  C   1.16881   0.96154   0.94817   0.95196
   27  C   1.16020   0.95989   0.93317   1.04877
   28  C   1.13749   0.88567   0.89182   0.91124
   29  N   1.49004   1.12385   1.10929   1.52367
   30  C   1.15290   0.93079   0.82428   0.97756
   31  C   1.15867   0.95602   0.93914   1.03814
   32  C   1.16921   0.97937   0.91881   0.97138
   33  C   1.17810   0.96940   0.98589   1.02225
   34  C   1.17656   0.94380   0.96550   0.97345
   35  C   1.17170   1.01057   0.92912   1.04776
   36  C   1.14141   0.80535   1.07209   0.94092
   37  C   1.18719   0.93294   0.97320   0.99074
   38  C   1.17955   0.94225   1.03051   0.93636
   39  C   1.17028   0.82225   0.94767   0.92169
   40  C   1.18287   0.94990   1.09828   0.99563
   41  C   1.18030   0.93097   0.93570   0.92831
   42  C   1.16808   0.93612   0.93410   0.90493
   43  C   1.16201   1.03095   0.99115   1.00542
   44  C   1.16037   0.94518   1.04682   1.03626
   45  C   1.16394   1.02175   0.98565   1.01853
   46  O   1.86009   1.20247   1.57195   1.59877
   47  C   1.16210   1.00183   0.92048   0.93133
   48  C   1.16418   0.91943   0.94010   0.89582
   49  C   1.16357   1.02062   1.03187   0.98060
   50  C   1.16069   1.00943   0.97761   1.04043
   51  C   1.16056   1.00917   0.98103   1.03412
   52  C   1.18047   0.84549   0.84775   0.72487
   53  O   1.91038   1.15665   1.84928   1.45978
   54  O   1.83990   1.42034   1.19665   1.85357
   55  H   0.86570
   56  H   0.86257
   57  H   0.85991
   58  H   0.87029
   59  H   0.86635
   60  H   0.87076
   61  H   0.86734
   62  H   0.86865
   63  H   0.88594
   64  H   0.89140
   65  H   0.89290
   66  H   0.89260
   67  H   0.89857
   68  H   0.87573
   69  H   0.86745
   70  H   0.86730
   71  H   0.93121
   72  H   0.93952
   73  H   0.93590
   74  H   0.92215
   75  H   0.94241
   76  H   0.92730
   77  H   0.93502
   78  H   0.94363
   79  H   0.93225
   80  H   0.94796
   81  H   0.92075
   82  H   0.94040
   83  H   0.93719
   84  H   0.93517
   85  H   0.93471
   86  H   0.93977
   87  H   0.94098
   88  H   0.92329
   89  H   0.94283
   90  H   0.94039
   91  H   0.92713
   92  H   0.75449
 ******************** TDHF POLARIZABILITIES ********************



          MOLECULAR WEIGHT =  783.05



          ROTATIONAL CONSTANTS IN CM(-1)

          A =    0.00331853   B =    0.00040448   C =    0.00038435



           PRINCIPAL MOMENTS OF INERTIA IN UNITS OF 10**(-40)*GRAM-CM**2

          A =     8435.2973   B =    69207.2457   C =    72831.3185


 ROTATION MATRIX FOR ORIENTATION OF MOLECULE:

         0.073649   -0.991519   -0.107082
         0.977003    0.093279   -0.191742
         0.200104   -0.090498    0.975586


          CARTESIAN COORDINATES 

    NO.       ATOM         X         Y         Z

     1         N       12.1434    2.7301    0.0643
     2         C       12.2218    1.5787   -0.0103
     3         C       12.3366    0.1706   -0.1203
     4         C       11.2739   -0.6578   -0.1018
     5         C        9.9262   -0.2085    0.0898
     6         C        9.5013    0.8146    0.8951
     7         C        8.0810    0.9708    0.8544
     8         C        7.4889    0.0603    0.0214
     9         S        8.6267   -0.9929   -0.6998
    10         C        6.0938   -0.0572   -0.2580
    11         C        5.5214   -0.2497   -1.4845
    12         C        4.0938   -0.3148   -1.4059
    13         C        3.6442   -0.1692   -0.1238
    14         S        4.9273    0.0417    0.9936
    15         C        2.2845   -0.1820    0.3123
    16         C        1.6824    0.7292    1.1328
    17         C        0.3048    0.4139    1.3662
    18         C       -0.0775   -0.7225    0.7134
    19         S        1.2069   -1.4207   -0.1835
    20         C       -1.3770   -1.3181    0.7256
    21         S       -2.7534   -0.4012    0.2070
    22         C       -3.8012   -1.7254    0.5082
    23         C       -3.1057   -2.8441    0.9954
    24         C       -1.6915   -2.5794    1.1123
    25         C       -3.7493   -4.0459    1.3176
    26         C       -5.1170   -4.1517    1.1622
    27         C       -5.8316   -3.0551    0.6857
    28         C       -5.1777   -1.8380    0.3491
    29         N       -6.1303   -0.9336   -0.1554
    30         C       -7.4004   -1.5382   -0.0395
    31         C       -7.2364   -2.8642    0.4397
    32         C       -8.3438   -3.6863    0.5922
    33         C       -9.5919   -3.1735    0.2791
    34         C       -9.7429   -1.8574   -0.1765
    35         C       -8.6559   -1.0164   -0.3431
    36         C       -5.9464    0.4670   -0.3440
    37         C       -5.9704    1.2443    0.8267
    38         C       -5.8450    2.6232    0.7985
    39         C       -5.7638    3.2160   -0.4746
    40         C       -5.7354    2.4517   -1.6351
    41         C       -5.7939    1.0538   -1.5997
    42         C       -5.7427    0.3502   -2.9360
    43         C       -7.1120    0.5299   -3.5985
    44         C       -5.4134   -1.1393   -2.8814
    45         C       -4.6630    1.0056   -3.8121
    46         O       -5.8006    4.5798   -0.5185
    47         C       -5.0984    5.1993   -1.5692
    48         C       -5.8373    3.4319    2.0713
    49         C       -5.6671    2.5415    3.3091
    50         C       -7.1732    4.1667    2.1897
    51         C       -4.6718    4.4262    2.0738
    52         C       13.6854   -0.3870   -0.2922
    53         O       13.9694   -1.5647   -0.4581
    54         O       14.6678    0.5349   -0.2513
    55         H       11.4126   -1.7414   -0.2429
    56         H       10.1376    1.4365    1.5224
    57         H        7.5568    1.7393    1.4180
    58         H        6.0619   -0.3333   -2.4245
    59         H        3.4620   -0.4540   -2.2799
    60         H        2.1664    1.6020    1.5644
    61         H       -0.3402    1.0208    1.9972
    62         H       -0.9896   -3.3248    1.4787
    63         H       -3.1605   -4.8872    1.6905
    64         H       -5.6460   -5.0766    1.4066
    65         H       -8.2230   -4.7107    0.9527
    66         H      -10.4792   -3.8027    0.3912
    67         H      -10.7470   -1.4858   -0.4040
    68         H       -8.7739    0.0128   -0.6884
    69         H       -6.1035    0.7248    1.7863
    70         H       -5.6715    2.9441   -2.6135
    71         H       -7.9191    0.0789   -3.0032
    72         H       -7.3794    1.5858   -3.7450
    73         H       -7.1499    0.0565   -4.5904
    74         H       -6.2428   -1.7561   -2.5089
    75         H       -5.1937   -1.5431   -3.8830
    76         H       -4.5273   -1.3497   -2.2671
    77         H       -4.6025    0.5471   -4.8096
    78         H       -4.8465    2.0780   -3.9859
    79         H       -3.6661    0.9215   -3.3578
    80         H       -5.6778    5.2131   -2.5070
    81         H       -4.9730    6.2375   -1.2241
    82         H       -4.1043    4.7669   -1.7676
    83         H       -6.4261    1.7463    3.3690
    84         H       -4.6834    2.0504    3.3322
    85         H       -5.7536    3.1141    4.2441
    86         H       -8.0202    3.4671    2.2373
    87         H       -7.2184    4.7861    3.0974
    88         H       -7.3729    4.8428    1.3478
    89         H       -4.4130    4.7591    3.0906
    90         H       -3.7596    3.9889    1.6450
    91         H       -4.8799    5.3511    1.5193
    92         H       15.5363    0.1236   -0.3707


 ENERGY OF "REORIENTED" SYSTEM WITHOUT FIELD:       74.0860820631


  NFREQ=  3  IWFLB=  0  IBET=  1  IGAM=  1
  ATOL= 0.10000D-02  BTOL= 0.10000D-02    MAXITU=  500    MAXITA=  150


 *****************************************************************
 CALCULATION OF STATIC FIELD QUANTITIES
 *****************************************************************

 +++++ ALPHA AT       0.00000 EV.

                           COMPONENTS OF ALPHA

                     *X           *Y           *Z
           *=X:     865.1877      74.7004      -5.7905
           *=Y:      74.7153     499.1222       8.5912
           *=Z:      -5.8063       8.5865     320.2815

  ISOTROPIC AVERAGE ALPHA =     561.53048 A.U. =     83.21023 ANG.**3

 +++++ BETA (SECOND HARMONIC GENERATION) AT       0.00000 EV.

                              COMPONENTS OF BETA
            *XX         *XY         *YY         *XZ         *YZ         *ZZ
   *=X -5472.79938   766.91912  -135.66266     6.72553   201.66130   -86.15626
   *=Y   766.80187  -135.89956   235.53548   201.76336  -150.57683   -65.43821
   *=Z     6.84042   201.80486  -150.57459   -86.23609   -65.43907    61.24992


 AVERAGE BETAX(SHG) VALUE AT   0.00000 EV =      -3416.8977 a.u. = -0.295200E-28 ESU
 AVERAGE BETAY(SHG) VALUE AT   0.00000 EV =        562.1860 a.u. =  0.485696E-29 ESU
 AVERAGE BETAZ(SHG) VALUE AT   0.00000 EV =        -49.5374 a.u. = -0.427974E-30 ESU



 AVERAGE BETA (SHG) VALUE AT   0.00000 EV =       3463.1917 a.u. =  0.299200E-28 ESU
   (1 a.u. = 8.639418X10-33 esu)



 +++++ ALPHA AT       0.00000 EV.

                           COMPONENTS OF ALPHA

                     *X           *Y           *Z
           *=X:     865.1877      74.7004      -5.7905
           *=Y:      74.7153     499.1222       8.5912
           *=Z:      -5.8063       8.5865     320.2815

  ISOTROPIC AVERAGE ALPHA =     561.53048 A.U. =     83.21023 ANG.**3


 GAMMA (THIRD HARMONIC GENERATION) AT    0.00000 EV.


 GAMMA(X,X,X,X) =       3465540.94117
 GAMMA(Y,Y,Y,Y) =         52465.74552
 GAMMA(Z,Z,Z,Z) =         16726.13212
 GAMMA(X,X,Y,Y) =         55615.16160
 GAMMA(X,X,Z,Z) =          4573.25835
 GAMMA(Y,Y,X,X) =         55614.99348
 GAMMA(Y,Y,Z,Z) =          6512.30877
 GAMMA(Z,Z,X,X) =          4573.08059
 GAMMA(Z,Z,Y,Y) =          6512.31803


 AVERAGE GAMMA VALUE AT    0.00000 =        733626.78792 a.u. =       369505.99354 ESU (X10-39)




 **********************************************************************
 CALCULATION FOR A FREQUENCY OF    0.25000 EV  =       0.00919 A.U. 
                  WAVELENGTH OF    4959.37 NM  =    2016.38525 CM(-1)
 **********************************************************************

 +++++ ALPHA AT       0.25000 EV.

                           COMPONENTS OF ALPHA

                     *X           *Y           *Z
           *=X:     869.1857      75.1844      -5.8970
           *=Y:      75.1975     500.0070       8.5602
           *=Z:      -5.9108       8.5562     320.7603

  ISOTROPIC AVERAGE ALPHA =     563.31767 A.U. =     83.47507 ANG.**3

 +++++ BETA (SECOND HARMONIC GENERATION) AT       0.25000 EV.

                              COMPONENTS OF BETA
            *XX         *XY         *YY         *XZ         *YZ         *ZZ
   *=X -5752.56914   778.48318  -140.62142    13.73169   207.96216   -87.07591
   *=Y   749.32067  -147.68059   239.63387   210.21988  -153.78488   -66.67764
   *=Z    12.87374   207.45830  -154.31528   -89.73623   -65.70571    62.56839


 AVERAGE BETAX(SHG) VALUE AT   0.25000 EV =      -3592.0477 a.u. = -0.310332E-28 ESU
 AVERAGE BETAY(SHG) VALUE AT   0.25000 EV =        565.4199 a.u. =  0.488490E-29 ESU
 AVERAGE BETAZ(SHG) VALUE AT   0.25000 EV =        -46.7685 a.u. = -0.404053E-30 ESU



 AVERAGE BETA (SHG) VALUE AT   0.25000 EV =       3636.5772 a.u. =  0.314179E-28 ESU
   (1 a.u. = 8.639418X10-33 esu)



 +++++ ALPHA AT       0.75000 EV.

                           COMPONENTS OF ALPHA

                     *X           *Y           *Z
           *=X:     903.5075      79.3386      -6.8140
           *=Y:      79.3596     507.3155       8.2939
           *=Z:      -6.8372       8.2881     324.6762

  ISOTROPIC AVERAGE ALPHA =     578.49970 A.U. =     85.72481 ANG.**3


 GAMMA (THIRD HARMONIC GENERATION) AT    0.25000 EV.


 GAMMA(X,X,X,X) =       3830931.89895
 GAMMA(Y,Y,Y,Y) =         54364.23793
 GAMMA(Z,Z,Z,Z) =         17109.96045
 GAMMA(X,X,Y,Y) =         59721.41983
 GAMMA(X,X,Z,Z) =          4249.71549
 GAMMA(Y,Y,X,X) =         62991.67244
 GAMMA(Y,Y,Z,Z) =          6589.20800
 GAMMA(Z,Z,X,X) =          5844.61831
 GAMMA(Z,Z,Y,Y) =          6750.07371


 AVERAGE GAMMA VALUE AT    0.25000 =        809710.56102 a.u. =       407827.12717 ESU (X10-39)




 **********************************************************************
 CALCULATION FOR A FREQUENCY OF    0.50000 EV  =       0.01837 A.U. 
                  WAVELENGTH OF    2479.68 NM  =    4032.77050 CM(-1)
 **********************************************************************

 +++++ ALPHA AT       0.50000 EV.

                           COMPONENTS OF ALPHA

                     *X           *Y           *Z
           *=X:     881.5446      76.6746      -6.2222
           *=Y:      76.6915     502.6959       8.4663
           *=Z:      -6.2381       8.4623     322.2082

  ISOTROPIC AVERAGE ALPHA =     568.81619 A.U. =     84.28986 ANG.**3

 +++++ BETA (SECOND HARMONIC GENERATION) AT       0.50000 EV.

                              COMPONENTS OF BETA
            *XX         *XY         *YY         *XZ         *YZ         *ZZ
   *=X -6746.79342   812.95759  -156.97871    40.19623   229.17110   -89.50230
   *=Y   678.17483  -189.20804   252.28158   239.37418  -164.10277   -70.61913
   *=Z    35.64287   226.35656  -166.58341  -101.63478   -66.55457    66.84457


 AVERAGE BETAX(SHG) VALUE AT   0.50000 EV =      -4213.7094 a.u. = -0.364040E-28 ESU
 AVERAGE BETAY(SHG) VALUE AT   0.50000 EV =        571.4413 a.u. =  0.493692E-29 ESU
 AVERAGE BETAZ(SHG) VALUE AT   0.50000 EV =        -35.6440 a.u. = -0.307943E-30 ESU



 AVERAGE BETA (SHG) VALUE AT   0.50000 EV =       4252.4302 a.u. =  0.367385E-28 ESU
   (1 a.u. = 8.639418X10-33 esu)



 +++++ ALPHA AT       1.50000 EV.

                           COMPONENTS OF ALPHA

                     *X           *Y           *Z
           *=X:    1065.0315      99.4093     -11.7969
           *=Y:      99.4501     536.0276       6.8051
           *=Z:     -11.8545       6.7937     339.4522

  ISOTROPIC AVERAGE ALPHA =     646.83711 A.U. =     95.85137 ANG.**3


 GAMMA (THIRD HARMONIC GENERATION) AT    0.50000 EV.


 GAMMA(X,X,X,X) =       5463907.13876
 GAMMA(Y,Y,Y,Y) =         60934.63531
 GAMMA(Z,Z,Z,Z) =         18379.49624
 GAMMA(X,X,Y,Y) =         75904.65490
 GAMMA(X,X,Z,Z) =          1930.82698
 GAMMA(Y,Y,X,X) =         95183.27271
 GAMMA(Y,Y,Z,Z) =          6764.61809
 GAMMA(Z,Z,X,X) =         11230.78614
 GAMMA(Z,Z,Y,Y) =          7635.46302


 AVERAGE GAMMA VALUE AT    0.50000 =       1148374.17843 a.u. =       578401.91872 ESU (X10-39)



 **********************
 *                    *
 * JOB ENDED NORMALLY *
 *                    *
 **********************



 TOTAL JOB TIME:           210.34 SECONDS

 == MOPAC DONE ==
