 *******************************************************************************
 ** Site#: 4824         For non-commercial use only    Version 21.013L 64BITS **
 *******************************************************************************
 ** Cite this program as: MOPAC2016, Version: 21.013L, James J. P. Stewart,   **
 ** Stewart Computational Chemistry, web: HTTP://OpenMOPAC.net. Days left:  89**
 *******************************************************************************
 **                                                                           **
 **                                MOPAC2016                                  **
 **                                                                           **
 *******************************************************************************

                              RM1 CALCULATION RESULTS

 *******************************************************************************
 *  CALCULATION DONE:                                Sat Oct 16 16:28:08 2021  *
 *  RM1        - The RM1 Hamiltonian to be used
 *  POLAR      - CALCULATE FIRST, SECOND AND THIRD-ORDER POLARIZABILITIES
 *  PRECISE    - TIGHTER CRITERIA TO BE USED
 *  T=         - A TIME OF 172800.0 SECONDS REQUESTED
 *  DUMP=N     - RESTART FILE WRITTEN EVERY 7200.0 SECONDS REQUESTED
 *  GNORM      - EXIT WHEN GRADIENT NORM DROPS BELOW 0.100
 *******************************************************************************
RM1 PRECISE POLAR GNORM=0.1


  ATOM    CHEMICAL      BOND LENGTH      BOND ANGLE     TWIST ANGLE 
 NUMBER    SYMBOL       (ANGSTROMS)      (DEGREES)       (DEGREES) 
   (I)                     NA:I           NB:NA:I       NC:NB:NA:I       NA    NB    NC 
     1       N          0.00000000       0.0000000       0.0000000        0     0     0
     2       C          1.15780000  *    0.0000000       0.0000000        1     0     0
     3       C          1.43100000  *  179.9508000  *    0.0000000        2     1     0
     4       C          1.35080000  *  121.5814000  * -179.8158000  *     3     2     1
     5       C          1.47560000  *  123.5344000  *    1.3188000  *     4     3     2
     6       C          1.48170000  *  121.2939000  *  -49.3984000  *     5     4     3
     7       C          1.34530000  *  120.7581000  *  177.0039000  *     6     5     4
     8       C          1.46240000  *  118.4312000  *   -1.3666000  *     7     6     5
     9       C          1.34380000  *  121.4925000  *    1.7920000  *     8     7     6
    10       C          1.35000000  *  118.9794000  *  131.0400000  *     5     4     3
    11       C          1.47350000  *  108.1581000  *  178.1942000  *     9     8     7
    12       C          1.34880000  *  105.9185000  *   -5.6322000  *    11     9     8
    13       N          1.41200000  *  129.2553000  *  177.1621000  *     8     7     6
    14       C          1.44970000  *  126.0909000  *  168.5741000  *    13     8     9
    15       C          1.46530000  *  122.5385000  * -163.1333000  *    12    11     9
    16       C          1.34500000  *  119.6887000  *    7.0428000  *    15    12    11
    17       C          1.47630000  *  120.6670000  *   -5.0363000  *    16    15    12
    18       C          1.47350000  *  131.6374000  * -169.9801000  *    11     9     8
    19       C          1.34770000  *  127.8826000  *  161.4185000  *    18    11    12
    20       C          1.46510000  *  134.1301000  *   -7.2162000  *    19    18    11
    21       C          1.34270000  *  131.5688000  *  -20.7518000  *    20    19    18
    22       C          1.47380000  *  118.2441000  * -179.6606000  *    21    20    19
    23       C          1.34810000  *  120.6003000  *    4.1469000  *    22    21    20
    24       C          1.47360000  *  120.5487000  *    2.5452000  *    23    22    21
    25       C          1.34320000  *  118.4037000  *   -3.6259000  *    24    23    22
    26       N          1.42170000  *  129.7131000  *  173.8507000  *    25    24    23
    27       C          1.42280000  *  107.3723000  * -175.3820000  *    26    25    24
    28       C          1.34180000  *  128.3841000  *  177.2240000  *    27    26    25
    29       C          1.34910000  *  119.7360000  * -179.5456000  *    17    16    15
    30       C          1.45250000  *  126.4093000  *   -9.0285000  *    26    25    24
    31       C          1.47410000  *  117.2037000  *  177.7253000  *     3     2     4
    32       O          1.23210000  *  121.1621000  *    4.6080000  *    31     3     4
    33       O          1.35570000  *  119.7082000  * -178.5415000  *    31     3     4
    34       H          1.05330000  *  118.8560000  *  176.4346000  *     4     3     2
    35       H          1.05150000  *  120.0394000  *  174.0266000  *     6     5    10
    36       H          1.04980000  *  120.5362000  *  178.5026000  *     7     6     5
    37       H          1.04730000  *  119.9674000  *    4.5761000  *    10     5     4
    38       H          1.09070000  *  109.6155000  *  -86.1318000  *    14    13     8
    39       H          1.08990000  *  110.2989000  *   34.1096000  *    14    13     8
    40       H          1.09060000  *  110.0388000  *  153.6709000  *    14    13     8
    41       H          1.05030000  *  120.3911000  * -177.3988000  *    15    12    11
    42       H          1.05210000  *  119.2770000  *  177.3507000  *    16    15    12
    43       H          1.04920000  *  121.5154000  *    2.3314000  *    21    20    19
    44       H          1.05090000  *  119.5515000  * -174.4443000  *    22    21    20
    45       H          1.05110000  *  119.8609000  * -179.3449000  *    23    22    21
    46       H          1.04920000  *  120.0904000  *  173.7268000  *    24    23    22
    47       H          1.04980000  *  121.4216000  *   -2.0957000  *    28    27    26
    48       H          1.05150000  *  120.3871000  *   -4.7047000  *    29    17    16
    49       H          1.09080000  *  109.2908000  *  118.2720000  *    30    26    25
    50       H          1.09100000  *  109.8702000  * -122.0053000  *    30    26    25
    51       H          1.08920000  *  111.1866000  *   -1.9594000  *    30    26    25
    52       H          0.94060000  *  121.2071000  *   -1.0476000  *    33    31    32
 


          CARTESIAN COORDINATES 

    NO.       ATOM           X           Y           Z

     1         N          0.0000      0.0000      0.0000
     2         C          1.1578      0.0000      0.0000
     3         C          2.5888      0.0012      0.0000
     4         C          3.2972     -1.1489     -0.0037
     5         C          2.6777     -2.4878     -0.0363
     6         C          1.5881     -2.8546      0.8983
     7         C          0.9902     -4.0572      0.8200
     8         C          1.4202     -4.9816     -0.2284
     9         C          2.4125     -4.6667     -1.0782
    10         C          3.1242     -3.3934     -0.9324
    11         C          2.6305     -5.8152     -1.9753
    12         C          1.8300     -6.7994     -1.5175
    13         N          0.9944     -6.3033     -0.4840
    14         C          0.1153     -7.0945      0.3544
    15         C          2.0084     -8.2026     -1.9002
    16         C          3.0836     -8.5645     -2.6226
    17         C          4.0279     -7.5485     -3.1281
    18         C          3.6936     -6.1054     -2.9534
    19         C          4.3380     -5.2367     -3.7574
    20         C          4.1689     -3.8145     -4.0664
    21         C          3.1154     -2.9929     -3.9327
    22         C          3.2691     -1.5881     -4.3509
    23         C          4.4106     -1.1654     -4.9302
    24         C          5.5052     -2.1124     -5.2070
    25         C          5.3664     -3.3855     -4.8019
    26         N          6.2021     -4.5108     -5.0401
    27         C          5.5527     -5.6476     -4.4831
    28         C          5.9457     -6.9302     -4.5144
    29         C          5.0953     -7.9317     -3.8586
    30         C          7.3327     -4.5678     -5.9502
    31         C          3.2616      1.3120     -0.0478
    32         O          4.4839      1.3969     -0.1771
    33         O          2.5227      2.4481     -0.0128
    34         H          4.3478     -1.0987     -0.0609
    35         H          1.3005     -2.1881      1.6591
    36         H          0.2346     -4.3224      1.4988
    37         H          3.9455     -3.1659     -1.5412
    38         H          0.7006     -7.6021      1.1222
    39         H         -0.6263     -6.4555      0.8336
    40         H         -0.4081     -7.8371     -0.2489
    41         H          1.3404     -8.9363     -1.5558
    42         H          3.2273     -9.5798     -2.8580
    43         H          2.2120     -3.3232     -3.5136
    44         H          2.4887     -0.9066     -4.1748
    45         H          4.5116     -0.1586     -5.2146
    46         H          6.3491     -1.7981     -5.7455
    47         H          6.8186     -7.2230     -5.0188
    48         H          5.2991     -8.9525     -4.0076
    49         H          8.2407     -4.7794     -5.3840
    50         H          7.1773     -5.3585     -6.6856
    51         H          7.4594     -3.6247     -6.4801
    52         H          2.9279      3.2950     -0.0706

  H: (RM1): G.B. ROCHA, R.O. FREIRE, A.M.SIMAS, J.J.P. STEWART, J. COMP. CHEM. 27, 1101 (2006)
  C: (RM1): G.B. ROCHA, R.O. FREIRE, A.M.SIMAS, J.J.P. STEWART, J. COMP. CHEM. 27, 1101 (2006)
  N: (RM1): G.B. ROCHA, R.O. FREIRE, A.M.SIMAS, J.J.P. STEWART, J. COMP. CHEM. 27, 1101 (2006)
  O: (RM1): G.B. ROCHA, R.O. FREIRE, A.M.SIMAS, J.J.P. STEWART, J. COMP. CHEM. 27, 1101 (2006)

           Empirical Formula: C28 H19 N3 O2  =    52 atoms



      MOLECULAR POINT GROUP   :   C1  


      RHF CALCULATION, NO. OF DOUBLY OCCUPIED LEVELS = 79


          Geometry optimization using L-BFGS
 CYCLE:     1 TIME:   0.133 TIME LEFT:  2.00D  GRAD.:  1150.288 HEAT:  105.1486
 CYCLE:     2 TIME:   0.062 TIME LEFT:  2.00D  GRAD.:  1879.305 HEAT:  106.2728
 CYCLE:     3 TIME:   0.051 TIME LEFT:  2.00D  GRAD.:  1878.486 HEAT:  106.2728
 CYCLE:     4 TIME:   0.090 TIME LEFT:  2.00D  GRAD.:   372.624 HEAT:  101.2377
 CYCLE:     5 TIME:   0.062 TIME LEFT:  2.00D  GRAD.:   347.615 HEAT:  100.7035
 CYCLE:     6 TIME:   0.062 TIME LEFT:  2.00D  GRAD.:   560.144 HEAT:  96.80315
 CYCLE:     7 TIME:   0.051 TIME LEFT:  2.00D  GRAD.:   543.291 HEAT:  94.58815
 CYCLE:     8 TIME:   0.059 TIME LEFT:  2.00D  GRAD.:   524.674 HEAT:  88.15955
 CYCLE:     9 TIME:   0.059 TIME LEFT:  2.00D  GRAD.:   618.646 HEAT:  77.07082
 CYCLE:    10 TIME:   0.070 TIME LEFT:  2.00D  GRAD.:   323.231 HEAT:  68.42869
 CYCLE:    11 TIME:   0.051 TIME LEFT:  2.00D  GRAD.:   324.835 HEAT:  64.68640
 CYCLE:    12 TIME:   0.059 TIME LEFT:  2.00D  GRAD.:    90.992 HEAT:  63.36877
 CYCLE:    13 TIME:   0.051 TIME LEFT:  2.00D  GRAD.:   100.136 HEAT:  63.12410
 CYCLE:    14 TIME:   0.047 TIME LEFT:  2.00D  GRAD.:   112.226 HEAT:  62.82653
 CYCLE:    15 TIME:   0.070 TIME LEFT:  2.00D  GRAD.:   119.382 HEAT:  62.13211
 CYCLE:    16 TIME:   0.074 TIME LEFT:  2.00D  GRAD.:    85.894 HEAT:  61.29914
 CYCLE:    17 TIME:   0.059 TIME LEFT:  2.00D  GRAD.:   532.895 HEAT:  61.30794
 CYCLE:    18 TIME:   0.047 TIME LEFT:  2.00D  GRAD.:    60.729 HEAT:  60.76278
 CYCLE:    19 TIME:   0.047 TIME LEFT:  2.00D  GRAD.:    50.578 HEAT:  60.70538
 CYCLE:    20 TIME:   0.070 TIME LEFT:  2.00D  GRAD.:    94.307 HEAT:  60.52402
 CYCLE:    21 TIME:   0.062 TIME LEFT:  2.00D  GRAD.:   102.736 HEAT:  60.25883
 CYCLE:    22 TIME:   0.059 TIME LEFT:  2.00D  GRAD.:   184.868 HEAT:  59.96135
 CYCLE:    23 TIME:   0.051 TIME LEFT:  2.00D  GRAD.:   110.614 HEAT:  59.66055
 CYCLE:    24 TIME:   0.047 TIME LEFT:  2.00D  GRAD.:    64.861 HEAT:  59.51886
 CYCLE:    25 TIME:   0.047 TIME LEFT:  2.00D  GRAD.:    54.668 HEAT:  59.36396
 CYCLE:    26 TIME:   0.047 TIME LEFT:  2.00D  GRAD.:    73.613 HEAT:  59.23306
 CYCLE:    27 TIME:   0.051 TIME LEFT:  2.00D  GRAD.:    88.799 HEAT:  58.99787
 CYCLE:    28 TIME:   0.055 TIME LEFT:  2.00D  GRAD.:    85.533 HEAT:  58.62329
 CYCLE:    29 TIME:   0.062 TIME LEFT:  2.00D  GRAD.:    62.304 HEAT:  58.31148
 CYCLE:    30 TIME:   0.051 TIME LEFT:  2.00D  GRAD.:    66.933 HEAT:  58.06004
 CYCLE:    31 TIME:   0.051 TIME LEFT:  2.00D  GRAD.:   565.375 HEAT:  58.58035
 CYCLE:    32 TIME:   0.047 TIME LEFT:  2.00D  GRAD.:    45.223 HEAT:  57.96669
 CYCLE:    33 TIME:   0.047 TIME LEFT:  2.00D  GRAD.:    34.070 HEAT:  57.94263
 CYCLE:    34 TIME:   0.055 TIME LEFT:  2.00D  GRAD.:    25.440 HEAT:  57.88589
 CYCLE:    35 TIME:   0.059 TIME LEFT:  2.00D  GRAD.:    24.808 HEAT:  57.81288
 CYCLE:    36 TIME:   0.055 TIME LEFT:  2.00D  GRAD.:   214.359 HEAT:  58.00365
 CYCLE:    37 TIME:   0.055 TIME LEFT:  2.00D  GRAD.:    43.401 HEAT:  57.73977
 CYCLE:    38 TIME:   0.051 TIME LEFT:  2.00D  GRAD.:    22.160 HEAT:  57.69623
 CYCLE:    39 TIME:   0.055 TIME LEFT:  2.00D  GRAD.:    29.580 HEAT:  57.65435
 CYCLE:    40 TIME:   0.055 TIME LEFT:  2.00D  GRAD.:    20.501 HEAT:  57.60012
 CYCLE:    41 TIME:   0.051 TIME LEFT:  2.00D  GRAD.:   118.992 HEAT:  57.68485
 CYCLE:    42 TIME:   0.055 TIME LEFT:  2.00D  GRAD.:    19.730 HEAT:  57.54706
 CYCLE:    43 TIME:   0.043 TIME LEFT:  2.00D  GRAD.:    14.948 HEAT:  57.53567
 CYCLE:    44 TIME:   0.047 TIME LEFT:  2.00D  GRAD.:    21.658 HEAT:  57.50412
 CYCLE:    45 TIME:   0.051 TIME LEFT:  2.00D  GRAD.:   204.400 HEAT:  57.54249
 CYCLE:    46 TIME:   0.055 TIME LEFT:  2.00D  GRAD.:    33.491 HEAT:  57.47781
 CYCLE:    47 TIME:   0.051 TIME LEFT:  2.00D  GRAD.:    19.225 HEAT:  57.46901
 CYCLE:    48 TIME:   0.055 TIME LEFT:  2.00D  GRAD.:    28.234 HEAT:  57.45076
 CYCLE:    49 TIME:   0.051 TIME LEFT:  2.00D  GRAD.:    23.662 HEAT:  57.43971
 CYCLE:    50 TIME:   0.047 TIME LEFT:  2.00D  GRAD.:    23.837 HEAT:  57.40594
 CYCLE:    51 TIME:   0.051 TIME LEFT:  2.00D  GRAD.:    30.683 HEAT:  57.39475
 CYCLE:    52 TIME:   0.055 TIME LEFT:  2.00D  GRAD.:    38.220 HEAT:  57.33763
 CYCLE:    53 TIME:   0.055 TIME LEFT:  2.00D  GRAD.:    19.926 HEAT:  57.26585
 CYCLE:    54 TIME:   0.047 TIME LEFT:  2.00D  GRAD.:    18.418 HEAT:  57.19947
 CYCLE:    55 TIME:   0.047 TIME LEFT:  2.00D  GRAD.:    28.805 HEAT:  57.14724
 CYCLE:    56 TIME:   0.055 TIME LEFT:  2.00D  GRAD.:    20.737 HEAT:  57.08306
 CYCLE:    57 TIME:   0.070 TIME LEFT:  2.00D  GRAD.:    69.350 HEAT:  57.03886
 CYCLE:    58 TIME:   0.059 TIME LEFT:  2.00D  GRAD.:    34.681 HEAT:  56.97735
 CYCLE:    59 TIME:   0.059 TIME LEFT:  2.00D  GRAD.:    93.627 HEAT:  56.90911
 CYCLE:    60 TIME:   0.059 TIME LEFT:  2.00D  GRAD.:    55.365 HEAT:  56.90270
 CYCLE:    61 TIME:   0.055 TIME LEFT:  2.00D  GRAD.:    34.101 HEAT:  56.87714
 CYCLE:    62 TIME:   0.047 TIME LEFT:  2.00D  GRAD.:    98.972 HEAT:  56.88408
 CYCLE:    63 TIME:   0.047 TIME LEFT:  2.00D  GRAD.:    27.440 HEAT:  56.86036
 CYCLE:    64 TIME:   0.051 TIME LEFT:  2.00D  GRAD.:    17.008 HEAT:  56.85305
 CYCLE:    65 TIME:   0.047 TIME LEFT:  2.00D  GRAD.:    27.686 HEAT:  56.83650
 CYCLE:    66 TIME:   0.059 TIME LEFT:  2.00D  GRAD.:    25.222 HEAT:  56.82488
 CYCLE:    67 TIME:   0.047 TIME LEFT:  2.00D  GRAD.:    26.971 HEAT:  56.78052
 CYCLE:    68 TIME:   0.066 TIME LEFT:  2.00D  GRAD.:    16.050 HEAT:  56.71018
 CYCLE:    69 TIME:   0.070 TIME LEFT:  2.00D  GRAD.:    16.226 HEAT:  56.67193
 CYCLE:    70 TIME:   0.074 TIME LEFT:  2.00D  GRAD.:    33.638 HEAT:  56.65609
 CYCLE:    71 TIME:   0.066 TIME LEFT:  2.00D  GRAD.:    17.155 HEAT:  56.62559
 CYCLE:    72 TIME:   0.051 TIME LEFT:  2.00D  GRAD.:    16.787 HEAT:  56.61137
 CYCLE:    73 TIME:   0.055 TIME LEFT:  2.00D  GRAD.:    23.103 HEAT:  56.59955
 CYCLE:    74 TIME:   0.051 TIME LEFT:  2.00D  GRAD.:   105.319 HEAT:  56.61466
 CYCLE:    75 TIME:   0.059 TIME LEFT:  2.00D  GRAD.:    23.026 HEAT:  56.58617
 CYCLE:    76 TIME:   0.055 TIME LEFT:  2.00D  GRAD.:    12.557 HEAT:  56.58210
 CYCLE:    77 TIME:   0.074 TIME LEFT:  2.00D  GRAD.:    19.103 HEAT:  56.57447
 CYCLE:    78 TIME:   0.070 TIME LEFT:  2.00D  GRAD.:    16.451 HEAT:  56.56922
 CYCLE:    79 TIME:   0.070 TIME LEFT:  2.00D  GRAD.:   166.354 HEAT:  56.63633
 CYCLE:    80 TIME:   0.051 TIME LEFT:  2.00D  GRAD.:    20.292 HEAT:  56.55699
 CYCLE:    81 TIME:   0.051 TIME LEFT:  2.00D  GRAD.:    15.862 HEAT:  56.55249
 CYCLE:    82 TIME:   0.070 TIME LEFT:  2.00D  GRAD.:    20.100 HEAT:  56.53735
 CYCLE:    83 TIME:   0.062 TIME LEFT:  2.00D  GRAD.:    20.637 HEAT:  56.51952
 CYCLE:    84 TIME:   0.055 TIME LEFT:  2.00D  GRAD.:    17.598 HEAT:  56.48700
 CYCLE:    85 TIME:   0.055 TIME LEFT:  2.00D  GRAD.:    15.796 HEAT:  56.47062
 CYCLE:    86 TIME:   0.059 TIME LEFT:  2.00D  GRAD.:    79.365 HEAT:  56.51542
 CYCLE:    87 TIME:   0.074 TIME LEFT:  2.00D  GRAD.:    12.989 HEAT:  56.45597
 CYCLE:    88 TIME:   0.051 TIME LEFT:  2.00D  GRAD.:    16.187 HEAT:  56.45189
 CYCLE:    89 TIME:   0.051 TIME LEFT:  2.00D  GRAD.:     9.121 HEAT:  56.44367
 CYCLE:    90 TIME:   0.047 TIME LEFT:  2.00D  GRAD.:    15.469 HEAT:  56.43805
 CYCLE:    91 TIME:   0.051 TIME LEFT:  2.00D  GRAD.:    24.996 HEAT:  56.42880
 CYCLE:    92 TIME:   0.047 TIME LEFT:  2.00D  GRAD.:    10.233 HEAT:  56.42498
 CYCLE:    93 TIME:   0.047 TIME LEFT:  2.00D  GRAD.:    10.304 HEAT:  56.42276
 CYCLE:    94 TIME:   0.047 TIME LEFT:  2.00D  GRAD.:    10.261 HEAT:  56.42062
 CYCLE:    95 TIME:   0.047 TIME LEFT:  2.00D  GRAD.:   103.605 HEAT:  56.43906
 CYCLE:    96 TIME:   0.059 TIME LEFT:  2.00D  GRAD.:    16.858 HEAT:  56.41335
 CYCLE:    97 TIME:   0.055 TIME LEFT:  2.00D  GRAD.:     9.944 HEAT:  56.41142
 CYCLE:    98 TIME:   0.055 TIME LEFT:  2.00D  GRAD.:    11.945 HEAT:  56.40775
 CYCLE:    99 TIME:   0.059 TIME LEFT:  2.00D  GRAD.:    12.896 HEAT:  56.40523
 CYCLE:   100 TIME:   0.059 TIME LEFT:  2.00D  GRAD.:    18.353 HEAT:  56.39588
 CYCLE:   101 TIME:   0.051 TIME LEFT:  2.00D  GRAD.:    12.650 HEAT:  56.38573
 CYCLE:   102 TIME:   0.047 TIME LEFT:  2.00D  GRAD.:    14.492 HEAT:  56.37739
 CYCLE:   103 TIME:   0.047 TIME LEFT:  2.00D  GRAD.:    19.763 HEAT:  56.37023
 CYCLE:   104 TIME:   0.051 TIME LEFT:  2.00D  GRAD.:    10.679 HEAT:  56.36514
 CYCLE:   105 TIME:   0.051 TIME LEFT:  2.00D  GRAD.:    15.561 HEAT:  56.36082
 CYCLE:   106 TIME:   0.059 TIME LEFT:  2.00D  GRAD.:    14.591 HEAT:  56.35570
 CYCLE:   107 TIME:   0.043 TIME LEFT:  2.00D  GRAD.:    13.318 HEAT:  56.35135
 CYCLE:   108 TIME:   0.137 TIME LEFT:  2.00D  GRAD.:    11.412 HEAT:  56.34187
 CYCLE:   109 TIME:   0.070 TIME LEFT:  2.00D  GRAD.:    11.741 HEAT:  56.33147
 CYCLE:   110 TIME:   0.066 TIME LEFT:  2.00D  GRAD.:    67.425 HEAT:  56.33165
 CYCLE:   111 TIME:   0.059 TIME LEFT:  2.00D  GRAD.:    21.921 HEAT:  56.31956
 CYCLE:   112 TIME:   0.059 TIME LEFT:  2.00D  GRAD.:     8.176 HEAT:  56.31719
 CYCLE:   113 TIME:   0.059 TIME LEFT:  2.00D  GRAD.:     6.083 HEAT:  56.31572
 CYCLE:   114 TIME:   0.051 TIME LEFT:  2.00D  GRAD.:     7.433 HEAT:  56.31455
 CYCLE:   115 TIME:   0.070 TIME LEFT:  2.00D  GRAD.:     9.140 HEAT:  56.31042
 CYCLE:   116 TIME:   0.070 TIME LEFT:  2.00D  GRAD.:    22.238 HEAT:  56.31127
 CYCLE:   117 TIME:   0.066 TIME LEFT:  2.00D  GRAD.:     8.036 HEAT:  56.30138
 CYCLE:   118 TIME:   0.070 TIME LEFT:  2.00D  GRAD.:     9.358 HEAT:  56.29876
 CYCLE:   119 TIME:   0.066 TIME LEFT:  2.00D  GRAD.:    10.872 HEAT:  56.29632
 CYCLE:   120 TIME:   0.066 TIME LEFT:  2.00D  GRAD.:     8.905 HEAT:  56.29428
 CYCLE:   121 TIME:   0.070 TIME LEFT:  2.00D  GRAD.:     7.530 HEAT:  56.29192
 CYCLE:   122 TIME:   0.074 TIME LEFT:  2.00D  GRAD.:     6.380 HEAT:  56.28738
 CYCLE:   123 TIME:   0.066 TIME LEFT:  2.00D  GRAD.:     8.644 HEAT:  56.28365
 CYCLE:   124 TIME:   0.070 TIME LEFT:  2.00D  GRAD.:     9.994 HEAT:  56.27974
 CYCLE:   125 TIME:   0.047 TIME LEFT:  2.00D  GRAD.:   214.633 HEAT:  56.36675
 CYCLE:   126 TIME:   0.047 TIME LEFT:  2.00D  GRAD.:    82.923 HEAT:  56.29203
 CYCLE:   127 TIME:   0.051 TIME LEFT:  2.00D  GRAD.:    14.624 HEAT:  56.27662
 CYCLE:   128 TIME:   0.051 TIME LEFT:  2.00D  GRAD.:     8.485 HEAT:  56.27605
 CYCLE:   129 TIME:   0.070 TIME LEFT:  2.00D  GRAD.:     5.152 HEAT:  56.27466
 CYCLE:   130 TIME:   0.066 TIME LEFT:  2.00D  GRAD.:    10.269 HEAT:  56.27227
 CYCLE:   131 TIME:   0.066 TIME LEFT:  2.00D  GRAD.:    13.263 HEAT:  56.26985
 CYCLE:   132 TIME:   0.062 TIME LEFT:  2.00D  GRAD.:    15.041 HEAT:  56.26554
 CYCLE:   133 TIME:   0.066 TIME LEFT:  2.00D  GRAD.:    34.220 HEAT:  56.27142
 CYCLE:   134 TIME:   0.070 TIME LEFT:  2.00D  GRAD.:     6.119 HEAT:  56.26220
 CYCLE:   135 TIME:   0.066 TIME LEFT:  2.00D  GRAD.:     4.763 HEAT:  56.26125
 CYCLE:   136 TIME:   0.047 TIME LEFT:  2.00D  GRAD.:     9.414 HEAT:  56.25840
 CYCLE:   137 TIME:   0.043 TIME LEFT:  2.00D  GRAD.:    11.200 HEAT:  56.25629
 CYCLE:   138 TIME:   0.047 TIME LEFT:  2.00D  GRAD.:    18.148 HEAT:  56.25459
 CYCLE:   139 TIME:   0.051 TIME LEFT:  2.00D  GRAD.:     6.848 HEAT:  56.25164
 CYCLE:   140 TIME:   0.055 TIME LEFT:  2.00D  GRAD.:     8.686 HEAT:  56.25033
 CYCLE:   141 TIME:   0.043 TIME LEFT:  2.00D  GRAD.:     5.089 HEAT:  56.24940
 CYCLE:   142 TIME:   0.051 TIME LEFT:  2.00D  GRAD.:     6.967 HEAT:  56.24832
 CYCLE:   143 TIME:   0.059 TIME LEFT:  2.00D  GRAD.:    10.311 HEAT:  56.24582
 CYCLE:   144 TIME:   0.043 TIME LEFT:  2.00D  GRAD.:     6.806 HEAT:  56.24429
 CYCLE:   145 TIME:   0.070 TIME LEFT:  2.00D  GRAD.:     6.443 HEAT:  56.24175
 CYCLE:   146 TIME:   0.051 TIME LEFT:  2.00D  GRAD.:     6.120 HEAT:  56.23953
 CYCLE:   147 TIME:   0.051 TIME LEFT:  2.00D  GRAD.:     7.238 HEAT:  56.23630
 CYCLE:   148 TIME:   0.070 TIME LEFT:  2.00D  GRAD.:    11.545 HEAT:  56.23501
 CYCLE:   149 TIME:   0.051 TIME LEFT:  2.00D  GRAD.:     6.130 HEAT:  56.23301
 CYCLE:   150 TIME:   0.047 TIME LEFT:  2.00D  GRAD.:     3.556 HEAT:  56.23137
 CYCLE:   151 TIME:   0.051 TIME LEFT:  2.00D  GRAD.:     7.192 HEAT:  56.23045
 CYCLE:   152 TIME:   0.047 TIME LEFT:  2.00D  GRAD.:    14.703 HEAT:  56.23041
 CYCLE:   153 TIME:   0.062 TIME LEFT:  2.00D  GRAD.:     3.711 HEAT:  56.22933
 CYCLE:   154 TIME:   0.070 TIME LEFT:  2.00D  GRAD.:     4.505 HEAT:  56.22891
 CYCLE:   155 TIME:   0.066 TIME LEFT:  2.00D  GRAD.:     5.644 HEAT:  56.22829
 CYCLE:   156 TIME:   0.062 TIME LEFT:  2.00D  GRAD.:    15.450 HEAT:  56.22741
 CYCLE:   157 TIME:   0.055 TIME LEFT:  2.00D  GRAD.:     4.791 HEAT:  56.22625
 CYCLE:   158 TIME:   0.070 TIME LEFT:  2.00D  GRAD.:     3.894 HEAT:  56.22571
 CYCLE:   159 TIME:   0.070 TIME LEFT:  2.00D  GRAD.:     3.247 HEAT:  56.22442
 CYCLE:   160 TIME:   0.074 TIME LEFT:  2.00D  GRAD.:     3.168 HEAT:  56.22350
 CYCLE:   161 TIME:   0.066 TIME LEFT:  2.00D  GRAD.:     4.143 HEAT:  56.22248
 CYCLE:   162 TIME:   0.066 TIME LEFT:  2.00D  GRAD.:    12.257 HEAT:  56.22228
 CYCLE:   163 TIME:   0.070 TIME LEFT:  2.00D  GRAD.:     2.744 HEAT:  56.22125
 CYCLE:   164 TIME:   0.059 TIME LEFT:  2.00D  GRAD.:     2.204 HEAT:  56.22108
 CYCLE:   165 TIME:   0.047 TIME LEFT:  2.00D  GRAD.:     3.731 HEAT:  56.22069
 CYCLE:   166 TIME:   0.055 TIME LEFT:  2.00D  GRAD.:     3.744 HEAT:  56.22015
 CYCLE:   167 TIME:   0.059 TIME LEFT:  2.00D  GRAD.:    14.088 HEAT:  56.21981
 CYCLE:   168 TIME:   0.047 TIME LEFT:  2.00D  GRAD.:     3.095 HEAT:  56.21907
 CYCLE:   169 TIME:   0.051 TIME LEFT:  2.00D  GRAD.:     2.538 HEAT:  56.21872
 CYCLE:   170 TIME:   0.047 TIME LEFT:  2.00D  GRAD.:     2.257 HEAT:  56.21858
 CYCLE:   171 TIME:   0.059 TIME LEFT:  2.00D  GRAD.:     7.026 HEAT:  56.21831
 CYCLE:   172 TIME:   0.062 TIME LEFT:  2.00D  GRAD.:     3.133 HEAT:  56.21801
 CYCLE:   173 TIME:   0.047 TIME LEFT:  2.00D  GRAD.:     2.647 HEAT:  56.21789
 CYCLE:   174 TIME:   0.047 TIME LEFT:  2.00D  GRAD.:     1.683 HEAT:  56.21727
 CYCLE:   175 TIME:   0.051 TIME LEFT:  2.00D  GRAD.:     4.587 HEAT:  56.21668
 CYCLE:   176 TIME:   0.047 TIME LEFT:  2.00D  GRAD.:     4.219 HEAT:  56.21639
 CYCLE:   177 TIME:   0.051 TIME LEFT:  2.00D  GRAD.:     2.557 HEAT:  56.21616
 CYCLE:   178 TIME:   0.055 TIME LEFT:  2.00D  GRAD.:     2.121 HEAT:  56.21578
 CYCLE:   179 TIME:   0.055 TIME LEFT:  2.00D  GRAD.:     2.593 HEAT:  56.21540
 CYCLE:   180 TIME:   0.051 TIME LEFT:  2.00D  GRAD.:     2.228 HEAT:  56.21494
 CYCLE:   181 TIME:   0.055 TIME LEFT:  2.00D  GRAD.:     5.140 HEAT:  56.21459
 CYCLE:   182 TIME:   0.047 TIME LEFT:  2.00D  GRAD.:    16.940 HEAT:  56.21494
 CYCLE:   183 TIME:   0.051 TIME LEFT:  2.00D  GRAD.:     3.030 HEAT:  56.21417
 CYCLE:   184 TIME:   0.055 TIME LEFT:  2.00D  GRAD.:     2.212 HEAT:  56.21401
 CYCLE:   185 TIME:   0.047 TIME LEFT:  2.00D  GRAD.:     3.799 HEAT:  56.21382
 CYCLE:   186 TIME:   0.070 TIME LEFT:  2.00D  GRAD.:     2.350 HEAT:  56.21369
 CYCLE:   187 TIME:   0.070 TIME LEFT:  2.00D  GRAD.:     2.390 HEAT:  56.21348
 CYCLE:   188 TIME:   0.066 TIME LEFT:  2.00D  GRAD.:     4.183 HEAT:  56.21324
 CYCLE:   189 TIME:   0.066 TIME LEFT:  2.00D  GRAD.:     4.180 HEAT:  56.21283
 CYCLE:   190 TIME:   0.070 TIME LEFT:  2.00D  GRAD.:    10.437 HEAT:  56.21242
 CYCLE:   191 TIME:   0.066 TIME LEFT:  2.00D  GRAD.:     3.423 HEAT:  56.21205
 CYCLE:   192 TIME:   0.066 TIME LEFT:  2.00D  GRAD.:     2.257 HEAT:  56.21190
 CYCLE:   193 TIME:   0.066 TIME LEFT:  2.00D  GRAD.:     3.302 HEAT:  56.21180
 CYCLE:   194 TIME:   0.066 TIME LEFT:  2.00D  GRAD.:     4.607 HEAT:  56.21156
 CYCLE:   195 TIME:   0.066 TIME LEFT:  2.00D  GRAD.:     3.969 HEAT:  56.21108
 CYCLE:   196 TIME:   0.062 TIME LEFT:  2.00D  GRAD.:     8.620 HEAT:  56.21071
 CYCLE:   197 TIME:   0.043 TIME LEFT:  2.00D  GRAD.:     5.441 HEAT:  56.21058
 CYCLE:   198 TIME:   0.047 TIME LEFT:  2.00D  GRAD.:     2.582 HEAT:  56.21038
 CYCLE:   199 TIME:   0.047 TIME LEFT:  2.00D  GRAD.:     2.711 HEAT:  56.21019
 CYCLE:   200 TIME:   0.047 TIME LEFT:  2.00D  GRAD.:     2.954 HEAT:  56.20997
 CYCLE:   201 TIME:   0.047 TIME LEFT:  2.00D  GRAD.:     2.026 HEAT:  56.20962
 CYCLE:   202 TIME:   0.051 TIME LEFT:  2.00D  GRAD.:     4.294 HEAT:  56.20997
 CYCLE:   203 TIME:   0.047 TIME LEFT:  2.00D  GRAD.:     4.305 HEAT:  56.20932
 CYCLE:   204 TIME:   0.047 TIME LEFT:  2.00D  GRAD.:    11.481 HEAT:  56.20946
 CYCLE:   205 TIME:   0.047 TIME LEFT:  2.00D  GRAD.:    19.505 HEAT:  56.21032
 CYCLE:   206 TIME:   0.062 TIME LEFT:  2.00D  GRAD.:     5.520 HEAT:  56.20889
 CYCLE:   207 TIME:   0.066 TIME LEFT:  2.00D  GRAD.:     2.204 HEAT:  56.20868
 CYCLE:   208 TIME:   0.070 TIME LEFT:  2.00D  GRAD.:     3.005 HEAT:  56.20853
 CYCLE:   209 TIME:   0.059 TIME LEFT:  2.00D  GRAD.:     1.945 HEAT:  56.20820
 CYCLE:   210 TIME:   0.062 TIME LEFT:  2.00D  GRAD.:     4.999 HEAT:  56.20802
 CYCLE:   211 TIME:   0.062 TIME LEFT:  2.00D  GRAD.:     3.593 HEAT:  56.20783
 CYCLE:   212 TIME:   0.066 TIME LEFT:  2.00D  GRAD.:     2.505 HEAT:  56.20769
 CYCLE:   213 TIME:   0.066 TIME LEFT:  2.00D  GRAD.:     2.598 HEAT:  56.20752
 CYCLE:   214 TIME:   0.055 TIME LEFT:  2.00D  GRAD.:     2.843 HEAT:  56.20721
 CYCLE:   215 TIME:   0.055 TIME LEFT:  2.00D  GRAD.:     2.905 HEAT:  56.20667
 CYCLE:   216 TIME:   0.059 TIME LEFT:  2.00D  GRAD.:     3.642 HEAT:  56.20619
 CYCLE:   217 TIME:   0.062 TIME LEFT:  2.00D  GRAD.:     1.331 HEAT:  56.20591
 CYCLE:   218 TIME:   0.051 TIME LEFT:  2.00D  GRAD.:     1.207 HEAT:  56.20580
 CYCLE:   219 TIME:   0.055 TIME LEFT:  2.00D  GRAD.:     1.459 HEAT:  56.20561
 CYCLE:   220 TIME:   0.059 TIME LEFT:  2.00D  GRAD.:     4.178 HEAT:  56.20543
 CYCLE:   221 TIME:   0.055 TIME LEFT:  2.00D  GRAD.:     2.295 HEAT:  56.20520
 CYCLE:   222 TIME:   0.047 TIME LEFT:  2.00D  GRAD.:     1.786 HEAT:  56.20492
 CYCLE:   223 TIME:   0.059 TIME LEFT:  2.00D  GRAD.:     2.626 HEAT:  56.20469
 CYCLE:   224 TIME:   0.051 TIME LEFT:  2.00D  GRAD.:     4.229 HEAT:  56.20443
 CYCLE:   225 TIME:   0.047 TIME LEFT:  2.00D  GRAD.:     8.282 HEAT:  56.20438
 CYCLE:   226 TIME:   0.066 TIME LEFT:  2.00D  GRAD.:     2.603 HEAT:  56.20424
 CYCLE:   227 TIME:   0.059 TIME LEFT:  2.00D  GRAD.:     1.539 HEAT:  56.20420
 CYCLE:   228 TIME:   0.047 TIME LEFT:  2.00D  GRAD.:     1.659 HEAT:  56.20412
 CYCLE:   229 TIME:   0.047 TIME LEFT:  2.00D  GRAD.:     3.228 HEAT:  56.20383
 CYCLE:   230 TIME:   0.047 TIME LEFT:  2.00D  GRAD.:     2.538 HEAT:  56.20363
 CYCLE:   231 TIME:   0.047 TIME LEFT:  2.00D  GRAD.:     3.390 HEAT:  56.20338
 CYCLE:   232 TIME:   0.066 TIME LEFT:  2.00D  GRAD.:     3.240 HEAT:  56.20324
 CYCLE:   233 TIME:   0.047 TIME LEFT:  2.00D  GRAD.:     3.953 HEAT:  56.20300
 CYCLE:   234 TIME:   0.043 TIME LEFT:  2.00D  GRAD.:     3.975 HEAT:  56.20276
 CYCLE:   235 TIME:   0.047 TIME LEFT:  2.00D  GRAD.:     6.515 HEAT:  56.20278
 CYCLE:   236 TIME:   0.047 TIME LEFT:  2.00D  GRAD.:     4.122 HEAT:  56.20257
 CYCLE:   237 TIME:   0.047 TIME LEFT:  2.00D  GRAD.:     0.974 HEAT:  56.20234
 CYCLE:   238 TIME:   0.051 TIME LEFT:  2.00D  GRAD.:     0.951 HEAT:  56.20231
 CYCLE:   239 TIME:   0.047 TIME LEFT:  2.00D  GRAD.:     2.035 HEAT:  56.20221
 CYCLE:   240 TIME:   0.051 TIME LEFT:  2.00D  GRAD.:    19.832 HEAT:  56.20271
 CYCLE:   241 TIME:   0.055 TIME LEFT:  2.00D  GRAD.:     2.553 HEAT:  56.20211
 CYCLE:   242 TIME:   0.062 TIME LEFT:  2.00D  GRAD.:     2.048 HEAT:  56.20207
 CYCLE:   243 TIME:   0.059 TIME LEFT:  2.00D  GRAD.:     1.547 HEAT:  56.20193
 CYCLE:   244 TIME:   0.070 TIME LEFT:  2.00D  GRAD.:     1.633 HEAT:  56.20183
 CYCLE:   245 TIME:   0.066 TIME LEFT:  2.00D  GRAD.:     4.678 HEAT:  56.20174
 CYCLE:   246 TIME:   0.051 TIME LEFT:  2.00D  GRAD.:     1.775 HEAT:  56.20161
 CYCLE:   247 TIME:   0.047 TIME LEFT:  2.00D  GRAD.:     1.894 HEAT:  56.20149
 CYCLE:   248 TIME:   0.066 TIME LEFT:  2.00D  GRAD.:     2.555 HEAT:  56.20140
 CYCLE:   249 TIME:   0.070 TIME LEFT:  2.00D  GRAD.:     1.922 HEAT:  56.20123
 CYCLE:   250 TIME:   0.070 TIME LEFT:  2.00D  GRAD.:     2.286 HEAT:  56.20115
 CYCLE:   251 TIME:   0.066 TIME LEFT:  2.00D  GRAD.:     0.966 HEAT:  56.20100
 CYCLE:   252 TIME:   0.062 TIME LEFT:  2.00D  GRAD.:     1.307 HEAT:  56.20091
 CYCLE:   253 TIME:   0.047 TIME LEFT:  2.00D  GRAD.:     1.560 HEAT:  56.20077
 CYCLE:   254 TIME:   0.051 TIME LEFT:  2.00D  GRAD.:     7.665 HEAT:  56.20064
 CYCLE:   255 TIME:   0.059 TIME LEFT:  2.00D  GRAD.:     1.768 HEAT:  56.20048
 CYCLE:   256 TIME:   0.953 TIME LEFT:  2.00D  GRAD.:     1.123 HEAT:  56.20043
 CYCLE:   257 TIME:   0.055 TIME LEFT:  2.00D  GRAD.:     1.088 HEAT:  56.20036
 CYCLE:   258 TIME:   0.051 TIME LEFT:  2.00D  GRAD.:     1.071 HEAT:  56.20023
 CYCLE:   259 TIME:   0.078 TIME LEFT:  2.00D  GRAD.:     3.357 HEAT:  56.20016
 CYCLE:   260 TIME:   0.074 TIME LEFT:  2.00D  GRAD.:     2.680 HEAT:  56.20007
 CYCLE:   261 TIME:   0.051 TIME LEFT:  2.00D  GRAD.:     1.175 HEAT:  56.20001
 CYCLE:   262 TIME:   0.066 TIME LEFT:  2.00D  GRAD.:     1.215 HEAT:  56.19995
 CYCLE:   263 TIME:   0.059 TIME LEFT:  2.00D  GRAD.:     2.027 HEAT:  56.19986
 CYCLE:   264 TIME:   0.051 TIME LEFT:  2.00D  GRAD.:     2.001 HEAT:  56.19975
 CYCLE:   265 TIME:   0.066 TIME LEFT:  2.00D  GRAD.:     3.496 HEAT:  56.19960
 CYCLE:   266 TIME:   0.062 TIME LEFT:  2.00D  GRAD.:     3.426 HEAT:  56.19936
 CYCLE:   267 TIME:   0.070 TIME LEFT:  2.00D  GRAD.:     8.288 HEAT:  56.19948
 CYCLE:   268 TIME:   0.055 TIME LEFT:  2.00D  GRAD.:     5.098 HEAT:  56.19925
 CYCLE:   269 TIME:   0.051 TIME LEFT:  2.00D  GRAD.:     1.724 HEAT:  56.19912
 CYCLE:   270 TIME:   0.070 TIME LEFT:  2.00D  GRAD.:     2.699 HEAT:  56.19906
 CYCLE:   271 TIME:   0.121 TIME LEFT:  2.00D  GRAD.:     4.198 HEAT:  56.19898
 CYCLE:   272 TIME:   0.082 TIME LEFT:  2.00D  GRAD.:     1.599 HEAT:  56.19886
 CYCLE:   273 TIME:   0.090 TIME LEFT:  2.00D  GRAD.:     2.029 HEAT:  56.19879
 CYCLE:   274 TIME:   0.109 TIME LEFT:  2.00D  GRAD.:     1.627 HEAT:  56.19868
 CYCLE:   275 TIME:   0.117 TIME LEFT:  2.00D  GRAD.:     1.493 HEAT:  56.19857
 CYCLE:   276 TIME:   0.129 TIME LEFT:  2.00D  GRAD.:     3.148 HEAT:  56.19844
 CYCLE:   277 TIME:   0.121 TIME LEFT:  2.00D  GRAD.:     2.234 HEAT:  56.19826
 CYCLE:   278 TIME:   0.121 TIME LEFT:  2.00D  GRAD.:     1.397 HEAT:  56.19805
 CYCLE:   279 TIME:   0.133 TIME LEFT:  2.00D  GRAD.:     1.168 HEAT:  56.19788
 CYCLE:   280 TIME:   0.152 TIME LEFT:  2.00D  GRAD.:     1.392 HEAT:  56.19773
 CYCLE:   281 TIME:   0.141 TIME LEFT:  2.00D  GRAD.:     1.877 HEAT:  56.19754
 CYCLE:   282 TIME:   0.184 TIME LEFT:  2.00D  GRAD.:     2.821 HEAT:  56.19735
 CYCLE:   283 TIME:   0.078 TIME LEFT:  2.00D  GRAD.:     2.634 HEAT:  56.19724
 CYCLE:   284 TIME:   0.184 TIME LEFT:  2.00D  GRAD.:     1.366 HEAT:  56.19717
 CYCLE:   285 TIME:   0.090 TIME LEFT:  2.00D  GRAD.:     1.279 HEAT:  56.19708
 CYCLE:   286 TIME:   0.121 TIME LEFT:  2.00D  GRAD.:     3.112 HEAT:  56.19698
 CYCLE:   287 TIME:   0.121 TIME LEFT:  2.00D  GRAD.:     1.596 HEAT:  56.19688
 CYCLE:   288 TIME:   0.070 TIME LEFT:  2.00D  GRAD.:     1.221 HEAT:  56.19680
 CYCLE:   289 TIME:   0.129 TIME LEFT:  2.00D  GRAD.:     2.051 HEAT:  56.19672
 CYCLE:   290 TIME:   0.098 TIME LEFT:  2.00D  GRAD.:     2.566 HEAT:  56.19659
 CYCLE:   291 TIME:   0.082 TIME LEFT:  2.00D  GRAD.:     4.096 HEAT:  56.19643
 CYCLE:   292 TIME:   0.125 TIME LEFT:  2.00D  GRAD.:     2.998 HEAT:  56.19620
 CYCLE:   293 TIME:   0.066 TIME LEFT:  2.00D  GRAD.:     1.537 HEAT:  56.19610
 CYCLE:   294 TIME:   0.133 TIME LEFT:  2.00D  GRAD.:     1.563 HEAT:  56.19604
 CYCLE:   295 TIME:   0.137 TIME LEFT:  2.00D  GRAD.:     2.042 HEAT:  56.19597
 CYCLE:   296 TIME:   0.137 TIME LEFT:  2.00D  GRAD.:     1.134 HEAT:  56.19583
 CYCLE:   297 TIME:   0.148 TIME LEFT:  2.00D  GRAD.:     8.413 HEAT:  56.19584
 CYCLE:   298 TIME:   0.133 TIME LEFT:  2.00D  GRAD.:     2.613 HEAT:  56.19572
 CYCLE:   299 TIME:   0.129 TIME LEFT:  2.00D  GRAD.:     1.249 HEAT:  56.19569
 CYCLE:   300 TIME:   0.105 TIME LEFT:  2.00D  GRAD.:     2.106 HEAT:  56.19564
 CYCLE:   301 TIME:   0.113 TIME LEFT:  2.00D  GRAD.:     2.589 HEAT:  56.19559
 CYCLE:   302 TIME:   0.094 TIME LEFT:  2.00D  GRAD.:     3.326 HEAT:  56.19543
 CYCLE:   303 TIME:   0.121 TIME LEFT:  2.00D  GRAD.:     3.161 HEAT:  56.19526
 CYCLE:   304 TIME:   0.141 TIME LEFT:  2.00D  GRAD.:     2.884 HEAT:  56.19507
 CYCLE:   305 TIME:   0.113 TIME LEFT:  2.00D  GRAD.:     7.307 HEAT:  56.19500
 CYCLE:   306 TIME:   0.090 TIME LEFT:  2.00D  GRAD.:    19.554 HEAT:  56.19716
 CYCLE:   307 TIME:   0.078 TIME LEFT:  2.00D  GRAD.:     1.768 HEAT:  56.19443
 CYCLE:   308 TIME:   0.074 TIME LEFT:  2.00D  GRAD.:     3.748 HEAT:  56.19462
 CYCLE:   309 TIME:   0.133 TIME LEFT:  2.00D  GRAD.:     2.806 HEAT:  56.19420
 CYCLE:   310 TIME:   0.156 TIME LEFT:  2.00D  GRAD.:     6.793 HEAT:  56.19407
 CYCLE:   311 TIME:   0.137 TIME LEFT:  2.00D  GRAD.:    39.064 HEAT:  56.19745
 CYCLE:   312 TIME:   0.148 TIME LEFT:  2.00D  GRAD.:     1.938 HEAT:  56.19358
 CYCLE:   313 TIME:   0.082 TIME LEFT:  2.00D  GRAD.:     1.512 HEAT:  56.19350
 CYCLE:   314 TIME:   0.094 TIME LEFT:  2.00D  GRAD.:     6.245 HEAT:  56.19360
 CYCLE:   315 TIME:   0.133 TIME LEFT:  2.00D  GRAD.:     1.774 HEAT:  56.19336
 CYCLE:   316 TIME:   0.141 TIME LEFT:  2.00D  GRAD.:     1.111 HEAT:  56.19331
 CYCLE:   317 TIME:   0.145 TIME LEFT:  2.00D  GRAD.:     2.046 HEAT:  56.19316
 CYCLE:   318 TIME:   0.086 TIME LEFT:  2.00D  GRAD.:     2.766 HEAT:  56.19297
 CYCLE:   319 TIME:   0.074 TIME LEFT:  2.00D  GRAD.:     4.764 HEAT:  56.19286
 CYCLE:   320 TIME:   0.125 TIME LEFT:  2.00D  GRAD.:     2.071 HEAT:  56.19258
 CYCLE:   321 TIME:   0.117 TIME LEFT:  2.00D  GRAD.:     1.221 HEAT:  56.19244
 CYCLE:   322 TIME:   0.141 TIME LEFT:  2.00D  GRAD.:     1.676 HEAT:  56.19235
 CYCLE:   323 TIME:   0.133 TIME LEFT:  2.00D  GRAD.:     6.923 HEAT:  56.19234
 CYCLE:   324 TIME:   0.164 TIME LEFT:  2.00D  GRAD.:     2.874 HEAT:  56.19217
 CYCLE:   325 TIME:   0.137 TIME LEFT:  2.00D  GRAD.:     1.357 HEAT:  56.19208
 CYCLE:   326 TIME:   0.133 TIME LEFT:  2.00D  GRAD.:     2.530 HEAT:  56.19199
 CYCLE:   327 TIME:   0.145 TIME LEFT:  2.00D  GRAD.:     4.299 HEAT:  56.19191
 CYCLE:   328 TIME:   0.117 TIME LEFT:  2.00D  GRAD.:     5.969 HEAT:  56.19196
 CYCLE:   329 TIME:   0.125 TIME LEFT:  2.00D  GRAD.:     1.131 HEAT:  56.19182
 CYCLE:   330 TIME:   0.074 TIME LEFT:  2.00D  GRAD.:     1.121 HEAT:  56.19180
 CYCLE:   331 TIME:   0.129 TIME LEFT:  2.00D  GRAD.:     1.270 HEAT:  56.19174
 CYCLE:   332 TIME:   0.156 TIME LEFT:  2.00D  GRAD.:     1.976 HEAT:  56.19161
 CYCLE:   333 TIME:   0.113 TIME LEFT:  2.00D  GRAD.:     2.157 HEAT:  56.19141
 CYCLE:   334 TIME:   0.121 TIME LEFT:  2.00D  GRAD.:     3.211 HEAT:  56.19117
 CYCLE:   335 TIME:   0.070 TIME LEFT:  2.00D  GRAD.:     2.603 HEAT:  56.19088
 CYCLE:   336 TIME:   0.129 TIME LEFT:  2.00D  GRAD.:     2.380 HEAT:  56.19067
 CYCLE:   337 TIME:   0.133 TIME LEFT:  2.00D  GRAD.:     2.742 HEAT:  56.19049
 CYCLE:   338 TIME:   0.145 TIME LEFT:  2.00D  GRAD.:     3.809 HEAT:  56.19031
 CYCLE:   339 TIME:   0.094 TIME LEFT:  2.00D  GRAD.:     1.781 HEAT:  56.19002
 CYCLE:   340 TIME:   0.105 TIME LEFT:  2.00D  GRAD.:     1.787 HEAT:  56.19000
 CYCLE:   341 TIME:   0.148 TIME LEFT:  2.00D  GRAD.:     1.962 HEAT:  56.18991
 CYCLE:   342 TIME:   0.141 TIME LEFT:  2.00D  GRAD.:    85.179 HEAT:  56.20672
 CYCLE:   343 TIME:   0.094 TIME LEFT:  2.00D  GRAD.:     1.934 HEAT:  56.18984
 CYCLE:   344 TIME:   0.145 TIME LEFT:  2.00D  GRAD.:     1.528 HEAT:  56.18984
 CYCLE:   345 TIME:   0.090 TIME LEFT:  2.00D  GRAD.:     1.700 HEAT:  56.18970
 CYCLE:   346 TIME:   0.109 TIME LEFT:  2.00D  GRAD.:     1.541 HEAT:  56.18957
 CYCLE:   347 TIME:   0.121 TIME LEFT:  2.00D  GRAD.:     2.212 HEAT:  56.18943
 CYCLE:   348 TIME:   0.090 TIME LEFT:  2.00D  GRAD.:     1.580 HEAT:  56.18930
 CYCLE:   349 TIME:   0.082 TIME LEFT:  2.00D  GRAD.:     1.945 HEAT:  56.18912
 CYCLE:   350 TIME:   0.152 TIME LEFT:  2.00D  GRAD.:     2.041 HEAT:  56.18879
 CYCLE:   351 TIME:   0.137 TIME LEFT:  2.00D  GRAD.:     1.343 HEAT:  56.18849
 CYCLE:   352 TIME:   0.133 TIME LEFT:  2.00D  GRAD.:     1.271 HEAT:  56.18826
 CYCLE:   353 TIME:   0.070 TIME LEFT:  2.00D  GRAD.:     6.812 HEAT:  56.18831
 CYCLE:   354 TIME:   0.129 TIME LEFT:  2.00D  GRAD.:    10.157 HEAT:  56.18893
 CYCLE:   355 TIME:   0.129 TIME LEFT:  2.00D  GRAD.:     0.983 HEAT:  56.18781
 CYCLE:   356 TIME:   0.098 TIME LEFT:  2.00D  GRAD.:     0.883 HEAT:  56.18779
 CYCLE:   357 TIME:   0.156 TIME LEFT:  2.00D  GRAD.:    10.381 HEAT:  56.18778
 CYCLE:   358 TIME:   0.102 TIME LEFT:  2.00D  GRAD.:     2.205 HEAT:  56.18751
 CYCLE:   359 TIME:   0.094 TIME LEFT:  2.00D  GRAD.:     1.578 HEAT:  56.18745
 CYCLE:   360 TIME:   0.094 TIME LEFT:  2.00D  GRAD.:     1.933 HEAT:  56.18734
 CYCLE:   361 TIME:   0.109 TIME LEFT:  2.00D  GRAD.:     2.347 HEAT:  56.18719
 CYCLE:   362 TIME:   0.109 TIME LEFT:  2.00D  GRAD.:     2.059 HEAT:  56.18706
 CYCLE:   363 TIME:   0.141 TIME LEFT:  2.00D  GRAD.:     3.315 HEAT:  56.18691
 CYCLE:   364 TIME:   0.137 TIME LEFT:  2.00D  GRAD.:     1.951 HEAT:  56.18666
 CYCLE:   365 TIME:   0.090 TIME LEFT:  2.00D  GRAD.:     1.564 HEAT:  56.18639
 CYCLE:   366 TIME:   0.137 TIME LEFT:  2.00D  GRAD.:     2.021 HEAT:  56.18621
 CYCLE:   367 TIME:   0.070 TIME LEFT:  2.00D  GRAD.:     2.781 HEAT:  56.18569
 CYCLE:   368 TIME:   0.109 TIME LEFT:  2.00D  GRAD.:     1.734 HEAT:  56.18506
 CYCLE:   369 TIME:   0.070 TIME LEFT:  2.00D  GRAD.:     3.378 HEAT:  56.18459
 CYCLE:   370 TIME:   0.148 TIME LEFT:  2.00D  GRAD.:     1.960 HEAT:  56.18430
 CYCLE:   371 TIME:   0.125 TIME LEFT:  2.00D  GRAD.:    22.140 HEAT:  56.18512
 CYCLE:   372 TIME:   0.129 TIME LEFT:  2.00D  GRAD.:    63.938 HEAT:  56.19274
 CYCLE:   373 TIME:   0.082 TIME LEFT:  2.00D  GRAD.:     3.141 HEAT:  56.18407
 CYCLE:   374 TIME:   0.129 TIME LEFT:  2.00D  GRAD.:     2.332 HEAT:  56.18398
 CYCLE:   375 TIME:   0.141 TIME LEFT:  2.00D  GRAD.:     2.146 HEAT:  56.18396
 CYCLE:   376 TIME:   0.133 TIME LEFT:  2.00D  GRAD.:     2.617 HEAT:  56.18362
 CYCLE:   377 TIME:   0.137 TIME LEFT:  2.00D  GRAD.:     7.824 HEAT:  56.18353
 CYCLE:   378 TIME:   0.082 TIME LEFT:  2.00D  GRAD.:     1.838 HEAT:  56.18318
 CYCLE:   379 TIME:   0.078 TIME LEFT:  2.00D  GRAD.:     2.079 HEAT:  56.18299
 CYCLE:   380 TIME:   0.125 TIME LEFT:  2.00D  GRAD.:     3.526 HEAT:  56.18271
 CYCLE:   381 TIME:   0.105 TIME LEFT:  2.00D  GRAD.:     4.060 HEAT:  56.18233
 CYCLE:   382 TIME:   0.172 TIME LEFT:  2.00D  GRAD.:     5.852 HEAT:  56.18198
 CYCLE:   383 TIME:   0.137 TIME LEFT:  2.00D  GRAD.:     2.853 HEAT:  56.18137
 CYCLE:   384 TIME:   0.133 TIME LEFT:  2.00D  GRAD.:     2.043 HEAT:  56.18105
 CYCLE:   385 TIME:   0.133 TIME LEFT:  2.00D  GRAD.:     2.980 HEAT:  56.18068
 CYCLE:   386 TIME:   0.164 TIME LEFT:  2.00D  GRAD.:     4.783 HEAT:  56.18022
 CYCLE:   387 TIME:   0.129 TIME LEFT:  2.00D  GRAD.:    29.280 HEAT:  56.18179
 CYCLE:   388 TIME:   0.109 TIME LEFT:  2.00D  GRAD.:     1.665 HEAT:  56.17993
 CYCLE:   389 TIME:   0.141 TIME LEFT:  2.00D  GRAD.:     1.486 HEAT:  56.17988
 CYCLE:   390 TIME:   0.152 TIME LEFT:  2.00D  GRAD.:     2.006 HEAT:  56.17976
 CYCLE:   391 TIME:   0.066 TIME LEFT:  2.00D  GRAD.:     2.993 HEAT:  56.17952
 CYCLE:   392 TIME:   0.070 TIME LEFT:  2.00D  GRAD.:     4.346 HEAT:  56.17902
 CYCLE:   393 TIME:   0.125 TIME LEFT:  2.00D  GRAD.:    15.482 HEAT:  56.17930
 CYCLE:   394 TIME:   0.105 TIME LEFT:  2.00D  GRAD.:     3.905 HEAT:  56.17831
 CYCLE:   395 TIME:   0.121 TIME LEFT:  2.00D  GRAD.:     1.973 HEAT:  56.17808
 CYCLE:   396 TIME:   0.133 TIME LEFT:  2.00D  GRAD.:     2.444 HEAT:  56.17790
 CYCLE:   397 TIME:   0.129 TIME LEFT:  2.00D  GRAD.:     2.230 HEAT:  56.17775
 CYCLE:   398 TIME:   0.133 TIME LEFT:  2.00D  GRAD.:     1.646 HEAT:  56.17712
 CYCLE:   399 TIME:   0.086 TIME LEFT:  2.00D  GRAD.:     4.526 HEAT:  56.17671
 CYCLE:   400 TIME:   0.102 TIME LEFT:  2.00D  GRAD.:     2.103 HEAT:  56.17621
 CYCLE:   401 TIME:   0.141 TIME LEFT:  2.00D  GRAD.:     8.855 HEAT:  56.17584
 CYCLE:   402 TIME:   0.133 TIME LEFT:  2.00D  GRAD.:     4.967 HEAT:  56.17559
 CYCLE:   403 TIME:   0.105 TIME LEFT:  2.00D  GRAD.:     2.145 HEAT:  56.17547
 CYCLE:   404 TIME:   0.094 TIME LEFT:  2.00D  GRAD.:     2.934 HEAT:  56.17534
 CYCLE:   405 TIME:   0.105 TIME LEFT:  2.00D  GRAD.:     3.018 HEAT:  56.17520
 CYCLE:   406 TIME:   0.117 TIME LEFT:  2.00D  GRAD.:     4.165 HEAT:  56.17476
 CYCLE:   407 TIME:   0.152 TIME LEFT:  2.00D  GRAD.:     3.175 HEAT:  56.17421
 CYCLE:   408 TIME:   0.137 TIME LEFT:  2.00D  GRAD.:    23.251 HEAT:  56.17626
 CYCLE:   409 TIME:   0.102 TIME LEFT:  2.00D  GRAD.:     2.972 HEAT:  56.17380
 CYCLE:   410 TIME:   0.070 TIME LEFT:  2.00D  GRAD.:     2.734 HEAT:  56.17364
 CYCLE:   411 TIME:   0.078 TIME LEFT:  2.00D  GRAD.:     5.200 HEAT:  56.17342
 CYCLE:   412 TIME:   0.137 TIME LEFT:  2.00D  GRAD.:     1.944 HEAT:  56.17289
 CYCLE:   413 TIME:   0.156 TIME LEFT:  2.00D  GRAD.:     3.447 HEAT:  56.17262
 CYCLE:   414 TIME:   0.098 TIME LEFT:  2.00D  GRAD.:     1.727 HEAT:  56.17234
 CYCLE:   415 TIME:   0.105 TIME LEFT:  2.00D  GRAD.:     3.303 HEAT:  56.17161
 CYCLE:   416 TIME:   0.094 TIME LEFT:  2.00D  GRAD.:    19.344 HEAT:  56.17228
 CYCLE:   417 TIME:   0.082 TIME LEFT:  2.00D  GRAD.:     3.094 HEAT:  56.17120
 CYCLE:   418 TIME:   0.152 TIME LEFT:  2.00D  GRAD.:     2.064 HEAT:  56.17104
 CYCLE:   419 TIME:   0.094 TIME LEFT:  2.00D  GRAD.:     4.046 HEAT:  56.17068
 CYCLE:   420 TIME:   0.082 TIME LEFT:  2.00D  GRAD.:     3.806 HEAT:  56.17013
 CYCLE:   421 TIME:   0.133 TIME LEFT:  2.00D  GRAD.:     8.429 HEAT:  56.16956
 CYCLE:   422 TIME:   0.148 TIME LEFT:  2.00D  GRAD.:    18.304 HEAT:  56.17039
 CYCLE:   423 TIME:   0.172 TIME LEFT:  2.00D  GRAD.:     2.798 HEAT:  56.16893
 CYCLE:   424 TIME:   0.133 TIME LEFT:  2.00D  GRAD.:     2.215 HEAT:  56.16880
 CYCLE:   425 TIME:   0.129 TIME LEFT:  2.00D  GRAD.:     3.242 HEAT:  56.16835
 CYCLE:   426 TIME:   0.156 TIME LEFT:  2.00D  GRAD.:     3.981 HEAT:  56.16740
 CYCLE:   427 TIME:   0.121 TIME LEFT:  2.00D  GRAD.:    23.756 HEAT:  56.16722
 CYCLE:   428 TIME:   0.141 TIME LEFT:  2.00D  GRAD.:     6.404 HEAT:  56.16601
 CYCLE:   429 TIME:   0.129 TIME LEFT:  2.00D  GRAD.:     2.592 HEAT:  56.16583
 CYCLE:   430 TIME:   0.137 TIME LEFT:  2.00D  GRAD.:     3.290 HEAT:  56.16569
 CYCLE:   431 TIME:   0.105 TIME LEFT:  2.00D  GRAD.:     5.077 HEAT:  56.16558
 CYCLE:   432 TIME:   0.098 TIME LEFT:  2.00D  GRAD.:     4.980 HEAT:  56.16554
 CYCLE:   433 TIME:   0.066 TIME LEFT:  2.00D  GRAD.:     2.276 HEAT:  56.16503
 CYCLE:   434 TIME:   0.129 TIME LEFT:  2.00D  GRAD.:     4.057 HEAT:  56.16456
 CYCLE:   435 TIME:   0.082 TIME LEFT:  2.00D  GRAD.:     5.066 HEAT:  56.16422
 CYCLE:   436 TIME:   0.125 TIME LEFT:  2.00D  GRAD.:     4.205 HEAT:  56.16333
 CYCLE:   437 TIME:   0.133 TIME LEFT:  2.00D  GRAD.:    13.912 HEAT:  56.16337
 CYCLE:   438 TIME:   0.129 TIME LEFT:  2.00D  GRAD.:     3.263 HEAT:  56.16263
 CYCLE:   439 TIME:   0.125 TIME LEFT:  2.00D  GRAD.:     2.177 HEAT:  56.16239
 CYCLE:   440 TIME:   0.133 TIME LEFT:  2.00D  GRAD.:     2.397 HEAT:  56.16208
 CYCLE:   441 TIME:   0.070 TIME LEFT:  2.00D  GRAD.:     4.602 HEAT:  56.16140
 CYCLE:   442 TIME:   0.129 TIME LEFT:  2.00D  GRAD.:    24.805 HEAT:  56.16291
 CYCLE:   443 TIME:   0.117 TIME LEFT:  2.00D  GRAD.:     9.340 HEAT:  56.16091
 CYCLE:   444 TIME:   0.066 TIME LEFT:  2.00D  GRAD.:     2.098 HEAT:  56.16061
 CYCLE:   445 TIME:   0.066 TIME LEFT:  2.00D  GRAD.:     3.058 HEAT:  56.16038
 CYCLE:   446 TIME:   0.070 TIME LEFT:  2.00D  GRAD.:     9.032 HEAT:  56.16017
 CYCLE:   447 TIME:   0.086 TIME LEFT:  2.00D  GRAD.:     2.029 HEAT:  56.15972
 CYCLE:   448 TIME:   0.086 TIME LEFT:  2.00D  GRAD.:     3.131 HEAT:  56.15966
 CYCLE:   449 TIME:   0.137 TIME LEFT:  2.00D  GRAD.:     3.314 HEAT:  56.15947
 CYCLE:   450 TIME:   0.098 TIME LEFT:  2.00D  GRAD.:     7.465 HEAT:  56.15893
 CYCLE:   451 TIME:   0.070 TIME LEFT:  2.00D  GRAD.:     2.425 HEAT:  56.15804
 CYCLE:   452 TIME:   0.066 TIME LEFT:  2.00D  GRAD.:     1.813 HEAT:  56.15775
 CYCLE:   453 TIME:   0.078 TIME LEFT:  2.00D  GRAD.:     4.092 HEAT:  56.15752
 CYCLE:   454 TIME:   0.121 TIME LEFT:  2.00D  GRAD.:     3.264 HEAT:  56.15721
 CYCLE:   455 TIME:   0.078 TIME LEFT:  2.00D  GRAD.:     5.136 HEAT:  56.15651
 CYCLE:   456 TIME:   0.086 TIME LEFT:  2.00D  GRAD.:     4.115 HEAT:  56.15621
 CYCLE:   457 TIME:   0.078 TIME LEFT:  2.00D  GRAD.:     5.917 HEAT:  56.15586
 CYCLE:   458 TIME:   0.133 TIME LEFT:  2.00D  GRAD.:     2.731 HEAT:  56.15545
 CYCLE:   459 TIME:   0.094 TIME LEFT:  2.00D  GRAD.:     2.139 HEAT:  56.15506
 CYCLE:   460 TIME:   0.078 TIME LEFT:  2.00D  GRAD.:     2.682 HEAT:  56.15445
 CYCLE:   461 TIME:   0.129 TIME LEFT:  2.00D  GRAD.:    39.097 HEAT:  56.15766
 CYCLE:   462 TIME:   0.109 TIME LEFT:  2.00D  GRAD.:    33.255 HEAT:  56.15748
 CYCLE:   463 TIME:   0.098 TIME LEFT:  2.00D  GRAD.:     3.217 HEAT:  56.15336
 CYCLE:   464 TIME:   0.102 TIME LEFT:  2.00D  GRAD.:     3.546 HEAT:  56.15310
 CYCLE:   465 TIME:   0.117 TIME LEFT:  2.00D  GRAD.:     4.012 HEAT:  56.15266
 CYCLE:   466 TIME:   0.184 TIME LEFT:  2.00D  GRAD.:     6.487 HEAT:  56.15259
 CYCLE:   467 TIME:   0.145 TIME LEFT:  2.00D  GRAD.:     2.586 HEAT:  56.15178
 CYCLE:   468 TIME:   0.148 TIME LEFT:  2.00D  GRAD.:     1.887 HEAT:  56.15133
 CYCLE:   469 TIME:   0.160 TIME LEFT:  2.00D  GRAD.:     2.003 HEAT:  56.15089
 CYCLE:   470 TIME:   0.105 TIME LEFT:  2.00D  GRAD.:    12.010 HEAT:  56.15083
 CYCLE:   471 TIME:   0.078 TIME LEFT:  2.00D  GRAD.:     5.344 HEAT:  56.15026
 CYCLE:   472 TIME:   0.129 TIME LEFT:  2.00D  GRAD.:     1.721 HEAT:  56.15014
 CYCLE:   473 TIME:   0.078 TIME LEFT:  2.00D  GRAD.:    14.086 HEAT:  56.15038
 CYCLE:   474 TIME:   0.098 TIME LEFT:  2.00D  GRAD.:     3.536 HEAT:  56.14989
 CYCLE:   475 TIME:   0.109 TIME LEFT:  2.00D  GRAD.:     1.890 HEAT:  56.14980
 CYCLE:   476 TIME:   0.133 TIME LEFT:  2.00D  GRAD.:     3.733 HEAT:  56.14968
 CYCLE:   477 TIME:   0.133 TIME LEFT:  2.00D  GRAD.:     3.765 HEAT:  56.14960
 CYCLE:   478 TIME:   0.137 TIME LEFT:  2.00D  GRAD.:    18.745 HEAT:  56.15118
 CYCLE:   479 TIME:   0.133 TIME LEFT:  2.00D  GRAD.:     2.823 HEAT:  56.14913
 CYCLE:   480 TIME:   0.160 TIME LEFT:  2.00D  GRAD.:     2.504 HEAT:  56.14899
 CYCLE:   481 TIME:   0.176 TIME LEFT:  2.00D  GRAD.:     4.155 HEAT:  56.14841
 CYCLE:   482 TIME:   0.145 TIME LEFT:  2.00D  GRAD.:     5.369 HEAT:  56.14753
 CYCLE:   483 TIME:   0.125 TIME LEFT:  2.00D  GRAD.:     2.698 HEAT:  56.14692
 CYCLE:   484 TIME:   0.070 TIME LEFT:  2.00D  GRAD.:     2.480 HEAT:  56.14664
 CYCLE:   485 TIME:   0.094 TIME LEFT:  2.00D  GRAD.:     3.944 HEAT:  56.14602
 CYCLE:   486 TIME:   0.125 TIME LEFT:  2.00D  GRAD.:     4.290 HEAT:  56.14548
 CYCLE:   487 TIME:   0.098 TIME LEFT:  2.00D  GRAD.:     5.209 HEAT:  56.14512
 CYCLE:   488 TIME:   0.129 TIME LEFT:  2.00D  GRAD.:     2.818 HEAT:  56.14481
 CYCLE:   489 TIME:   0.145 TIME LEFT:  2.00D  GRAD.:     3.694 HEAT:  56.14463
 CYCLE:   490 TIME:   0.176 TIME LEFT:  2.00D  GRAD.:     9.897 HEAT:  56.14452
 CYCLE:   491 TIME:   0.152 TIME LEFT:  2.00D  GRAD.:     3.202 HEAT:  56.14369
 CYCLE:   492 TIME:   0.117 TIME LEFT:  2.00D  GRAD.:     3.290 HEAT:  56.14316
 CYCLE:   493 TIME:   0.086 TIME LEFT:  2.00D  GRAD.:     4.295 HEAT:  56.14271
 CYCLE:   494 TIME:   0.109 TIME LEFT:  2.00D  GRAD.:     9.577 HEAT:  56.14204
 CYCLE:   495 TIME:   0.074 TIME LEFT:  2.00D  GRAD.:     2.948 HEAT:  56.14129
 CYCLE:   496 TIME:   0.117 TIME LEFT:  2.00D  GRAD.:     2.292 HEAT:  56.14109
 CYCLE:   497 TIME:   0.090 TIME LEFT:  2.00D  GRAD.:     2.170 HEAT:  56.14075
 CYCLE:   498 TIME:   0.109 TIME LEFT:  2.00D  GRAD.:     2.754 HEAT:  56.14012
 CYCLE:   499 TIME:   0.145 TIME LEFT:  2.00D  GRAD.:     4.468 HEAT:  56.13935
 CYCLE:   500 TIME:   0.148 TIME LEFT:  2.00D  GRAD.:    10.508 HEAT:  56.13933
 CYCLE:   501 TIME:   0.152 TIME LEFT:  2.00D  GRAD.:     8.071 HEAT:  56.13868
 CYCLE:   502 TIME:   0.145 TIME LEFT:  2.00D  GRAD.:     2.609 HEAT:  56.13830
 CYCLE:   503 TIME:   0.121 TIME LEFT:  2.00D  GRAD.:     2.227 HEAT:  56.13813
 CYCLE:   504 TIME:   0.125 TIME LEFT:  2.00D  GRAD.:     5.875 HEAT:  56.13794
 CYCLE:   505 TIME:   0.082 TIME LEFT:  2.00D  GRAD.:     3.591 HEAT:  56.13756
 CYCLE:   506 TIME:   0.098 TIME LEFT:  2.00D  GRAD.:     2.308 HEAT:  56.13712
 CYCLE:   507 TIME:   0.082 TIME LEFT:  2.00D  GRAD.:     1.985 HEAT:  56.13683
 CYCLE:   508 TIME:   0.074 TIME LEFT:  2.00D  GRAD.:    39.781 HEAT:  56.14210
 CYCLE:   509 TIME:   0.078 TIME LEFT:  2.00D  GRAD.:     2.032 HEAT:  56.13669
 CYCLE:   510 TIME:   0.078 TIME LEFT:  2.00D  GRAD.:     2.034 HEAT:  56.13663
 CYCLE:   511 TIME:   0.113 TIME LEFT:  2.00D  GRAD.:     2.225 HEAT:  56.13630
 CYCLE:   512 TIME:   0.109 TIME LEFT:  2.00D  GRAD.:     4.782 HEAT:  56.13597
 CYCLE:   513 TIME:   0.141 TIME LEFT:  2.00D  GRAD.:     3.429 HEAT:  56.13542
 CYCLE:   514 TIME:   0.078 TIME LEFT:  2.00D  GRAD.:     6.218 HEAT:  56.13501
 CYCLE:   515 TIME:   0.055 TIME LEFT:  2.00D  GRAD.:     3.478 HEAT:  56.13464
 CYCLE:   516 TIME:   0.055 TIME LEFT:  2.00D  GRAD.:     2.265 HEAT:  56.13422
 CYCLE:   517 TIME:   0.059 TIME LEFT:  2.00D  GRAD.:     2.688 HEAT:  56.13380
 CYCLE:   518 TIME:   0.047 TIME LEFT:  2.00D  GRAD.:     2.724 HEAT:  56.13326
 CYCLE:   519 TIME:   0.051 TIME LEFT:  2.00D  GRAD.:    23.947 HEAT:  56.13452
 CYCLE:   520 TIME:   0.078 TIME LEFT:  2.00D  GRAD.:     3.395 HEAT:  56.13238
 CYCLE:   521 TIME:   0.125 TIME LEFT:  2.00D  GRAD.:     2.306 HEAT:  56.13218
 CYCLE:   522 TIME:   0.066 TIME LEFT:  2.00D  GRAD.:    21.277 HEAT:  56.13293
 CYCLE:   523 TIME:   0.066 TIME LEFT:  2.00D  GRAD.:     4.399 HEAT:  56.13187
 CYCLE:   524 TIME:   0.066 TIME LEFT:  2.00D  GRAD.:     2.863 HEAT:  56.13179
 CYCLE:   525 TIME:   0.133 TIME LEFT:  2.00D  GRAD.:     3.193 HEAT:  56.13162
 CYCLE:   526 TIME:   0.047 TIME LEFT:  2.00D  GRAD.:     4.884 HEAT:  56.13142
 CYCLE:   527 TIME:   0.051 TIME LEFT:  2.00D  GRAD.:     6.895 HEAT:  56.13105
 CYCLE:   528 TIME:   0.066 TIME LEFT:  2.00D  GRAD.:     5.095 HEAT:  56.13049
 CYCLE:   529 TIME:   0.070 TIME LEFT:  2.00D  GRAD.:     2.083 HEAT:  56.13000
 CYCLE:   530 TIME:   0.070 TIME LEFT:  2.00D  GRAD.:     1.995 HEAT:  56.12980
 CYCLE:   531 TIME:   0.070 TIME LEFT:  2.00D  GRAD.:    14.255 HEAT:  56.13098
 CYCLE:   532 TIME:   0.070 TIME LEFT:  2.00D  GRAD.:     3.526 HEAT:  56.12898
 CYCLE:   533 TIME:   0.066 TIME LEFT:  2.00D  GRAD.:     2.473 HEAT:  56.12874
 CYCLE:   534 TIME:   0.070 TIME LEFT:  2.00D  GRAD.:     5.002 HEAT:  56.12812
 CYCLE:   535 TIME:   0.066 TIME LEFT:  2.00D  GRAD.:     8.211 HEAT:  56.12836
 CYCLE:   536 TIME:   0.047 TIME LEFT:  2.00D  GRAD.:     3.013 HEAT:  56.12754
 CYCLE:   537 TIME:   0.051 TIME LEFT:  2.00D  GRAD.:     2.158 HEAT:  56.12736
 CYCLE:   538 TIME:   0.055 TIME LEFT:  2.00D  GRAD.:    16.825 HEAT:  56.12774
 CYCLE:   539 TIME:   0.055 TIME LEFT:  2.00D  GRAD.:     1.873 HEAT:  56.12713
 CYCLE:   540 TIME:   0.051 TIME LEFT:  2.00D  GRAD.:     1.707 HEAT:  56.12711
 CYCLE:   541 TIME:   0.047 TIME LEFT:  2.00D  GRAD.:     2.130 HEAT:  56.12692
 CYCLE:   542 TIME:   0.047 TIME LEFT:  2.00D  GRAD.:     3.009 HEAT:  56.12668
 CYCLE:   543 TIME:   0.047 TIME LEFT:  2.00D  GRAD.:     3.489 HEAT:  56.12622
 CYCLE:   544 TIME:   0.051 TIME LEFT:  2.00D  GRAD.:     3.385 HEAT:  56.12595
 CYCLE:   545 TIME:   0.047 TIME LEFT:  2.00D  GRAD.:     2.144 HEAT:  56.12579
 CYCLE:   546 TIME:   0.051 TIME LEFT:  2.00D  GRAD.:     2.862 HEAT:  56.12559
 CYCLE:   547 TIME:   0.043 TIME LEFT:  2.00D  GRAD.:     2.617 HEAT:  56.12539
 CYCLE:   548 TIME:   0.059 TIME LEFT:  2.00D  GRAD.:     2.107 HEAT:  56.12513
 CYCLE:   549 TIME:   0.051 TIME LEFT:  2.00D  GRAD.:     1.899 HEAT:  56.12492
 CYCLE:   550 TIME:   0.062 TIME LEFT:  2.00D  GRAD.:     2.603 HEAT:  56.12468
 CYCLE:   551 TIME:   0.051 TIME LEFT:  2.00D  GRAD.:     3.226 HEAT:  56.12451
 CYCLE:   552 TIME:   0.070 TIME LEFT:  2.00D  GRAD.:    87.047 HEAT:  56.14203
 CYCLE:   553 TIME:   0.066 TIME LEFT:  2.00D  GRAD.:     3.241 HEAT:  56.12439
 CYCLE:   554 TIME:   0.062 TIME LEFT:  2.00D  GRAD.:     1.503 HEAT:  56.12439
 CYCLE:   555 TIME:   0.055 TIME LEFT:  2.00D  GRAD.:     2.191 HEAT:  56.12408
 CYCLE:   556 TIME:   0.055 TIME LEFT:  2.00D  GRAD.:     4.989 HEAT:  56.12427
 CYCLE:   557 TIME:   0.047 TIME LEFT:  2.00D  GRAD.:     3.360 HEAT:  56.12358
 CYCLE:   558 TIME:   0.055 TIME LEFT:  2.00D  GRAD.:    14.716 HEAT:  56.12479
 CYCLE:   559 TIME:   0.047 TIME LEFT:  2.00D  GRAD.:     1.418 HEAT:  56.12333
 CYCLE:   560 TIME:   0.055 TIME LEFT:  2.00D  GRAD.:     3.462 HEAT:  56.12330
 CYCLE:   561 TIME:   0.047 TIME LEFT:  2.00D  GRAD.:     2.586 HEAT:  56.12324
 CYCLE:   562 TIME:   0.043 TIME LEFT:  2.00D  GRAD.:     1.703 HEAT:  56.12320
 CYCLE:   563 TIME:   0.051 TIME LEFT:  2.00D  GRAD.:     1.510 HEAT:  56.12304
 CYCLE:   564 TIME:   0.070 TIME LEFT:  2.00D  GRAD.:     1.479 HEAT:  56.12263
 CYCLE:   565 TIME:   0.055 TIME LEFT:  2.00D  GRAD.:     1.927 HEAT:  56.12225
 CYCLE:   566 TIME:   0.070 TIME LEFT:  2.00D  GRAD.:     4.898 HEAT:  56.12212
 CYCLE:   567 TIME:   0.066 TIME LEFT:  2.00D  GRAD.:     7.636 HEAT:  56.12228
 CYCLE:   568 TIME:   0.070 TIME LEFT:  2.00D  GRAD.:     3.426 HEAT:  56.12180
 CYCLE:   569 TIME:   0.051 TIME LEFT:  2.00D  GRAD.:     3.485 HEAT:  56.12177
 CYCLE:   570 TIME:   0.047 TIME LEFT:  2.00D  GRAD.:     1.252 HEAT:  56.12156
 CYCLE:   571 TIME:   0.051 TIME LEFT:  2.00D  GRAD.:     1.492 HEAT:  56.12143
 CYCLE:   572 TIME:   0.062 TIME LEFT:  2.00D  GRAD.:     5.271 HEAT:  56.12108
 CYCLE:   573 TIME:   0.047 TIME LEFT:  2.00D  GRAD.:     6.917 HEAT:  56.12122
 CYCLE:   574 TIME:   0.051 TIME LEFT:  2.00D  GRAD.:    13.981 HEAT:  56.12101
 CYCLE:   575 TIME:   0.047 TIME LEFT:  2.00D  GRAD.:     2.599 HEAT:  56.12060
 CYCLE:   576 TIME:   0.047 TIME LEFT:  2.00D  GRAD.:     3.250 HEAT:  56.12057
 CYCLE:   577 TIME:   0.059 TIME LEFT:  2.00D  GRAD.:     1.487 HEAT:  56.12050
 CYCLE:   578 TIME:   0.066 TIME LEFT:  2.00D  GRAD.:     2.264 HEAT:  56.12042
 CYCLE:   579 TIME:   0.066 TIME LEFT:  2.00D  GRAD.:     1.292 HEAT:  56.12036
 CYCLE:   580 TIME:   0.070 TIME LEFT:  2.00D  GRAD.:     1.568 HEAT:  56.12028
 CYCLE:   581 TIME:   0.070 TIME LEFT:  2.00D  GRAD.:     2.739 HEAT:  56.12016
 CYCLE:   582 TIME:   0.066 TIME LEFT:  2.00D  GRAD.:     3.370 HEAT:  56.11998
 CYCLE:   583 TIME:   0.066 TIME LEFT:  2.00D  GRAD.:     4.787 HEAT:  56.11964
 CYCLE:   584 TIME:   0.066 TIME LEFT:  2.00D  GRAD.:     1.826 HEAT:  56.11926
 CYCLE:   585 TIME:   0.062 TIME LEFT:  2.00D  GRAD.:     1.774 HEAT:  56.11912
 CYCLE:   586 TIME:   0.051 TIME LEFT:  2.00D  GRAD.:     3.924 HEAT:  56.11882
 CYCLE:   587 TIME:   0.066 TIME LEFT:  2.00D  GRAD.:     3.156 HEAT:  56.11862
 CYCLE:   588 TIME:   0.051 TIME LEFT:  2.00D  GRAD.:     1.663 HEAT:  56.11823
 CYCLE:   589 TIME:   0.047 TIME LEFT:  2.00D  GRAD.:     1.548 HEAT:  56.11807
 CYCLE:   590 TIME:   0.047 TIME LEFT:  2.00D  GRAD.:     9.268 HEAT:  56.11802
 CYCLE:   591 TIME:   0.070 TIME LEFT:  2.00D  GRAD.:     5.387 HEAT:  56.11790
 CYCLE:   592 TIME:   0.066 TIME LEFT:  2.00D  GRAD.:     2.236 HEAT:  56.11775
 CYCLE:   593 TIME:   0.043 TIME LEFT:  2.00D  GRAD.:     2.084 HEAT:  56.11767
 CYCLE:   594 TIME:   0.051 TIME LEFT:  2.00D  GRAD.:     3.098 HEAT:  56.11748
 CYCLE:   595 TIME:   0.066 TIME LEFT:  2.00D  GRAD.:     1.892 HEAT:  56.11729
 CYCLE:   596 TIME:   0.070 TIME LEFT:  2.00D  GRAD.:     2.048 HEAT:  56.11714
 CYCLE:   597 TIME:   0.059 TIME LEFT:  2.00D  GRAD.:     4.037 HEAT:  56.11703
 CYCLE:   598 TIME:   0.043 TIME LEFT:  2.00D  GRAD.:     2.614 HEAT:  56.11693
 CYCLE:   599 TIME:   0.047 TIME LEFT:  2.00D  GRAD.:     1.581 HEAT:  56.11675
 CYCLE:   600 TIME:   0.047 TIME LEFT:  2.00D  GRAD.:     2.707 HEAT:  56.11651
 CYCLE:   601 TIME:   0.047 TIME LEFT:  2.00D  GRAD.:     2.793 HEAT:  56.11622
 CYCLE:   602 TIME:   0.051 TIME LEFT:  2.00D  GRAD.:     9.164 HEAT:  56.11560
 CYCLE:   603 TIME:   0.051 TIME LEFT:  2.00D  GRAD.:     4.062 HEAT:  56.11526
 CYCLE:   604 TIME:   0.047 TIME LEFT:  2.00D  GRAD.:     1.911 HEAT:  56.11503
 CYCLE:   605 TIME:   0.051 TIME LEFT:  2.00D  GRAD.:     2.615 HEAT:  56.11490
 CYCLE:   606 TIME:   0.055 TIME LEFT:  2.00D  GRAD.:     4.756 HEAT:  56.11470
 CYCLE:   607 TIME:   0.051 TIME LEFT:  2.00D  GRAD.:     2.720 HEAT:  56.11457
 CYCLE:   608 TIME:   0.055 TIME LEFT:  2.00D  GRAD.:     1.953 HEAT:  56.11441
 CYCLE:   609 TIME:   0.055 TIME LEFT:  2.00D  GRAD.:     1.877 HEAT:  56.11416
 CYCLE:   610 TIME:   0.051 TIME LEFT:  2.00D  GRAD.:     2.260 HEAT:  56.11370
 CYCLE:   611 TIME:   0.047 TIME LEFT:  2.00D  GRAD.:     2.482 HEAT:  56.11338
 CYCLE:   612 TIME:   0.051 TIME LEFT:  2.00D  GRAD.:     6.373 HEAT:  56.11326
 CYCLE:   613 TIME:   0.051 TIME LEFT:  2.00D  GRAD.:     3.429 HEAT:  56.11298
 CYCLE:   614 TIME:   0.051 TIME LEFT:  2.00D  GRAD.:     2.274 HEAT:  56.11283
 CYCLE:   615 TIME:   0.055 TIME LEFT:  2.00D  GRAD.:     2.046 HEAT:  56.11272
 CYCLE:   616 TIME:   0.055 TIME LEFT:  2.00D  GRAD.:     2.692 HEAT:  56.11234
 CYCLE:   617 TIME:   0.059 TIME LEFT:  2.00D  GRAD.:     8.283 HEAT:  56.11186
 CYCLE:   618 TIME:   0.047 TIME LEFT:  2.00D  GRAD.:     2.584 HEAT:  56.11134
 CYCLE:   619 TIME:   0.047 TIME LEFT:  2.00D  GRAD.:     2.190 HEAT:  56.11114
 CYCLE:   620 TIME:   0.047 TIME LEFT:  2.00D  GRAD.:     6.378 HEAT:  56.11108
 CYCLE:   621 TIME:   0.051 TIME LEFT:  2.00D  GRAD.:     3.246 HEAT:  56.11090
 CYCLE:   622 TIME:   0.047 TIME LEFT:  2.00D  GRAD.:     1.930 HEAT:  56.11060
 CYCLE:   623 TIME:   0.055 TIME LEFT:  2.00D  GRAD.:     4.029 HEAT:  56.11015
 CYCLE:   624 TIME:   0.051 TIME LEFT:  2.00D  GRAD.:     3.022 HEAT:  56.10984
 CYCLE:   625 TIME:   0.062 TIME LEFT:  2.00D  GRAD.:     1.891 HEAT:  56.10937
 CYCLE:   626 TIME:   0.047 TIME LEFT:  2.00D  GRAD.:    10.631 HEAT:  56.10928
 CYCLE:   627 TIME:   0.055 TIME LEFT:  2.00D  GRAD.:     6.005 HEAT:  56.10872
 CYCLE:   628 TIME:   0.066 TIME LEFT:  2.00D  GRAD.:     3.315 HEAT:  56.10830
 CYCLE:   629 TIME:   0.066 TIME LEFT:  2.00D  GRAD.:     2.632 HEAT:  56.10782
 CYCLE:   630 TIME:   0.059 TIME LEFT:  2.00D  GRAD.:     2.448 HEAT:  56.10760
 CYCLE:   631 TIME:   0.055 TIME LEFT:  2.00D  GRAD.:     2.182 HEAT:  56.10708
 CYCLE:   632 TIME:   0.055 TIME LEFT:  2.00D  GRAD.:    10.086 HEAT:  56.10698
 CYCLE:   633 TIME:   0.051 TIME LEFT:  2.00D  GRAD.:     9.281 HEAT:  56.10661
 CYCLE:   634 TIME:   0.059 TIME LEFT:  2.00D  GRAD.:     4.075 HEAT:  56.10631
 CYCLE:   635 TIME:   0.059 TIME LEFT:  2.00D  GRAD.:     2.403 HEAT:  56.10623
 CYCLE:   636 TIME:   0.059 TIME LEFT:  2.00D  GRAD.:     1.835 HEAT:  56.10605
 CYCLE:   637 TIME:   0.055 TIME LEFT:  2.00D  GRAD.:     2.655 HEAT:  56.10572
 CYCLE:   638 TIME:   0.059 TIME LEFT:  2.00D  GRAD.:     5.728 HEAT:  56.10558
 CYCLE:   639 TIME:   0.066 TIME LEFT:  2.00D  GRAD.:     3.415 HEAT:  56.10521
 CYCLE:   640 TIME:   0.055 TIME LEFT:  2.00D  GRAD.:     2.754 HEAT:  56.10502
 CYCLE:   641 TIME:   0.074 TIME LEFT:  2.00D  GRAD.:     6.656 HEAT:  56.10457
 CYCLE:   642 TIME:   0.074 TIME LEFT:  2.00D  GRAD.:    22.566 HEAT:  56.10625
 CYCLE:   643 TIME:   0.059 TIME LEFT:  2.00D  GRAD.:     2.341 HEAT:  56.10408
 CYCLE:   644 TIME:   0.047 TIME LEFT:  2.00D  GRAD.:     2.338 HEAT:  56.10402
 CYCLE:   645 TIME:   0.062 TIME LEFT:  2.00D  GRAD.:     7.721 HEAT:  56.10474
 CYCLE:   646 TIME:   0.062 TIME LEFT:  2.00D  GRAD.:     2.969 HEAT:  56.10307
 CYCLE:   647 TIME:   0.066 TIME LEFT:  2.00D  GRAD.:    20.925 HEAT:  56.10436
 CYCLE:   648 TIME:   0.066 TIME LEFT:  2.00D  GRAD.:     1.686 HEAT:  56.10274
 CYCLE:   649 TIME:   0.066 TIME LEFT:  2.00D  GRAD.:     1.458 HEAT:  56.10263
 CYCLE:   650 TIME:   0.070 TIME LEFT:  2.00D  GRAD.:     3.300 HEAT:  56.10223
 CYCLE:   651 TIME:   0.066 TIME LEFT:  2.00D  GRAD.:     2.468 HEAT:  56.10196
 CYCLE:   652 TIME:   0.059 TIME LEFT:  2.00D  GRAD.:     8.577 HEAT:  56.10166
 CYCLE:   653 TIME:   0.055 TIME LEFT:  2.00D  GRAD.:     2.310 HEAT:  56.10140
 CYCLE:   654 TIME:   0.059 TIME LEFT:  2.00D  GRAD.:     1.696 HEAT:  56.10134
 CYCLE:   655 TIME:   0.043 TIME LEFT:  2.00D  GRAD.:     1.954 HEAT:  56.10126
 CYCLE:   656 TIME:   0.066 TIME LEFT:  2.00D  GRAD.:     1.738 HEAT:  56.10109
 CYCLE:   657 TIME:   0.078 TIME LEFT:  2.00D  GRAD.:    24.574 HEAT:  56.10430
 CYCLE:   658 TIME:   0.070 TIME LEFT:  2.00D  GRAD.:     2.385 HEAT:  56.10092
 CYCLE:   659 TIME:   0.074 TIME LEFT:  2.00D  GRAD.:     1.851 HEAT:  56.10086
 CYCLE:   660 TIME:   0.055 TIME LEFT:  2.00D  GRAD.:     2.604 HEAT:  56.10063
 CYCLE:   661 TIME:   0.051 TIME LEFT:  2.00D  GRAD.:     3.626 HEAT:  56.10039
 CYCLE:   662 TIME:   0.047 TIME LEFT:  2.00D  GRAD.:    10.886 HEAT:  56.10022
 CYCLE:   663 TIME:   0.043 TIME LEFT:  2.00D  GRAD.:     3.771 HEAT:  56.09981
 CYCLE:   664 TIME:   0.047 TIME LEFT:  2.00D  GRAD.:     1.839 HEAT:  56.09966
 CYCLE:   665 TIME:   0.070 TIME LEFT:  2.00D  GRAD.:     3.153 HEAT:  56.09955
 CYCLE:   666 TIME:   0.066 TIME LEFT:  2.00D  GRAD.:     2.139 HEAT:  56.09946
 CYCLE:   667 TIME:   0.047 TIME LEFT:  2.00D  GRAD.:     4.964 HEAT:  56.09935
 CYCLE:   668 TIME:   0.062 TIME LEFT:  2.00D  GRAD.:     1.632 HEAT:  56.09914
 CYCLE:   669 TIME:   0.074 TIME LEFT:  2.00D  GRAD.:     2.754 HEAT:  56.09898
 CYCLE:   670 TIME:   0.066 TIME LEFT:  2.00D  GRAD.:     3.269 HEAT:  56.09884
 CYCLE:   671 TIME:   0.066 TIME LEFT:  2.00D  GRAD.:     2.990 HEAT:  56.09847
 CYCLE:   672 TIME:   0.066 TIME LEFT:  2.00D  GRAD.:     3.425 HEAT:  56.09799
 CYCLE:   673 TIME:   0.070 TIME LEFT:  2.00D  GRAD.:    24.019 HEAT:  56.10176
 CYCLE:   674 TIME:   0.055 TIME LEFT:  2.00D  GRAD.:    10.679 HEAT:  56.09881
 CYCLE:   675 TIME:   0.055 TIME LEFT:  2.00D  GRAD.:     2.229 HEAT:  56.09771
 CYCLE:   676 TIME:   0.059 TIME LEFT:  2.00D  GRAD.:     1.422 HEAT:  56.09765
 CYCLE:   677 TIME:   0.051 TIME LEFT:  2.00D  GRAD.:     1.786 HEAT:  56.09758
 CYCLE:   678 TIME:   0.059 TIME LEFT:  2.00D  GRAD.:     7.525 HEAT:  56.09751
 CYCLE:   679 TIME:   0.055 TIME LEFT:  2.00D  GRAD.:     4.434 HEAT:  56.09739
 CYCLE:   680 TIME:   0.051 TIME LEFT:  2.00D  GRAD.:     2.016 HEAT:  56.09721
 CYCLE:   681 TIME:   0.066 TIME LEFT:  2.00D  GRAD.:     2.649 HEAT:  56.09711
 CYCLE:   682 TIME:   0.055 TIME LEFT:  2.00D  GRAD.:     2.509 HEAT:  56.09689
 CYCLE:   683 TIME:   0.055 TIME LEFT:  2.00D  GRAD.:    14.337 HEAT:  56.09730
 CYCLE:   684 TIME:   0.055 TIME LEFT:  2.00D  GRAD.:     2.843 HEAT:  56.09640
 CYCLE:   685 TIME:   0.133 TIME LEFT:  2.00D  GRAD.:     2.239 HEAT:  56.09617
 CYCLE:   686 TIME:   0.098 TIME LEFT:  2.00D  GRAD.:     1.933 HEAT:  56.09596
 CYCLE:   687 TIME:   0.059 TIME LEFT:  2.00D  GRAD.:     1.639 HEAT:  56.09570
 CYCLE:   688 TIME:   0.059 TIME LEFT:  2.00D  GRAD.:     4.149 HEAT:  56.09533
 CYCLE:   689 TIME:   0.047 TIME LEFT:  2.00D  GRAD.:     4.868 HEAT:  56.09503
 CYCLE:   690 TIME:   0.047 TIME LEFT:  2.00D  GRAD.:     6.843 HEAT:  56.09500
 CYCLE:   691 TIME:   0.043 TIME LEFT:  2.00D  GRAD.:     4.147 HEAT:  56.09460
 CYCLE:   692 TIME:   0.047 TIME LEFT:  2.00D  GRAD.:     4.370 HEAT:  56.09452
 CYCLE:   693 TIME:   0.078 TIME LEFT:  2.00D  GRAD.:     1.807 HEAT:  56.09446
 CYCLE:   694 TIME:   0.074 TIME LEFT:  2.00D  GRAD.:     1.361 HEAT:  56.09441
 CYCLE:   695 TIME:   0.074 TIME LEFT:  2.00D  GRAD.:     2.306 HEAT:  56.09431
 CYCLE:   696 TIME:   0.051 TIME LEFT:  2.00D  GRAD.:     3.019 HEAT:  56.09418
 CYCLE:   697 TIME:   0.055 TIME LEFT:  2.00D  GRAD.:     4.188 HEAT:  56.09392
 CYCLE:   698 TIME:   0.082 TIME LEFT:  2.00D  GRAD.:     6.897 HEAT:  56.09377
 CYCLE:   699 TIME:   0.121 TIME LEFT:  2.00D  GRAD.:     3.339 HEAT:  56.09318
 CYCLE:   700 TIME:   0.051 TIME LEFT:  2.00D  GRAD.:     2.022 HEAT:  56.09274
 CYCLE:   701 TIME:   0.051 TIME LEFT:  2.00D  GRAD.:     3.295 HEAT:  56.09240
 CYCLE:   702 TIME:   0.066 TIME LEFT:  2.00D  GRAD.:     4.567 HEAT:  56.09200
 CYCLE:   703 TIME:   0.059 TIME LEFT:  2.00D  GRAD.:     6.913 HEAT:  56.09140
 CYCLE:   704 TIME:   0.043 TIME LEFT:  2.00D  GRAD.:     3.675 HEAT:  56.09086
 CYCLE:   705 TIME:   0.066 TIME LEFT:  2.00D  GRAD.:     3.363 HEAT:  56.09064
 CYCLE:   706 TIME:   0.066 TIME LEFT:  2.00D  GRAD.:     2.776 HEAT:  56.09052
 CYCLE:   707 TIME:   0.066 TIME LEFT:  2.00D  GRAD.:     9.235 HEAT:  56.09036
 CYCLE:   708 TIME:   0.066 TIME LEFT:  2.00D  GRAD.:     4.196 HEAT:  56.09013
 CYCLE:   709 TIME:   0.051 TIME LEFT:  2.00D  GRAD.:     3.342 HEAT:  56.08997
 CYCLE:   710 TIME:   0.066 TIME LEFT:  2.00D  GRAD.:     3.836 HEAT:  56.08991
 CYCLE:   711 TIME:   0.066 TIME LEFT:  2.00D  GRAD.:     3.860 HEAT:  56.08969
 CYCLE:   712 TIME:   0.066 TIME LEFT:  2.00D  GRAD.:     2.802 HEAT:  56.08938
 CYCLE:   713 TIME:   0.098 TIME LEFT:  2.00D  GRAD.:     2.161 HEAT:  56.08893
 CYCLE:   714 TIME:   0.070 TIME LEFT:  2.00D  GRAD.:     2.861 HEAT:  56.08855
 CYCLE:   715 TIME:   0.070 TIME LEFT:  2.00D  GRAD.:     3.501 HEAT:  56.08811
 CYCLE:   716 TIME:   0.074 TIME LEFT:  2.00D  GRAD.:     2.632 HEAT:  56.08765
 CYCLE:   717 TIME:   0.070 TIME LEFT:  2.00D  GRAD.:     1.970 HEAT:  56.08735
 CYCLE:   718 TIME:   0.156 TIME LEFT:  2.00D  GRAD.:     2.839 HEAT:  56.08714
 CYCLE:   719 TIME:   0.078 TIME LEFT:  2.00D  GRAD.:     2.909 HEAT:  56.08677
 CYCLE:   720 TIME:   0.047 TIME LEFT:  2.00D  GRAD.:    10.611 HEAT:  56.08654
 CYCLE:   721 TIME:   0.070 TIME LEFT:  2.00D  GRAD.:     7.711 HEAT:  56.08626
 CYCLE:   722 TIME:   0.066 TIME LEFT:  2.00D  GRAD.:     2.276 HEAT:  56.08599
 CYCLE:   723 TIME:   0.066 TIME LEFT:  2.00D  GRAD.:     1.866 HEAT:  56.08589
 CYCLE:   724 TIME:   0.062 TIME LEFT:  2.00D  GRAD.:     2.505 HEAT:  56.08577
 CYCLE:   725 TIME:   0.047 TIME LEFT:  2.00D  GRAD.:     8.270 HEAT:  56.08651
 CYCLE:   726 TIME:   0.074 TIME LEFT:  2.00D  GRAD.:     7.602 HEAT:  56.08637
 CYCLE:   727 TIME:   0.070 TIME LEFT:  2.00D  GRAD.:     3.560 HEAT:  56.08546
 CYCLE:   728 TIME:   0.070 TIME LEFT:  2.00D  GRAD.:     2.614 HEAT:  56.08488
 CYCLE:   729 TIME:   0.074 TIME LEFT:  2.00D  GRAD.:    10.546 HEAT:  56.08495
 CYCLE:   730 TIME:   0.066 TIME LEFT:  2.00D  GRAD.:     1.994 HEAT:  56.08412
 CYCLE:   731 TIME:   0.070 TIME LEFT:  2.00D  GRAD.:     1.782 HEAT:  56.08387
 CYCLE:   732 TIME:   0.070 TIME LEFT:  2.00D  GRAD.:     2.469 HEAT:  56.08357
 CYCLE:   733 TIME:   0.051 TIME LEFT:  2.00D  GRAD.:     1.920 HEAT:  56.08326
 CYCLE:   734 TIME:   0.055 TIME LEFT:  2.00D  GRAD.:     5.063 HEAT:  56.08305
 CYCLE:   735 TIME:   0.055 TIME LEFT:  2.00D  GRAD.:     2.027 HEAT:  56.08292
 CYCLE:   736 TIME:   0.070 TIME LEFT:  2.00D  GRAD.:     2.374 HEAT:  56.08288
 CYCLE:   737 TIME:   0.062 TIME LEFT:  2.00D  GRAD.:     6.799 HEAT:  56.08262
 CYCLE:   738 TIME:   0.066 TIME LEFT:  2.00D  GRAD.:     2.677 HEAT:  56.08242
 CYCLE:   739 TIME:   0.059 TIME LEFT:  2.00D  GRAD.:     1.959 HEAT:  56.08231
 CYCLE:   740 TIME:   0.066 TIME LEFT:  2.00D  GRAD.:     2.159 HEAT:  56.08226
 CYCLE:   741 TIME:   0.066 TIME LEFT:  2.00D  GRAD.:     1.442 HEAT:  56.08202
 CYCLE:   742 TIME:   0.047 TIME LEFT:  2.00D  GRAD.:     1.465 HEAT:  56.08182
 CYCLE:   743 TIME:   0.051 TIME LEFT:  2.00D  GRAD.:     2.159 HEAT:  56.08146
 CYCLE:   744 TIME:   0.047 TIME LEFT:  2.00D  GRAD.:     3.009 HEAT:  56.08109
 CYCLE:   745 TIME:   0.047 TIME LEFT:  2.00D  GRAD.:     4.317 HEAT:  56.08098
 CYCLE:   746 TIME:   0.047 TIME LEFT:  2.00D  GRAD.:     1.330 HEAT:  56.08078
 CYCLE:   747 TIME:   0.051 TIME LEFT:  2.00D  GRAD.:     2.215 HEAT:  56.08075
 CYCLE:   748 TIME:   0.059 TIME LEFT:  2.00D  GRAD.:     2.812 HEAT:  56.08068
 CYCLE:   749 TIME:   0.043 TIME LEFT:  2.00D  GRAD.:     1.845 HEAT:  56.08061
 CYCLE:   750 TIME:   0.051 TIME LEFT:  2.00D  GRAD.:     1.146 HEAT:  56.08047
 CYCLE:   751 TIME:   0.051 TIME LEFT:  2.00D  GRAD.:     1.540 HEAT:  56.08031
 CYCLE:   752 TIME:   0.055 TIME LEFT:  2.00D  GRAD.:     1.893 HEAT:  56.08017
 CYCLE:   753 TIME:   0.055 TIME LEFT:  2.00D  GRAD.:     7.893 HEAT:  56.08014
 CYCLE:   754 TIME:   0.055 TIME LEFT:  2.00D  GRAD.:     1.538 HEAT:  56.07992
 CYCLE:   755 TIME:   0.047 TIME LEFT:  2.00D  GRAD.:     1.158 HEAT:  56.07987
 CYCLE:   756 TIME:   0.066 TIME LEFT:  2.00D  GRAD.:     1.264 HEAT:  56.07982
 CYCLE:   757 TIME:   0.043 TIME LEFT:  2.00D  GRAD.:     1.223 HEAT:  56.07967
 CYCLE:   758 TIME:   0.070 TIME LEFT:  2.00D  GRAD.:     2.403 HEAT:  56.07945
 CYCLE:   759 TIME:   0.066 TIME LEFT:  2.00D  GRAD.:     2.853 HEAT:  56.07922
 CYCLE:   760 TIME:   0.059 TIME LEFT:  2.00D  GRAD.:     6.135 HEAT:  56.07931
 CYCLE:   761 TIME:   0.059 TIME LEFT:  2.00D  GRAD.:     1.253 HEAT:  56.07901
 CYCLE:   762 TIME:   0.062 TIME LEFT:  2.00D  GRAD.:     1.160 HEAT:  56.07898
 CYCLE:   763 TIME:   0.051 TIME LEFT:  2.00D  GRAD.:     1.500 HEAT:  56.07892
 CYCLE:   764 TIME:   0.047 TIME LEFT:  2.00D  GRAD.:     1.922 HEAT:  56.07872
 CYCLE:   765 TIME:   0.059 TIME LEFT:  2.00D  GRAD.:     4.007 HEAT:  56.07849
 CYCLE:   766 TIME:   0.055 TIME LEFT:  2.00D  GRAD.:     4.245 HEAT:  56.07838
 CYCLE:   767 TIME:   0.062 TIME LEFT:  2.00D  GRAD.:     1.267 HEAT:  56.07829
 CYCLE:   768 TIME:   0.074 TIME LEFT:  2.00D  GRAD.:     0.905 HEAT:  56.07827
 CYCLE:   769 TIME:   0.070 TIME LEFT:  2.00D  GRAD.:     1.121 HEAT:  56.07823
 CYCLE:   770 TIME:   0.055 TIME LEFT:  2.00D  GRAD.:     2.344 HEAT:  56.07817
 CYCLE:   771 TIME:   0.066 TIME LEFT:  2.00D  GRAD.:     1.440 HEAT:  56.07798
 CYCLE:   772 TIME:   0.066 TIME LEFT:  2.00D  GRAD.:     1.390 HEAT:  56.07790
 CYCLE:   773 TIME:   0.047 TIME LEFT:  2.00D  GRAD.:     1.001 HEAT:  56.07767
 CYCLE:   774 TIME:   0.074 TIME LEFT:  2.00D  GRAD.:     2.428 HEAT:  56.07753
 CYCLE:   775 TIME:   0.066 TIME LEFT:  2.00D  GRAD.:     3.625 HEAT:  56.07751
 CYCLE:   776 TIME:   0.062 TIME LEFT:  2.00D  GRAD.:     0.948 HEAT:  56.07739
 CYCLE:   777 TIME:   0.066 TIME LEFT:  2.00D  GRAD.:     1.259 HEAT:  56.07733
 CYCLE:   778 TIME:   0.047 TIME LEFT:  2.00D  GRAD.:     1.299 HEAT:  56.07726
 CYCLE:   779 TIME:   0.051 TIME LEFT:  2.00D  GRAD.:    11.562 HEAT:  56.07737
 CYCLE:   780 TIME:   0.062 TIME LEFT:  2.00D  GRAD.:     1.914 HEAT:  56.07712
 CYCLE:   781 TIME:   0.066 TIME LEFT:  2.00D  GRAD.:     1.093 HEAT:  56.07708
 CYCLE:   782 TIME:   0.066 TIME LEFT:  2.00D  GRAD.:     0.785 HEAT:  56.07703
 CYCLE:   783 TIME:   0.070 TIME LEFT:  2.00D  GRAD.:     1.016 HEAT:  56.07696
 CYCLE:   784 TIME:   0.059 TIME LEFT:  2.00D  GRAD.:     3.042 HEAT:  56.07698
 CYCLE:   785 TIME:   0.051 TIME LEFT:  2.00D  GRAD.:     1.289 HEAT:  56.07681
 CYCLE:   786 TIME:   0.047 TIME LEFT:  2.00D  GRAD.:     0.795 HEAT:  56.07672
 CYCLE:   787 TIME:   0.047 TIME LEFT:  2.00D  GRAD.:     1.351 HEAT:  56.07661
 CYCLE:   788 TIME:   0.047 TIME LEFT:  2.00D  GRAD.:     1.597 HEAT:  56.07652
 CYCLE:   789 TIME:   0.047 TIME LEFT:  2.00D  GRAD.:     6.899 HEAT:  56.07666
 CYCLE:   790 TIME:   0.066 TIME LEFT:  2.00D  GRAD.:     1.440 HEAT:  56.07637
 CYCLE:   791 TIME:   0.066 TIME LEFT:  2.00D  GRAD.:     0.982 HEAT:  56.07632
 CYCLE:   792 TIME:   0.070 TIME LEFT:  2.00D  GRAD.:     0.972 HEAT:  56.07622
 CYCLE:   793 TIME:   0.070 TIME LEFT:  2.00D  GRAD.:     3.152 HEAT:  56.07615
 CYCLE:   794 TIME:   0.047 TIME LEFT:  2.00D  GRAD.:     2.657 HEAT:  56.07610
 CYCLE:   795 TIME:   0.055 TIME LEFT:  2.00D  GRAD.:     0.656 HEAT:  56.07606
 CYCLE:   796 TIME:   0.066 TIME LEFT:  2.00D  GRAD.:     1.172 HEAT:  56.07605
 CYCLE:   797 TIME:   0.066 TIME LEFT:  2.00D  GRAD.:     0.616 HEAT:  56.07603
 CYCLE:   798 TIME:   0.066 TIME LEFT:  2.00D  GRAD.:     1.925 HEAT:  56.07600
 CYCLE:   799 TIME:   0.062 TIME LEFT:  2.00D  GRAD.:     1.435 HEAT:  56.07598
 CYCLE:   800 TIME:   0.062 TIME LEFT:  2.00D  GRAD.:     0.795 HEAT:  56.07595
 CYCLE:   801 TIME:   0.066 TIME LEFT:  2.00D  GRAD.:     1.287 HEAT:  56.07592
 CYCLE:   802 TIME:   0.066 TIME LEFT:  2.00D  GRAD.:     1.833 HEAT:  56.07588
 CYCLE:   803 TIME:   0.059 TIME LEFT:  2.00D  GRAD.:     1.104 HEAT:  56.07585
 CYCLE:   804 TIME:   0.043 TIME LEFT:  2.00D  GRAD.:     0.866 HEAT:  56.07582
 CYCLE:   805 TIME:   0.051 TIME LEFT:  2.00D  GRAD.:     0.772 HEAT:  56.07580
 CYCLE:   806 TIME:   0.059 TIME LEFT:  2.00D  GRAD.:     1.604 HEAT:  56.07575
 CYCLE:   807 TIME:   0.055 TIME LEFT:  2.00D  GRAD.:     0.887 HEAT:  56.07570
 CYCLE:   808 TIME:   0.055 TIME LEFT:  2.00D  GRAD.:     1.628 HEAT:  56.07567
 CYCLE:   809 TIME:   0.066 TIME LEFT:  2.00D  GRAD.:     0.675 HEAT:  56.07564
 CYCLE:   810 TIME:   0.055 TIME LEFT:  2.00D  GRAD.:     0.539 HEAT:  56.07564
 CYCLE:   811 TIME:   0.043 TIME LEFT:  2.00D  GRAD.:     0.613 HEAT:  56.07562
 CYCLE:   812 TIME:   0.055 TIME LEFT:  2.00D  GRAD.:     0.819 HEAT:  56.07559
 CYCLE:   813 TIME:   0.055 TIME LEFT:  2.00D  GRAD.:     1.755 HEAT:  56.07554
 CYCLE:   814 TIME:   0.047 TIME LEFT:  2.00D  GRAD.:     1.103 HEAT:  56.07549
 CYCLE:   815 TIME:   0.047 TIME LEFT:  2.00D  GRAD.:     0.500 HEAT:  56.07543
 CYCLE:   816 TIME:   0.051 TIME LEFT:  2.00D  GRAD.:     0.488 HEAT:  56.07541
 CYCLE:   817 TIME:   0.055 TIME LEFT:  2.00D  GRAD.:     2.928 HEAT:  56.07539
 CYCLE:   818 TIME:   0.059 TIME LEFT:  2.00D  GRAD.:     1.319 HEAT:  56.07536
 CYCLE:   819 TIME:   0.055 TIME LEFT:  2.00D  GRAD.:     1.082 HEAT:  56.07532
 CYCLE:   820 TIME:   0.055 TIME LEFT:  2.00D  GRAD.:     1.134 HEAT:  56.07529
 CYCLE:   821 TIME:   0.055 TIME LEFT:  2.00D  GRAD.:     1.620 HEAT:  56.07525
 CYCLE:   822 TIME:   0.066 TIME LEFT:  2.00D  GRAD.:     3.925 HEAT:  56.07538
 CYCLE:   823 TIME:   0.070 TIME LEFT:  2.00D  GRAD.:     6.324 HEAT:  56.07545
 CYCLE:   824 TIME:   0.070 TIME LEFT:  2.00D  GRAD.:     1.861 HEAT:  56.07525
 CYCLE:   825 TIME:   0.070 TIME LEFT:  2.00D  GRAD.:     0.374 HEAT:  56.07522
 CYCLE:   826 TIME:   0.066 TIME LEFT:  2.00D  GRAD.:     0.836 HEAT:  56.07522
 CYCLE:   827 TIME:   0.066 TIME LEFT:  2.00D  GRAD.:     0.445 HEAT:  56.07521
 CYCLE:   828 TIME:   0.066 TIME LEFT:  2.00D  GRAD.:     0.900 HEAT:  56.07519
 CYCLE:   829 TIME:   0.070 TIME LEFT:  2.00D  GRAD.:     0.807 HEAT:  56.07518
 CYCLE:   830 TIME:   0.074 TIME LEFT:  2.00D  GRAD.:     0.526 HEAT:  56.07516
 CYCLE:   831 TIME:   0.062 TIME LEFT:  2.00D  GRAD.:     1.043 HEAT:  56.07513
 CYCLE:   832 TIME:   0.066 TIME LEFT:  2.00D  GRAD.:    11.627 HEAT:  56.07538
 CYCLE:   833 TIME:   0.062 TIME LEFT:  2.00D  GRAD.:     0.727 HEAT:  56.07513
 CYCLE:   834 TIME:   0.070 TIME LEFT:  2.00D  GRAD.:     0.697 HEAT:  56.07513
 CYCLE:   835 TIME:   0.070 TIME LEFT:  2.00D  GRAD.:     2.780 HEAT:  56.07526
 CYCLE:   836 TIME:   0.062 TIME LEFT:  2.00D  GRAD.:     0.586 HEAT:  56.07507
 CYCLE:   837 TIME:   0.070 TIME LEFT:  2.00D  GRAD.:     0.404 HEAT:  56.07506
 CYCLE:   838 TIME:   0.066 TIME LEFT:  2.00D  GRAD.:     0.573 HEAT:  56.07502
 CYCLE:   839 TIME:   0.070 TIME LEFT:  2.00D  GRAD.:     0.541 HEAT:  56.07499
 CYCLE:   840 TIME:   0.055 TIME LEFT:  2.00D  GRAD.:     0.911 HEAT:  56.07496
 CYCLE:   841 TIME:   0.051 TIME LEFT:  2.00D  GRAD.:     2.029 HEAT:  56.07495
 CYCLE:   842 TIME:   0.062 TIME LEFT:  2.00D  GRAD.:     0.698 HEAT:  56.07492
 CYCLE:   843 TIME:   0.070 TIME LEFT:  2.00D  GRAD.:     0.471 HEAT:  56.07491
 CYCLE:   844 TIME:   0.066 TIME LEFT:  2.00D  GRAD.:     1.023 HEAT:  56.07489
 CYCLE:   845 TIME:   0.059 TIME LEFT:  2.00D  GRAD.:     0.786 HEAT:  56.07487
 CYCLE:   846 TIME:   0.055 TIME LEFT:  2.00D  GRAD.:     1.685 HEAT:  56.07485
 CYCLE:   847 TIME:   0.047 TIME LEFT:  2.00D  GRAD.:     1.023 HEAT:  56.07484
 CYCLE:   848 TIME:   0.047 TIME LEFT:  2.00D  GRAD.:     0.402 HEAT:  56.07483
 CYCLE:   849 TIME:   0.055 TIME LEFT:  2.00D  GRAD.:     1.612 HEAT:  56.07483
 CYCLE:   850 TIME:   0.051 TIME LEFT:  2.00D  GRAD.:     0.541 HEAT:  56.07483
 CYCLE:   851 TIME:   0.059 TIME LEFT:  2.00D  GRAD.:     0.323 HEAT:  56.07482
 CYCLE:   852 TIME:   0.055 TIME LEFT:  2.00D  GRAD.:     0.327 HEAT:  56.07482
 CYCLE:   853 TIME:   0.059 TIME LEFT:  2.00D  GRAD.:     0.830 HEAT:  56.07480
 CYCLE:   854 TIME:   0.059 TIME LEFT:  2.00D  GRAD.:     1.961 HEAT:  56.07482
 CYCLE:   855 TIME:   0.047 TIME LEFT:  2.00D  GRAD.:     0.593 HEAT:  56.07478
 CYCLE:   856 TIME:   0.043 TIME LEFT:  2.00D  GRAD.:     0.368 HEAT:  56.07478
 CYCLE:   857 TIME:   0.055 TIME LEFT:  2.00D  GRAD.:     0.353 HEAT:  56.07477
 CYCLE:   858 TIME:   0.047 TIME LEFT:  2.00D  GRAD.:     0.408 HEAT:  56.07476
 CYCLE:   859 TIME:   0.055 TIME LEFT:  2.00D  GRAD.:     2.999 HEAT:  56.07476
 CYCLE:   860 TIME:   0.062 TIME LEFT:  2.00D  GRAD.:     1.513 HEAT:  56.07475
 CYCLE:   861 TIME:   0.055 TIME LEFT:  2.00D  GRAD.:     0.505 HEAT:  56.07473
 CYCLE:   862 TIME:   0.043 TIME LEFT:  2.00D  GRAD.:     0.657 HEAT:  56.07472
 CYCLE:   863 TIME:   0.047 TIME LEFT:  2.00D  GRAD.:     0.970 HEAT:  56.07471
 CYCLE:   864 TIME:   0.074 TIME LEFT:  2.00D  GRAD.:     0.729 HEAT:  56.07470
 CYCLE:   865 TIME:   0.062 TIME LEFT:  2.00D  GRAD.:     0.462 HEAT:  56.07470
 CYCLE:   866 TIME:   0.066 TIME LEFT:  2.00D  GRAD.:     0.484 HEAT:  56.07469
 CYCLE:   867 TIME:   0.066 TIME LEFT:  2.00D  GRAD.:     0.435 HEAT:  56.07469
 CYCLE:   868 TIME:   0.062 TIME LEFT:  2.00D  GRAD.:     0.631 HEAT:  56.07468
 CYCLE:   869 TIME:   0.066 TIME LEFT:  2.00D  GRAD.:     0.843 HEAT:  56.07467
 CYCLE:   870 TIME:   0.066 TIME LEFT:  2.00D  GRAD.:     0.671 HEAT:  56.07465
 CYCLE:   871 TIME:   0.066 TIME LEFT:  2.00D  GRAD.:     0.264 HEAT:  56.07464
 CYCLE:   872 TIME:   0.066 TIME LEFT:  2.00D  GRAD.:     0.303 HEAT:  56.07464
 CYCLE:   873 TIME:   0.066 TIME LEFT:  2.00D  GRAD.:     0.441 HEAT:  56.07463
 CYCLE:   874 TIME:   0.070 TIME LEFT:  2.00D  GRAD.:     2.877 HEAT:  56.07464
 CYCLE:   875 TIME:   0.066 TIME LEFT:  2.00D  GRAD.:     2.090 HEAT:  56.07464
[...]
  25    C        4.869257650    -3.306924968    -5.157566234
  26    N        5.799102653    -4.334747054    -5.396615999
  27    C        5.382650381    -5.460373293    -4.673798614
  28    C        5.865973009    -6.783359747    -4.762177928
  29    C        5.195370899    -7.741625407    -4.057008143
  30    C        6.816621728    -4.327650126    -6.433485843
  31    C        3.236457250     1.326365363     0.051092210
  32    O        4.441624371     1.533802768     0.070067239
  33    O        2.384705662     2.371658399     0.081031895
  34    H        4.414096648    -1.043960217    -0.129521410
  35    H        1.385543767    -2.051531277     1.548456770
  36    H        0.452483465    -4.340193845     1.581428719
  37    H        4.058761669    -3.091951898    -1.694674038
  38    H        1.086040339    -7.578043837     1.470052612
  39    H       -0.279608108    -6.511982617     1.044535958
  40    H        0.057423260    -7.950668463     0.060457787
  41    H        1.856229275    -9.003128528    -1.142943119
  42    H        3.660298080    -9.497944723    -2.769572293
  43    H        2.009246556    -3.355695098    -3.277685913
  44    H        1.865777193    -1.079702903    -4.266037834
  45    H        3.619623571    -0.240093447    -5.780870388
  46    H        5.540802707    -1.673326036    -6.431352756
  47    H        6.716629504    -7.032189840    -5.398904106
  48    H        5.491671248    -8.791384378    -4.157064170
  49    H        7.662921646    -4.983538659    -6.162560934
  50    H        6.426460613    -4.670852860    -7.409889166
  51    H        7.228508088    -3.313300510    -6.577226631
  52    H        2.865706027     3.211125359     0.113559090


           Empirical Formula: C28 H19 N3 O2  =    52 atoms



      MOLECULAR POINT GROUP   :   C1  


                  EIGENVALUES  
 -40.13219 -39.64454 -39.01864 -37.06424 -36.60938 -36.03860 -35.54203 -35.20181
 -33.46812 -33.19812 -32.28537 -31.29463 -29.95790 -29.37761 -29.34980 -28.41962
 -27.46063 -26.79460 -26.17689 -24.76073 -23.45480 -23.09068 -22.32381 -22.09080
 -21.64518 -21.53895 -21.14319 -20.12088 -18.95699 -18.82160 -18.20102 -18.01288
 -17.99901 -17.19757 -17.07046 -16.62684 -16.44234 -16.27925 -16.20116 -16.12909
 -15.87960 -15.70927 -15.22730 -15.02999 -14.83524 -14.77050 -14.68906 -14.55727
 -14.50626 -14.27948 -14.14998 -14.08196 -13.91263 -13.72204 -13.65102 -13.59452
 -13.39373 -13.23184 -13.16293 -13.04423 -12.88087 -12.53932 -12.39255 -12.36778
 -12.27224 -12.13905 -11.97479 -11.75043 -11.62258 -11.51244 -10.99194 -10.83342
 -10.55486 -10.18294  -9.46248  -8.86772  -8.67677  -8.01770  -7.96054  -0.70806
  -0.44698   0.04338   0.29476   0.65689   0.85307   0.97155   1.39138   1.47912
   1.51081   1.69097   1.78577   2.17997   2.37278   2.57330   2.81467   3.04972
   3.19734   3.31053   3.41995   3.54748   3.68991   3.79447   3.84157   3.86637
   3.93147   3.99664   4.04163   4.08713   4.16347   4.21121   4.24038   4.30118
   4.35349   4.37221   4.39896   4.43670   4.49204   4.56701   4.59325   4.64603
   4.69632   4.76412   4.80865   4.86634   4.90929   4.97153   5.02817   5.10093
   5.14133   5.16636   5.23236   5.30759   5.38367   5.45016   5.51422   5.62559
   5.65413   5.72545   5.77537   5.89389   5.96533   6.00137   6.04683   6.14430
   6.19209   6.31589   6.36457   6.42941   6.49012   6.55741   6.71307


              NET ATOMIC CHARGES AND DIPOLE CONTRIBUTIONS

  ATOM NO.   TYPE          CHARGE      No. of ELECS.   s-Pop       p-Pop       
   32          O          -0.379408        6.3794     1.91031     4.46909
   31          C           0.403232        3.5968     1.18099     2.41577
   33          O          -0.313132        6.3131     1.84010     4.47303
   52          H           0.243100        0.7569     0.75690
    2          C           0.055565        3.9444     1.19504     2.74939
    1          N          -0.154017        5.1540     1.84807     3.30595
    3          C          -0.152308        4.1523     1.14206     3.01024
    4          C           0.112151        3.8878     1.18597     2.70188
    5          C          -0.174812        4.1748     1.16254     3.01227
    6          C          -0.019085        4.0191     1.17458     2.84450
    7          C          -0.173486        4.1735     1.17023     3.00325
    8          C           0.123023        3.8770     1.15359     2.72339
    9          C          -0.087261        4.0873     1.15784     2.92942
   10          C           0.006529        3.9935     1.17281     2.82066
   11          C          -0.118610        4.1186     1.15520     2.96341
   12          C           0.121014        3.8790     1.15284     2.72615
   13          N          -0.265087        5.2651     1.49372     3.77137
   14          C           0.011874        3.9881     1.13864     2.84948
   15          C          -0.177677        4.1777     1.17004     3.00763
   16          C          -0.023674        4.0237     1.17624     2.84744
   17          C          -0.128158        4.1282     1.16336     2.96479
   18          C           0.138391        3.8616     1.13938     2.72223
   19          C          -0.129250        4.1293     1.15590     2.97335
   20          C          -0.070729        4.0707     1.15796     2.91277
   21          C          -0.052254        4.0523     1.17379     2.87846
   22          C          -0.153661        4.1537     1.17889     2.97477
   23          C          -0.061305        4.0613     1.17641     2.88489
   24          C          -0.160097        4.1601     1.16957     2.99053
   25          C           0.090812        3.9092     1.15316     2.75602
   26          N          -0.267134        5.2671     1.49771     3.76943
   27          C           0.124155        3.8758     1.15273     2.72312
   28          C          -0.173500        4.1735     1.17038     3.00312
   29          C          -0.029527        4.0295     1.17588     2.85365
   30          C           0.013808        3.9862     1.13808     2.84811
   34          H           0.132874        0.8671     0.86713
   35          H           0.113727        0.8863     0.88627
   36          H           0.123183        0.8768     0.87682
   37          H           0.130491        0.8695     0.86951
   38          H           0.063169        0.9368     0.93683
   39          H           0.078416        0.9216     0.92158
   40          H           0.076004        0.9240     0.92400
   41          H           0.118838        0.8812     0.88116
   42          H           0.103207        0.8968     0.89679
   43          H           0.122712        0.8773     0.87729
   44          H           0.111296        0.8887     0.88870
   45          H           0.102307        0.8977     0.89769
   46          H           0.114571        0.8854     0.88543
   47          H           0.118013        0.8820     0.88199
   48          H           0.102691        0.8973     0.89731
   49          H           0.073080        0.9269     0.92692
   50          H           0.060031        0.9400     0.93997
   51          H           0.075910        0.9241     0.92409
 DIPOLE           X         Y         Z       TOTAL
 POINT-CHG.     1.467    -4.889    -0.908     5.185
 HYBRID         0.769     0.251    -0.072     0.812
 SUM            2.236    -4.638    -0.980     5.242


          ATOMIC ORBITAL ELECTRON POPULATIONS

     Atom    s        px        py        pz   
    1  N   1.84807   1.11328   1.08933   1.10334
    2  C   1.19504   0.91161   0.91817   0.91961
    3  C   1.14206   0.89015   0.93451   1.18558
    4  C   1.18597   0.99557   0.91069   0.79562
    5  C   1.16254   1.03166   0.94669   1.03392
    6  C   1.17458   0.92860   0.95521   0.96070
    7  C   1.17023   1.04415   0.94586   1.01324
    8  C   1.15359   0.94643   0.81980   0.95715
    9  C   1.15784   1.00078   0.94507   0.98357
   10  C   1.17281   0.96058   0.91003   0.95005
   11  C   1.15520   1.04274   0.92373   0.99694
   12  C   1.15284   0.90960   0.93209   0.88446
   13  N   1.49372   1.38362   1.08072   1.30704
   14  C   1.13864   0.93878   0.96564   0.94506
   15  C   1.17004   1.02724   0.94037   1.04003
   16  C   1.17624   0.93427   0.97406   0.93911
   17  C   1.16336   1.00185   0.93546   1.02748
   18  C   1.13938   0.91133   0.90574   0.90516
   19  C   1.15590   1.00203   0.94866   1.02266
   20  C   1.15796   0.96512   0.94076   1.00688
   21  C   1.17379   0.95825   0.93759   0.98262
   22  C   1.17889   0.99834   0.97352   1.00291
   23  C   1.17641   0.93889   0.98065   0.96535
   24  C   1.16957   1.01132   0.93935   1.03986
   25  C   1.15316   0.88147   0.89593   0.97863
   26  N   1.49771   1.29124   1.11829   1.35990
   27  C   1.15273   0.94280   0.85829   0.92202
   28  C   1.17038   1.02989   0.91972   1.05352
   29  C   1.17588   0.93550   0.97789   0.94026
   30  C   1.13808   0.90600   1.03916   0.90295
   31  C   1.18099   0.84463   0.84997   0.72118
   32  O   1.91031   1.15967   1.85423   1.45520
   33  O   1.84010   1.42081   1.18642   1.86580
   34  H   0.86713
   35  H   0.88627
   36  H   0.87682
   37  H   0.86951
   38  H   0.93683
   39  H   0.92158
   40  H   0.92400
   41  H   0.88116
   42  H   0.89679
   43  H   0.87729
   44  H   0.88870
   45  H   0.89769
   46  H   0.88543
   47  H   0.88199
   48  H   0.89731
   49  H   0.92692
   50  H   0.93997
   51  H   0.92409
   52  H   0.75690
 ******************** TDHF POLARIZABILITIES ********************



          MOLECULAR WEIGHT =  429.48



          ROTATIONAL CONSTANTS IN CM(-1)

          A =    0.00582834   B =    0.00351852   C =    0.00238666



           PRINCIPAL MOMENTS OF INERTIA IN UNITS OF 10**(-40)*GRAM-CM**2

          A =     4802.8709   B =     7955.8328   C =    11728.8273


 ROTATION MATRIX FOR ORIENTATION OF MOLECULE:

         0.260803    0.496509    0.827925
        -0.842685    0.535519   -0.055699
        -0.471025   -0.683154    0.558065


          CARTESIAN COORDINATES 

    NO.       ATOM         X         Y         Z

     1         N       -4.9349   -1.1228   -1.7052
     2         C       -4.6333   -0.5486   -0.7478
     3         C       -4.2780    0.1644    0.4250
     4         C       -3.1050   -0.0168    1.0606
     5         C       -2.1197   -0.9980    0.6434
     6         C       -2.5182   -2.3117    0.3415
     7         C       -1.5934   -3.2759   -0.0053
     8         C       -0.2537   -2.8869   -0.0769
     9         C        0.1550   -1.5407    0.1597
    10         C       -0.7847   -0.6125    0.5844
    11         C        1.5858   -1.5020    0.0152
    12         C        2.0094   -2.8324   -0.1792
    13         N        0.8855   -3.6616   -0.3234
    14         C        0.9176   -5.1012   -0.5180
    15         C        3.3677   -3.2090   -0.1309
    16         C        4.2717   -2.2355    0.1886
    17         C        3.8855   -0.8759    0.3535
    18         C        2.5522   -0.4798    0.1129
    19         C        2.2994    0.9013   -0.0062
    20         C        1.2427    1.6773   -0.5982
    21         C        0.1498    1.3558   -1.3981
    22         C       -0.6618    2.3766   -1.8579
    23         C       -0.3891    3.7177   -1.5524
    24         C        0.7249    4.0778   -0.8185
    25         C        1.5510    3.0473   -0.3679
    26         N        2.7723    3.1219    0.3258
    27         C        3.2717    1.8185    0.4471
    28         C        4.5543    1.4104    0.8716
    29         C        4.8547    0.0825    0.7633
    30         C        3.5200    4.3392    0.5892
    31         C       -5.2326    1.1595    0.9290
    32         O       -5.1021    1.8560    1.9258
    33         O       -6.3497    1.2759    0.1823
    34         H       -2.8430    0.5982    1.9352
    35         H       -3.5741   -2.5913    0.4203
    36         H       -1.9044   -4.3028   -0.2063
    37         H       -0.4726    0.3943    0.8816
    38         H        1.0418   -5.6460    0.4364
    39         H       -0.0123   -5.4625   -0.9911
    40         H        1.7515   -5.3933   -1.1811
    41         H        3.6743   -4.2417   -0.3048
    42         H        5.3280   -2.4997    0.3087
    43         H       -0.0393    0.3169   -1.6840
    44         H       -1.5291    2.1397   -2.4811
    45         H       -1.0657    4.4950   -1.9212
    46         H        0.9495    5.1257   -0.6138
    47         H        5.2857    2.1345    1.2344
    48         H        5.8638   -0.2642    1.0112
    49         H        4.1659    4.2231    1.4776
    50         H        4.1674    4.6287   -0.2596
    51         H        2.8404    5.1851    0.7935
    52         H       -6.9470    1.9421    0.5519


 ENERGY OF "REORIENTED" SYSTEM WITHOUT FIELD:       56.0738790604


  NFREQ=  3  IWFLB=  0  IBET=  1  IGAM=  1
  ATOL= 0.10000D-02  BTOL= 0.10000D-02    MAXITU=  500    MAXITA=  150


 *****************************************************************
 CALCULATION OF STATIC FIELD QUANTITIES
 *****************************************************************

 +++++ ALPHA AT       0.00000 EV.

                           COMPONENTS OF ALPHA

                     *X           *Y           *Z
           *=X:     411.0168     -25.9249      63.4583
           *=Y:     -25.9248     373.8378      32.3431
           *=Z:      63.4628      32.3440     127.6742

  ISOTROPIC AVERAGE ALPHA =     304.17624 A.U. =     45.07427 ANG.**3

 +++++ BETA (SECOND HARMONIC GENERATION) AT       0.00000 EV.

                              COMPONENTS OF BETA
            *XX         *XY         *YY         *XZ         *YZ         *ZZ
   *=X  1178.35334 -1324.98821  -109.12167  -403.56349    77.51311    19.37885
   *=Y -1324.87300  -109.39569   645.27853    77.47499  -171.05101    10.48599
   *=Z  -403.65404    77.49478  -170.82377    19.32278    10.48860    32.83798


 AVERAGE BETAX(SHG) VALUE AT   0.00000 EV =        653.0343 a.u. =  0.564184E-29 ESU
 AVERAGE BETAY(SHG) VALUE AT   0.00000 EV =       -401.5101 a.u. = -0.346881E-29 ESU
 AVERAGE BETAZ(SHG) VALUE AT   0.00000 EV =       -325.0386 a.u. = -0.280814E-29 ESU



 AVERAGE BETA (SHG) VALUE AT   0.00000 EV =        832.6549 a.u. =  0.719365E-29 ESU
   (1 a.u. = 8.639418X10-33 esu)



 +++++ ALPHA AT       0.00000 EV.

                           COMPONENTS OF ALPHA

                     *X           *Y           *Z
           *=X:     411.0168     -25.9249      63.4583
           *=Y:     -25.9248     373.8378      32.3431
           *=Z:      63.4628      32.3440     127.6742

  ISOTROPIC AVERAGE ALPHA =     304.17624 A.U. =     45.07427 ANG.**3


 GAMMA (THIRD HARMONIC GENERATION) AT    0.00000 EV.


 GAMMA(X,X,X,X) =        339762.20059
 GAMMA(Y,Y,Y,Y) =        180158.37112
 GAMMA(Z,Z,Z,Z) =          6633.24553
 GAMMA(X,X,Y,Y) =        101822.38552
 GAMMA(X,X,Z,Z) =         16343.78109
 GAMMA(Y,Y,X,X) =        101822.36938
 GAMMA(Y,Y,Z,Z) =         11387.51538
 GAMMA(Z,Z,X,X) =         16343.98597
 GAMMA(Z,Z,Y,Y) =         11387.31567


 AVERAGE GAMMA VALUE AT    0.00000 =        157132.23405 a.u. =        79142.83286 ESU (X10-39)




 **********************************************************************
 CALCULATION FOR A FREQUENCY OF    0.25000 EV  =       0.00919 A.U. 
                  WAVELENGTH OF    4959.37 NM  =    2016.38525 CM(-1)
 **********************************************************************

 +++++ ALPHA AT       0.25000 EV.

                           COMPONENTS OF ALPHA

                     *X           *Y           *Z
           *=X:     412.1893     -26.0029      63.5929
           *=Y:     -26.0028     374.7222      32.3366
           *=Z:      63.5967      32.3373     127.8242

  ISOTROPIC AVERAGE ALPHA =     304.91192 A.U. =     45.18328 ANG.**3

 +++++ BETA (SECOND HARMONIC GENERATION) AT       0.25000 EV.

                              COMPONENTS OF BETA
            *XX         *XY         *YY         *XZ         *YZ         *ZZ
   *=X  1223.95183 -1363.04757  -101.83760  -417.10645    79.24209    19.38447
   *=Y -1353.64303  -112.66389   661.34576    77.83925  -174.75396     9.91788
   *=Z  -411.33134    77.64502  -172.16282    19.40601    10.15036    33.10278


 AVERAGE BETAX(SHG) VALUE AT   0.25000 EV =        680.5773 a.u. =  0.587979E-29 ESU
 AVERAGE BETAY(SHG) VALUE AT   0.25000 EV =       -413.0965 a.u. = -0.356891E-29 ESU
 AVERAGE BETAZ(SHG) VALUE AT   0.25000 EV =       -333.5813 a.u. = -0.288195E-29 ESU



 AVERAGE BETA (SHG) VALUE AT   0.25000 EV =        863.1979 a.u. =  0.745753E-29 ESU
   (1 a.u. = 8.639418X10-33 esu)



 +++++ ALPHA AT       0.75000 EV.

                           COMPONENTS OF ALPHA

                     *X           *Y           *Z
           *=X:     421.9577     -26.6404      64.6954
           *=Y:     -26.6403     382.0470      32.2686
           *=Z:      64.6990      32.2691     129.0498

  ISOTROPIC AVERAGE ALPHA =     311.01818 A.U. =     46.08814 ANG.**3


 GAMMA (THIRD HARMONIC GENERATION) AT    0.25000 EV.


 GAMMA(X,X,X,X) =        368182.72974
 GAMMA(Y,Y,Y,Y) =        192465.16661
 GAMMA(Z,Z,Z,Z) =          6878.26976
 GAMMA(X,X,Y,Y) =        109620.79406
 GAMMA(X,X,Z,Z) =         17397.73849
 GAMMA(Y,Y,X,X) =        108681.96442
 GAMMA(Y,Y,Z,Z) =         12045.48000
 GAMMA(Z,Z,X,X) =         17049.32552
 GAMMA(Z,Z,Y,Y) =         11863.26982


 AVERAGE GAMMA VALUE AT    0.25000 =        168836.94768 a.u. =        85038.14900 ESU (X10-39)




 **********************************************************************
 CALCULATION FOR A FREQUENCY OF    0.50000 EV  =       0.01837 A.U. 
                  WAVELENGTH OF    2479.68 NM  =    4032.77050 CM(-1)
 **********************************************************************

 +++++ ALPHA AT       0.50000 EV.

                           COMPONENTS OF ALPHA

                     *X           *Y           *Z
           *=X:     415.7665     -26.2393      63.9989
           *=Y:     -26.2393     377.4157      32.3140
           *=Z:      64.0028      32.3148     128.2778

  ISOTROPIC AVERAGE ALPHA =     307.15333 A.U. =     45.51543 ANG.**3

 +++++ BETA (SECOND HARMONIC GENERATION) AT       0.50000 EV.

                              COMPONENTS OF BETA
            *XX         *XY         *YY         *XZ         *YZ         *ZZ
   *=X  1377.99909 -1490.09847   -74.23236  -462.66170    84.98429    19.23428
   *=Y -1445.92692  -124.17684   713.90599    78.60896  -186.82287     7.98612
   *=Z  -435.99843    78.03710  -175.60655    19.46894     9.05046    33.86521


 AVERAGE BETAX(SHG) VALUE AT   0.50000 EV =        773.9167 a.u. =  0.668619E-29 ESU
 AVERAGE BETAY(SHG) VALUE AT   0.50000 EV =       -451.6638 a.u. = -0.390211E-29 ESU
 AVERAGE BETAZ(SHG) VALUE AT   0.50000 EV =       -361.7957 a.u. = -0.312570E-29 ESU



 AVERAGE BETA (SHG) VALUE AT   0.50000 EV =        966.3557 a.u. =  0.834875E-29 ESU
   (1 a.u. = 8.639418X10-33 esu)



 +++++ ALPHA AT       1.50000 EV.

                           COMPONENTS OF ALPHA

                     *X           *Y           *Z
           *=X:     461.5400     -28.9310      68.9680
           *=Y:     -28.9301     410.8153      31.8174
           *=Z:      68.9715      31.8177     133.6257

  ISOTROPIC AVERAGE ALPHA =     335.32699 A.U. =     49.69033 ANG.**3


 GAMMA (THIRD HARMONIC GENERATION) AT    0.50000 EV.


 GAMMA(X,X,X,X) =        480598.51195
 GAMMA(Y,Y,Y,Y) =        238829.07815
 GAMMA(Z,Z,Z,Z) =          7750.84574
 GAMMA(X,X,Y,Y) =        140207.10650
 GAMMA(X,X,Z,Z) =         21397.88781
 GAMMA(Y,Y,X,X) =        133951.75221
 GAMMA(Y,Y,Z,Z) =         14458.29002
 GAMMA(Z,Z,X,X) =         19545.33662
 GAMMA(Z,Z,Y,Y) =         13577.05393


 AVERAGE GAMMA VALUE AT    0.50000 =        214063.17258 a.u. =       107817.25336 ESU (X10-39)



 **********************
 *                    *
 * JOB ENDED NORMALLY *
 *                    *
 **********************



 TOTAL JOB TIME:           106.07 SECONDS

 == MOPAC DONE ==
