 *******************************************************************************
 ** Site#: 4824         For non-commercial use only    Version 21.013L 64BITS **
 *******************************************************************************
 ** Cite this program as: MOPAC2016, Version: 21.013L, James J. P. Stewart,   **
 ** Stewart Computational Chemistry, web: HTTP://OpenMOPAC.net. Days left:  87**
 *******************************************************************************
 **                                                                           **
 **                                MOPAC2016                                  **
 **                                                                           **
 *******************************************************************************

                              RM1 CALCULATION RESULTS

 *******************************************************************************
 *  CALCULATION DONE:                                Mon Oct 18 17:25:43 2021  *
 *  RM1        - The RM1 Hamiltonian to be used
 *  POLAR      - CALCULATE FIRST, SECOND AND THIRD-ORDER POLARIZABILITIES
 *  PRECISE    - TIGHTER CRITERIA TO BE USED
 *  XYZ        - CARTESIAN COORDINATE SYSTEM TO BE USED
 *  T=         - A TIME OF 172800.0 SECONDS REQUESTED
 *  DUMP=N     - RESTART FILE WRITTEN EVERY 7200.0 SECONDS REQUESTED
 *  GNORM      - EXIT WHEN GRADIENT NORM DROPS BELOW 0.100
 *******************************************************************************
RM1 PRECISE POLAR XYZ GNORM=0.1


   ATOM   CHEMICAL          X               Y               Z
  NUMBER   SYMBOL      (ANGSTROMS)     (ANGSTROMS)     (ANGSTROMS)
 
     1       N          0.00000000  *   0.00000000  *   0.00000000  *
     2       C          1.15636944  *   0.00000000  *   0.00000000  *
     3       C          2.57352678  *   0.01916575  *   0.00000000  *
     4       C          3.32473174  *  -1.09889711  *   0.02565122  *
     5       C          2.77420236  *  -2.42075245  *   0.10310869  *
     6       C          1.65679481  *  -2.81678611  *   0.78908887  *
     7       C          1.41562382  *  -4.21924211  *   0.65149499  *
     8       C          2.36151161  *  -4.82885312  *  -0.12948730  *
     9       S          3.54400026  *  -3.72735077  *  -0.68952182  *
    10       C          2.41706031  *  -6.21246544  *  -0.47356012  *
    11       C          2.97620370  *  -6.74972144  *  -1.60235506  *
    12       C          2.85529968  *  -8.17339585  *  -1.63076655  *
    13       C          2.20913282  *  -8.65179173  *  -0.52393645  *
    14       S          1.75035159  *  -7.41011852  *   0.55002836  *
    15       C          1.94322464  * -10.04597263  *  -0.26064000  *
    16       C          2.83516678  * -11.00587409  *  -0.54944725  *
    17       C          2.57051491  * -12.41953082  *  -0.32287737  *
    18       C          1.40392583  * -13.00441647  *  -0.80839532  *
    19       C          1.15790402  * -14.35353674  *  -0.59211728  *
    20       C          2.09649747  * -15.11423095  *   0.11072820  *
    21       C          3.27687679  * -14.53646865  *   0.59031702  *
    22       C          3.50696077  * -13.18749542  *   0.36771677  *
    23       N          1.85262190  * -16.48845857  *   0.33573551  *
    24       C          1.48869313  * -17.43493290  *  -0.64266158  *
    25       C          1.29637884  * -17.26828438  *  -2.01139496  *
    26       C          0.95562978  * -18.38750512  *  -2.75139131  *
    27       C          0.80103502  * -19.64194621  *  -2.13167632  *
    28       C          1.00056594  * -19.81911810  *  -0.76175270  *
    29       C          1.35983046  * -18.70652198  *  -0.02098697  *
    30       C          1.65769077  * -18.52917782  *   1.37879044  *
    31       C          1.95877805  * -17.15431137  *   1.57357917  *
    32       C          2.25892103  * -16.64328541  *   2.83318364  *
    33       C          2.28764777  * -17.53180816  *   3.89438250  *
    34       C          1.99749970  * -18.89527343  *   3.70086629  *
    35       C          1.66978364  * -19.41004951  *   2.44611403  *
    36       N          2.04121281  * -19.76469663  *   4.81555765  *
    37       C          2.71327106  * -21.00206763  *   4.87108508  *
    38       C          3.52665739  * -21.61990955  *   3.93083652  *
    39       C          4.07991404  * -22.84765101  *   4.27020172  *
    40       C          3.84591560  * -23.45721095  *   5.50860858  *
    41       C          3.04274153  * -22.81777687  *   6.45230344  *
    42       C          2.47739598  * -21.59486950  *   6.14034919  *
    43       C          1.62526799  * -20.69419351  *   6.87872927  *
    44       C          1.36427513  * -19.57975708  *   6.03796135  *
    45       C          0.53876935  * -18.54439189  *   6.45532947  *
    46       C          0.00053214  * -18.62880108  *   7.73235997  *
    47       C          0.26215895  * -19.70808288  *   8.58483077  *
    48       C          1.07666328  * -20.75150293  *   8.14709827  *
    49       C         -0.31575006  * -19.80017400  *   9.97337518  *
    50       C         -1.20360695  * -21.04532865  *  10.05566778  *
    51       C         -1.16648473  * -18.58891714  *  10.35962803  *
    52       C          0.83132605  * -19.90685783  *  10.98299908  *
    53       C          4.44059790  * -24.79164725  *   5.87745252  *
    54       C          5.26849285  * -25.42030871  *   4.75516757  *
    55       C          5.35597756  * -24.60474462  *   7.09078783  *
    56       C          3.30719851  * -25.76298585  *   6.22164657  *
    57       N          0.44259751  * -20.75451397  *  -2.92816075  *
    58       C         -0.64478282  * -20.81678912  *  -3.82180681  *
    59       C         -1.59867192  * -19.85569290  *  -4.13838899  *
    60       C         -2.56820555  * -20.20584258  *  -5.06387099  *
    61       C         -2.61291028  * -21.47288413  *  -5.66873765  *
    62       C         -1.66461725  * -22.43101535  *  -5.33151469  *
    63       C         -0.68290227  * -22.10854362  *  -4.40739032  *
    64       C          0.41203446  * -22.86283753  *  -3.84707854  *
    65       C          1.08836809  * -22.00661403  *  -2.93785409  *
    66       C          2.21655477  * -22.43627947  *  -2.25164658  *
    67       C          2.64234065  * -23.73891300  *  -2.47145957  *
    68       C          1.97933743  * -24.60479856  *  -3.35005795  *
    69       C          0.85910183  * -24.15691507  *  -4.04698673  *
    70       C          2.43695520  * -26.02067484  *  -3.58729356  *
    71       C          2.82086196  * -26.17328382  *  -5.06188089  *
    72       C          3.64787205  * -26.41864829  *  -2.74133492  *
    73       C          1.29202476  * -26.97795862  *  -3.24212648  *
    74       C         -3.70917911  * -21.73642825  *  -6.66797849  *
    75       C         -3.58271983  * -20.73527691  *  -7.81988948  *
    76       C         -3.65578663  * -23.14511966  *  -7.26271173  *
    77       C         -5.06437898  * -21.56989946  *  -5.97462402  *
    78       C          0.68450868  * -10.34545075  *   0.33471052  *
    79       N         -0.34005195  * -10.57595820  *   0.81886381  *
    80       C          3.23226708  *   1.33217613  *  -0.05590628  *
    81       O          4.43610052  *   1.53870922  *  -0.11019389  *
    82       O          2.37738900  *   2.37364220  *  -0.04062910  *
    83       H          4.42361364  *  -1.02987610  *  -0.01892623  *
    84       H          3.82015002  * -10.75697704  *  -0.96280018  *
    85       H          1.02191520  *  -2.17442480  *   1.39718775  *
    86       H          0.56457305  *  -4.71542251  *   1.11305567  *
    87       H          3.45010366  *  -6.18417998  *  -2.40122628  *
    88       H          3.22645928  *  -8.78031795  *  -2.45317737  *
    89       H          0.67664669  * -12.40748664  *  -1.36895884  *
    90       H          0.22641674  * -14.80348283  *  -0.95205229  *
    91       H          4.02101133  * -15.13865334  *   1.12217635  *
    92       H          4.42800502  * -12.72628958  *   0.73868699  *
    93       H          1.42924715  * -16.29752519  *  -2.49454764  *
    94       H          0.81836979  * -18.29320064  *  -3.83449117  *
    95       H          0.87391488  * -20.79147539  *  -0.27649993  *
    96       H          2.45720708  * -15.57993857  *   2.98754461  *
    97       H          2.54676583  * -17.16515755  *   4.89422645  *
    98       H          1.41849132  * -20.46449547  *   2.29831024  *
    99       H          3.73398016  * -21.15783546  *   2.96335082  *
   100       H          4.71525284  * -23.32102387  *   3.51629311  *
   101       H          2.84180955  * -23.24843875  *   7.43708861  *
   102       H          0.30467496  * -17.70102849  *   5.80207587  *
   103       H         -0.64836010  * -17.80492309  *   8.04301126  *
   104       H          1.29935271  * -21.62050460  *   8.77192029  *
   105       H         -2.00499780  * -21.02403955  *   9.30339850  *
   106       H         -0.65092471  * -21.98183180  *   9.89916614  *
   107       H         -1.68975232  * -21.14076435  *  11.03764286  *
   108       H         -2.04133807  * -18.46136817  *   9.70616914  *
   109       H         -1.56643947  * -18.67970055  *  11.38121480  *
   110       H         -0.59486099  * -17.65003543  *  10.34208182  *
   111       H          0.46727905  * -19.92350831  *  12.02078649  *
   112       H          1.43325623  * -20.81777661  *  10.86112488  *
   113       H          1.52488514  * -19.05789716  *  10.90148860  *
   114       H          4.67620202  * -25.60381278  *   3.84739858  *
   115       H          6.13394172  * -24.80430050  *   4.47212051  *
   116       H          5.68025115  * -26.39770654  *   5.04996944  *
   117       H          4.82468281  * -24.24309624  *   7.98182603  *
   118       H          5.84250460  * -25.54522820  *   7.38841357  *
   119       H          6.15789473  * -23.88054154  *   6.88803454  *
   120       H          2.72497107  * -25.45597730  *   7.10130986  *
   121       H          2.59360309  * -25.86538757  *   5.39170146  *
   122       H          3.68239797  * -26.77216441  *   6.44678534  *
   123       H         -1.59518632  * -18.87020445  *  -3.66846417  *
   124       H         -3.31867570  * -19.44919908  *  -5.31546475  *
   125       H         -1.64941732  * -23.43683017  *  -5.75707304  *
   126       H          2.75940916  * -21.77411663  *  -1.57401542  *
   127       H          3.53268383  * -24.06007362  *  -1.92343714  *
   128       H          0.31560990  * -24.79251866  *  -4.75125756  *
   129       H          1.97891298  * -26.00564580  *  -5.74752472  *
   130       H          3.60880689  * -25.46397656  *  -5.35291254  *
   131       H          3.19931025  * -27.18124229  *  -5.28687536  *
   132       H          3.44818299  * -26.35045746  *  -1.66244287  *
   133       H          3.95120421  * -27.46040808  *  -2.92706598  *
   134       H          4.53462278  * -25.80594185  *  -2.95782499  *
   135       H          0.94759602  * -26.84305401  *  -2.20689035  *
   136       H          0.41099773  * -26.85065175  *  -3.88605908  *
   137       H          1.58981076  * -28.03183522  *  -3.34504971  *
   138       H         -3.71810272  * -19.69168104  *  -7.50424713  *
   139       H         -2.59652532  * -20.79268100  *  -8.30228344  *
   140       H         -4.33292957  * -20.91302283  *  -8.60442816  *
   141       H         -3.76979883  * -23.92912967  *  -6.50043001  *
   142       H         -4.46503226  * -23.31254503  *  -7.99000929  *
   143       H         -2.71900228  * -23.33855787  *  -7.80469347  *
   144       H         -5.24208054  * -20.54902178  *  -5.60953137  *
   145       H         -5.90299695  * -21.79994496  *  -6.64818248  *
   146       H         -5.16102978  * -22.23600871  *  -5.10537430  *
   147       H          2.85339537  *   3.21614163  *  -0.08089165  *
 


          CARTESIAN COORDINATES 

    NO.       ATOM           X           Y           Z

     1         N          0.0000      0.0000      0.0000
     2         C          1.1564      0.0000      0.0000
     3         C          2.5735      0.0192      0.0000
     4         C          3.3247     -1.0989      0.0257
     5         C          2.7742     -2.4208      0.1031
     6         C          1.6568     -2.8168      0.7891
     7         C          1.4156     -4.2192      0.6515
     8         C          2.3615     -4.8289     -0.1295
     9         S          3.5440     -3.7274     -0.6895
    10         C          2.4171     -6.2125     -0.4736
    11         C          2.9762     -6.7497     -1.6024
    12         C          2.8553     -8.1734     -1.6308
    13         C          2.2091     -8.6518     -0.5239
    14         S          1.7504     -7.4101      0.5500
    15         C          1.9432    -10.0460     -0.2606
    16         C          2.8352    -11.0059     -0.5494
    17         C          2.5705    -12.4195     -0.3229
    18         C          1.4039    -13.0044     -0.8084
    19         C          1.1579    -14.3535     -0.5921
    20         C          2.0965    -15.1142      0.1107
    21         C          3.2769    -14.5365      0.5903
    22         C          3.5070    -13.1875      0.3677
    23         N          1.8526    -16.4885      0.3357
    24         C          1.4887    -17.4349     -0.6427
    25         C          1.2964    -17.2683     -2.0114
    26         C          0.9556    -18.3875     -2.7514
    27         C          0.8010    -19.6419     -2.1317
    28         C          1.0006    -19.8191     -0.7618
    29         C          1.3598    -18.7065     -0.0210
    30         C          1.6577    -18.5292      1.3788
    31         C          1.9588    -17.1543      1.5736
    32         C          2.2589    -16.6433      2.8332
    33         C          2.2876    -17.5318      3.8944
    34         C          1.9975    -18.8953      3.7009
    35         C          1.6698    -19.4100      2.4461
    36         N          2.0412    -19.7647      4.8156
    37         C          2.7133    -21.0021      4.8711
    38         C          3.5267    -21.6199      3.9308
    39         C          4.0799    -22.8477      4.2702
    40         C          3.8459    -23.4572      5.5086
    41         C          3.0427    -22.8178      6.4523
    42         C          2.4774    -21.5949      6.1403
    43         C          1.6253    -20.6942      6.8787
    44         C          1.3643    -19.5798      6.0380
    45         C          0.5388    -18.5444      6.4553
    46         C          0.0005    -18.6288      7.7324
    47         C          0.2622    -19.7081      8.5848
    48         C          1.0767    -20.7515      8.1471
    49         C         -0.3158    -19.8002      9.9734
    50         C         -1.2036    -21.0453     10.0557
    51         C         -1.1665    -18.5889     10.3596
    52         C          0.8313    -19.9069     10.9830
    53         C          4.4406    -24.7916      5.8775
    54         C          5.2685    -25.4203      4.7552
    55         C          5.3560    -24.6047      7.0908
    56         C          3.3072    -25.7630      6.2216
    57         N          0.4426    -20.7545     -2.9282
    58         C         -0.6448    -20.8168     -3.8218
    59         C         -1.5987    -19.8557     -4.1384
    60         C         -2.5682    -20.2058     -5.0639
    61         C         -2.6129    -21.4729     -5.6687
    62         C         -1.6646    -22.4310     -5.3315
    63         C         -0.6829    -22.1085     -4.4074
    64         C          0.4120    -22.8628     -3.8471
    65         C          1.0884    -22.0066     -2.9379
    66         C          2.2166    -22.4363     -2.2516
    67         C          2.6423    -23.7389     -2.4715
    68         C          1.9793    -24.6048     -3.3501
    69         C          0.8591    -24.1569     -4.0470
    70         C          2.4370    -26.0207     -3.5873
    71         C          2.8209    -26.1733     -5.0619
    72         C          3.6479    -26.4186     -2.7413
    73         C          1.2920    -26.9780     -3.2421
    74         C         -3.7092    -21.7364     -6.6680
    75         C         -3.5827    -20.7353     -7.8199
    76         C         -3.6558    -23.1451     -7.2627
    77         C         -5.0644    -21.5699     -5.9746
    78         C          0.6845    -10.3455      0.3347
    79         N         -0.3401    -10.5760      0.8189
    80         C          3.2323      1.3322     -0.0559
    81         O          4.4361      1.5387     -0.1102
    82         O          2.3774      2.3736     -0.0406
    83         H          4.4236     -1.0299     -0.0189
    84         H          3.8202    -10.7570     -0.9628
    85         H          1.0219     -2.1744      1.3972
    86         H          0.5646     -4.7154      1.1131
    87         H          3.4501     -6.1842     -2.4012
    88         H          3.2265     -8.7803     -2.4532
    89         H          0.6766    -12.4075     -1.3690
    90         H          0.2264    -14.8035     -0.9521
    91         H          4.0210    -15.1387      1.1222
    92         H          4.4280    -12.7263      0.7387
    93         H          1.4292    -16.2975     -2.4945
    94         H          0.8184    -18.2932     -3.8345
    95         H          0.8739    -20.7915     -0.2765
    96         H          2.4572    -15.5799      2.9875
    97         H          2.5468    -17.1652      4.8942
    98         H          1.4185    -20.4645      2.2983
    99         H          3.7340    -21.1578      2.9634
   100         H          4.7153    -23.3210      3.5163
   101         H          2.8418    -23.2484      7.4371
   102         H          0.3047    -17.7010      5.8021
   103         H         -0.6484    -17.8049      8.0430
   104         H          1.2994    -21.6205      8.7719
   105         H         -2.0050    -21.0240      9.3034
   106         H         -0.6509    -21.9818      9.8992
   107         H         -1.6898    -21.1408     11.0376
   108         H         -2.0413    -18.4614      9.7062
   109         H         -1.5664    -18.6797     11.3812
   110         H         -0.5949    -17.6500     10.3421
   111         H          0.4673    -19.9235     12.0208
   112         H          1.4333    -20.8178     10.8611
   113         H          1.5249    -19.0579     10.9015
   114         H          4.6762    -25.6038      3.8474
   115         H          6.1339    -24.8043      4.4721
   116         H          5.6803    -26.3977      5.0500
   117         H          4.8247    -24.2431      7.9818
   118         H          5.8425    -25.5452      7.3884
   119         H          6.1579    -23.8805      6.8880
   120         H          2.7250    -25.4560      7.1013
   121         H          2.5936    -25.8654      5.3917
   122         H          3.6824    -26.7722      6.4468
   123         H         -1.5952    -18.8702     -3.6685
   124         H         -3.3187    -19.4492     -5.3155
   125         H         -1.6494    -23.4368     -5.7571
   126         H          2.7594    -21.7741     -1.5740
   127         H          3.5327    -24.0601     -1.9234
   128         H          0.3156    -24.7925     -4.7513
   129         H          1.9789    -26.0056     -5.7475
   130         H          3.6088    -25.4640     -5.3529
   131         H          3.1993    -27.1812     -5.2869
   132         H          3.4482    -26.3505     -1.6624
   133         H          3.9512    -27.4604     -2.9271
   134         H          4.5346    -25.8059     -2.9578
   135         H          0.9476    -26.8431     -2.2069
   136         H          0.4110    -26.8507     -3.8861
   137         H          1.5898    -28.0318     -3.3450
   138         H         -3.7181    -19.6917     -7.5042
   139         H         -2.5965    -20.7927     -8.3023
   140         H         -4.3329    -20.9130     -8.6044
   141         H         -3.7698    -23.9291     -6.5004
   142         H         -4.4650    -23.3125     -7.9900
   143         H         -2.7190    -23.3386     -7.8047
   144         H         -5.2421    -20.5490     -5.6095
   145         H         -5.9030    -21.7999     -6.6482
   146         H         -5.1610    -22.2360     -5.1054
   147         H          2.8534      3.2161     -0.0809

  H: (RM1): G.B. ROCHA, R.O. FREIRE, A.M.SIMAS, J.J.P. STEWART, J. COMP. CHEM. 27, 1101 (2006)
  C: (RM1): G.B. ROCHA, R.O. FREIRE, A.M.SIMAS, J.J.P. STEWART, J. COMP. CHEM. 27, 1101 (2006)
  N: (RM1): G.B. ROCHA, R.O. FREIRE, A.M.SIMAS, J.J.P. STEWART, J. COMP. CHEM. 27, 1101 (2006)
  O: (RM1): G.B. ROCHA, R.O. FREIRE, A.M.SIMAS, J.J.P. STEWART, J. COMP. CHEM. 27, 1101 (2006)
  S: (RM1): G.B. ROCHA, R.O. FREIRE, A.M.SIMAS, J.J.P. STEWART, J. COMP. CHEM. 27, 1101 (2006)

           Empirical Formula: C73 H65 N5 O2 S2  =   147 atoms



      MOLECULAR POINT GROUP   :   C1  


      RHF CALCULATION, NO. OF DOUBLY OCCUPIED LEVELS = 203


          Geometry optimization using L-BFGS
 CYCLE:     1 TIME:   2.105 TIME LEFT:  2.00D  GRAD.:     2.966 HEAT:  156.5357
 CYCLE:     2 TIME:   0.848 TIME LEFT:  2.00D  GRAD.:     2.924 HEAT:  156.5356
 CYCLE:     3 TIME:   1.043 TIME LEFT:  2.00D  GRAD.:     2.613 HEAT:  156.5314
 CYCLE:     4 TIME:   0.812 TIME LEFT:  2.00D  GRAD.:     3.021 HEAT:  156.5356
 CYCLE:     5 TIME:   0.734 TIME LEFT:  2.00D  GRAD.:     2.762 HEAT:  156.5314
 CYCLE:     6 TIME:   0.699 TIME LEFT:  2.00D  GRAD.:     2.856 HEAT:  156.5301
 CYCLE:     7 TIME:   0.699 TIME LEFT:  2.00D  GRAD.:     1.190 HEAT:  156.5292
 CYCLE:     8 TIME:   0.699 TIME LEFT:  2.00D  GRAD.:     1.091 HEAT:  156.5286
 CYCLE:     9 TIME:   0.793 TIME LEFT:  2.00D  GRAD.:     1.016 HEAT:  156.5282
 CYCLE:    10 TIME:   0.906 TIME LEFT:  2.00D  GRAD.:     0.987 HEAT:  156.5275
 CYCLE:    11 TIME:   0.754 TIME LEFT:  2.00D  GRAD.:     3.524 HEAT:  156.5277
 CYCLE:    12 TIME:   0.699 TIME LEFT:  2.00D  GRAD.:     0.769 HEAT:  156.5267
 CYCLE:    13 TIME:   0.586 TIME LEFT:  2.00D  GRAD.:     0.646 HEAT:  156.5265
 CYCLE:    14 TIME:   0.781 TIME LEFT:  2.00D  GRAD.:     0.726 HEAT:  156.5261
 CYCLE:    15 TIME:   0.777 TIME LEFT:  2.00D  GRAD.:     1.013 HEAT:  156.5258
 CYCLE:    16 TIME:   0.645 TIME LEFT:  2.00D  GRAD.:     0.471 HEAT:  156.5256
 CYCLE:    17 TIME:   0.637 TIME LEFT:  2.00D  GRAD.:     0.393 HEAT:  156.5254
 CYCLE:    18 TIME:   0.605 TIME LEFT:  2.00D  GRAD.:     0.468 HEAT:  156.5253
 CYCLE:    19 TIME:   0.648 TIME LEFT:  2.00D  GRAD.:     0.539 HEAT:  156.5251
 CYCLE:    20 TIME:   0.711 TIME LEFT:  2.00D  GRAD.:     0.450 HEAT:  156.5250
 CYCLE:    21 TIME:   1.023 TIME LEFT:  2.00D  GRAD.:     0.899 HEAT:  156.5248
 CYCLE:    22 TIME:   0.922 TIME LEFT:  2.00D  GRAD.:     0.651 HEAT:  156.5246
 CYCLE:    23 TIME:   0.801 TIME LEFT:  2.00D  GRAD.:     0.333 HEAT:  156.5246
 CYCLE:    24 TIME:   0.707 TIME LEFT:  2.00D  GRAD.:     0.433 HEAT:  156.5245
 CYCLE:    25 TIME:   0.703 TIME LEFT:  2.00D  GRAD.:     0.378 HEAT:  156.5244
 CYCLE:    26 TIME:   0.668 TIME LEFT:  2.00D  GRAD.:     0.698 HEAT:  156.5243
 CYCLE:    27 TIME:   0.742 TIME LEFT:  2.00D  GRAD.:     0.390 HEAT:  156.5242
 CYCLE:    28 TIME:   0.684 TIME LEFT:  2.00D  GRAD.:     0.413 HEAT:  156.5241
 CYCLE:    29 TIME:   0.660 TIME LEFT:  2.00D  GRAD.:     0.409 HEAT:  156.5239
 CYCLE:    30 TIME:   0.645 TIME LEFT:  2.00D  GRAD.:     1.498 HEAT:  156.5240
 CYCLE:    31 TIME:   0.621 TIME LEFT:  2.00D  GRAD.:     0.313 HEAT:  156.5237
 CYCLE:    32 TIME:   0.754 TIME LEFT:  2.00D  GRAD.:     0.301 HEAT:  156.5237
 CYCLE:    33 TIME:   0.574 TIME LEFT:  2.00D  GRAD.:     0.340 HEAT:  156.5235
 CYCLE:    34 TIME:   0.609 TIME LEFT:  2.00D  GRAD.:     0.542 HEAT:  156.5233
 CYCLE:    35 TIME:   0.602 TIME LEFT:  2.00D  GRAD.:     0.532 HEAT:  156.5231
 CYCLE:    36 TIME:   0.605 TIME LEFT:  2.00D  GRAD.:     0.633 HEAT:  156.5229
 CYCLE:    37 TIME:   0.664 TIME LEFT:  2.00D  GRAD.:     1.074 HEAT:  156.5227
 CYCLE:    38 TIME:   0.562 TIME LEFT:  2.00D  GRAD.:     0.606 HEAT:  156.5224
 CYCLE:    39 TIME:   0.613 TIME LEFT:  2.00D  GRAD.:     0.485 HEAT:  156.5222
 CYCLE:    40 TIME:   0.605 TIME LEFT:  2.00D  GRAD.:     0.534 HEAT:  156.5220
 CYCLE:    41 TIME:   0.668 TIME LEFT:  2.00D  GRAD.:     0.621 HEAT:  156.5218
 CYCLE:    42 TIME:   0.730 TIME LEFT:  2.00D  GRAD.:     0.923 HEAT:  156.5215
 CYCLE:    43 TIME:   0.633 TIME LEFT:  2.00D  GRAD.:     1.238 HEAT:  156.5214
 CYCLE:    44 TIME:   0.633 TIME LEFT:  2.00D  GRAD.:     0.362 HEAT:  156.5213
 CYCLE:    45 TIME:   0.691 TIME LEFT:  2.00D  GRAD.:     0.665 HEAT:  156.5212
 CYCLE:    46 TIME:   0.656 TIME LEFT:  2.00D  GRAD.:     0.344 HEAT:  156.5211
 CYCLE:    47 TIME:   0.617 TIME LEFT:  2.00D  GRAD.:     0.494 HEAT:  156.5209
 CYCLE:    48 TIME:   0.602 TIME LEFT:  2.00D  GRAD.:     0.555 HEAT:  156.5207
 CYCLE:    49 TIME:   0.617 TIME LEFT:  2.00D  GRAD.:     1.229 HEAT:  156.5206
 CYCLE:    50 TIME:   0.594 TIME LEFT:  2.00D  GRAD.:     0.522 HEAT:  156.5203
 CYCLE:    51 TIME:   0.648 TIME LEFT:  2.00D  GRAD.:     0.474 HEAT:  156.5201
 CYCLE:    52 TIME:   0.676 TIME LEFT:  2.00D  GRAD.:     0.694 HEAT:  156.5200
 CYCLE:    53 TIME:   0.629 TIME LEFT:  2.00D  GRAD.:     1.216 HEAT:  156.5197
 CYCLE:    54 TIME:   0.691 TIME LEFT:  2.00D  GRAD.:     0.668 HEAT:  156.5194
 CYCLE:    55 TIME:   0.668 TIME LEFT:  2.00D  GRAD.:     0.488 HEAT:  156.5192
 CYCLE:    56 TIME:   0.621 TIME LEFT:  2.00D  GRAD.:     0.608 HEAT:  156.5190
 CYCLE:    57 TIME:   0.680 TIME LEFT:  2.00D  GRAD.:     0.626 HEAT:  156.5186
 CYCLE:    58 TIME:   0.684 TIME LEFT:  2.00D  GRAD.:     1.414 HEAT:  156.5183
 CYCLE:    59 TIME:   0.664 TIME LEFT:  2.00D  GRAD.:     0.708 HEAT:  156.5179
 CYCLE:    60 TIME:   0.598 TIME LEFT:  2.00D  GRAD.:     0.520 HEAT:  156.5177
 CYCLE:    61 TIME:   0.617 TIME LEFT:  2.00D  GRAD.:     0.733 HEAT:  156.5174
 CYCLE:    62 TIME:   0.543 TIME LEFT:  2.00D  GRAD.:     0.686 HEAT:  156.5171
 CYCLE:    63 TIME:   0.664 TIME LEFT:  2.00D  GRAD.:     1.009 HEAT:  156.5167
 CYCLE:    64 TIME:   0.684 TIME LEFT:  2.00D  GRAD.:     0.800 HEAT:  156.5164
 CYCLE:    65 TIME:   0.578 TIME LEFT:  2.00D  GRAD.:     0.595 HEAT:  156.5162
 CYCLE:    66 TIME:   0.625 TIME LEFT:  2.00D  GRAD.:     0.829 HEAT:  156.5159
 CYCLE:    67 TIME:   0.660 TIME LEFT:  2.00D  GRAD.:     0.939 HEAT:  156.5156
 CYCLE:    68 TIME:   0.555 TIME LEFT:  2.00D  GRAD.:     0.601 HEAT:  156.5154
 CYCLE:    69 TIME:   0.594 TIME LEFT:  2.00D  GRAD.:     0.620 HEAT:  156.5151
 CYCLE:    70 TIME:   0.578 TIME LEFT:  2.00D  GRAD.:     0.694 HEAT:  156.5148
 CYCLE:    71 TIME:   0.625 TIME LEFT:  2.00D  GRAD.:     1.965 HEAT:  156.5146
 CYCLE:    72 TIME:   0.480 TIME LEFT:  2.00D  GRAD.:     0.530 HEAT:  156.5140
 CYCLE:    73 TIME:   0.578 TIME LEFT:  2.00D  GRAD.:     0.475 HEAT:  156.5140
 CYCLE:    74 TIME:   0.555 TIME LEFT:  2.00D  GRAD.:     0.779 HEAT:  156.5136
 CYCLE:    75 TIME:   0.586 TIME LEFT:  2.00D  GRAD.:     1.219 HEAT:  156.5132
 CYCLE:    76 TIME:   0.559 TIME LEFT:  2.00D  GRAD.:     0.569 HEAT:  156.5127
 CYCLE:    77 TIME:   0.594 TIME LEFT:  2.00D  GRAD.:     0.601 HEAT:  156.5124
 CYCLE:    78 TIME:   0.531 TIME LEFT:  2.00D  GRAD.:     0.629 HEAT:  156.5121
 CYCLE:    79 TIME:   0.574 TIME LEFT:  2.00D  GRAD.:     0.914 HEAT:  156.5115
 CYCLE:    80 TIME:   0.582 TIME LEFT:  2.00D  GRAD.:     1.405 HEAT:  156.5110
 CYCLE:    81 TIME:   0.539 TIME LEFT:  2.00D  GRAD.:     0.908 HEAT:  156.5107
 CYCLE:    82 TIME:   0.559 TIME LEFT:  2.00D  GRAD.:     0.949 HEAT:  156.5104
 CYCLE:    83 TIME:   0.609 TIME LEFT:  2.00D  GRAD.:     2.814 HEAT:  156.5109
 CYCLE:    84 TIME:   0.508 TIME LEFT:  2.00D  GRAD.:     0.750 HEAT:  156.5100
 CYCLE:    85 TIME:   0.609 TIME LEFT:  2.00D  GRAD.:     0.615 HEAT:  156.5100
 CYCLE:    86 TIME:   0.578 TIME LEFT:  2.00D  GRAD.:     0.727 HEAT:  156.5096
 CYCLE:    87 TIME:   0.598 TIME LEFT:  2.00D  GRAD.:     0.974 HEAT:  156.5093
 CYCLE:    88 TIME:   0.621 TIME LEFT:  2.00D  GRAD.:     0.549 HEAT:  156.5090
 CYCLE:    89 TIME:   0.652 TIME LEFT:  2.00D  GRAD.:     0.609 HEAT:  156.5087
 CYCLE:    90 TIME:   0.531 TIME LEFT:  2.00D  GRAD.:     0.628 HEAT:  156.5083
 CYCLE:    91 TIME:   0.602 TIME LEFT:  2.00D  GRAD.:     1.108 HEAT:  156.5077
 CYCLE:    92 TIME:   0.629 TIME LEFT:  2.00D  GRAD.:     1.129 HEAT:  156.5072
 CYCLE:    93 TIME:   0.484 TIME LEFT:  2.00D  GRAD.:     0.867 HEAT:  156.5068
 CYCLE:    94 TIME:   0.633 TIME LEFT:  2.00D  GRAD.:     1.079 HEAT:  156.5066
 CYCLE:    95 TIME:   0.738 TIME LEFT:  2.00D  GRAD.:     2.583 HEAT:  156.5070
 CYCLE:    96 TIME:   0.613 TIME LEFT:  2.00D  GRAD.:     0.785 HEAT:  156.5059
 CYCLE:    97 TIME:   0.574 TIME LEFT:  2.00D  GRAD.:     0.500 HEAT:  156.5059
 CYCLE:    98 TIME:   0.586 TIME LEFT:  2.00D  GRAD.:     0.723 HEAT:  156.5054
 CYCLE:    99 TIME:   0.609 TIME LEFT:  2.00D  GRAD.:     0.771 HEAT:  156.5048
 CYCLE:   100 TIME:   0.617 TIME LEFT:  2.00D  GRAD.:     1.153 HEAT:  156.5043
 CYCLE:   101 TIME:   0.598 TIME LEFT:  2.00D  GRAD.:     0.637 HEAT:  156.5038
 CYCLE:   102 TIME:   0.629 TIME LEFT:  2.00D  GRAD.:     0.796 HEAT:  156.5033
 CYCLE:   103 TIME:   0.570 TIME LEFT:  2.00D  GRAD.:     1.574 HEAT:  156.5030
 CYCLE:   104 TIME:   0.531 TIME LEFT:  2.00D  GRAD.:     1.047 HEAT:  156.5025
 CYCLE:   105 TIME:   0.598 TIME LEFT:  2.00D  GRAD.:     0.670 HEAT:  156.5019
 CYCLE:   106 TIME:   0.570 TIME LEFT:  2.00D  GRAD.:     0.824 HEAT:  156.5015
 CYCLE:   107 TIME:   0.559 TIME LEFT:  2.00D  GRAD.:     0.941 HEAT:  156.5009
 CYCLE:   108 TIME:   0.625 TIME LEFT:  2.00D  GRAD.:     1.581 HEAT:  156.5005
 CYCLE:   109 TIME:   0.500 TIME LEFT:  2.00D  GRAD.:     0.731 HEAT:  156.5000
 CYCLE:   110 TIME:   0.551 TIME LEFT:  2.00D  GRAD.:     0.713 HEAT:  156.4997
 CYCLE:   111 TIME:   0.555 TIME LEFT:  2.00D  GRAD.:     0.756 HEAT:  156.4994
 CYCLE:   112 TIME:   0.566 TIME LEFT:  2.00D  GRAD.:     1.403 HEAT:  156.4989
 CYCLE:   113 TIME:   0.523 TIME LEFT:  2.00D  GRAD.:     1.448 HEAT:  156.4985
 CYCLE:   114 TIME:   0.523 TIME LEFT:  2.00D  GRAD.:     0.628 HEAT:  156.4979
 CYCLE:   115 TIME:   0.535 TIME LEFT:  2.00D  GRAD.:     0.569 HEAT:  156.4976
 CYCLE:   116 TIME:   0.547 TIME LEFT:  2.00D  GRAD.:     1.089 HEAT:  156.4971
 CYCLE:   117 TIME:   0.773 TIME LEFT:  2.00D  GRAD.:     1.429 HEAT:  156.4967
 CYCLE:   118 TIME:   0.852 TIME LEFT:  2.00D  GRAD.:     0.763 HEAT:  156.4963
 CYCLE:   119 TIME:   0.785 TIME LEFT:  2.00D  GRAD.:     0.717 HEAT:  156.4959
 CYCLE:   120 TIME:   0.527 TIME LEFT:  2.00D  GRAD.:     0.663 HEAT:  156.4957
 CYCLE:   121 TIME:   0.641 TIME LEFT:  2.00D  GRAD.:     1.342 HEAT:  156.4953
 CYCLE:   122 TIME:   0.566 TIME LEFT:  2.00D  GRAD.:     3.297 HEAT:  156.4958
 CYCLE:   123 TIME:   0.453 TIME LEFT:  2.00D  GRAD.:     0.508 HEAT:  156.4948
 CYCLE:   124 TIME:   0.523 TIME LEFT:  2.00D  GRAD.:     0.508 HEAT:  156.4947
 CYCLE:   125 TIME:   0.586 TIME LEFT:  2.00D  GRAD.:     2.459 HEAT:  156.4951
 CYCLE:   126 TIME:   0.527 TIME LEFT:  2.00D  GRAD.:     0.966 HEAT:  156.4941
 CYCLE:   127 TIME:   0.543 TIME LEFT:  2.00D  GRAD.:     0.518 HEAT:  156.4939
 CYCLE:   128 TIME:   0.500 TIME LEFT:  2.00D  GRAD.:     0.424 HEAT:  156.4936
 CYCLE:   129 TIME:   0.582 TIME LEFT:  2.00D  GRAD.:     0.529 HEAT:  156.4930
 CYCLE:   130 TIME:   0.598 TIME LEFT:  2.00D  GRAD.:     3.717 HEAT:  156.4941
 CYCLE:   131 TIME:   0.492 TIME LEFT:  2.00D  GRAD.:     0.819 HEAT:  156.4921
 CYCLE:   132 TIME:   0.520 TIME LEFT:  2.00D  GRAD.:     0.609 HEAT:  156.4918
 CYCLE:   133 TIME:   0.512 TIME LEFT:  2.00D  GRAD.:     0.586 HEAT:  156.4914
 CYCLE:   134 TIME:   0.523 TIME LEFT:  2.00D  GRAD.:     1.099 HEAT:  156.4909
 CYCLE:   135 TIME:   0.527 TIME LEFT:  2.00D  GRAD.:     0.959 HEAT:  156.4905
 CYCLE:   136 TIME:   0.574 TIME LEFT:  2.00D  GRAD.:     0.880 HEAT:  156.4901
 CYCLE:   137 TIME:   0.574 TIME LEFT:  2.00D  GRAD.:     0.850 HEAT:  156.4896
 CYCLE:   138 TIME:   0.555 TIME LEFT:  2.00D  GRAD.:     0.853 HEAT:  156.4893
 CYCLE:   139 TIME:   0.562 TIME LEFT:  2.00D  GRAD.:     0.852 HEAT:  156.4889
 CYCLE:   140 TIME:   0.566 TIME LEFT:  2.00D  GRAD.:     0.878 HEAT:  156.4882
 CYCLE:   141 TIME:   0.605 TIME LEFT:  2.00D  GRAD.:     3.803 HEAT:  156.4888
 CYCLE:   142 TIME:   0.488 TIME LEFT:  2.00D  GRAD.:     0.963 HEAT:  156.4875
 CYCLE:   143 TIME:   0.539 TIME LEFT:  2.00D  GRAD.:     0.918 HEAT:  156.4874
 CYCLE:   144 TIME:   0.559 TIME LEFT:  2.00D  GRAD.:     0.937 HEAT:  156.4867
 CYCLE:   145 TIME:   0.516 TIME LEFT:  2.00D  GRAD.:     1.268 HEAT:  156.4862
 CYCLE:   146 TIME:   0.566 TIME LEFT:  2.00D  GRAD.:     0.683 HEAT:  156.4856
 CYCLE:   147 TIME:   0.578 TIME LEFT:  2.00D  GRAD.:     0.846 HEAT:  156.4852
 CYCLE:   148 TIME:   0.609 TIME LEFT:  2.00D  GRAD.:     0.891 HEAT:  156.4845
 CYCLE:   149 TIME:   0.645 TIME LEFT:  2.00D  GRAD.:     3.593 HEAT:  156.4850
 CYCLE:   150 TIME:   0.512 TIME LEFT:  2.00D  GRAD.:     0.857 HEAT:  156.4835
 CYCLE:   151 TIME:   0.652 TIME LEFT:  2.00D  GRAD.:     1.120 HEAT:  156.4833
 CYCLE:   152 TIME:   0.551 TIME LEFT:  2.00D  GRAD.:     1.081 HEAT:  156.4828
 CYCLE:   153 TIME:   0.504 TIME LEFT:  2.00D  GRAD.:     0.742 HEAT:  156.4822
 CYCLE:   154 TIME:   0.512 TIME LEFT:  2.00D  GRAD.:     1.105 HEAT:  156.4817
 CYCLE:   155 TIME:   0.535 TIME LEFT:  2.00D  GRAD.:     0.785 HEAT:  156.4812
 CYCLE:   156 TIME:   0.566 TIME LEFT:  2.00D  GRAD.:     0.916 HEAT:  156.4803
 CYCLE:   157 TIME:   0.562 TIME LEFT:  2.00D  GRAD.:     1.389 HEAT:  156.4795
 CYCLE:   158 TIME:   0.512 TIME LEFT:  2.00D  GRAD.:     0.966 HEAT:  156.4788
 CYCLE:   159 TIME:   0.555 TIME LEFT:  2.00D  GRAD.:     1.080 HEAT:  156.4780
 CYCLE:   160 TIME:   0.590 TIME LEFT:  2.00D  GRAD.:     1.540 HEAT:  156.4769
 CYCLE:   161 TIME:   0.582 TIME LEFT:  2.00D  GRAD.:     2.039 HEAT:  156.4762
 CYCLE:   162 TIME:   0.488 TIME LEFT:  2.00D  GRAD.:     1.120 HEAT:  156.4753
 CYCLE:   163 TIME:   0.551 TIME LEFT:  2.00D  GRAD.:     1.023 HEAT:  156.4746
 CYCLE:   164 TIME:   0.480 TIME LEFT:  2.00D  GRAD.:     0.993 HEAT:  156.4740
 CYCLE:   165 TIME:   0.578 TIME LEFT:  2.00D  GRAD.:     0.981 HEAT:  156.4730
 CYCLE:   166 TIME:   0.551 TIME LEFT:  2.00D  GRAD.:     1.135 HEAT:  156.4722
 CYCLE:   167 TIME:   0.520 TIME LEFT:  2.00D  GRAD.:     0.816 HEAT:  156.4713
 CYCLE:   168 TIME:   0.480 TIME LEFT:  2.00D  GRAD.:     0.887 HEAT:  156.4709
 CYCLE:   169 TIME:   0.527 TIME LEFT:  2.00D  GRAD.:     0.881 HEAT:  156.4703
 CYCLE:   170 TIME:   0.504 TIME LEFT:  2.00D  GRAD.:     1.059 HEAT:  156.4698
 CYCLE:   171 TIME:   0.504 TIME LEFT:  2.00D  GRAD.:     0.856 HEAT:  156.4693
 CYCLE:   172 TIME:   0.578 TIME LEFT:  2.00D  GRAD.:     0.816 HEAT:  156.4688
 CYCLE:   173 TIME:   0.543 TIME LEFT:  2.00D  GRAD.:     0.989 HEAT:  156.4683
 CYCLE:   174 TIME:   0.562 TIME LEFT:  2.00D  GRAD.:     0.973 HEAT:  156.4677
 CYCLE:   175 TIME:   0.512 TIME LEFT:  2.00D  GRAD.:     1.335 HEAT:  156.4672
 CYCLE:   176 TIME:   0.484 TIME LEFT:  2.00D  GRAD.:     0.775 HEAT:  156.4669
 CYCLE:   177 TIME:   0.543 TIME LEFT:  2.00D  GRAD.:     1.599 HEAT:  156.4667
 CYCLE:   178 TIME:   0.492 TIME LEFT:  2.00D  GRAD.:     0.793 HEAT:  156.4663
 CYCLE:   179 TIME:   0.516 TIME LEFT:  2.00D  GRAD.:     0.953 HEAT:  156.4659
 CYCLE:   180 TIME:   0.457 TIME LEFT:  2.00D  GRAD.:     0.748 HEAT:  156.4655
 CYCLE:   181 TIME:   0.516 TIME LEFT:  2.00D  GRAD.:     0.585 HEAT:  156.4649
 CYCLE:   182 TIME:   0.562 TIME LEFT:  2.00D  GRAD.:     1.018 HEAT:  156.4645
 CYCLE:   183 TIME:   0.578 TIME LEFT:  2.00D  GRAD.:     0.703 HEAT:  156.4640
 CYCLE:   184 TIME:   0.516 TIME LEFT:  2.00D  GRAD.:     0.678 HEAT:  156.4634
 CYCLE:   185 TIME:   0.496 TIME LEFT:  2.00D  GRAD.:     1.332 HEAT:  156.4631
 CYCLE:   186 TIME:   0.527 TIME LEFT:  2.00D  GRAD.:     0.820 HEAT:  156.4627
 CYCLE:   187 TIME:   0.590 TIME LEFT:  2.00D  GRAD.:     0.653 HEAT:  156.4622
 CYCLE:   188 TIME:   0.523 TIME LEFT:  2.00D  GRAD.:     0.951 HEAT:  156.4619
 CYCLE:   189 TIME:   0.594 TIME LEFT:  2.00D  GRAD.:     0.896 HEAT:  156.4615
 CYCLE:   190 TIME:   0.535 TIME LEFT:  2.00D  GRAD.:     2.055 HEAT:  156.4615
 CYCLE:   191 TIME:   0.527 TIME LEFT:  2.00D  GRAD.:     0.853 HEAT:  156.4608
 CYCLE:   192 TIME:   0.461 TIME LEFT:  2.00D  GRAD.:     0.559 HEAT:  156.4605
 CYCLE:   193 TIME:   0.520 TIME LEFT:  2.00D  GRAD.:     1.028 HEAT:  156.4599
 CYCLE:   194 TIME:   0.605 TIME LEFT:  2.00D  GRAD.:     1.655 HEAT:  156.4596
 CYCLE:   195 TIME:   0.551 TIME LEFT:  2.00D  GRAD.:     1.001 HEAT:  156.4591
 CYCLE:   196 TIME:   0.504 TIME LEFT:  2.00D  GRAD.:     0.680 HEAT:  156.4587
 CYCLE:   197 TIME:   0.629 TIME LEFT:  2.00D  GRAD.:     0.712 HEAT:  156.4585
 CYCLE:   198 TIME:   0.535 TIME LEFT:  2.00D  GRAD.:     2.242 HEAT:  156.4581
 CYCLE:   199 TIME:   0.477 TIME LEFT:  2.00D  GRAD.:     0.768 HEAT:  156.4575
 CYCLE:   200 TIME:   0.469 TIME LEFT:  2.00D  GRAD.:     0.599 HEAT:  156.4573
 CYCLE:   201 TIME:   0.516 TIME LEFT:  2.00D  GRAD.:     0.870 HEAT:  156.4570
 CYCLE:   202 TIME:   0.492 TIME LEFT:  2.00D  GRAD.:     1.197 HEAT:  156.4564
 CYCLE:   203 TIME:   0.492 TIME LEFT:  2.00D  GRAD.:     3.286 HEAT:  156.4564
 CYCLE:   204 TIME:   0.449 TIME LEFT:  2.00D  GRAD.:     1.106 HEAT:  156.4556
 CYCLE:   205 TIME:   0.496 TIME LEFT:  2.00D  GRAD.:     0.583 HEAT:  156.4552
 CYCLE:   206 TIME:   0.555 TIME LEFT:  2.00D  GRAD.:     0.878 HEAT:  156.4548
 CYCLE:   207 TIME:   0.508 TIME LEFT:  2.00D  GRAD.:     0.971 HEAT:  156.4542
 CYCLE:   208 TIME:   0.516 TIME LEFT:  2.00D  GRAD.:     1.171 HEAT:  156.4534
 CYCLE:   209 TIME:   0.555 TIME LEFT:  2.00D  GRAD.:     1.410 HEAT:  156.4529
 CYCLE:   210 TIME:   0.461 TIME LEFT:  2.00D  GRAD.:     0.799 HEAT:  156.4525
 CYCLE:   211 TIME:   0.582 TIME LEFT:  2.00D  GRAD.:     0.672 HEAT:  156.4521
 CYCLE:   212 TIME:   0.531 TIME LEFT:  2.00D  GRAD.:     1.118 HEAT:  156.4516
 CYCLE:   213 TIME:   0.488 TIME LEFT:  2.00D  GRAD.:     1.014 HEAT:  156.4512
 CYCLE:   214 TIME:   0.504 TIME LEFT:  2.00D  GRAD.:     0.676 HEAT:  156.4509
 CYCLE:   215 TIME:   0.531 TIME LEFT:  2.00D  GRAD.:     0.696 HEAT:  156.4503
 CYCLE:   216 TIME:   0.523 TIME LEFT:  2.00D  GRAD.:     1.695 HEAT:  156.4502
 CYCLE:   217 TIME:   0.531 TIME LEFT:  2.00D  GRAD.:     0.790 HEAT:  156.4498
 CYCLE:   218 TIME:   0.555 TIME LEFT:  2.00D  GRAD.:     0.525 HEAT:  156.4496
 CYCLE:   219 TIME:   0.613 TIME LEFT:  2.00D  GRAD.:     0.631 HEAT:  156.4493
 CYCLE:   220 TIME:   0.598 TIME LEFT:  2.00D  GRAD.:     0.776 HEAT:  156.4489
 CYCLE:   221 TIME:   0.566 TIME LEFT:  2.00D  GRAD.:     1.771 HEAT:  156.4486
 CYCLE:   222 TIME:   0.441 TIME LEFT:  2.00D  GRAD.:     0.769 HEAT:  156.4482
 CYCLE:   223 TIME:   0.520 TIME LEFT:  2.00D  GRAD.:     1.574 HEAT:  156.4481
 CYCLE:   224 TIME:   0.480 TIME LEFT:  2.00D  GRAD.:     3.144 HEAT:  156.4488
 CYCLE:   225 TIME:   0.430 TIME LEFT:  2.00D  GRAD.:     0.474 HEAT:  156.4477
 CYCLE:   226 TIME:   0.516 TIME LEFT:  2.00D  GRAD.:     0.670 HEAT:  156.4479
 CYCLE:   227 TIME:   0.492 TIME LEFT:  2.00D  GRAD.:     0.387 HEAT:  156.4475
 CYCLE:   228 TIME:   0.469 TIME LEFT:  2.00D  GRAD.:     0.546 HEAT:  156.4472
 CYCLE:   229 TIME:   0.523 TIME LEFT:  2.00D  GRAD.:     0.792 HEAT:  156.4468
 CYCLE:   230 TIME:   0.531 TIME LEFT:  2.00D  GRAD.:     1.452 HEAT:  156.4466
 CYCLE:   231 TIME:   0.508 TIME LEFT:  2.00D  GRAD.:     0.501 HEAT:  156.4464
 CYCLE:   232 TIME:   0.582 TIME LEFT:  2.00D  GRAD.:     2.041 HEAT:  156.4465
 CYCLE:   233 TIME:   0.508 TIME LEFT:  2.00D  GRAD.:     0.579 HEAT:  156.4462
 CYCLE:   234 TIME:   0.465 TIME LEFT:  2.00D  GRAD.:     0.405 HEAT:  156.4460
 CYCLE:   235 TIME:   0.488 TIME LEFT:  2.00D  GRAD.:     0.514 HEAT:  156.4459
 CYCLE:   236 TIME:   0.469 TIME LEFT:  2.00D  GRAD.:     0.614 HEAT:  156.4455
 CYCLE:   237 TIME:   0.504 TIME LEFT:  2.00D  GRAD.:     1.556 HEAT:  156.4453
 CYCLE:   238 TIME:   0.445 TIME LEFT:  2.00D  GRAD.:     0.575 HEAT:  156.4451
 CYCLE:   239 TIME:   0.484 TIME LEFT:  2.00D  GRAD.:     0.443 HEAT:  156.4450
 CYCLE:   240 TIME:   0.531 TIME LEFT:  2.00D  GRAD.:     0.901 HEAT:  156.4448
 CYCLE:   241 TIME:   0.477 TIME LEFT:  2.00D  GRAD.:     0.839 HEAT:  156.4446
 CYCLE:   242 TIME:   0.551 TIME LEFT:  2.00D  GRAD.:     0.629 HEAT:  156.4443
 CYCLE:   243 TIME:   0.559 TIME LEFT:  2.00D  GRAD.:     0.528 HEAT:  156.4442
 CYCLE:   244 TIME:   0.543 TIME LEFT:  2.00D  GRAD.:     0.532 HEAT:  156.4439
 CYCLE:   245 TIME:   0.496 TIME LEFT:  2.00D  GRAD.:     0.670 HEAT:  156.4436
 CYCLE:   246 TIME:   0.512 TIME LEFT:  2.00D  GRAD.:     0.773 HEAT:  156.4431
 CYCLE:   247 TIME:   0.500 TIME LEFT:  2.00D  GRAD.:     0.806 HEAT:  156.4427
 CYCLE:   248 TIME:   0.469 TIME LEFT:  2.00D  GRAD.:     0.756 HEAT:  156.4424
 CYCLE:   249 TIME:   0.555 TIME LEFT:  2.00D  GRAD.:     1.128 HEAT:  156.4419
 CYCLE:   250 TIME:   0.508 TIME LEFT:  2.00D  GRAD.:     1.065 HEAT:  156.4415
 CYCLE:   251 TIME:   0.496 TIME LEFT:  2.00D  GRAD.:     0.579 HEAT:  156.4412
 CYCLE:   252 TIME:   0.512 TIME LEFT:  2.00D  GRAD.:     0.640 HEAT:  156.4408
 CYCLE:   253 TIME:   0.539 TIME LEFT:  2.00D  GRAD.:     1.330 HEAT:  156.4404
 CYCLE:   254 TIME:   0.500 TIME LEFT:  2.00D  GRAD.:     0.735 HEAT:  156.4401
 CYCLE:   255 TIME:   0.531 TIME LEFT:  2.00D  GRAD.:     0.556 HEAT:  156.4398
 CYCLE:   256 TIME:   0.527 TIME LEFT:  2.00D  GRAD.:     0.639 HEAT:  156.4396
 CYCLE:   257 TIME:   0.488 TIME LEFT:  2.00D  GRAD.:     0.755 HEAT:  156.4393
 CYCLE:   258 TIME:   0.504 TIME LEFT:  2.00D  GRAD.:     0.551 HEAT:  156.4390
 CYCLE:   259 TIME:   0.539 TIME LEFT:  2.00D  GRAD.:     0.683 HEAT:  156.4387
 CYCLE:   260 TIME:   0.551 TIME LEFT:  2.00D  GRAD.:     0.708 HEAT:  156.4383
 CYCLE:   261 TIME:   0.535 TIME LEFT:  2.00D  GRAD.:     0.625 HEAT:  156.4380
 CYCLE:   262 TIME:   0.520 TIME LEFT:  2.00D  GRAD.:     1.190 HEAT:  156.4376
 CYCLE:   263 TIME:   0.559 TIME LEFT:  2.00D  GRAD.:     0.755 HEAT:  156.4371
 CYCLE:   264 TIME:   0.566 TIME LEFT:  2.00D  GRAD.:     0.640 HEAT:  156.4368
 CYCLE:   265 TIME:   0.602 TIME LEFT:  2.00D  GRAD.:     0.706 HEAT:  156.4365
 CYCLE:   266 TIME:   0.602 TIME LEFT:  2.00D  GRAD.:     1.961 HEAT:  156.4360
 CYCLE:   267 TIME:   0.504 TIME LEFT:  2.00D  GRAD.:     0.800 HEAT:  156.4354
 CYCLE:   268 TIME:   0.859 TIME LEFT:  2.00D  GRAD.:     0.542 HEAT:  156.4352
 CYCLE:   269 TIME:   0.539 TIME LEFT:  2.00D  GRAD.:     1.809 HEAT:  156.4351
 CYCLE:   270 TIME:   0.520 TIME LEFT:  2.00D  GRAD.:     0.989 HEAT:  156.4349
 CYCLE:   271 TIME:   0.496 TIME LEFT:  2.00D  GRAD.:     0.532 HEAT:  156.4345
 CYCLE:   272 TIME:   0.516 TIME LEFT:  2.00D  GRAD.:     0.581 HEAT:  156.4342
 CYCLE:   273 TIME:   0.594 TIME LEFT:  2.00D  GRAD.:     0.772 HEAT:  156.4335
 CYCLE:   274 TIME:   0.555 TIME LEFT:  2.00D  GRAD.:     3.106 HEAT:  156.4337
 CYCLE:   275 TIME:   0.438 TIME LEFT:  2.00D  GRAD.:     0.751 HEAT:  156.4331
 CYCLE:   276 TIME:   0.547 TIME LEFT:  2.00D  GRAD.:     2.245 HEAT:  156.4332
 CYCLE:   277 TIME:   0.469 TIME LEFT:  2.00D  GRAD.:     0.498 HEAT:  156.4326
 CYCLE:   278 TIME:   0.527 TIME LEFT:  2.00D  GRAD.:     0.588 HEAT:  156.4323
 CYCLE:   279 TIME:   0.570 TIME LEFT:  2.00D  GRAD.:     0.665 HEAT:  156.4321
 CYCLE:   280 TIME:   0.570 TIME LEFT:  2.00D  GRAD.:     1.679 HEAT:  156.4318
 CYCLE:   281 TIME:   0.520 TIME LEFT:  2.00D  GRAD.:     0.576 HEAT:  156.4313
 CYCLE:   282 TIME:   0.512 TIME LEFT:  2.00D  GRAD.:     0.553 HEAT:  156.4311
 CYCLE:   283 TIME:   0.531 TIME LEFT:  2.00D  GRAD.:     1.169 HEAT:  156.4307
 CYCLE:   284 TIME:   0.504 TIME LEFT:  2.00D  GRAD.:     1.600 HEAT:  156.4306
 CYCLE:   285 TIME:   0.547 TIME LEFT:  2.00D  GRAD.:     0.930 HEAT:  156.4302
 CYCLE:   286 TIME:   0.488 TIME LEFT:  2.00D  GRAD.:     1.922 HEAT:  156.4305
 CYCLE:   287 TIME:   0.477 TIME LEFT:  2.00D  GRAD.:     0.458 HEAT:  156.4299
 CYCLE:   288 TIME:   0.434 TIME LEFT:  2.00D  GRAD.:     0.378 HEAT:  156.4298
 CYCLE:   289 TIME:   0.500 TIME LEFT:  2.00D  GRAD.:     1.984 HEAT:  156.4302
 CYCLE:   290 TIME:   0.473 TIME LEFT:  2.00D  GRAD.:     0.540 HEAT:  156.4293
 CYCLE:   291 TIME:   0.449 TIME LEFT:  2.00D  GRAD.:     0.529 HEAT:  156.4292
 CYCLE:   292 TIME:   0.422 TIME LEFT:  2.00D  GRAD.:     0.423 HEAT:  156.4290
 CYCLE:   293 TIME:   0.500 TIME LEFT:  2.00D  GRAD.:     0.612 HEAT:  156.4288
 CYCLE:   294 TIME:   0.492 TIME LEFT:  2.00D  GRAD.:     0.823 HEAT:  156.4285
 CYCLE:   295 TIME:   0.645 TIME LEFT:  2.00D  GRAD.:     1.379 HEAT:  156.4284
 CYCLE:   296 TIME:   0.469 TIME LEFT:  2.00D  GRAD.:     0.402 HEAT:  156.4282
 CYCLE:   297 TIME:   0.500 TIME LEFT:  2.00D  GRAD.:     0.656 HEAT:  156.4281
 CYCLE:   298 TIME:   0.422 TIME LEFT:  2.00D  GRAD.:     0.488 HEAT:  156.4280
 CYCLE:   299 TIME:   0.484 TIME LEFT:  2.00D  GRAD.:     0.587 HEAT:  156.4277
 CYCLE:   300 TIME:   0.465 TIME LEFT:  2.00D  GRAD.:     0.913 HEAT:  156.4276
 CYCLE:   301 TIME:   0.434 TIME LEFT:  2.00D  GRAD.:     0.511 HEAT:  156.4275
 CYCLE:   302 TIME:   0.461 TIME LEFT:  2.00D  GRAD.:     0.341 HEAT:  156.4274
 CYCLE:   303 TIME:   0.469 TIME LEFT:  2.00D  GRAD.:     0.607 HEAT:  156.4272
 CYCLE:   304 TIME:   0.465 TIME LEFT:  2.00D  GRAD.:     0.556 HEAT:  156.4271
 CYCLE:   305 TIME:   0.500 TIME LEFT:  2.00D  GRAD.:     0.476 HEAT:  156.4268
 CYCLE:   306 TIME:   0.535 TIME LEFT:  2.00D  GRAD.:     0.956 HEAT:  156.4267
 CYCLE:   307 TIME:   0.504 TIME LEFT:  2.00D  GRAD.:     0.515 HEAT:  156.4264
 CYCLE:   308 TIME:   0.500 TIME LEFT:  2.00D  GRAD.:     0.757 HEAT:  156.4261
 CYCLE:   309 TIME:   0.492 TIME LEFT:  2.00D  GRAD.:     0.710 HEAT:  156.4262
 CYCLE:   310 TIME:   0.539 TIME LEFT:  2.00D  GRAD.:     1.531 HEAT:  156.4262
 CYCLE:   311 TIME:   0.527 TIME LEFT:  2.00D  GRAD.:     1.248 HEAT:  156.4261
 CYCLE:   312 TIME:   0.539 TIME LEFT:  2.00D  GRAD.:     0.455 HEAT:  156.4258
 CYCLE:   313 TIME:   0.555 TIME LEFT:  2.00D  GRAD.:     1.251 HEAT:  156.4259
 CYCLE:   314 TIME:   0.496 TIME LEFT:  2.00D  GRAD.:     0.321 HEAT:  156.4257
 CYCLE:   315 TIME:   0.484 TIME LEFT:  2.00D  GRAD.:     0.257 HEAT:  156.4257
 CYCLE:   316 TIME:   0.586 TIME LEFT:  2.00D  GRAD.:     1.121 HEAT:  156.4257
 CYCLE:   317 TIME:   0.492 TIME LEFT:  2.00D  GRAD.:     0.450 HEAT:  156.4255
 CYCLE:   318 TIME:   0.531 TIME LEFT:  2.00D  GRAD.:     0.312 HEAT:  156.4254
 CYCLE:   319 TIME:   0.539 TIME LEFT:  2.00D  GRAD.:     0.342 HEAT:  156.4253
 CYCLE:   320 TIME:   0.594 TIME LEFT:  2.00D  GRAD.:     0.770 HEAT:  156.4252
 CYCLE:   321 TIME:   0.551 TIME LEFT:  2.00D  GRAD.:     0.334 HEAT:  156.4251
 CYCLE:   322 TIME:   0.492 TIME LEFT:  2.00D  GRAD.:     0.337 HEAT:  156.4251
 CYCLE:   323 TIME:   0.574 TIME LEFT:  2.00D  GRAD.:     0.796 HEAT:  156.4249
 CYCLE:   324 TIME:   0.438 TIME LEFT:  2.00D  GRAD.:     0.551 HEAT:  156.4249
 CYCLE:   325 TIME:   0.508 TIME LEFT:  2.00D  GRAD.:     0.752 HEAT:  156.4246
 CYCLE:   326 TIME:   0.469 TIME LEFT:  2.00D  GRAD.:     0.498 HEAT:  156.4245
 CYCLE:   327 TIME:   0.562 TIME LEFT:  2.00D  GRAD.:     0.579 HEAT:  156.4244
 CYCLE:   328 TIME:   0.531 TIME LEFT:  2.00D  GRAD.:     0.492 HEAT:  156.4242
 CYCLE:   329 TIME:   0.516 TIME LEFT:  2.00D  GRAD.:     0.516 HEAT:  156.4241
 CYCLE:   330 TIME:   0.508 TIME LEFT:  2.00D  GRAD.:     0.839 HEAT:  156.4239
 CYCLE:   331 TIME:   0.496 TIME LEFT:  2.00D  GRAD.:     0.344 HEAT:  156.4238
 CYCLE:   332 TIME:   0.551 TIME LEFT:  2.00D  GRAD.:     0.476 HEAT:  156.4237
 CYCLE:   333 TIME:   0.488 TIME LEFT:  2.00D  GRAD.:     0.388 HEAT:  156.4236
 CYCLE:   334 TIME:   0.574 TIME LEFT:  2.00D  GRAD.:     0.798 HEAT:  156.4235
 CYCLE:   335 TIME:   0.547 TIME LEFT:  2.00D  GRAD.:     0.945 HEAT:  156.4234
 CYCLE:   336 TIME:   0.508 TIME LEFT:  2.00D  GRAD.:     0.273 HEAT:  156.4233
 CYCLE:   337 TIME:   0.426 TIME LEFT:  2.00D  GRAD.:     0.226 HEAT:  156.4232
 CYCLE:   338 TIME:   0.535 TIME LEFT:  2.00D  GRAD.:     0.472 HEAT:  156.4231
 CYCLE:   339 TIME:   0.512 TIME LEFT:  2.00D  GRAD.:     0.815 HEAT:  156.4230
 CYCLE:   340 TIME:   0.504 TIME LEFT:  2.00D  GRAD.:     0.469 HEAT:  156.4229
 CYCLE:   341 TIME:   0.465 TIME LEFT:  2.00D  GRAD.:     0.325 HEAT:  156.4228
 CYCLE:   342 TIME:   0.465 TIME LEFT:  2.00D  GRAD.:     0.353 HEAT:  156.4227
 CYCLE:   343 TIME:   0.461 TIME LEFT:  2.00D  GRAD.:     0.362 HEAT:  156.4225
 CYCLE:   344 TIME:   0.531 TIME LEFT:  2.00D  GRAD.:     0.554 HEAT:  156.4223
 CYCLE:   345 TIME:   0.488 TIME LEFT:  2.00D  GRAD.:     0.961 HEAT:  156.4223
 CYCLE:   346 TIME:   0.453 TIME LEFT:  2.00D  GRAD.:     0.329 HEAT:  156.4222
 CYCLE:   347 TIME:   0.527 TIME LEFT:  2.00D  GRAD.:     0.952 HEAT:  156.4222
 CYCLE:   348 TIME:   0.484 TIME LEFT:  2.00D  GRAD.:     0.225 HEAT:  156.4220
 CYCLE:   349 TIME:   0.469 TIME LEFT:  2.00D  GRAD.:     0.231 HEAT:  156.4220
 CYCLE:   350 TIME:   0.473 TIME LEFT:  2.00D  GRAD.:     1.208 HEAT:  156.4220
 CYCLE:   351 TIME:   0.449 TIME LEFT:  2.00D  GRAD.:     0.287 HEAT:  156.4218
 CYCLE:   352 TIME:   0.480 TIME LEFT:  2.00D  GRAD.:     0.184 HEAT:  156.4218
 CYCLE:   353 TIME:   0.551 TIME LEFT:  2.00D  GRAD.:     0.231 HEAT:  156.4217
 CYCLE:   354 TIME:   0.496 TIME LEFT:  2.00D  GRAD.:     0.389 HEAT:  156.4216
 CYCLE:   355 TIME:   0.469 TIME LEFT:  2.00D  GRAD.:     0.701 HEAT:  156.4216
 CYCLE:   356 TIME:   0.457 TIME LEFT:  2.00D  GRAD.:     0.298 HEAT:  156.4215
 CYCLE:   357 TIME:   0.508 TIME LEFT:  2.00D  GRAD.:     0.265 HEAT:  156.4214
 CYCLE:   358 TIME:   0.473 TIME LEFT:  2.00D  GRAD.:     0.216 HEAT:  156.4214
 CYCLE:   359 TIME:   0.496 TIME LEFT:  2.00D  GRAD.:     0.764 HEAT:  156.4214
 CYCLE:   360 TIME:   0.445 TIME LEFT:  2.00D  GRAD.:     0.570 HEAT:  156.4213
 CYCLE:   361 TIME:   0.434 TIME LEFT:  2.00D  GRAD.:     0.241 HEAT:  156.4212
 CYCLE:   362 TIME:   0.465 TIME LEFT:  2.00D  GRAD.:     0.160 HEAT:  156.4212
 CYCLE:   363 TIME:   0.504 TIME LEFT:  2.00D  GRAD.:     0.438 HEAT:  156.4211
 CYCLE:   364 TIME:   0.445 TIME LEFT:  2.00D  GRAD.:     0.284 HEAT:  156.4211
 CYCLE:   365 TIME:   0.473 TIME LEFT:  2.00D  GRAD.:     0.232 HEAT:  156.4210
 CYCLE:   366 TIME:   0.418 TIME LEFT:  2.00D  GRAD.:     0.332 HEAT:  156.4210
 CYCLE:   367 TIME:   0.473 TIME LEFT:  2.00D  GRAD.:     0.935 HEAT:  156.4209
 CYCLE:   368 TIME:   0.457 TIME LEFT:  2.00D  GRAD.:     0.887 HEAT:  156.4208
 CYCLE:   369 TIME:   0.457 TIME LEFT:  2.00D  GRAD.:     0.289 HEAT:  156.4207
 CYCLE:   370 TIME:   0.449 TIME LEFT:  2.00D  GRAD.:     0.202 HEAT:  156.4207
 CYCLE:   371 TIME:   0.516 TIME LEFT:  2.00D  GRAD.:     0.398 HEAT:  156.4206
 CYCLE:   372 TIME:   0.457 TIME LEFT:  2.00D  GRAD.:     0.451 HEAT:  156.4205
 CYCLE:   373 TIME:   0.477 TIME LEFT:  2.00D  GRAD.:     0.330 HEAT:  156.4204
 CYCLE:   374 TIME:   0.594 TIME LEFT:  2.00D  GRAD.:     0.443 HEAT:  156.4203
 CYCLE:   375 TIME:   0.457 TIME LEFT:  2.00D  GRAD.:     0.381 HEAT:  156.4202
 CYCLE:   376 TIME:   0.426 TIME LEFT:  2.00D  GRAD.:     0.376 HEAT:  156.4202
 CYCLE:   377 TIME:   0.480 TIME LEFT:  2.00D  GRAD.:     0.486 HEAT:  156.4200
 CYCLE:   378 TIME:   0.492 TIME LEFT:  2.00D  GRAD.:     0.551 HEAT:  156.4199
 CYCLE:   379 TIME:   0.457 TIME LEFT:  2.00D  GRAD.:     0.273 HEAT:  156.4198
 CYCLE:   380 TIME:   0.469 TIME LEFT:  2.00D  GRAD.:     0.241 HEAT:  156.4198
 CYCLE:   381 TIME:   0.531 TIME LEFT:  2.00D  GRAD.:     0.377 HEAT:  156.4197
 CYCLE:   382 TIME:   0.445 TIME LEFT:  2.00D  GRAD.:     0.533 HEAT:  156.4196
 CYCLE:   383 TIME:   0.484 TIME LEFT:  2.00D  GRAD.:     0.338 HEAT:  156.4195
 CYCLE:   384 TIME:   0.477 TIME LEFT:  2.00D  GRAD.:     0.287 HEAT:  156.4194
 CYCLE:   385 TIME:   0.461 TIME LEFT:  2.00D  GRAD.:     0.304 HEAT:  156.4193
 CYCLE:   386 TIME:   0.441 TIME LEFT:  2.00D  GRAD.:     0.241 HEAT:  156.4193
 CYCLE:   387 TIME:   0.512 TIME LEFT:  2.00D  GRAD.:     0.388 HEAT:  156.4192
 CYCLE:   388 TIME:   0.469 TIME LEFT:  2.00D  GRAD.:     0.626 HEAT:  156.4192
 CYCLE:   389 TIME:   0.484 TIME LEFT:  2.00D  GRAD.:     0.356 HEAT:  156.4191
 CYCLE:   390 TIME:   0.457 TIME LEFT:  2.00D  GRAD.:     0.495 HEAT:  156.4191
 CYCLE:   391 TIME:   0.473 TIME LEFT:  2.00D  GRAD.:     0.261 HEAT:  156.4190
 CYCLE:   392 TIME:   0.457 TIME LEFT:  2.00D  GRAD.:     0.416 HEAT:  156.4190
 CYCLE:   393 TIME:   0.441 TIME LEFT:  2.00D  GRAD.:     0.290 HEAT:  156.4189
 CYCLE:   394 TIME:   0.473 TIME LEFT:  2.00D  GRAD.:     0.273 HEAT:  156.4189
 CYCLE:   395 TIME:   0.484 TIME LEFT:  2.00D  GRAD.:     0.574 HEAT:  156.4188
 CYCLE:   396 TIME:   0.461 TIME LEFT:  2.00D  GRAD.:     0.275 HEAT:  156.4187
 CYCLE:   397 TIME:   0.480 TIME LEFT:  2.00D  GRAD.:     0.320 HEAT:  156.4187
 CYCLE:   398 TIME:   0.465 TIME LEFT:  2.00D  GRAD.:     0.303 HEAT:  156.4186
 CYCLE:   399 TIME:   0.508 TIME LEFT:  2.00D  GRAD.:     0.784 HEAT:  156.4185
 CYCLE:   400 TIME:   0.504 TIME LEFT:  2.00D  GRAD.:     0.339 HEAT:  156.4184
 CYCLE:   401 TIME:   0.480 TIME LEFT:  2.00D  GRAD.:     0.222 HEAT:  156.4184
 CYCLE:   402 TIME:   0.574 TIME LEFT:  2.00D  GRAD.:     0.391 HEAT:  156.4183
 CYCLE:   403 TIME:   0.547 TIME LEFT:  2.00D  GRAD.:     0.610 HEAT:  156.4183
 CYCLE:   404 TIME:   0.516 TIME LEFT:  2.00D  GRAD.:     0.396 HEAT:  156.4182
 CYCLE:   405 TIME:   0.516 TIME LEFT:  2.00D  GRAD.:     0.519 HEAT:  156.4181
 CYCLE:   406 TIME:   0.559 TIME LEFT:  2.00D  GRAD.:     0.346 HEAT:  156.4180
 CYCLE:   407 TIME:   0.477 TIME LEFT:  2.00D  GRAD.:     0.567 HEAT:  156.4179
 CYCLE:   408 TIME:   0.430 TIME LEFT:  2.00D  GRAD.:     0.263 HEAT:  156.4179
 CYCLE:   409 TIME:   0.484 TIME LEFT:  2.00D  GRAD.:     0.323 HEAT:  156.4178
 CYCLE:   410 TIME:   0.449 TIME LEFT:  2.00D  GRAD.:     0.329 HEAT:  156.4177
 CYCLE:   411 TIME:   0.504 TIME LEFT:  2.00D  GRAD.:     0.629 HEAT:  156.4176
 CYCLE:   412 TIME:   0.477 TIME LEFT:  2.00D  GRAD.:     0.381 HEAT:  156.4175
 CYCLE:   413 TIME:   0.453 TIME LEFT:  2.00D  GRAD.:     0.297 HEAT:  156.4174
 CYCLE:   414 TIME:   0.434 TIME LEFT:  2.00D  GRAD.:     0.226 HEAT:  156.4174
 CYCLE:   415 TIME:   0.492 TIME LEFT:  2.00D  GRAD.:     0.258 HEAT:  156.4173
 CYCLE:   416 TIME:   0.508 TIME LEFT:  2.00D  GRAD.:     0.742 HEAT:  156.4172
 CYCLE:   417 TIME:   0.418 TIME LEFT:  2.00D  GRAD.:     0.303 HEAT:  156.4172
 CYCLE:   418 TIME:   0.473 TIME LEFT:  2.00D  GRAD.:     0.262 HEAT:  156.4171
 CYCLE:   419 TIME:   0.469 TIME LEFT:  2.00D  GRAD.:     0.281 HEAT:  156.4171
 CYCLE:   420 TIME:   0.500 TIME LEFT:  2.00D  GRAD.:     0.858 HEAT:  156.4170
 CYCLE:   421 TIME:   0.477 TIME LEFT:  2.00D  GRAD.:     0.532 HEAT:  156.4169
 CYCLE:   422 TIME:   0.453 TIME LEFT:  2.00D  GRAD.:     0.203 HEAT:  156.4169
 CYCLE:   423 TIME:   0.477 TIME LEFT:  2.00D  GRAD.:     0.232 HEAT:  156.4169
 CYCLE:   424 TIME:   0.438 TIME LEFT:  2.00D  GRAD.:     0.198 HEAT:  156.4168
 CYCLE:   425 TIME:   0.484 TIME LEFT:  2.00D  GRAD.:     0.230 HEAT:  156.4167
 CYCLE:   426 TIME:   0.469 TIME LEFT:  2.00D  GRAD.:     0.838 HEAT:  156.4167
 CYCLE:   427 TIME:   0.434 TIME LEFT:  2.00D  GRAD.:     0.326 HEAT:  156.4166
 CYCLE:   428 TIME:   0.559 TIME LEFT:  2.00D  GRAD.:     0.252 HEAT:  156.4166
 CYCLE:   429 TIME:   0.547 TIME LEFT:  2.00D  GRAD.:     0.593 HEAT:  156.4165
 CYCLE:   430 TIME:   0.566 TIME LEFT:  2.00D  GRAD.:     0.318 HEAT:  156.4165
 CYCLE:   431 TIME:   0.531 TIME LEFT:  2.00D  GRAD.:     0.148 HEAT:  156.4164
 CYCLE:   432 TIME:   0.523 TIME LEFT:  2.00D  GRAD.:     0.182 HEAT:  156.4164
 CYCLE:   433 TIME:   0.562 TIME LEFT:  2.00D  GRAD.:     0.496 HEAT:  156.4163
 CYCLE:   434 TIME:   0.512 TIME LEFT:  2.00D  GRAD.:     0.225 HEAT:  156.4163
 CYCLE:   435 TIME:   0.504 TIME LEFT:  2.00D  GRAD.:     0.213 HEAT:  156.4162
 CYCLE:   436 TIME:   0.578 TIME LEFT:  2.00D  GRAD.:     0.951 HEAT:  156.4163
 CYCLE:   437 TIME:   0.441 TIME LEFT:  2.00D  GRAD.:     0.306 HEAT:  156.4161
 CYCLE:   438 TIME:   0.500 TIME LEFT:  2.00D  GRAD.:     0.172 HEAT:  156.4161
 CYCLE:   439 TIME:   0.469 TIME LEFT:  2.00D  GRAD.:     0.156 HEAT:  156.4161
 CYCLE:   440 TIME:   0.504 TIME LEFT:  2.00D  GRAD.:     0.303 HEAT:  156.4159
 CYCLE:   441 TIME:   0.484 TIME LEFT:  2.00D  GRAD.:     0.723 HEAT:  156.4159
 CYCLE:   442 TIME:   0.445 TIME LEFT:  2.00D  GRAD.:     0.376 HEAT:  156.4158
 CYCLE:   443 TIME:   0.547 TIME LEFT:  2.00D  GRAD.:     0.494 HEAT:  156.4158
 CYCLE:   444 TIME:   0.527 TIME LEFT:  2.00D  GRAD.:     2.148 HEAT:  156.4162
 CYCLE:   445 TIME:   0.473 TIME LEFT:  2.00D  GRAD.:     0.263 HEAT:  156.4158
 CYCLE:   446 TIME:   0.438 TIME LEFT:  2.00D  GRAD.:     0.163 HEAT:  156.4158
 CYCLE:   447 TIME:   0.457 TIME LEFT:  2.00D  GRAD.:     0.303 HEAT:  156.4157
 CYCLE:   448 TIME:   0.457 TIME LEFT:  2.00D  GRAD.:     0.630 HEAT:  156.4157
 CYCLE:   449 TIME:   0.477 TIME LEFT:  2.00D  GRAD.:     0.213 HEAT:  156.4156
 CYCLE:   450 TIME:   0.457 TIME LEFT:  2.00D  GRAD.:     0.183 HEAT:  156.4156
 CYCLE:   451 TIME:   0.438 TIME LEFT:  2.00D  GRAD.:     0.157 HEAT:  156.4156
 CYCLE:   452 TIME:   0.555 TIME LEFT:  2.00D  GRAD.:     0.178 HEAT:  156.4155
 CYCLE:   453 TIME:   0.508 TIME LEFT:  2.00D  GRAD.:     0.661 HEAT:  156.4155
 CYCLE:   454 TIME:   0.562 TIME LEFT:  2.00D  GRAD.:     1.346 HEAT:  156.4157
 CYCLE:   455 TIME:   0.523 TIME LEFT:  2.00D  GRAD.:     0.595 HEAT:  156.4154
 CYCLE:   456 TIME:   0.570 TIME LEFT:  2.00D  GRAD.:     0.334 HEAT:  156.4154
 CYCLE:   457 TIME:   0.508 TIME LEFT:  2.00D  GRAD.:     0.462 HEAT:  156.4154
 CYCLE:   458 TIME:   0.562 TIME LEFT:  2.00D  GRAD.:     0.752 HEAT:  156.4154
 CYCLE:   459 TIME:   0.504 TIME LEFT:  2.00D  GRAD.:     0.487 HEAT:  156.4153
 CYCLE:   460 TIME:   0.457 TIME LEFT:  2.00D  GRAD.:     0.238 HEAT:  156.4153
 CYCLE:   461 TIME:   0.414 TIME LEFT:  2.00D  GRAD.:     0.133 HEAT:  156.4152
 CYCLE:   462 TIME:   0.516 TIME LEFT:  2.00D  GRAD.:     0.978 HEAT:  156.4153
 CYCLE:   463 TIME:   0.500 TIME LEFT:  2.00D  GRAD.:     0.214 HEAT:  156.4152
 CYCLE:   464 TIME:   0.434 TIME LEFT:  2.00D  GRAD.:     0.171 HEAT:  156.4152
 CYCLE:   465 TIME:   0.438 TIME LEFT:  2.00D  GRAD.:     0.277 HEAT:  156.4152
 CYCLE:   466 TIME:   0.438 TIME LEFT:  2.00D  GRAD.:     0.205 HEAT:  156.4151
 CYCLE:   467 TIME:   0.441 TIME LEFT:  2.00D  GRAD.:     0.212 HEAT:  156.4151
 CYCLE:   468 TIME:   0.434 TIME LEFT:  2.00D  GRAD.:     0.464 HEAT:  156.4151
 CYCLE:   469 TIME:   0.434 TIME LEFT:  2.00D  GRAD.:     0.160 HEAT:  156.4150
 CYCLE:   470 TIME:   0.469 TIME LEFT:  2.00D  GRAD.:     0.386 HEAT:  156.4150
 CYCLE:   471 TIME:   0.422 TIME LEFT:  2.00D  GRAD.:     0.189 HEAT:  156.4150
 CYCLE:   472 TIME:   0.473 TIME LEFT:  2.00D  GRAD.:     0.491 HEAT:  156.4150
 CYCLE:   473 TIME:   0.441 TIME LEFT:  2.00D  GRAD.:     0.173 HEAT:  156.4150
 CYCLE:   474 TIME:   0.496 TIME LEFT:  2.00D  GRAD.:     0.155 HEAT:  156.4149
 CYCLE:   475 TIME:   0.484 TIME LEFT:  2.00D  GRAD.:     0.115 HEAT:  156.4149
 CYCLE:   476 TIME:   0.500 TIME LEFT:  2.00D  GRAD.:     0.143 HEAT:  156.4149
 CYCLE:   477 TIME:   0.473 TIME LEFT:  2.00D  GRAD.:     0.245 HEAT:  156.4149
 CYCLE:   478 TIME:   0.426 TIME LEFT:  2.00D  GRAD.:     0.104 HEAT:  156.4149
 CYCLE:   479 TIME:   0.465 TIME LEFT:  2.00D  GRAD.:     0.416 HEAT:  156.4149
 CYCLE:   480 TIME:   0.461 TIME LEFT:  2.00D  GRAD.:     0.137 HEAT:  156.4149
 CYCLE:   481 TIME:   0.473 TIME LEFT:  2.00D  GRAD.:     0.092 HEAT:  156.4149

 -------------------------------------------------------------------------------
 RM1 PRECISE POLAR XYZ GNORM=0.1




     HERBERTS TEST WAS SATISFIED IN BFGS                      
     SCF FIELD WAS ACHIEVED                                   


                              RM1 CALCULATION
                                                       MOPAC2016 (Version: 21.013L)
                                                       Mon Oct 18 17:30:05 2021
                                                       No. of days remaining =  87




          FINAL HEAT OF FORMATION =        156.41486 KCAL/MOL =     654.43975 KJ/MOL


          TOTAL ENERGY            =     -12118.51812 EV
          ELECTRONIC ENERGY       =    -161014.46368 EV  POINT GROUP:     C1  
          CORE-CORE REPULSION     =     148895.94557 EV
          COSMO AREA              =       1097.89 SQUARE ANGSTROMS
          COSMO VOLUME            =       1321.19 CUBIC ANGSTROMS

          GRADIENT NORM           =          0.09174 = 0.00757 PER ATOM
          IONIZATION POTENTIAL    =          7.699479 EV
          HOMO LUMO ENERGIES (EV) =         -7.699 -1.464
          NO. OF FILLED LEVELS    =        203
          MOLECULAR WEIGHT        =       1108.4688

          MOLECULAR DIMENSIONS (Angstroms)

            Atom       Atom       Distance
            H   147    H   137    31.43104
            H   140    H   111    20.92559
            H   134    H   108     9.47006


          SCF CALCULATIONS        =        482
 
          WALL-CLOCK TIME         =  4 MINUTES AND 22.418 SECONDS
          COMPUTATION TIME        = 40 MINUTES AND 37.394 SECONDS




   ATOM   CHEMICAL          X               Y               Z
  NUMBER   SYMBOL      (ANGSTROMS)     (ANGSTROMS)     (ANGSTROMS)
 
     1       N          0.38032525  *   0.11754478  *  -1.05726034  *
     2       C          1.41298306  *   0.05211210  *  -0.54095895  *
     3       C          2.68730214  *  -0.01017956  *   0.07632486  *
     4       C          3.28398862  *  -1.17025188  *   0.41187881  *
     5       C          2.66737503  *  -2.45278678  *   0.23070194  *
     6       C          1.34396824  *  -2.76245127  *   0.39611805  *
     7       C          1.08582071  *  -4.14730331  *   0.14864605  *
     8       C          2.22372129  *  -4.82583405  *  -0.19290390  *
     9       S          3.60344374  *  -3.81661828  *  -0.20417425  *
    10       C          2.32164093  *  -6.21413088  *  -0.51573575  *
    11       C          2.94876244  *  -6.75328990  *  -1.60536239  *
    12       C          2.85030614  *  -8.18005419  *  -1.62278516  *
    13       C          2.15429850  *  -8.65603582  *  -0.54553507  *
    14       S          1.61738929  *  -7.40766932  *   0.48583296  *
    15       C          1.89754356  * -10.05068676  *  -0.27541554  *
    16       C          2.80284926  * -11.00568327  *  -0.54006672  *
    17       C          2.54737852  * -12.42044636  *  -0.31075795  *
    18       C          1.38854015  * -13.01698426  *  -0.80131217  *
    19       C          1.15301982  * -14.36739721  *  -0.58320240  *
    20       C          2.09641679  * -15.11936280  *   0.12251999  *
    21       C          3.26857796  * -14.52990138  *   0.60793083  *
    22       C          3.48674803  * -13.17877567  *   0.38682232  *
    23       N          1.86623598  * -16.49622149  *   0.34517548  *
    24       C          1.49598155  * -17.44133089  *  -0.63267447  *
    25       C          1.30393507  * -17.27428887  *  -2.00144969  *
    26       C          0.95815908  * -18.39246418  *  -2.74087259  *
    27       C          0.80200399  * -19.64650132  *  -2.12110948  *
    28       C          1.00372175  * -19.82449378  *  -0.75196873  *
    29       C          1.36546432  * -18.71265869  *  -0.01137159  *
    30       C          1.66522069  * -18.53650723  *   1.38797382  *
    31       C          1.96920835  * -17.16224943  *   1.58323182  *
    32       C          2.27044022  * -16.65252937  *   2.84323757  *
    33       C          2.29903970  * -17.54205411  *   3.90377800  *
    34       C          2.00640780  * -18.90508126  *   3.70942960  *
    35       C          1.67650820  * -19.41839924  *   2.45452817  *
    36       N          2.04713837  * -19.77631125  *   4.82277963  *
    37       C          2.72149480  * -21.01241780  *   4.87931006  *
    38       C          3.52703786  * -21.63478987  *   3.93543215  *
    39       C          4.08008137  * -22.86265509  *   4.27473394  *
    40       C          3.85379049  * -23.46773882  *   5.51664793  *
    41       C          3.05689316  * -22.82468906  *   6.46299532  *
    42       C          2.49285666  * -21.60101515  *   6.15167812  *
    43       C          1.64802474  * -20.69638400  *   6.89346473  *
    44       C          1.38179017  * -19.58459190  *   6.05038439  *
    45       C          0.56009042  * -18.54727858  *   6.47002512  *
    46       C          0.03277054  * -18.62596876  *   7.75233402  *
    47       C          0.29954547  * -19.70262880  *   8.60637247  *
    48       C          1.10950340  * -20.74861589  *   8.16618006  *
    49       C         -0.26399975  * -19.78685985  *  10.00131287  *
    50       C         -1.13954811  * -21.03897074  *  10.10604696  *
    51       C         -1.12238867  * -18.58005493  *  10.38482873  *
    52       C          0.89499749  * -19.87296678  *  10.99906505  *
    53       C          4.44464893  * -24.80422610  *   5.88441447  *
    54       C          5.29898443  * -25.41828890  *   4.77383703  *
    55       C          5.33420649  * -24.63018843  *   7.11892317  *
    56       C          3.30512574  * -25.77997851  *   6.19318382  *
    57       N          0.43681638  * -20.75825664  *  -2.91556567  *
    58       C         -0.64903344  * -20.81368147  *  -3.81144213  *
    59       C         -1.60360718  * -19.85076030  *  -4.12005385  *
    60       C         -2.57286531  * -20.19393299  *  -5.04846679  *
    61       C         -2.61706956  * -21.45637571  *  -5.66325948  *
    62       C         -1.66885570  * -22.41676189  *  -5.33302317  *
    63       C         -0.68669848  * -22.10063943  *  -4.40717329  *
    64       C          0.40853450  * -22.85860325  *  -3.85268563  *
    65       C          1.08498636  * -22.00910711  *  -2.93702047  *
    66       C          2.21296547  * -22.44365221  *  -2.25369586  *
    67       C          2.63842465  * -23.74525053  *  -2.48223495  *
    68       C          1.97614257  * -24.60452618  *  -3.36764918  *
    69       C          0.85517113  * -24.15123560  *  -4.06104390  *
    70       C          2.43090219  * -26.02017899  *  -3.61207906  *
    71       C          2.77767285  * -26.17955971  *  -5.09531046  *
    72       C          3.66476289  * -26.41250422  *  -2.79724355  *
    73       C          1.29587759  * -26.97642167  *  -3.23358749  *
    74       C         -3.71524260  * -21.71334801  *  -6.66209105  *
    75       C         -3.60495469  * -20.69185326  *  -7.79782568  *
    76       C         -3.65046542  * -23.11080252  *  -7.28171843  *
    77       C         -5.06799323  * -21.57221434  *  -5.95858532  *
    78       C          0.63100559  * -10.35711936  *   0.29994176  *
    79       N         -0.39783426  * -10.59310272  *   0.77241494  *
    80       C          3.38346418  *   1.26068874  *   0.32418636  *
    81       O          4.50765069  *   1.39444539  *   0.78593667  *
    82       O          2.66397740  *   2.35123051  *  -0.00569870  *
    83       H          4.29669776  *  -1.17053664  *   0.84486195  *
    84       H          3.79324549  * -10.75174182  *  -0.93703574  *
    85       H          0.56195068  *  -2.06921821  *   0.70161582  *
    86       H          0.09110326  *  -4.58258797  *   0.21730237  *
    87       H          3.45533408  *  -6.18701304  *  -2.38340896  *
    88       H          3.27382595  *  -8.78905655  *  -2.41805888  *
    89       H          0.65895499  * -12.42858041  *  -1.36778481  *
    90       H          0.22649850  * -14.82502438  *  -0.94614248  *
    91       H          4.01669670  * -15.12501743  *   1.14206101  *
    92       H          4.40079367  * -12.70809391  *   0.76324992  *
    93       H          1.43904508  * -16.30408641  *  -2.48496726  *
    94       H          0.81742656  * -18.29719966  *  -3.82351105  *
    95       H          0.87660692  * -20.79688088  *  -0.26708596  *
    96       H          2.46902910  * -15.58952903  *   2.99872486  *
    97       H          2.55984781  * -17.17635058  *   4.90337239  *
    98       H          1.42277821  * -20.47212982  *   2.30596817  *
    99       H          3.73121018  * -21.17468355  *   2.96635283  *
   100       H          4.70980271  * -23.33915583  *   3.51808760  *
   101       H          2.85957750  * -23.25295087  *   7.44936557  *
   102       H          0.32158540  * -17.70627679  *   5.81553435  *
   103       H         -0.61141780  * -17.79954530  *   8.06582792  *
   104       H          1.33579594  * -21.61613599  *   8.79182333  *
   105       H         -1.94957567  * -21.03224163  *   9.36284373  *
   106       H         -0.58052487  * -21.97222698  *   9.95279641  *
   107       H         -1.61352411  * -21.12909907  *  11.09447723  *
   108       H         -2.00187663  * -18.46397840  *   9.73543620  *
   109       H         -1.51542585  * -18.66736808  *  11.40938859  *
   110       H         -0.55877093  * -17.63652617  *  10.35807633  *
   111       H          0.54243486  * -19.88623851  *  12.04084835  *
   112       H          1.50611210  * -20.77766712  *  10.87648528  *
   113       H          1.57787471  * -19.01675853  *  10.90392105  *
   114       H          4.72590159  * -25.60226082  *   3.85384632  *
   115       H          6.16328908  * -24.79169491  *   4.51117245  *
   116       H          5.71394792  * -26.39400526  *   5.06981445  *
   117       H          4.78069158  * -24.29990573  *   8.00859164  *
   118       H          5.83181727  * -25.56869268  *   7.40422066  *
   119       H          6.12662479  * -23.88770246  *   6.94788157  *
   120       H          2.69752868  * -25.47709365  *   7.05692621  *
   121       H          2.61499820  * -25.88132781  *   5.34349208  *
   122       H          3.67729818  * -26.78879031  *   6.42462574  *
   123       H         -1.60108632  * -18.86936499  *  -3.64155715  *
   124       H         -3.32422216  * -19.43590711  *  -5.29355699  *
   125       H         -1.65443710  * -23.41979163  *  -5.76484906  *
   126       H          2.75573326  * -21.78607180  *  -1.57143015  *
   127       H          3.52686616  * -24.07108633  *  -1.93396129  *
   128       H          0.31153168  * -24.78191244  *  -4.76953610  *
   129       H          1.91617533  * -26.02861463  *  -5.76014740  *
   130       H          3.54866168  * -25.46280130  *  -5.41204703  *
   131       H          3.16254346  * -27.18440415  *  -5.32318427  *
   132       H          3.49134772  * -26.35062714  *  -1.71339065  *
   133       H          3.97087308  * -27.45141934  *  -2.99414160  *
   134       H          4.54095318  * -25.79171288  *  -3.03291651  *
   135       H          0.98421991  * -26.84389866  *  -2.18772743  *
   136       H          0.39521759  * -26.84497901  *  -3.84880755  *
   137       H          1.58884530  * -28.03032002  *  -3.34862367  *
   138       H         -3.75518470  * -19.65557595  *  -7.46528773  *
   139       H         -2.61875104  * -20.72725276  *  -8.28219593  *
   140       H         -4.35366201  * -20.86728466  *  -8.58426677  *
   141       H         -3.75946658  * -23.90930961  *  -6.53397940  *
   142       H         -4.45755963  * -23.27154477  *  -8.01276585  *
   143       H         -2.71138311  * -23.28702450  *  -7.82544707  *
   144       H         -5.25237306  * -20.56002303  *  -5.57326885  *
   145       H         -5.90809113  * -21.79736951  *  -6.63184684  *
   146       H         -5.15385301  * -22.25511769  *  -5.10134866  *
   147       H          3.16089948  *   3.16340025  *   0.17139461  *

                             CARTESIAN COORDINATES

   1    N        0.380325248     0.117544784    -1.057260338
   2    C        1.412983055     0.052112097    -0.540958945
   3    C        2.687302144    -0.010179560     0.076324861
   4    C        3.283988619    -1.170251882     0.411878814
   5    C        2.667375028    -2.452786783     0.230701936
   6    C        1.343968243    -2.762451269     0.396118047
   7    C        1.085820709    -4.147303307     0.148646045
   8    C        2.223721293    -4.825834052    -0.192903901
   9    S        3.603443744    -3.816618282    -0.204174253
  10    C        2.321640933    -6.214130880    -0.515735745
  11    C        2.948762436    -6.753289905    -1.605362389
  12    C        2.850306141    -8.180054186    -1.622785164
  13    C        2.154298503    -8.656035820    -0.545535073
  14    S        1.617389288    -7.407669322     0.485832961
  15    C        1.897543557   -10.050686760    -0.275415543
  16    C        2.802849264   -11.005683267    -0.540066725
  17    C        2.547378521   -12.420446362    -0.310757948
  18    C        1.388540151   -13.016984260    -0.801312165
  19    C        1.153019819   -14.367397208    -0.583202397
  20    C        2.096416791   -15.119362798     0.122519986
  21    C        3.268577956   -14.529901382     0.607930832
  22    C        3.486748029   -13.178775672     0.386822321
  23    N        1.866235983   -16.496221491     0.345175477
  24    C        1.495981546   -17.441330894    -0.632674468
  25    C        1.303935070   -17.274288866    -2.001449694
  26    C        0.958159079   -18.392464181    -2.740872588
  27    C        0.802003993   -19.646501322    -2.121109484
  28    C        1.003721753   -19.824493779    -0.751968729
  29    C        1.365464318   -18.712658693    -0.011371592
  30    C        1.665220686   -18.536507233     1.387973823
  31    C        1.969208351   -17.162249427     1.583231816
  32    C        2.270440219   -16.652529369     2.843237575
  33    C        2.299039696   -17.542054107     3.903778003
  34    C        2.006407799   -18.905081260     3.709429598
  35    C        1.676508205   -19.418399243     2.454528167
  36    N        2.047138368   -19.776311250     4.822779631
  37    C        2.721494795   -21.012417802     4.879310056
  38    C        3.527037858   -21.634789867     3.935432151
  39    C        4.080081370   -22.862655087     4.274733941
  40    C        3.853790486   -23.467738818     5.516647931
  41    C        3.056893157   -22.824689064     6.462995324
  42    C        2.492856656   -21.601015151     6.151678116
  43    C        1.648024738   -20.696383999     6.893464729
  44    C        1.381790173   -19.584591895     6.050384393
  45    C        0.560090422   -18.547278584     6.470025121
  46    C        0.032770545   -18.625968757     7.752334021
  47    C        0.299545465   -19.702628803     8.606372471
  48    C        1.109503399   -20.748615894     8.166180061
  49    C       -0.263999751   -19.786859854    10.001312867
  50    C       -1.139548112   -21.038970738    10.106046962
  51    C       -1.122388670   -18.580054931    10.384828729
  52    C        0.894997492   -19.872966779    10.999065052
  53    C        4.444648930   -24.804226098     5.884414470
  54    C        5.298984427   -25.418288901     4.773837034
  55    C        5.334206489   -24.630188425     7.118923171
  56    C        3.305125736   -25.779978511     6.193183816
  57    N        0.436816382   -20.758256642    -2.915565668
  58    C       -0.649033444   -20.813681474    -3.811442126
  59    C       -1.603607183   -19.850760299    -4.120053852
  60    C       -2.572865305   -20.193932989    -5.048466787
  61    C       -2.617069562   -21.456375714    -5.663259483
  62    C       -1.668855700   -22.416761885    -5.333023171
  63    C       -0.686698480   -22.100639430    -4.407173293
  64    C        0.408534498   -22.858603252    -3.852685626
  65    C        1.084986355   -22.009107112    -2.937020472
  66    C        2.212965465   -22.443652213    -2.253695865
  67    C        2.638424655   -23.745250534    -2.482234949
  68    C        1.976142572   -24.604526177    -3.367649181
  69    C        0.855171127   -24.151235600    -4.061043905
  70    C        2.430902194   -26.020178993    -3.612079062
  71    C        2.777672846   -26.179559714    -5.095310463
  72    C        3.664762894   -26.412504219    -2.797243546
  73    C        1.295877592   -26.976421668    -3.233587491
  74    C       -3.715242601   -21.713348009    -6.662091050
  75    C       -3.604954693   -20.691853257    -7.797825676
  76    C       -3.650465422   -23.110802523    -7.281718434
  77    C       -5.067993227   -21.572214339    -5.958585323
  78    C        0.631005591   -10.357119362     0.299941759
  79    N       -0.397834263   -10.593102723     0.772414941
  80    C        3.383464178     1.260688740     0.324186358
  81    O        4.507650686     1.394445392     0.785936666
  82    O        2.663977400     2.351230509    -0.005698703
  83    H        4.296697756    -1.170536641     0.844861949
  84    H        3.793245486   -10.751741821    -0.937035736
  85    H        0.561950679    -2.069218215     0.701615823
  86    H        0.091103256    -4.582587972     0.217302372
  87    H        3.455334080    -6.187013039    -2.383408963
  88    H        3.273825951    -8.789056551    -2.418058875
  89    H        0.658954988   -12.428580414    -1.367784806
  90    H        0.226498500   -14.825024378    -0.946142483
  91    H        4.016696704   -15.125017428     1.142061010
  92    H        4.400793668   -12.708093905     0.763249918
  93    H        1.439045084   -16.304086407    -2.484967259
  94    H        0.817426560   -18.297199655    -3.823511047
  95    H        0.876606924   -20.796880877    -0.267085962
  96    H        2.469029099   -15.589529034     2.998724862
  97    H        2.559847813   -17.176350584     4.903372387
  98    H        1.422778205   -20.472129817     2.305968166
  99    H        3.731210178   -21.174683545     2.966352828
 100    H        4.709802710   -23.339155825     3.518087601
 101    H        2.859577502   -23.252950865     7.449365567
 102    H        0.321585399   -17.706276785     5.815534348
 103    H       -0.611417801   -17.799545297     8.065827916
 104    H        1.335795939   -21.616135987     8.791823331
 105    H       -1.949575667   -21.032241627     9.362843725
 106    H       -0.580524867   -21.972226977     9.952796407
 107    H       -1.613524114   -21.129099069    11.094477228
 108    H       -2.001876634   -18.463978400     9.735436202
 109    H       -1.515425848   -18.667368083    11.409388589
 110    H       -0.558770930   -17.636526173    10.358076334
 111    H        0.542434857   -19.886238508    12.040848347
 112    H        1.506112103   -20.777667119    10.876485279
 113    H        1.577874705   -19.016758534    10.903921048
 114    H        4.725901594   -25.602260823     3.853846321
 115    H        6.163289078   -24.791694909     4.511172450
 116    H        5.713947918   -26.394005260     5.069814453
 117    H        4.780691576   -24.299905732     8.008591643
 118    H        5.831817272   -25.568692679     7.404220656
 119    H        6.126624787   -23.887702458     6.947881565
 120    H        2.697528685   -25.477093652     7.056926212
 121    H        2.614998197   -25.881327811     5.343492079
 122    H        3.677298181   -26.788790312     6.424625741
 123    H       -1.601086322   -18.869364990    -3.641557149
 124    H       -3.324222161   -19.435907110    -5.293556992
 125    H       -1.654437098   -23.419791630    -5.764849063
 126    H        2.755733256   -21.786071805    -1.571430148
 127    H        3.526866158   -24.071086326    -1.933961291
 128    H        0.311531682   -24.781912442    -4.769536096
 129    H        1.916175325   -26.028614634    -5.760147396
 130    H        3.548661682   -25.462801303    -5.412047035
 131    H        3.162543464   -27.184404149    -5.323184270
 132    H        3.491347719   -26.350627144    -1.713390648
 133    H        3.970873083   -27.451419345    -2.994141598
 134    H        4.540953179   -25.791712885    -3.032916513
 135    H        0.984219912   -26.843898656    -2.187727426
[...]
   14  S   1.88542   1.52232   0.88248   1.19146
   15  C   1.12483   0.89297   0.91134   1.02858
   16  C   1.18142   0.98364   0.92479   0.94702
   17  C   1.16211   0.96820   0.93293   1.01988
   18  C   1.17805   0.95513   0.94796   0.97344
   19  C   1.18291   0.99134   0.94948   1.02134
   20  C   1.14225   0.93268   0.79694   0.97857
   21  C   1.18245   0.96810   0.96439   1.03444
   22  C   1.17656   0.97783   0.93646   0.96582
   23  N   1.47812   1.63094   1.06455   1.08379
   24  C   1.15071   0.98385   0.86518   0.89007
   25  C   1.17059   1.05727   0.99787   0.92005
   26  C   1.18024   0.99004   0.92046   0.99841
   27  C   1.14097   1.03264   0.85337   0.88723
   28  C   1.17304   0.99188   0.98550   0.92160
   29  C   1.15705   1.06056   0.92819   0.92730
   30  C   1.15700   1.05964   0.92615   0.93024
   31  C   1.15076   0.99527   0.90062   0.84359
   32  C   1.17076   1.05929   1.00079   0.91342
   33  C   1.18026   0.98926   0.92717   0.99280
   34  C   1.14098   1.03429   0.88668   0.85111
   35  C   1.17307   0.98631   0.99872   0.91524
   36  N   1.47755   1.46532   1.19141   1.12564
   37  C   1.14988   0.94211   0.83515   0.95038
   38  C   1.17179   1.02437   0.98036   0.99815
   39  C   1.17534   0.97902   0.94486   0.95808
   40  C   1.17878   1.00477   0.96647   0.94613
   41  C   1.16998   0.95591   0.93481   0.98293
   42  C   1.15912   1.02691   0.96471   0.94003
   43  C   1.15912   1.02675   0.95271   0.95279
   44  C   1.14990   0.94168   0.95622   0.82910
   45  C   1.17189   1.02269   0.99725   0.98195
   46  C   1.17549   0.97930   0.97119   0.93119
   47  C   1.17882   1.00369   0.95563   0.95786
   48  C   1.16995   0.95670   0.97533   0.94186
   49  C   1.16576   0.92760   0.93586   0.90636
   50  C   1.16146   1.01182   0.98206   1.03087
   51  C   1.16081   1.00790   0.99037   1.02868
   52  C   1.16153   0.99227   1.03377   0.99849
   53  C   1.16576   0.92715   0.90767   0.93493
   54  C   1.16081   1.00787   1.02011   0.99882
   55  C   1.16147   1.01075   1.03074   0.98314
   56  C   1.16152   0.99352   1.00050   1.03079
   57  N   1.47724   1.27794   1.11359   1.38934
   58  C   1.14987   0.87465   0.94928   0.90445
   59  C   1.17137   0.97576   0.99436   1.02969
   60  C   1.17704   0.96945   0.95944   0.95387
   61  C   1.17880   0.97635   0.94435   0.99695
   62  C   1.16842   0.93228   0.98284   0.95703
   63  C   1.15945   0.98415   0.93589   1.01429
   64  C   1.15913   0.97689   0.94853   1.00535
   65  C   1.14992   0.93725   0.82287   0.96925
   66  C   1.17172   0.97995   0.97856   1.04308
   67  C   1.17534   0.98426   0.93030   0.96800
   68  C   1.17878   0.97084   0.95535   0.99052
   69  C   1.16996   0.95471   0.94053   0.97916
   70  C   1.16577   0.93016   0.90596   0.93374
   71  C   1.16148   1.03119   1.02988   0.96355
   72  C   1.16081   0.98583   1.02822   1.01274
   73  C   1.16152   0.99212   1.00061   1.03206
   74  C   1.16567   0.91853   0.93353   0.91774
   75  C   1.16139   1.03275   0.99891   0.99284
   76  C   1.16092   1.03334   0.97489   1.01906
   77  C   1.16134   0.97268   1.03341   1.01877
   78  C   1.20973   0.92827   0.92342   0.92708
   79  N   1.84811   1.11009   1.08633   1.09557
   80  C   1.18045   0.83193   0.84592   0.74131
   81  O   1.91039   1.18772   1.86795   1.40840
   82  O   1.83982   1.48838   1.18107   1.80030
   83  H   0.86451
   84  H   0.87479
   85  H   0.86065
   86  H   0.85842
   87  H   0.86645
   88  H   0.87048
   89  H   0.87933
   90  H   0.86501
   91  H   0.86714
   92  H   0.88556
   93  H   0.87364
   94  H   0.87302
   95  H   0.86614
   96  H   0.87260
   97  H   0.87281
   98  H   0.86625
   99  H   0.87905
  100  H   0.89401
  101  H   0.88872
  102  H   0.87844
  103  H   0.89335
  104  H   0.88882
  105  H   0.93501
  106  H   0.93975
  107  H   0.94157
  108  H   0.93749
  109  H   0.93922
  110  H   0.93816
  111  H   0.94156
  112  H   0.93990
  113  H   0.93594
  114  H   0.93799
  115  H   0.93819
  116  H   0.93927
  117  H   0.93976
  118  H   0.94160
  119  H   0.93565
  120  H   0.93955
  121  H   0.93523
  122  H   0.94158
  123  H   0.87940
  124  H   0.89520
  125  H   0.88731
  126  H   0.87916
  127  H   0.89393
  128  H   0.88873
  129  H   0.93974
  130  H   0.93563
  131  H   0.94162
  132  H   0.93794
  133  H   0.93928
  134  H   0.93819
  135  H   0.93521
  136  H   0.93957
  137  H   0.94159
  138  H   0.94045
  139  H   0.93589
  140  H   0.94131
  141  H   0.93765
  142  H   0.93922
  143  H   0.93778
  144  H   0.93975
  145  H   0.94141
  146  H   0.93492
  147  H   0.75371
 ******************** TDHF POLARIZABILITIES ********************



          MOLECULAR WEIGHT = 1108.47



          ROTATIONAL CONSTANTS IN CM(-1)

          A =    0.00064861   B =    0.00021859   C =    0.00017624



           PRINCIPAL MOMENTS OF INERTIA IN UNITS OF 10**(-40)*GRAM-CM**2

          A =    43158.1610   B =   128058.3048   C =   158832.1702


 ROTATION MATRIX FOR ORIENTATION OF MOLECULE:

         0.055899   -0.206961   -0.976751
         0.997650   -0.027235    0.062866
        -0.039613   -0.977970    0.204952


          CARTESIAN COORDINATES 

    NO.       ATOM         X         Y         Z

     1         N       16.1277    1.4939    1.7276
     2         C       16.0997    0.7771    0.8207
     3         C       16.0844   -0.0887   -0.3014
     4         C       14.9471   -0.5087   -0.8884
     5         C       13.6403   -0.1690   -0.4039
     6         C       13.2508   -0.0484    0.9032
     7         C       11.8646    0.2847    1.0176
     8         C       11.2648    0.4017   -0.2065
     9         S       12.3492    0.0997   -1.4931
    10         C        9.8980    0.7350   -0.4556
    11         C        9.4383    1.6855   -1.3254
    12         C        8.0101    1.7618   -1.3225
    13         C        7.4537    0.8653   -0.4518
    14         S        8.6282   -0.0662    0.3625
    15         C        6.0372    0.6922   -0.2333
    16         C        5.1456    0.7897   -1.2319
    17         C        3.7108    0.6568   -1.0243
    18         C        3.0703    1.3927   -0.0304
    19         C        1.7012    1.2649    0.1594
    20         C        0.9758    0.4000   -0.6647
    21         C        1.6102   -0.3334   -1.6730
    22         C        2.9791   -0.1991   -1.8465
    23         N       -0.4195    0.2673   -0.4808
    24         C       -1.3443    1.3260   -0.3789
    25         C       -1.1342    2.6998   -0.4614
    26         C       -2.2398    3.5250   -0.3455
    27         C       -3.5242    2.9853   -0.1448
    28         C       -3.7447    1.6095   -0.0724
    29         C       -2.6446    0.7800   -0.2040
    30         C       -2.5075   -0.6553   -0.1990
    31         C       -1.1272   -0.9466   -0.3695
    32         C       -0.6518   -2.2551   -0.3734
    33         C       -1.5796   -3.2740   -0.2399
    34         C       -2.9481   -2.9862   -0.0796
    35         C       -3.4290   -1.6767   -0.0468
    36         N       -3.8591   -4.0597    0.0540
    37         C       -5.0569   -4.2209   -0.6708
    38         C       -5.5954   -3.4476   -1.6902
    39         C       -6.8029   -3.8604   -2.2380
    40         C       -7.4684   -5.0117   -1.8005
    41         C       -6.9089   -5.7898   -0.7877
    42         C       -5.7073   -5.4019   -0.2237
    43         C       -4.8814   -5.9771    0.8104
    44         C       -3.7537   -5.1278    0.9676
    45         C       -2.7814   -5.3964    1.9214
    46         C       -2.9401   -6.5392    2.6943
    47         C       -4.0332   -7.4003    2.5411
    48         C       -5.0140   -7.1089    1.5940
    49         C       -4.2040   -8.6456    3.3721
    50         C       -5.5062   -8.5327    4.1701
    51         C       -3.0632   -8.8759    4.3650
    52         C       -4.2646   -9.8589    2.4392
    53         C       -8.7833   -5.4572   -2.3862
    54         C       -9.3041   -4.5312   -3.4869
    55         C       -8.6088   -6.8534   -2.9912
    56         C       -9.8327   -5.4968   -1.2713
    57         N       -4.6223    3.8682   -0.0208
    58         C       -4.7028    4.9705    0.8527
    59         C       -3.7832    5.4437    1.7824
    60         C       -4.1430    6.5616    2.5172
    61         C       -5.3806    7.2064    2.3550
    62         C       -6.2988    6.7133    1.4362
    63         C       -5.9652    5.5960    0.6865
    64         C       -6.6821    4.8477   -0.3173
    65         C       -5.8331    3.7891   -0.7369
    66         C       -6.2306    2.8992   -1.7260
    67         C       -7.4963    3.0701   -2.2702
    68         C       -8.3555    4.0965   -1.8588
    69         C       -7.9385    4.9942   -0.8775
    70         C       -9.7328    4.2799   -2.4421
    71         C       -9.8136    5.6631   -3.0948
    72         C      -10.0875    3.2384   -3.5049
    73         C      -10.7652    4.1707   -1.3160
    74         C       -5.6588    8.4175    3.2068
    75         C       -4.5885    9.4775    2.9305
    76         C       -7.0248    9.0481    2.9287
    77         C       -5.6215    8.0056    4.6812
    78         C        5.6379    0.4000    1.1024
    79         N        5.3263    0.1573    2.1893
    80         C       17.3813   -0.5098   -0.8507
    81         O       17.5593   -1.1976   -1.8457
    82         O       18.4422   -0.0679   -0.1470
    83         H       14.9862   -1.1418   -1.7888
    84         H        5.4700    0.9660   -2.2646
    85         H       13.8866   -0.2042    1.7732
    86         H       11.3720    0.4353    1.9759
    87         H       10.0624    2.3262   -1.9440
    88         H        7.4577    2.4685   -1.9374
    89         H        3.6390    2.0816    0.6031
    90         H        1.2073    1.8241    0.9613
    91         H        1.0371   -0.9944   -2.3317
    92         H        3.4848   -0.7693   -2.6326
    93         H       -0.1396    3.1183   -0.6315
    94         H       -2.1097    4.6103   -0.4239
    95         H       -4.7411    1.1881    0.0900
    96         H        0.4136   -2.4772   -0.4687
    97         H       -1.2398   -4.3155   -0.2668
    98         H       -4.4885   -1.4502    0.1043
    99         H       -5.0865   -2.5547   -2.0593
   100         H       -7.2131   -3.2378   -3.0381
   101         H       -7.3862   -6.7019   -0.4198
   102         H       -1.9297   -4.7299    2.0731
   103         H       -2.1641   -6.7350    3.4397
   104         H       -5.8916   -7.7440    1.4466
   105         H       -5.5154   -7.6384    4.8094
   106         H       -6.4000   -8.4731    3.5340
   107         H       -5.6618   -9.3988    4.8299
   108         H       -2.9708   -8.0619    5.0983
   109         H       -3.2129   -9.7941    4.9534
   110         H       -2.0893   -8.9920    3.8683
   111         H       -4.3388  -10.8044    2.9962
   112         H       -5.1282   -9.8408    1.7603
   113         H       -3.3685   -9.9305    1.8065
   114         H       -9.4833   -3.5079   -3.1273
   115         H       -8.6203   -4.4703   -4.3456
   116         H      -10.2661   -4.8800   -3.8929
   117         H       -8.3455   -7.6179   -2.2474
   118         H       -9.5286   -7.2098   -3.4777
   119         H       -7.8170   -6.8703   -3.7535
   120         H       -9.5987   -6.2240   -0.4817
   121         H       -9.9387   -4.5202   -0.7777
   122         H      -10.8275   -5.7727   -1.6508
   123         H       -2.8230    4.9485    1.9397
   124         H       -3.4190    6.9361    3.2485
   125         H       -7.2816    7.1600    1.2705
   126         H       -5.5713    2.1017   -2.0749
   127         H       -7.7935    2.3589   -3.0461
   128         H       -8.5700    5.8168   -0.5314
   129         H       -9.6848    6.4874   -2.3801
   130         H       -9.0429    5.7937   -3.8677
   131         H      -10.7856    5.8336   -3.5806
   132         H      -10.0784    2.2126   -3.1095
   133         H      -11.0990    3.3959   -3.9096
   134         H       -9.4098    3.2706   -4.3700
   135         H      -10.6918    3.2088   -0.7889
   136         H      -10.6600    4.9552   -0.5541
   137         H      -11.7957    4.2513   -1.6920
   138         H       -3.5763    9.1552    3.2106
   139         H       -4.5495    9.7481    1.8658
   140         H       -4.7743   10.4064    3.4896
   141         H       -7.8571    8.3611    3.1382
   142         H       -7.2013    9.9345    3.5571
   143         H       -7.1266    9.3903    1.8889
   144         H       -4.6372    7.6394    5.0039
   145         H       -5.8664    8.8440    5.3496
   146         H       -6.3415    7.2036    4.8978
   147         H       19.2732   -0.3661   -0.5450


 ENERGY OF "REORIENTED" SYSTEM WITHOUT FIELD:      156.4148665579


  NFREQ=  3  IWFLB=  0  IBET=  1  IGAM=  1
  ATOL= 0.10000D-02  BTOL= 0.10000D-02    MAXITU=  500    MAXITA=  150


 *****************************************************************
 CALCULATION OF STATIC FIELD QUANTITIES
 *****************************************************************

 +++++ ALPHA AT       0.00000 EV.

                           COMPONENTS OF ALPHA

                     *X           *Y           *Z
           *=X:    1192.2492      -2.6681     116.1741
           *=Y:      -2.6678     775.5377      20.0226
           *=Z:     116.1992      20.0204     581.3164

  ISOTROPIC AVERAGE ALPHA =     849.70110 A.U. =    125.91271 ANG.**3

 +++++ BETA (SECOND HARMONIC GENERATION) AT       0.00000 EV.

                              COMPONENTS OF BETA
            *XX         *XY         *YY         *XZ         *YZ         *ZZ
   *=X -6765.36412   276.43492   154.15966  1553.63653   213.64204   477.51224
   *=Y   276.35600   154.17527  -154.97840   213.62661  -931.06018   -21.22237
   *=Z  1553.57616   213.70458  -931.26992   477.72768   -21.22442  -253.90691


 AVERAGE BETAX(SHG) VALUE AT   0.00000 EV =      -3680.1229 a.u. = -0.317941E-28 ESU
 AVERAGE BETAY(SHG) VALUE AT   0.00000 EV =         60.1239 a.u. =  0.519435E-30 ESU
 AVERAGE BETAZ(SHG) VALUE AT   0.00000 EV =        221.1476 a.u. =  0.191059E-29 ESU



 AVERAGE BETA (SHG) VALUE AT   0.00000 EV =       3687.2518 a.u. =  0.318557E-28 ESU
   (1 a.u. = 8.639418X10-33 esu)



 +++++ ALPHA AT       0.00000 EV.

                           COMPONENTS OF ALPHA

                     *X           *Y           *Z
           *=X:    1192.2492      -2.6681     116.1741
           *=Y:      -2.6678     775.5377      20.0226
           *=Z:     116.1992      20.0204     581.3164

  ISOTROPIC AVERAGE ALPHA =     849.70110 A.U. =    125.91271 ANG.**3


 GAMMA (THIRD HARMONIC GENERATION) AT    0.00000 EV.


 GAMMA(X,X,X,X) =       3976273.01669
 GAMMA(Y,Y,Y,Y) =        630939.54169
 GAMMA(Z,Z,Z,Z) =         79461.87109
 GAMMA(X,X,Y,Y) =        263416.19865
 GAMMA(X,X,Z,Z) =         28596.04580
 GAMMA(Y,Y,X,X) =        263416.10564
 GAMMA(Y,Y,Z,Z) =         69071.43456
 GAMMA(Z,Z,X,X) =         28595.49899
 GAMMA(Z,Z,Y,Y) =         69071.68367


 AVERAGE GAMMA VALUE AT    0.00000 =       1081768.27936 a.u. =       544854.50835 ESU (X10-39)




 **********************************************************************
 CALCULATION FOR A FREQUENCY OF    0.25000 EV  =       0.00919 A.U. 
                  WAVELENGTH OF    4959.37 NM  =    2016.38525 CM(-1)
 **********************************************************************

 +++++ ALPHA AT       0.25000 EV.

                           COMPONENTS OF ALPHA

                     *X           *Y           *Z
           *=X:    1197.0274      -2.6888     116.6126
           *=Y:      -2.6886     777.4888      20.0234
           *=Z:     116.6338      20.0216     582.2860

  ISOTROPIC AVERAGE ALPHA =     852.26741 A.U. =    126.29300 ANG.**3

 +++++ BETA (SECOND HARMONIC GENERATION) AT       0.25000 EV.

                              COMPONENTS OF BETA
            *XX         *XY         *YY         *XZ         *YZ         *ZZ
   *=X -7122.32214   287.27090   161.24862  1602.03568   219.53846   492.46250
   *=Y   268.32104   152.57558  -159.69541   218.12522  -951.75226   -21.23896
   *=Z  1581.61191   219.67456  -950.54092   488.42924   -21.24482  -260.08185


 AVERAGE BETAX(SHG) VALUE AT   0.25000 EV =      -3886.2491 a.u. = -0.335749E-28 ESU
 AVERAGE BETAY(SHG) VALUE AT   0.25000 EV =         60.0096 a.u. =  0.518448E-30 ESU
 AVERAGE BETAZ(SHG) VALUE AT   0.25000 EV =        230.2785 a.u. =  0.198947E-29 ESU



 AVERAGE BETA (SHG) VALUE AT   0.25000 EV =       3893.5282 a.u. =  0.336378E-28 ESU
   (1 a.u. = 8.639418X10-33 esu)



 +++++ ALPHA AT       0.75000 EV.

                           COMPONENTS OF ALPHA

                     *X           *Y           *Z
           *=X:    1237.7997      -2.8652     120.2362
           *=Y:      -2.8650     793.7386      20.0244
           *=Z:     120.2676      20.0221     590.2353

  ISOTROPIC AVERAGE ALPHA =     873.92455 A.U. =    129.50226 ANG.**3


 GAMMA (THIRD HARMONIC GENERATION) AT    0.25000 EV.


 GAMMA(X,X,X,X) =       4411293.22015
 GAMMA(Y,Y,Y,Y) =        680367.29699
 GAMMA(Z,Z,Z,Z) =         83086.15655
 GAMMA(X,X,Y,Y) =        286834.57644
 GAMMA(X,X,Z,Z) =         28688.37055
 GAMMA(Y,Y,X,X) =        285847.85042
 GAMMA(Y,Y,Z,Z) =         73089.07591
 GAMMA(Z,Z,X,X) =         30788.97485
 GAMMA(Z,Z,Y,Y) =         72489.74028


 AVERAGE GAMMA VALUE AT    0.25000 =       1190497.05243 a.u. =       599617.95753 ESU (X10-39)




 **********************************************************************
 CALCULATION FOR A FREQUENCY OF    0.50000 EV  =       0.01837 A.U. 
                  WAVELENGTH OF    2479.68 NM  =    4032.77050 CM(-1)
 **********************************************************************

 +++++ ALPHA AT       0.50000 EV.

                           COMPONENTS OF ALPHA

                     *X           *Y           *Z
           *=X:    1211.7596      -2.7527     117.9396
           *=Y:      -2.7525     783.4445      20.0257
           *=Z:     117.9629      20.0239     585.2221

  ISOTROPIC AVERAGE ALPHA =     860.14206 A.U. =    127.45990 ANG.**3

 +++++ BETA (SECOND HARMONIC GENERATION) AT       0.50000 EV.

                              COMPONENTS OF BETA
            *XX         *XY         *YY         *XZ         *YZ         *ZZ
   *=X -8387.00007   325.31320   187.12206  1767.04702   239.47900   543.13314
   *=Y   237.29165   145.18324  -175.81016   232.58670 -1019.19522   -21.28551
   *=Z  1669.38202   239.61219 -1012.69065   523.07896   -21.33738  -280.09253


 AVERAGE BETAX(SHG) VALUE AT   0.50000 EV =      -4618.8441 a.u. = -0.399041E-28 ESU
 AVERAGE BETAY(SHG) VALUE AT   0.50000 EV =         59.3055 a.u. =  0.512365E-30 ESU
 AVERAGE BETAZ(SHG) VALUE AT   0.50000 EV =        262.4235 a.u. =  0.226719E-29 ESU



 AVERAGE BETA (SHG) VALUE AT   0.50000 EV =       4626.6731 a.u. =  0.399718E-28 ESU
   (1 a.u. = 8.639418X10-33 esu)



 +++++ ALPHA AT       1.50000 EV.

                           COMPONENTS OF ALPHA

                     *X           *Y           *Z
           *=X:    1424.1014      -3.6298     135.1452
           *=Y:      -3.6297     859.4730      19.8465
           *=Z:     135.1936      19.8438     620.3868

  ISOTROPIC AVERAGE ALPHA =     967.98708 A.U. =    143.44088 ANG.**3


 GAMMA (THIRD HARMONIC GENERATION) AT    0.50000 EV.


 GAMMA(X,X,X,X) =       6342016.48264
 GAMMA(Y,Y,Y,Y) =        876317.33977
 GAMMA(Z,Z,Z,Z) =         95819.54729
 GAMMA(X,X,Y,Y) =        384617.13917
 GAMMA(X,X,Z,Z) =         26474.56765
 GAMMA(Y,Y,X,X) =        378182.87996
 GAMMA(Y,Y,Z,Z) =         88100.78983
 GAMMA(Z,Z,X,X) =         38940.94608
 GAMMA(Z,Z,Y,Y) =         84724.13368


 AVERAGE GAMMA VALUE AT    0.50000 =       1663038.76521 a.u. =       837623.16392 ESU (X10-39)



 **********************
 *                    *
 * JOB ENDED NORMALLY *
 *                    *
 **********************



 TOTAL JOB TIME:          1422.88 SECONDS

 == MOPAC DONE ==
