 *******************************************************************************
 ** Site#: 4824         For non-commercial use only    Version 21.013L 64BITS **
 *******************************************************************************
 ** Cite this program as: MOPAC2016, Version: 21.013L, James J. P. Stewart,   **
 ** Stewart Computational Chemistry, web: HTTP://OpenMOPAC.net. Days left:  87**
 *******************************************************************************
 **                                                                           **
 **                                MOPAC2016                                  **
 **                                                                           **
 *******************************************************************************

                              RM1 CALCULATION RESULTS

 *******************************************************************************
 *  CALCULATION DONE:                                Mon Oct 18 17:23:28 2021  *
 *  RM1        - The RM1 Hamiltonian to be used
 *  POLAR      - CALCULATE FIRST, SECOND AND THIRD-ORDER POLARIZABILITIES
 *  PRECISE    - TIGHTER CRITERIA TO BE USED
 *  XYZ        - CARTESIAN COORDINATE SYSTEM TO BE USED
 *  T=         - A TIME OF 172800.0 SECONDS REQUESTED
 *  DUMP=N     - RESTART FILE WRITTEN EVERY 7200.0 SECONDS REQUESTED
 *  GNORM      - EXIT WHEN GRADIENT NORM DROPS BELOW 0.100
 *******************************************************************************
RM1 PRECISE POLAR XYZ GNORM=0.1


   ATOM   CHEMICAL          X               Y               Z
  NUMBER   SYMBOL      (ANGSTROMS)     (ANGSTROMS)     (ANGSTROMS)
 
     1       C          0.00000000  *   0.00000000  *   0.00000000  *
     2       C          1.52950488  *   0.00000000  *   0.00000000  *
     3       C          2.07841088  *   1.42704084  *   0.00000000  *
     4       C          3.60801931  *   1.42003659  *   0.00533400  *
     5       C          4.16040563  *   2.84692269  *   0.04622373  *
     6       C          5.68838894  *   2.83661450  *   0.09303589  *
     7       C          6.27806600  *   4.23214693  *   0.30162047  *
     8       C          6.18479587  *   5.11042890  *  -0.96315555  *
     9       N          6.72299823  *   6.43958295  *  -0.67995377  *
    10       C          8.05724253  *   6.81514340  *  -0.96051284  *
    11       C          9.14013032  *   6.02516440  *  -1.29388706  *
    12       C         10.36171758  *   6.65630820  *  -1.53910470  *
    13       C         10.47375366  *   8.03569258  *  -1.44649413  *
    14       C          9.37138157  *   8.83080904  *  -1.10049514  *
    15       C          8.17572098  *   8.20756545  *  -0.84713182  *
    16       C          6.87290166  *   8.72242055  *  -0.49267292  *
    17       C          5.99481460  *   7.60141992  *  -0.40879895  *
    18       C          4.66779558  *   7.80687513  *  -0.05760899  *
    19       C          3.58929058  *   6.90119251  *   0.14976893  *
    20       C          2.41119480  *   7.51014187  *   0.39501463  *
    21       S          2.60171308  *   9.28183630  *   0.44538217  *
    22       C          4.24534165  *   9.12695087  *   0.11330212  *
    23       C          5.10251273  *  10.21079022  *   0.01523403  *
    24       C          6.44107949  *  10.01765205  *  -0.26300687  *
    25       C          7.32794333  *  11.18059186  *  -0.30937504  *
    26       C          7.37335124  *  11.98903937  *  -1.42508599  *
    27       C          8.20012009  *  13.11774350  *  -1.43288163  *
    28       C          8.96015471  *  13.42124992  *  -0.31675839  *
    29       C          8.91126718  *  12.59958464  *   0.81903973  *
    30       C          8.10547383  *  11.47760017  *   0.82473094  *
    31       C          1.16033931  *   6.91744407  *   0.63034116  *
    32       C         -0.03906540  *   7.49044432  *   0.30855687  *
    33       C         -1.15245422  *   6.76070534  *   0.78065071  *
    34       C         -0.77952233  *   5.64624957  *   1.45561794  *
    35       S          0.88494072  *   5.40915091  *   1.53819157  *
    36       C         -1.63992421  *   4.77323752  *   2.16363924  *
    37       C         -1.34055372  *   3.58829295  *   2.74389648  *
    38       C         -2.44185920  *   3.01830479  *   3.42358436  *
    39       C         -3.56362731  *   3.78164179  *   3.35347035  *
    40       S         -3.23211378  *   5.24445011  *   2.40475566  *
    41       C         -4.84264558  *   3.55132931  *   3.94671972  *
    42       C         -5.69291117  *   2.62139255  *   3.47498578  *
    43       C         -7.03356185  *   2.43834281  *   4.04339487  *
    44       O         -7.79598431  *   1.59049135  *   3.61747479  *
    45       O         -7.44593138  *   3.25327555  *   5.00979951  *
    46       C         -5.34618647  *   1.79699977  *   2.37911720  *
    47       N         -5.06290152  *   1.12637880  *   1.48690127  *
    48       H         -5.13314411  *   4.21065851  *   4.77946373  *
    49       H         -0.38542522  *   0.50396214  *  -0.89570660  *
    50       H         -0.37513420  *  -1.03181741  *   0.00727702  *
    51       H         -0.38629122  *   0.51669130  *   0.88822993  *
    52       H          1.89146913  *  -0.54223091  *   0.89603405  *
    53       H          1.89355308  *  -0.54253657  *  -0.89480302  *
    54       H          1.70705526  *   1.96550300  *  -0.89385358  *
    55       H          1.70926350  *   1.96080166  *   0.89809158  *
    56       H          3.97501363  *   0.85018431  *   0.88187205  *
    57       H          3.98638016  *   0.90896203  *  -0.90172878  *
    58       H          3.79931053  *   3.40292912  *  -0.84064955  *
    59       H          3.75697827  *   3.36699706  *   0.93801298  *
    60       H          6.02213763  *   2.18364441  *   0.92497104  *
    61       H          6.09644781  *   2.40238905  *  -0.84069981  *
    62       H          5.78204479  *   4.72217064  *   1.16346618  *
    63       H          7.34508217  *   4.12081902  *   0.58782886  *
    64       H          6.75499154  *   4.62964366  *  -1.79136272  *
    65       H          5.13322948  *   5.20379441  *  -1.31282834  *
    66       H          9.06008775  *   4.93729690  *  -1.36924761  *
    67       H         11.23133539  *   6.04807521  *  -1.80871650  *
    68       H         11.43197240  *   8.52668882  *  -1.64376504  *
    69       H          9.48501496  *   9.91833830  *  -1.04541816  *
    70       H          3.71756942  *   5.81662523  *   0.11265893  *
    71       H          4.73786335  *  11.23413141  *   0.15605464  *
    72       H          6.76650262  *  11.76017635  *  -2.30778320  *
    73       H          8.23593006  *  13.75230818  *  -2.32448413  *
    74       H          9.60777834  *  14.30425537  *  -0.30734885  *
    75       H          9.51454626  *  12.85540923  *   1.69618577  *
    76       H          8.06338250  *  10.83344309  *   1.71227480  *
    77       H         -0.12281910  *   8.44402686  *  -0.21826185  *
    78       H         -2.17024611  *   7.13172366  *   0.63917295  *
    79       H         -0.34786197  *   3.13493974  *   2.70055975  *
    80       H         -2.35705189  *   2.06797913  *   3.95527274  *
    81       H         -8.34036818  *   3.14811146  *   5.36226600  *
 


          CARTESIAN COORDINATES 

    NO.       ATOM           X           Y           Z

     1         C          0.0000      0.0000      0.0000
     2         C          1.5295      0.0000      0.0000
     3         C          2.0784      1.4270      0.0000
     4         C          3.6080      1.4200      0.0053
     5         C          4.1604      2.8469      0.0462
     6         C          5.6884      2.8366      0.0930
     7         C          6.2781      4.2321      0.3016
     8         C          6.1848      5.1104     -0.9632
     9         N          6.7230      6.4396     -0.6800
    10         C          8.0572      6.8151     -0.9605
    11         C          9.1401      6.0252     -1.2939
    12         C         10.3617      6.6563     -1.5391
    13         C         10.4738      8.0357     -1.4465
    14         C          9.3714      8.8308     -1.1005
    15         C          8.1757      8.2076     -0.8471
    16         C          6.8729      8.7224     -0.4927
    17         C          5.9948      7.6014     -0.4088
    18         C          4.6678      7.8069     -0.0576
    19         C          3.5893      6.9012      0.1498
    20         C          2.4112      7.5101      0.3950
    21         S          2.6017      9.2818      0.4454
    22         C          4.2453      9.1270      0.1133
    23         C          5.1025     10.2108      0.0152
    24         C          6.4411     10.0177     -0.2630
    25         C          7.3279     11.1806     -0.3094
    26         C          7.3734     11.9890     -1.4251
    27         C          8.2001     13.1177     -1.4329
    28         C          8.9602     13.4212     -0.3168
    29         C          8.9113     12.5996      0.8190
    30         C          8.1055     11.4776      0.8247
    31         C          1.1603      6.9174      0.6303
    32         C         -0.0391      7.4904      0.3086
    33         C         -1.1525      6.7607      0.7807
    34         C         -0.7795      5.6462      1.4556
    35         S          0.8849      5.4092      1.5382
    36         C         -1.6399      4.7732      2.1636
    37         C         -1.3406      3.5883      2.7439
    38         C         -2.4419      3.0183      3.4236
    39         C         -3.5636      3.7816      3.3535
    40         S         -3.2321      5.2445      2.4048
    41         C         -4.8426      3.5513      3.9467
    42         C         -5.6929      2.6214      3.4750
    43         C         -7.0336      2.4383      4.0434
    44         O         -7.7960      1.5905      3.6175
    45         O         -7.4459      3.2533      5.0098
    46         C         -5.3462      1.7970      2.3791
    47         N         -5.0629      1.1264      1.4869
    48         H         -5.1331      4.2107      4.7795
    49         H         -0.3854      0.5040     -0.8957
    50         H         -0.3751     -1.0318      0.0073
    51         H         -0.3863      0.5167      0.8882
    52         H          1.8915     -0.5422      0.8960
    53         H          1.8936     -0.5425     -0.8948
    54         H          1.7071      1.9655     -0.8939
    55         H          1.7093      1.9608      0.8981
    56         H          3.9750      0.8502      0.8819
    57         H          3.9864      0.9090     -0.9017
    58         H          3.7993      3.4029     -0.8406
    59         H          3.7570      3.3670      0.9380
    60         H          6.0221      2.1836      0.9250
    61         H          6.0964      2.4024     -0.8407
    62         H          5.7820      4.7222      1.1635
    63         H          7.3451      4.1208      0.5878
    64         H          6.7550      4.6296     -1.7914
    65         H          5.1332      5.2038     -1.3128
    66         H          9.0601      4.9373     -1.3692
    67         H         11.2313      6.0481     -1.8087
    68         H         11.4320      8.5267     -1.6438
    69         H          9.4850      9.9183     -1.0454
    70         H          3.7176      5.8166      0.1127
    71         H          4.7379     11.2341      0.1561
    72         H          6.7665     11.7602     -2.3078
    73         H          8.2359     13.7523     -2.3245
    74         H          9.6078     14.3043     -0.3073
    75         H          9.5145     12.8554      1.6962
    76         H          8.0634     10.8334      1.7123
    77         H         -0.1228      8.4440     -0.2183
    78         H         -2.1702      7.1317      0.6392
    79         H         -0.3479      3.1349      2.7006
    80         H         -2.3571      2.0680      3.9553
    81         H         -8.3404      3.1481      5.3623

  H: (RM1): G.B. ROCHA, R.O. FREIRE, A.M.SIMAS, J.J.P. STEWART, J. COMP. CHEM. 27, 1101 (2006)
  C: (RM1): G.B. ROCHA, R.O. FREIRE, A.M.SIMAS, J.J.P. STEWART, J. COMP. CHEM. 27, 1101 (2006)
  N: (RM1): G.B. ROCHA, R.O. FREIRE, A.M.SIMAS, J.J.P. STEWART, J. COMP. CHEM. 27, 1101 (2006)
  O: (RM1): G.B. ROCHA, R.O. FREIRE, A.M.SIMAS, J.J.P. STEWART, J. COMP. CHEM. 27, 1101 (2006)
  S: (RM1): G.B. ROCHA, R.O. FREIRE, A.M.SIMAS, J.J.P. STEWART, J. COMP. CHEM. 27, 1101 (2006)

           Empirical Formula: C40 H34 N2 O2 S3  =    81 atoms



      MOLECULAR POINT GROUP   :   C1  


      RHF CALCULATION, NO. OF DOUBLY OCCUPIED LEVELS = 117


          Geometry optimization using L-BFGS
 CYCLE:     1 TIME:   0.309 TIME LEFT:  2.00D  GRAD.:   146.018 HEAT:  97.10404
 CYCLE:     2 TIME:   0.168 TIME LEFT:  2.00D  GRAD.:   143.255 HEAT:  96.89278
 CYCLE:     3 TIME:   0.191 TIME LEFT:  2.00D  GRAD.:    58.494 HEAT:  89.18397
 CYCLE:     4 TIME:   0.230 TIME LEFT:  2.00D  GRAD.:   143.716 HEAT:  96.89287
 CYCLE:     5 TIME:   0.199 TIME LEFT:  2.00D  GRAD.:    58.651 HEAT:  89.18047
 CYCLE:     6 TIME:   0.172 TIME LEFT:  2.00D  GRAD.:   103.423 HEAT:  88.58252
 CYCLE:     7 TIME:   0.145 TIME LEFT:  2.00D  GRAD.:    46.564 HEAT:  87.65871
 CYCLE:     8 TIME:   0.148 TIME LEFT:  2.00D  GRAD.:    30.611 HEAT:  87.08206
 CYCLE:     9 TIME:   0.160 TIME LEFT:  2.00D  GRAD.:    32.462 HEAT:  86.70021
 CYCLE:    10 TIME:   0.188 TIME LEFT:  2.00D  GRAD.:    27.836 HEAT:  86.12072
 CYCLE:    11 TIME:   0.152 TIME LEFT:  2.00D  GRAD.:    67.023 HEAT:  86.28749
 CYCLE:    12 TIME:   0.148 TIME LEFT:  2.00D  GRAD.:    11.713 HEAT:  85.75892
 CYCLE:    13 TIME:   0.145 TIME LEFT:  2.00D  GRAD.:     8.885 HEAT:  85.71617
 CYCLE:    14 TIME:   0.141 TIME LEFT:  2.00D  GRAD.:     8.498 HEAT:  85.63093
 CYCLE:    15 TIME:   0.145 TIME LEFT:  2.00D  GRAD.:     7.960 HEAT:  85.56351
 CYCLE:    16 TIME:   0.164 TIME LEFT:  2.00D  GRAD.:    22.667 HEAT:  85.55928
 CYCLE:    17 TIME:   0.156 TIME LEFT:  2.00D  GRAD.:     6.401 HEAT:  85.47270
 CYCLE:    18 TIME:   0.160 TIME LEFT:  2.00D  GRAD.:     5.719 HEAT:  85.45001
 CYCLE:    19 TIME:   0.148 TIME LEFT:  2.00D  GRAD.:     7.355 HEAT:  85.39094
 CYCLE:    20 TIME:   0.141 TIME LEFT:  2.00D  GRAD.:     9.999 HEAT:  85.33017
 CYCLE:    21 TIME:   0.152 TIME LEFT:  2.00D  GRAD.:    13.793 HEAT:  85.28572
 CYCLE:    22 TIME:   0.148 TIME LEFT:  2.00D  GRAD.:     8.868 HEAT:  85.23247
 CYCLE:    23 TIME:   0.152 TIME LEFT:  2.00D  GRAD.:     8.077 HEAT:  85.19895
 CYCLE:    24 TIME:   0.137 TIME LEFT:  2.00D  GRAD.:     8.748 HEAT:  85.16222
 CYCLE:    25 TIME:   0.133 TIME LEFT:  2.00D  GRAD.:    10.507 HEAT:  85.10418
 CYCLE:    26 TIME:   0.160 TIME LEFT:  2.00D  GRAD.:     7.578 HEAT:  85.04834
 CYCLE:    27 TIME:   0.172 TIME LEFT:  2.00D  GRAD.:    10.368 HEAT:  85.00316
 CYCLE:    28 TIME:   0.184 TIME LEFT:  2.00D  GRAD.:    10.115 HEAT:  84.95095
 CYCLE:    29 TIME:   0.184 TIME LEFT:  2.00D  GRAD.:     8.963 HEAT:  84.88642
 CYCLE:    30 TIME:   0.176 TIME LEFT:  2.00D  GRAD.:    16.446 HEAT:  84.81636
 CYCLE:    31 TIME:   0.164 TIME LEFT:  2.00D  GRAD.:     8.597 HEAT:  84.73868
 CYCLE:    32 TIME:   0.141 TIME LEFT:  2.00D  GRAD.:     9.069 HEAT:  84.68758
 CYCLE:    33 TIME:   0.168 TIME LEFT:  2.00D  GRAD.:    10.595 HEAT:  84.58694
 CYCLE:    34 TIME:   0.152 TIME LEFT:  2.00D  GRAD.:    24.290 HEAT:  84.55760
 CYCLE:    35 TIME:   0.168 TIME LEFT:  2.00D  GRAD.:     8.197 HEAT:  84.45518
 CYCLE:    36 TIME:   0.156 TIME LEFT:  2.00D  GRAD.:     6.261 HEAT:  84.41030
 CYCLE:    37 TIME:   0.152 TIME LEFT:  2.00D  GRAD.:     7.967 HEAT:  84.35070
 CYCLE:    38 TIME:   0.160 TIME LEFT:  2.00D  GRAD.:    24.603 HEAT:  84.30469
 CYCLE:    39 TIME:   0.152 TIME LEFT:  2.00D  GRAD.:    11.336 HEAT:  84.22792
 CYCLE:    40 TIME:   0.156 TIME LEFT:  2.00D  GRAD.:     8.256 HEAT:  84.16697
 CYCLE:    41 TIME:   0.160 TIME LEFT:  2.00D  GRAD.:     9.418 HEAT:  84.11749
 CYCLE:    42 TIME:   0.145 TIME LEFT:  2.00D  GRAD.:    11.466 HEAT:  84.05301
 CYCLE:    43 TIME:   0.152 TIME LEFT:  2.00D  GRAD.:    14.822 HEAT:  83.98805
 CYCLE:    44 TIME:   0.156 TIME LEFT:  2.00D  GRAD.:     8.046 HEAT:  83.92611
 CYCLE:    45 TIME:   0.137 TIME LEFT:  2.00D  GRAD.:     7.674 HEAT:  83.89602
 CYCLE:    46 TIME:   0.133 TIME LEFT:  2.00D  GRAD.:     8.802 HEAT:  83.84547
 CYCLE:    47 TIME:   0.152 TIME LEFT:  2.00D  GRAD.:    16.256 HEAT:  83.80049
 CYCLE:    48 TIME:   0.152 TIME LEFT:  2.00D  GRAD.:     7.958 HEAT:  83.74627
 CYCLE:    49 TIME:   0.152 TIME LEFT:  2.00D  GRAD.:     7.754 HEAT:  83.70204
 CYCLE:    50 TIME:   0.184 TIME LEFT:  2.00D  GRAD.:     9.512 HEAT:  83.66082
 CYCLE:    51 TIME:   0.191 TIME LEFT:  2.00D  GRAD.:    10.406 HEAT:  83.56330
 CYCLE:    52 TIME:   0.184 TIME LEFT:  2.00D  GRAD.:    34.828 HEAT:  83.61025
 CYCLE:    53 TIME:   0.133 TIME LEFT:  2.00D  GRAD.:     9.622 HEAT:  83.45434
 CYCLE:    54 TIME:   0.156 TIME LEFT:  2.00D  GRAD.:     6.143 HEAT:  83.41610
 CYCLE:    55 TIME:   0.176 TIME LEFT:  2.00D  GRAD.:    10.256 HEAT:  83.36367
 CYCLE:    56 TIME:   0.188 TIME LEFT:  2.00D  GRAD.:    14.389 HEAT:  83.31440
 CYCLE:    57 TIME:   0.168 TIME LEFT:  2.00D  GRAD.:     9.987 HEAT:  83.25136
 CYCLE:    58 TIME:   0.176 TIME LEFT:  2.00D  GRAD.:     9.369 HEAT:  83.17006
 CYCLE:    59 TIME:   0.160 TIME LEFT:  2.00D  GRAD.:    18.980 HEAT:  83.15484
 CYCLE:    60 TIME:   0.164 TIME LEFT:  2.00D  GRAD.:     8.369 HEAT:  83.10860
 CYCLE:    61 TIME:   0.156 TIME LEFT:  2.00D  GRAD.:     6.529 HEAT:  83.06781
 CYCLE:    62 TIME:   0.145 TIME LEFT:  2.00D  GRAD.:     9.861 HEAT:  83.01369
 CYCLE:    63 TIME:   0.176 TIME LEFT:  2.00D  GRAD.:    10.023 HEAT:  82.95315
 CYCLE:    64 TIME:   0.168 TIME LEFT:  2.00D  GRAD.:    34.120 HEAT:  83.01472
 CYCLE:    65 TIME:   0.523 TIME LEFT:  2.00D  GRAD.:     7.250 HEAT:  82.86887
 CYCLE:    66 TIME:   0.148 TIME LEFT:  2.00D  GRAD.:     4.850 HEAT:  82.84436
 CYCLE:    67 TIME:   0.156 TIME LEFT:  2.00D  GRAD.:     6.467 HEAT:  82.81457
 CYCLE:    68 TIME:   0.180 TIME LEFT:  2.00D  GRAD.:     6.564 HEAT:  82.77929
 CYCLE:    69 TIME:   0.184 TIME LEFT:  2.00D  GRAD.:    38.775 HEAT:  82.95298
 CYCLE:    70 TIME:   0.180 TIME LEFT:  2.00D  GRAD.:     5.045 HEAT:  82.72729
 CYCLE:    71 TIME:   0.152 TIME LEFT:  2.00D  GRAD.:     3.470 HEAT:  82.71908
 CYCLE:    72 TIME:   0.133 TIME LEFT:  2.00D  GRAD.:     4.294 HEAT:  82.70874
 CYCLE:    73 TIME:   0.168 TIME LEFT:  2.00D  GRAD.:     4.962 HEAT:  82.70070
 CYCLE:    74 TIME:   0.180 TIME LEFT:  2.00D  GRAD.:     4.847 HEAT:  82.68999
 CYCLE:    75 TIME:   0.191 TIME LEFT:  2.00D  GRAD.:     7.062 HEAT:  82.66727
 CYCLE:    76 TIME:   0.199 TIME LEFT:  2.00D  GRAD.:     8.290 HEAT:  82.65823
 CYCLE:    77 TIME:   0.141 TIME LEFT:  2.00D  GRAD.:     3.655 HEAT:  82.64350
 CYCLE:    78 TIME:   0.160 TIME LEFT:  2.00D  GRAD.:     3.706 HEAT:  82.63330
 CYCLE:    79 TIME:   0.141 TIME LEFT:  2.00D  GRAD.:     4.477 HEAT:  82.61759
 CYCLE:    80 TIME:   0.184 TIME LEFT:  2.00D  GRAD.:     6.908 HEAT:  82.59746
 CYCLE:    81 TIME:   0.176 TIME LEFT:  2.00D  GRAD.:     4.360 HEAT:  82.57918
 CYCLE:    82 TIME:   0.184 TIME LEFT:  2.00D  GRAD.:     3.029 HEAT:  82.56710
 CYCLE:    83 TIME:   0.184 TIME LEFT:  2.00D  GRAD.:     4.410 HEAT:  82.55278
 CYCLE:    84 TIME:   0.180 TIME LEFT:  2.00D  GRAD.:     5.099 HEAT:  82.54415
 CYCLE:    85 TIME:   0.176 TIME LEFT:  2.00D  GRAD.:     3.700 HEAT:  82.53309
 CYCLE:    86 TIME:   0.141 TIME LEFT:  2.00D  GRAD.:     4.979 HEAT:  82.51871
 CYCLE:    87 TIME:   0.180 TIME LEFT:  2.00D  GRAD.:     6.116 HEAT:  82.50990
 CYCLE:    88 TIME:   0.176 TIME LEFT:  2.00D  GRAD.:     4.415 HEAT:  82.50144
 CYCLE:    89 TIME:   0.180 TIME LEFT:  2.00D  GRAD.:     3.976 HEAT:  82.48515
 CYCLE:    90 TIME:   0.184 TIME LEFT:  2.00D  GRAD.:     4.029 HEAT:  82.47037
 CYCLE:    91 TIME:   0.184 TIME LEFT:  2.00D  GRAD.:     7.771 HEAT:  82.45365
 CYCLE:    92 TIME:   0.180 TIME LEFT:  2.00D  GRAD.:     4.801 HEAT:  82.42919
 CYCLE:    93 TIME:   0.184 TIME LEFT:  2.00D  GRAD.:     4.577 HEAT:  82.40984
 CYCLE:    94 TIME:   0.176 TIME LEFT:  2.00D  GRAD.:     5.128 HEAT:  82.39149
 CYCLE:    95 TIME:   0.148 TIME LEFT:  2.00D  GRAD.:     4.696 HEAT:  82.37161
 CYCLE:    96 TIME:   0.148 TIME LEFT:  2.00D  GRAD.:     6.478 HEAT:  82.35540
 CYCLE:    97 TIME:   0.148 TIME LEFT:  2.00D  GRAD.:     4.337 HEAT:  82.34181
 CYCLE:    98 TIME:   0.141 TIME LEFT:  2.00D  GRAD.:     3.735 HEAT:  82.33307
 CYCLE:    99 TIME:   0.152 TIME LEFT:  2.00D  GRAD.:     4.835 HEAT:  82.31744
 CYCLE:   100 TIME:   0.156 TIME LEFT:  2.00D  GRAD.:     8.441 HEAT:  82.30165
 CYCLE:   101 TIME:   0.184 TIME LEFT:  2.00D  GRAD.:     5.410 HEAT:  82.28284
 CYCLE:   102 TIME:   0.180 TIME LEFT:  2.00D  GRAD.:     5.824 HEAT:  82.26219
 CYCLE:   103 TIME:   0.184 TIME LEFT:  2.00D  GRAD.:     7.858 HEAT:  82.25312
 CYCLE:   104 TIME:   0.156 TIME LEFT:  2.00D  GRAD.:     4.985 HEAT:  82.24156
 CYCLE:   105 TIME:   0.160 TIME LEFT:  2.00D  GRAD.:     4.686 HEAT:  82.21642
 CYCLE:   106 TIME:   0.148 TIME LEFT:  2.00D  GRAD.:     4.385 HEAT:  82.20459
 CYCLE:   107 TIME:   0.168 TIME LEFT:  2.00D  GRAD.:     8.508 HEAT:  82.18850
 CYCLE:   108 TIME:   0.148 TIME LEFT:  2.00D  GRAD.:     4.026 HEAT:  82.16946
 CYCLE:   109 TIME:   0.152 TIME LEFT:  2.00D  GRAD.:     2.853 HEAT:  82.16193
 CYCLE:   110 TIME:   0.152 TIME LEFT:  2.00D  GRAD.:     3.241 HEAT:  82.15056
 CYCLE:   111 TIME:   0.180 TIME LEFT:  2.00D  GRAD.:     7.161 HEAT:  82.14457
 CYCLE:   112 TIME:   0.148 TIME LEFT:  2.00D  GRAD.:     3.575 HEAT:  82.13487
 CYCLE:   113 TIME:   0.160 TIME LEFT:  2.00D  GRAD.:     2.902 HEAT:  82.12616
 CYCLE:   114 TIME:   0.148 TIME LEFT:  2.00D  GRAD.:     3.701 HEAT:  82.11855
 CYCLE:   115 TIME:   0.156 TIME LEFT:  2.00D  GRAD.:     8.241 HEAT:  82.10845
 CYCLE:   116 TIME:   0.133 TIME LEFT:  2.00D  GRAD.:     3.947 HEAT:  82.09411
 CYCLE:   117 TIME:   0.148 TIME LEFT:  2.00D  GRAD.:     3.195 HEAT:  82.08415
 CYCLE:   118 TIME:   0.137 TIME LEFT:  2.00D  GRAD.:     4.457 HEAT:  82.07362
 CYCLE:   119 TIME:   0.176 TIME LEFT:  2.00D  GRAD.:    14.156 HEAT:  82.07172
 CYCLE:   120 TIME:   0.145 TIME LEFT:  2.00D  GRAD.:     5.151 HEAT:  82.05485
 CYCLE:   121 TIME:   0.148 TIME LEFT:  2.00D  GRAD.:     3.482 HEAT:  82.04583
 CYCLE:   122 TIME:   0.156 TIME LEFT:  2.00D  GRAD.:     4.501 HEAT:  82.03654
 CYCLE:   123 TIME:   0.145 TIME LEFT:  2.00D  GRAD.:     4.411 HEAT:  82.02456
 CYCLE:   124 TIME:   0.172 TIME LEFT:  2.00D  GRAD.:     5.376 HEAT:  82.00340
 CYCLE:   125 TIME:   0.176 TIME LEFT:  2.00D  GRAD.:     6.733 HEAT:  81.99364
 CYCLE:   126 TIME:   0.168 TIME LEFT:  2.00D  GRAD.:     5.621 HEAT:  81.98540
 CYCLE:   127 TIME:   0.156 TIME LEFT:  2.00D  GRAD.:     2.512 HEAT:  81.97859
 CYCLE:   128 TIME:   0.129 TIME LEFT:  2.00D  GRAD.:     2.297 HEAT:  81.97443
 CYCLE:   129 TIME:   0.148 TIME LEFT:  2.00D  GRAD.:     2.949 HEAT:  81.96828
 CYCLE:   130 TIME:   0.145 TIME LEFT:  2.00D  GRAD.:     6.950 HEAT:  81.96457
 CYCLE:   131 TIME:   0.160 TIME LEFT:  2.00D  GRAD.:     2.692 HEAT:  81.95692
 CYCLE:   132 TIME:   0.137 TIME LEFT:  2.00D  GRAD.:     1.836 HEAT:  81.95323
 CYCLE:   133 TIME:   0.145 TIME LEFT:  2.00D  GRAD.:     2.588 HEAT:  81.94909
 CYCLE:   134 TIME:   0.148 TIME LEFT:  2.00D  GRAD.:     2.585 HEAT:  81.94343
 CYCLE:   135 TIME:   0.164 TIME LEFT:  2.00D  GRAD.:    17.710 HEAT:  81.96078
 CYCLE:   136 TIME:   0.148 TIME LEFT:  2.00D  GRAD.:     1.970 HEAT:  81.93405
 CYCLE:   137 TIME:   0.129 TIME LEFT:  2.00D  GRAD.:     1.754 HEAT:  81.93299
 CYCLE:   138 TIME:   0.141 TIME LEFT:  2.00D  GRAD.:     1.973 HEAT:  81.92908
 CYCLE:   139 TIME:   0.145 TIME LEFT:  2.00D  GRAD.:     2.469 HEAT:  81.92488
 CYCLE:   140 TIME:   0.168 TIME LEFT:  2.00D  GRAD.:     3.342 HEAT:  81.92185
 CYCLE:   141 TIME:   0.145 TIME LEFT:  2.00D  GRAD.:     1.638 HEAT:  81.91860
 CYCLE:   142 TIME:   0.145 TIME LEFT:  2.00D  GRAD.:     1.731 HEAT:  81.91614
 CYCLE:   143 TIME:   0.129 TIME LEFT:  2.00D  GRAD.:     1.994 HEAT:  81.91336
 CYCLE:   144 TIME:   0.141 TIME LEFT:  2.00D  GRAD.:     6.167 HEAT:  81.91416
 CYCLE:   145 TIME:   0.141 TIME LEFT:  2.00D  GRAD.:     1.647 HEAT:  81.90888
 CYCLE:   146 TIME:   0.145 TIME LEFT:  2.00D  GRAD.:     1.278 HEAT:  81.90767
 CYCLE:   147 TIME:   0.184 TIME LEFT:  2.00D  GRAD.:     1.974 HEAT:  81.90494
 CYCLE:   148 TIME:   0.188 TIME LEFT:  2.00D  GRAD.:     3.188 HEAT:  81.90192
 CYCLE:   149 TIME:   0.195 TIME LEFT:  2.00D  GRAD.:     2.251 HEAT:  81.89838
 CYCLE:   150 TIME:   0.188 TIME LEFT:  2.00D  GRAD.:     1.923 HEAT:  81.89428
 CYCLE:   151 TIME:   0.191 TIME LEFT:  2.00D  GRAD.:     3.590 HEAT:  81.89160
 CYCLE:   152 TIME:   0.164 TIME LEFT:  2.00D  GRAD.:     3.166 HEAT:  81.88900
 CYCLE:   153 TIME:   0.137 TIME LEFT:  2.00D  GRAD.:     2.268 HEAT:  81.88698
 CYCLE:   154 TIME:   0.164 TIME LEFT:  2.00D  GRAD.:     1.639 HEAT:  81.88330
 CYCLE:   155 TIME:   0.160 TIME LEFT:  2.00D  GRAD.:     2.224 HEAT:  81.88088
 CYCLE:   156 TIME:   0.148 TIME LEFT:  2.00D  GRAD.:     2.003 HEAT:  81.87750
 CYCLE:   157 TIME:   0.148 TIME LEFT:  2.00D  GRAD.:     3.916 HEAT:  81.87416
 CYCLE:   158 TIME:   0.152 TIME LEFT:  2.00D  GRAD.:     1.783 HEAT:  81.87021
 CYCLE:   159 TIME:   0.160 TIME LEFT:  2.00D  GRAD.:     1.637 HEAT:  81.86753
 CYCLE:   160 TIME:   0.160 TIME LEFT:  2.00D  GRAD.:     2.088 HEAT:  81.86500
 CYCLE:   161 TIME:   0.184 TIME LEFT:  2.00D  GRAD.:     4.258 HEAT:  81.86301
 CYCLE:   162 TIME:   0.164 TIME LEFT:  2.00D  GRAD.:     1.705 HEAT:  81.85975
 CYCLE:   163 TIME:   0.180 TIME LEFT:  2.00D  GRAD.:     1.373 HEAT:  81.85806
 CYCLE:   164 TIME:   0.164 TIME LEFT:  2.00D  GRAD.:     1.781 HEAT:  81.85619
 CYCLE:   165 TIME:   0.188 TIME LEFT:  2.00D  GRAD.:     3.027 HEAT:  81.85379
 CYCLE:   166 TIME:   0.180 TIME LEFT:  2.00D  GRAD.:     2.328 HEAT:  81.85106
 CYCLE:   167 TIME:   0.180 TIME LEFT:  2.00D  GRAD.:     1.973 HEAT:  81.84885
 CYCLE:   168 TIME:   0.176 TIME LEFT:  2.00D  GRAD.:     1.737 HEAT:  81.84720
 CYCLE:   169 TIME:   0.180 TIME LEFT:  2.00D  GRAD.:     1.960 HEAT:  81.84514
 CYCLE:   170 TIME:   0.188 TIME LEFT:  2.00D  GRAD.:     1.849 HEAT:  81.84166
 CYCLE:   171 TIME:   0.195 TIME LEFT:  2.00D  GRAD.:     2.322 HEAT:  81.83834
 CYCLE:   172 TIME:   0.172 TIME LEFT:  2.00D  GRAD.:     1.800 HEAT:  81.83469
 CYCLE:   173 TIME:   0.191 TIME LEFT:  2.00D  GRAD.:     2.223 HEAT:  81.83172
 CYCLE:   174 TIME:   0.184 TIME LEFT:  2.00D  GRAD.:     1.728 HEAT:  81.82948
 CYCLE:   175 TIME:   0.156 TIME LEFT:  2.00D  GRAD.:     1.458 HEAT:  81.82785
 CYCLE:   176 TIME:   0.180 TIME LEFT:  2.00D  GRAD.:     2.208 HEAT:  81.82543
 CYCLE:   177 TIME:   0.152 TIME LEFT:  2.00D  GRAD.:     2.424 HEAT:  81.82360
 CYCLE:   178 TIME:   0.133 TIME LEFT:  2.00D  GRAD.:     1.640 HEAT:  81.82204
 CYCLE:   179 TIME:   0.191 TIME LEFT:  2.00D  GRAD.:     1.401 HEAT:  81.81963
 CYCLE:   180 TIME:   0.234 TIME LEFT:  2.00D  GRAD.:     2.171 HEAT:  81.81826
 CYCLE:   181 TIME:   0.219 TIME LEFT:  2.00D  GRAD.:     1.819 HEAT:  81.81632
 CYCLE:   182 TIME:   0.176 TIME LEFT:  2.00D  GRAD.:     2.763 HEAT:  81.81416
 CYCLE:   183 TIME:   0.180 TIME LEFT:  2.00D  GRAD.:     1.713 HEAT:  81.81244
 CYCLE:   184 TIME:   0.172 TIME LEFT:  2.00D  GRAD.:     1.567 HEAT:  81.81143
 CYCLE:   185 TIME:   0.152 TIME LEFT:  2.00D  GRAD.:     1.755 HEAT:  81.80782
 CYCLE:   186 TIME:   0.160 TIME LEFT:  2.00D  GRAD.:     3.935 HEAT:  81.80694
 CYCLE:   187 TIME:   0.145 TIME LEFT:  2.00D  GRAD.:     1.277 HEAT:  81.80407
 CYCLE:   188 TIME:   0.176 TIME LEFT:  2.00D  GRAD.:     1.187 HEAT:  81.80271
 CYCLE:   189 TIME:   0.168 TIME LEFT:  2.00D  GRAD.:     1.438 HEAT:  81.80001
 CYCLE:   190 TIME:   0.172 TIME LEFT:  2.00D  GRAD.:     8.095 HEAT:  81.80457
 CYCLE:   191 TIME:   0.137 TIME LEFT:  2.00D  GRAD.:     2.013 HEAT:  81.79714
 CYCLE:   192 TIME:   0.145 TIME LEFT:  2.00D  GRAD.:     1.278 HEAT:  81.79530
 CYCLE:   193 TIME:   0.141 TIME LEFT:  2.00D  GRAD.:     1.604 HEAT:  81.79368
 CYCLE:   194 TIME:   0.168 TIME LEFT:  2.00D  GRAD.:     1.997 HEAT:  81.79090
 CYCLE:   195 TIME:   0.164 TIME LEFT:  2.00D  GRAD.:     8.390 HEAT:  81.79422
 CYCLE:   196 TIME:   0.160 TIME LEFT:  2.00D  GRAD.:     1.963 HEAT:  81.78632
 CYCLE:   197 TIME:   0.176 TIME LEFT:  2.00D  GRAD.:     1.329 HEAT:  81.78477
 CYCLE:   198 TIME:   0.172 TIME LEFT:  2.00D  GRAD.:     1.878 HEAT:  81.78212
 CYCLE:   199 TIME:   0.180 TIME LEFT:  2.00D  GRAD.:     6.259 HEAT:  81.78200
 CYCLE:   200 TIME:   0.168 TIME LEFT:  2.00D  GRAD.:     2.282 HEAT:  81.77881
 CYCLE:   201 TIME:   0.145 TIME LEFT:  2.00D  GRAD.:     1.239 HEAT:  81.77735
 CYCLE:   202 TIME:   0.191 TIME LEFT:  2.00D  GRAD.:     2.123 HEAT:  81.77514
 CYCLE:   203 TIME:   0.164 TIME LEFT:  2.00D  GRAD.:     2.145 HEAT:  81.77232
 CYCLE:   204 TIME:   0.172 TIME LEFT:  2.00D  GRAD.:     4.949 HEAT:  81.76942
 CYCLE:   205 TIME:   0.168 TIME LEFT:  2.00D  GRAD.:     1.743 HEAT:  81.76415
 CYCLE:   206 TIME:   0.188 TIME LEFT:  2.00D  GRAD.:     1.390 HEAT:  81.76205
 CYCLE:   207 TIME:   0.191 TIME LEFT:  2.00D  GRAD.:     1.900 HEAT:  81.75923
 CYCLE:   208 TIME:   0.191 TIME LEFT:  2.00D  GRAD.:     4.271 HEAT:  81.75741
 CYCLE:   209 TIME:   0.168 TIME LEFT:  2.00D  GRAD.:     2.281 HEAT:  81.75415
 CYCLE:   210 TIME:   0.168 TIME LEFT:  2.00D  GRAD.:     1.604 HEAT:  81.75101
 CYCLE:   211 TIME:   0.156 TIME LEFT:  2.00D  GRAD.:     2.144 HEAT:  81.74874
 CYCLE:   212 TIME:   0.156 TIME LEFT:  2.00D  GRAD.:     4.742 HEAT:  81.74652
 CYCLE:   213 TIME:   0.172 TIME LEFT:  2.00D  GRAD.:     2.235 HEAT:  81.74299
 CYCLE:   214 TIME:   0.180 TIME LEFT:  2.00D  GRAD.:     1.683 HEAT:  81.74052
 CYCLE:   215 TIME:   0.184 TIME LEFT:  2.00D  GRAD.:     1.703 HEAT:  81.73863
 CYCLE:   216 TIME:   0.160 TIME LEFT:  2.00D  GRAD.:     2.148 HEAT:  81.73534
 CYCLE:   217 TIME:   0.133 TIME LEFT:  2.00D  GRAD.:     4.246 HEAT:  81.73427
 CYCLE:   218 TIME:   0.145 TIME LEFT:  2.00D  GRAD.:     1.614 HEAT:  81.73110
 CYCLE:   219 TIME:   0.168 TIME LEFT:  2.00D  GRAD.:     1.705 HEAT:  81.73009
 CYCLE:   220 TIME:   0.168 TIME LEFT:  2.00D  GRAD.:     1.839 HEAT:  81.72648
 CYCLE:   221 TIME:   0.184 TIME LEFT:  2.00D  GRAD.:     2.520 HEAT:  81.72308
 CYCLE:   222 TIME:   0.164 TIME LEFT:  2.00D  GRAD.:     2.051 HEAT:  81.72006
 CYCLE:   223 TIME:   0.176 TIME LEFT:  2.00D  GRAD.:     1.668 HEAT:  81.71810
 CYCLE:   224 TIME:   0.160 TIME LEFT:  2.00D  GRAD.:     1.875 HEAT:  81.71432
 CYCLE:   225 TIME:   0.160 TIME LEFT:  2.00D  GRAD.:     2.756 HEAT:  81.71084
 CYCLE:   226 TIME:   0.180 TIME LEFT:  2.00D  GRAD.:     2.550 HEAT:  81.70635
 CYCLE:   227 TIME:   0.172 TIME LEFT:  2.00D  GRAD.:     4.053 HEAT:  81.70376
 CYCLE:   228 TIME:   0.172 TIME LEFT:  2.00D  GRAD.:     1.899 HEAT:  81.70095
 CYCLE:   229 TIME:   0.160 TIME LEFT:  2.00D  GRAD.:     1.686 HEAT:  81.69894
 CYCLE:   230 TIME:   0.141 TIME LEFT:  2.00D  GRAD.:     2.126 HEAT:  81.69613
 CYCLE:   231 TIME:   0.168 TIME LEFT:  2.00D  GRAD.:     3.618 HEAT:  81.69232
 CYCLE:   232 TIME:   0.188 TIME LEFT:  2.00D  GRAD.:     3.203 HEAT:  81.68894
 CYCLE:   233 TIME:   0.180 TIME LEFT:  2.00D  GRAD.:     1.840 HEAT:  81.68604
 CYCLE:   234 TIME:   0.188 TIME LEFT:  2.00D  GRAD.:     1.763 HEAT:  81.68324
 CYCLE:   235 TIME:   0.188 TIME LEFT:  2.00D  GRAD.:     2.192 HEAT:  81.68020
 CYCLE:   236 TIME:   0.176 TIME LEFT:  2.00D  GRAD.:     2.588 HEAT:  81.67684
 CYCLE:   237 TIME:   0.188 TIME LEFT:  2.00D  GRAD.:     1.613 HEAT:  81.67437
 CYCLE:   238 TIME:   0.148 TIME LEFT:  2.00D  GRAD.:     1.544 HEAT:  81.67262
 CYCLE:   239 TIME:   0.188 TIME LEFT:  2.00D  GRAD.:     1.738 HEAT:  81.67032
 CYCLE:   240 TIME:   0.191 TIME LEFT:  2.00D  GRAD.:     4.131 HEAT:  81.66930
 CYCLE:   241 TIME:   0.172 TIME LEFT:  2.00D  GRAD.:     1.645 HEAT:  81.66635
 CYCLE:   242 TIME:   0.180 TIME LEFT:  2.00D  GRAD.:     1.134 HEAT:  81.66495
 CYCLE:   243 TIME:   0.164 TIME LEFT:  2.00D  GRAD.:     1.815 HEAT:  81.66330
 CYCLE:   244 TIME:   0.164 TIME LEFT:  2.00D  GRAD.:     3.245 HEAT:  81.66202
 CYCLE:   245 TIME:   0.172 TIME LEFT:  2.00D  GRAD.:     1.834 HEAT:  81.66038
 CYCLE:   246 TIME:   0.168 TIME LEFT:  2.00D  GRAD.:     1.236 HEAT:  81.65884
 CYCLE:   247 TIME:   0.133 TIME LEFT:  2.00D  GRAD.:     1.439 HEAT:  81.65789
 CYCLE:   248 TIME:   0.156 TIME LEFT:  2.00D  GRAD.:     3.588 HEAT:  81.65674
 CYCLE:   249 TIME:   0.156 TIME LEFT:  2.00D  GRAD.:     1.295 HEAT:  81.65494
 CYCLE:   250 TIME:   0.141 TIME LEFT:  2.00D  GRAD.:     1.057 HEAT:  81.65425
 CYCLE:   251 TIME:   0.172 TIME LEFT:  2.00D  GRAD.:     1.367 HEAT:  81.65331
 CYCLE:   252 TIME:   0.160 TIME LEFT:  2.00D  GRAD.:     1.465 HEAT:  81.65191
 CYCLE:   253 TIME:   0.152 TIME LEFT:  2.00D  GRAD.:     3.010 HEAT:  81.65027
 CYCLE:   254 TIME:   0.141 TIME LEFT:  2.00D  GRAD.:     1.277 HEAT:  81.64796
 CYCLE:   255 TIME:   0.141 TIME LEFT:  2.00D  GRAD.:     1.059 HEAT:  81.64678
 CYCLE:   256 TIME:   0.164 TIME LEFT:  2.00D  GRAD.:     1.481 HEAT:  81.64511
 CYCLE:   257 TIME:   0.156 TIME LEFT:  2.00D  GRAD.:     2.519 HEAT:  81.64391
 CYCLE:   258 TIME:   0.141 TIME LEFT:  2.00D  GRAD.:     1.741 HEAT:  81.64237
 CYCLE:   259 TIME:   0.137 TIME LEFT:  2.00D  GRAD.:     1.292 HEAT:  81.64063
 CYCLE:   260 TIME:   0.137 TIME LEFT:  2.00D  GRAD.:     1.474 HEAT:  81.63974
 CYCLE:   261 TIME:   0.141 TIME LEFT:  2.00D  GRAD.:     0.997 HEAT:  81.63869
 CYCLE:   262 TIME:   0.156 TIME LEFT:  2.00D  GRAD.:     1.081 HEAT:  81.63746
 CYCLE:   263 TIME:   0.133 TIME LEFT:  2.00D  GRAD.:     3.025 HEAT:  81.63716
 CYCLE:   264 TIME:   0.125 TIME LEFT:  2.00D  GRAD.:     1.209 HEAT:  81.63610
 CYCLE:   265 TIME:   0.148 TIME LEFT:  2.00D  GRAD.:     0.786 HEAT:  81.63553
 CYCLE:   266 TIME:   0.156 TIME LEFT:  2.00D  GRAD.:     1.070 HEAT:  81.63487
 CYCLE:   267 TIME:   0.148 TIME LEFT:  2.00D  GRAD.:     1.089 HEAT:  81.63395
 CYCLE:   268 TIME:   0.164 TIME LEFT:  2.00D  GRAD.:     2.711 HEAT:  81.63399
 CYCLE:   269 TIME:   0.125 TIME LEFT:  2.00D  GRAD.:     0.698 HEAT:  81.63262
 CYCLE:   270 TIME:   0.152 TIME LEFT:  2.00D  GRAD.:     0.633 HEAT:  81.63233
 CYCLE:   271 TIME:   0.160 TIME LEFT:  2.00D  GRAD.:     0.822 HEAT:  81.63163
 CYCLE:   272 TIME:   0.164 TIME LEFT:  2.00D  GRAD.:     1.641 HEAT:  81.63104
 CYCLE:   273 TIME:   0.168 TIME LEFT:  2.00D  GRAD.:     0.850 HEAT:  81.63034
 CYCLE:   274 TIME:   0.156 TIME LEFT:  2.00D  GRAD.:     0.781 HEAT:  81.62983
 CYCLE:   275 TIME:   0.176 TIME LEFT:  2.00D  GRAD.:     1.496 HEAT:  81.62943
 CYCLE:   276 TIME:   0.141 TIME LEFT:  2.00D  GRAD.:     0.925 HEAT:  81.62900
 CYCLE:   277 TIME:   0.156 TIME LEFT:  2.00D  GRAD.:     0.943 HEAT:  81.62855
 CYCLE:   278 TIME:   0.191 TIME LEFT:  2.00D  GRAD.:     1.019 HEAT:  81.62799
 CYCLE:   279 TIME:   0.203 TIME LEFT:  2.00D  GRAD.:     1.136 HEAT:  81.62712
 CYCLE:   280 TIME:   0.191 TIME LEFT:  2.00D  GRAD.:     1.993 HEAT:  81.62646
 CYCLE:   281 TIME:   0.180 TIME LEFT:  2.00D  GRAD.:     1.017 HEAT:  81.62548
 CYCLE:   282 TIME:   0.180 TIME LEFT:  2.00D  GRAD.:     0.853 HEAT:  81.62493
 CYCLE:   283 TIME:   0.180 TIME LEFT:  2.00D  GRAD.:     1.084 HEAT:  81.62434
 CYCLE:   284 TIME:   0.160 TIME LEFT:  2.00D  GRAD.:     1.876 HEAT:  81.62365
 CYCLE:   285 TIME:   0.160 TIME LEFT:  2.00D  GRAD.:     1.111 HEAT:  81.62292
 CYCLE:   286 TIME:   0.148 TIME LEFT:  2.00D  GRAD.:     0.957 HEAT:  81.62194
 CYCLE:   287 TIME:   0.152 TIME LEFT:  2.00D  GRAD.:     1.081 HEAT:  81.62127
 CYCLE:   288 TIME:   0.148 TIME LEFT:  2.00D  GRAD.:     1.585 HEAT:  81.61964
 CYCLE:   289 TIME:   0.172 TIME LEFT:  2.00D  GRAD.:     1.917 HEAT:  81.61878
 CYCLE:   290 TIME:   0.172 TIME LEFT:  2.00D  GRAD.:     1.537 HEAT:  81.61794
 CYCLE:   291 TIME:   0.172 TIME LEFT:  2.00D  GRAD.:     0.829 HEAT:  81.61742
 CYCLE:   292 TIME:   0.176 TIME LEFT:  2.00D  GRAD.:     0.817 HEAT:  81.61697
 CYCLE:   293 TIME:   0.180 TIME LEFT:  2.00D  GRAD.:     1.104 HEAT:  81.61645
 CYCLE:   294 TIME:   0.188 TIME LEFT:  2.00D  GRAD.:     1.207 HEAT:  81.61573
 CYCLE:   295 TIME:   0.176 TIME LEFT:  2.00D  GRAD.:     0.925 HEAT:  81.61517
 CYCLE:   296 TIME:   0.164 TIME LEFT:  2.00D  GRAD.:     0.797 HEAT:  81.61474
 CYCLE:   297 TIME:   0.180 TIME LEFT:  2.00D  GRAD.:     0.897 HEAT:  81.61410
 CYCLE:   298 TIME:   0.203 TIME LEFT:  2.00D  GRAD.:     1.341 HEAT:  81.61339
 CYCLE:   299 TIME:   0.164 TIME LEFT:  2.00D  GRAD.:     0.863 HEAT:  81.61273
 CYCLE:   300 TIME:   0.145 TIME LEFT:  2.00D  GRAD.:     0.730 HEAT:  81.61214
 CYCLE:   301 TIME:   0.168 TIME LEFT:  2.00D  GRAD.:     0.820 HEAT:  81.61165
 CYCLE:   302 TIME:   0.168 TIME LEFT:  2.00D  GRAD.:     1.206 HEAT:  81.61094
 CYCLE:   303 TIME:   0.160 TIME LEFT:  2.00D  GRAD.:     1.235 HEAT:  81.61033
 CYCLE:   304 TIME:   0.148 TIME LEFT:  2.00D  GRAD.:     0.804 HEAT:  81.60984
 CYCLE:   305 TIME:   0.156 TIME LEFT:  2.00D  GRAD.:     0.731 HEAT:  81.60938
 CYCLE:   306 TIME:   0.152 TIME LEFT:  2.00D  GRAD.:     1.309 HEAT:  81.60894
 CYCLE:   307 TIME:   0.160 TIME LEFT:  2.00D  GRAD.:     0.823 HEAT:  81.60847
 CYCLE:   308 TIME:   0.160 TIME LEFT:  2.00D  GRAD.:     0.647 HEAT:  81.60816
 CYCLE:   309 TIME:   0.148 TIME LEFT:  2.00D  GRAD.:     0.796 HEAT:  81.60783
 CYCLE:   310 TIME:   0.152 TIME LEFT:  2.00D  GRAD.:     0.808 HEAT:  81.60738
 CYCLE:   311 TIME:   0.137 TIME LEFT:  2.00D  GRAD.:     1.123 HEAT:  81.60694
 CYCLE:   312 TIME:   0.129 TIME LEFT:  2.00D  GRAD.:     0.710 HEAT:  81.60653
 CYCLE:   313 TIME:   0.148 TIME LEFT:  2.00D  GRAD.:     0.772 HEAT:  81.60610
 CYCLE:   314 TIME:   0.160 TIME LEFT:  2.00D  GRAD.:     0.919 HEAT:  81.60550
 CYCLE:   315 TIME:   0.164 TIME LEFT:  2.00D  GRAD.:     1.495 HEAT:  81.60514
 CYCLE:   316 TIME:   0.137 TIME LEFT:  2.00D  GRAD.:     0.620 HEAT:  81.60456
 CYCLE:   317 TIME:   0.152 TIME LEFT:  2.00D  GRAD.:     0.531 HEAT:  81.60430
 CYCLE:   318 TIME:   0.160 TIME LEFT:  2.00D  GRAD.:     0.710 HEAT:  81.60389
 CYCLE:   319 TIME:   0.148 TIME LEFT:  2.00D  GRAD.:     2.047 HEAT:  81.60373
 CYCLE:   320 TIME:   0.152 TIME LEFT:  2.00D  GRAD.:     0.824 HEAT:  81.60320
 CYCLE:   321 TIME:   0.141 TIME LEFT:  2.00D  GRAD.:     0.466 HEAT:  81.60295
 CYCLE:   322 TIME:   0.160 TIME LEFT:  2.00D  GRAD.:     0.671 HEAT:  81.60277
 CYCLE:   323 TIME:   0.137 TIME LEFT:  2.00D  GRAD.:     1.009 HEAT:  81.60261
 CYCLE:   324 TIME:   0.152 TIME LEFT:  2.00D  GRAD.:     0.592 HEAT:  81.60244
 CYCLE:   325 TIME:   0.176 TIME LEFT:  2.00D  GRAD.:     0.461 HEAT:  81.60220
 CYCLE:   326 TIME:   0.180 TIME LEFT:  2.00D  GRAD.:     0.516 HEAT:  81.60203
 CYCLE:   327 TIME:   0.184 TIME LEFT:  2.00D  GRAD.:     0.784 HEAT:  81.60159
 CYCLE:   328 TIME:   0.184 TIME LEFT:  2.00D  GRAD.:     1.235 HEAT:  81.60144
 CYCLE:   329 TIME:   0.176 TIME LEFT:  2.00D  GRAD.:     0.800 HEAT:  81.60114
 CYCLE:   330 TIME:   0.180 TIME LEFT:  2.00D  GRAD.:     0.525 HEAT:  81.60095
 CYCLE:   331 TIME:   0.184 TIME LEFT:  2.00D  GRAD.:     0.540 HEAT:  81.60074
 CYCLE:   332 TIME:   0.184 TIME LEFT:  2.00D  GRAD.:     0.641 HEAT:  81.60049
 CYCLE:   333 TIME:   0.188 TIME LEFT:  2.00D  GRAD.:     1.336 HEAT:  81.60033
 CYCLE:   334 TIME:   0.176 TIME LEFT:  2.00D  GRAD.:     0.479 HEAT:  81.60001
 CYCLE:   335 TIME:   0.176 TIME LEFT:  2.00D  GRAD.:     0.388 HEAT:  81.59986
 CYCLE:   336 TIME:   0.176 TIME LEFT:  2.00D  GRAD.:     0.495 HEAT:  81.59972
 CYCLE:   337 TIME:   0.176 TIME LEFT:  2.00D  GRAD.:     1.920 HEAT:  81.59976
 CYCLE:   338 TIME:   0.168 TIME LEFT:  2.00D  GRAD.:     0.488 HEAT:  81.59948
 CYCLE:   339 TIME:   0.172 TIME LEFT:  2.00D  GRAD.:     0.308 HEAT:  81.59941
 CYCLE:   340 TIME:   0.180 TIME LEFT:  2.00D  GRAD.:     0.444 HEAT:  81.59933
 CYCLE:   341 TIME:   0.176 TIME LEFT:  2.00D  GRAD.:     0.493 HEAT:  81.59922
 CYCLE:   342 TIME:   0.164 TIME LEFT:  2.00D  GRAD.:     0.808 HEAT:  81.59897
 CYCLE:   343 TIME:   0.195 TIME LEFT:  2.00D  GRAD.:     0.549 HEAT:  81.59872
 CYCLE:   344 TIME:   0.184 TIME LEFT:  2.00D  GRAD.:     0.388 HEAT:  81.59857
 CYCLE:   345 TIME:   0.176 TIME LEFT:  2.00D  GRAD.:     0.575 HEAT:  81.59836
 CYCLE:   346 TIME:   0.180 TIME LEFT:  2.00D  GRAD.:     0.669 HEAT:  81.59823
 CYCLE:   347 TIME:   0.160 TIME LEFT:  2.00D  GRAD.:     0.495 HEAT:  81.59808
 CYCLE:   348 TIME:   0.176 TIME LEFT:  2.00D  GRAD.:     0.583 HEAT:  81.59779
 CYCLE:   349 TIME:   0.180 TIME LEFT:  2.00D  GRAD.:     0.766 HEAT:  81.59766
 CYCLE:   350 TIME:   0.172 TIME LEFT:  2.00D  GRAD.:     0.548 HEAT:  81.59751
 CYCLE:   351 TIME:   0.176 TIME LEFT:  2.00D  GRAD.:     0.500 HEAT:  81.59720
 CYCLE:   352 TIME:   0.156 TIME LEFT:  2.00D  GRAD.:     1.740 HEAT:  81.59722
 CYCLE:   353 TIME:   0.172 TIME LEFT:  2.00D  GRAD.:     0.671 HEAT:  81.59702
 CYCLE:   354 TIME:   0.176 TIME LEFT:  2.00D  GRAD.:     0.374 HEAT:  81.59691
 CYCLE:   355 TIME:   0.180 TIME LEFT:  2.00D  GRAD.:     0.673 HEAT:  81.59668
 CYCLE:   356 TIME:   0.188 TIME LEFT:  2.00D  GRAD.:     0.668 HEAT:  81.59653
 CYCLE:   357 TIME:   0.168 TIME LEFT:  2.00D  GRAD.:     1.087 HEAT:  81.59632
 CYCLE:   358 TIME:   0.141 TIME LEFT:  2.00D  GRAD.:     0.572 HEAT:  81.59602
 CYCLE:   359 TIME:   0.133 TIME LEFT:  2.00D  GRAD.:     0.583 HEAT:  81.59582
 CYCLE:   360 TIME:   0.145 TIME LEFT:  2.00D  GRAD.:     0.667 HEAT:  81.59563
 CYCLE:   361 TIME:   0.215 TIME LEFT:  2.00D  GRAD.:     0.833 HEAT:  81.59533
 CYCLE:   362 TIME:   0.207 TIME LEFT:  2.00D  GRAD.:     1.123 HEAT:  81.59510
 CYCLE:   363 TIME:   0.176 TIME LEFT:  2.00D  GRAD.:     0.556 HEAT:  81.59479
 CYCLE:   364 TIME:   0.145 TIME LEFT:  2.00D  GRAD.:     0.572 HEAT:  81.59454
 CYCLE:   365 TIME:   0.148 TIME LEFT:  2.00D  GRAD.:     0.632 HEAT:  81.59430
 CYCLE:   366 TIME:   0.145 TIME LEFT:  2.00D  GRAD.:     1.105 HEAT:  81.59397
 CYCLE:   367 TIME:   0.148 TIME LEFT:  2.00D  GRAD.:     0.561 HEAT:  81.59365
 CYCLE:   368 TIME:   0.156 TIME LEFT:  2.00D  GRAD.:     0.448 HEAT:  81.59347
 CYCLE:   369 TIME:   0.133 TIME LEFT:  2.00D  GRAD.:     1.093 HEAT:  81.59327
 CYCLE:   370 TIME:   0.133 TIME LEFT:  2.00D  GRAD.:     0.577 HEAT:  81.59306
 CYCLE:   371 TIME:   0.148 TIME LEFT:  2.00D  GRAD.:     0.492 HEAT:  81.59289
 CYCLE:   372 TIME:   0.148 TIME LEFT:  2.00D  GRAD.:     0.706 HEAT:  81.59255
 CYCLE:   373 TIME:   0.148 TIME LEFT:  2.00D  GRAD.:     0.927 HEAT:  81.59244
 CYCLE:   374 TIME:   0.160 TIME LEFT:  2.00D  GRAD.:     0.380 HEAT:  81.59228
 CYCLE:   375 TIME:   0.148 TIME LEFT:  2.00D  GRAD.:     0.343 HEAT:  81.59218
 CYCLE:   376 TIME:   0.148 TIME LEFT:  2.00D  GRAD.:     0.481 HEAT:  81.59204
 CYCLE:   377 TIME:   0.156 TIME LEFT:  2.00D  GRAD.:     0.831 HEAT:  81.59183
 CYCLE:   378 TIME:   0.145 TIME LEFT:  2.00D  GRAD.:     0.554 HEAT:  81.59156
 CYCLE:   379 TIME:   0.145 TIME LEFT:  2.00D  GRAD.:     0.460 HEAT:  81.59135
 CYCLE:   380 TIME:   0.133 TIME LEFT:  2.00D  GRAD.:     0.477 HEAT:  81.59121
 CYCLE:   381 TIME:   0.141 TIME LEFT:  2.00D  GRAD.:     0.456 HEAT:  81.59109
 CYCLE:   382 TIME:   0.148 TIME LEFT:  2.00D  GRAD.:     0.407 HEAT:  81.59096
 CYCLE:   383 TIME:   0.152 TIME LEFT:  2.00D  GRAD.:     0.443 HEAT:  81.59084
 CYCLE:   384 TIME:   0.152 TIME LEFT:  2.00D  GRAD.:     0.447 HEAT:  81.59073
 CYCLE:   385 TIME:   0.141 TIME LEFT:  2.00D  GRAD.:     1.007 HEAT:  81.59063
 CYCLE:   386 TIME:   0.137 TIME LEFT:  2.00D  GRAD.:     0.424 HEAT:  81.59050
 CYCLE:   387 TIME:   0.141 TIME LEFT:  2.00D  GRAD.:     0.456 HEAT:  81.59039
 CYCLE:   388 TIME:   0.137 TIME LEFT:  2.00D  GRAD.:     0.541 HEAT:  81.59029
 CYCLE:   389 TIME:   0.152 TIME LEFT:  2.00D  GRAD.:     0.606 HEAT:  81.59003
 CYCLE:   390 TIME:   0.145 TIME LEFT:  2.00D  GRAD.:     1.453 HEAT:  81.59002
 CYCLE:   391 TIME:   0.145 TIME LEFT:  2.00D  GRAD.:     0.434 HEAT:  81.58970
 CYCLE:   392 TIME:   0.141 TIME LEFT:  2.00D  GRAD.:     0.362 HEAT:  81.58959
 CYCLE:   393 TIME:   0.172 TIME LEFT:  2.00D  GRAD.:     0.520 HEAT:  81.58938
 CYCLE:   394 TIME:   0.176 TIME LEFT:  2.00D  GRAD.:     0.633 HEAT:  81.58917
 CYCLE:   395 TIME:   0.148 TIME LEFT:  2.00D  GRAD.:     0.942 HEAT:  81.58899
 CYCLE:   396 TIME:   0.160 TIME LEFT:  2.00D  GRAD.:     0.461 HEAT:  81.58875
 CYCLE:   397 TIME:   0.156 TIME LEFT:  2.00D  GRAD.:     0.517 HEAT:  81.58860
 CYCLE:   398 TIME:   0.148 TIME LEFT:  2.00D  GRAD.:     0.626 HEAT:  81.58839
 CYCLE:   399 TIME:   0.164 TIME LEFT:  2.00D  GRAD.:     0.957 HEAT:  81.58824
 CYCLE:   400 TIME:   0.145 TIME LEFT:  2.00D  GRAD.:     0.548 HEAT:  81.58804
 CYCLE:   401 TIME:   0.152 TIME LEFT:  2.00D  GRAD.:     0.349 HEAT:  81.58793
 CYCLE:   402 TIME:   0.176 TIME LEFT:  2.00D  GRAD.:     0.384 HEAT:  81.58782
 CYCLE:   403 TIME:   0.188 TIME LEFT:  2.00D  GRAD.:     0.802 HEAT:  81.58767
 CYCLE:   404 TIME:   0.176 TIME LEFT:  2.00D  GRAD.:     0.547 HEAT:  81.58751
 CYCLE:   405 TIME:   0.184 TIME LEFT:  2.00D  GRAD.:     0.427 HEAT:  81.58736
 CYCLE:   406 TIME:   0.168 TIME LEFT:  2.00D  GRAD.:     0.409 HEAT:  81.58728
 CYCLE:   407 TIME:   0.145 TIME LEFT:  2.00D  GRAD.:     0.428 HEAT:  81.58718
 CYCLE:   408 TIME:   0.137 TIME LEFT:  2.00D  GRAD.:     0.729 HEAT:  81.58697
 CYCLE:   409 TIME:   0.164 TIME LEFT:  2.00D  GRAD.:     0.570 HEAT:  81.58681
 CYCLE:   410 TIME:   0.148 TIME LEFT:  2.00D  GRAD.:     0.346 HEAT:  81.58670
 CYCLE:   411 TIME:   0.145 TIME LEFT:  2.00D  GRAD.:     0.403 HEAT:  81.58653
 CYCLE:   412 TIME:   0.129 TIME LEFT:  2.00D  GRAD.:     0.534 HEAT:  81.58641
 CYCLE:   413 TIME:   0.137 TIME LEFT:  2.00D  GRAD.:     0.570 HEAT:  81.58627
 CYCLE:   414 TIME:   0.133 TIME LEFT:  2.00D  GRAD.:     0.560 HEAT:  81.58617
 CYCLE:   415 TIME:   0.129 TIME LEFT:  2.00D  GRAD.:     0.422 HEAT:  81.58609
 CYCLE:   416 TIME:   0.145 TIME LEFT:  2.00D  GRAD.:     0.371 HEAT:  81.58593
 CYCLE:   417 TIME:   0.152 TIME LEFT:  2.00D  GRAD.:     0.531 HEAT:  81.58574
 CYCLE:   418 TIME:   0.148 TIME LEFT:  2.00D  GRAD.:     0.827 HEAT:  81.58557
 CYCLE:   419 TIME:   0.137 TIME LEFT:  2.00D  GRAD.:     0.405 HEAT:  81.58540
 CYCLE:   420 TIME:   0.141 TIME LEFT:  2.00D  GRAD.:     0.388 HEAT:  81.58527
 CYCLE:   421 TIME:   0.133 TIME LEFT:  2.00D  GRAD.:     0.472 HEAT:  81.58512
 CYCLE:   422 TIME:   0.133 TIME LEFT:  2.00D  GRAD.:     0.609 HEAT:  81.58496
 CYCLE:   423 TIME:   0.160 TIME LEFT:  2.00D  GRAD.:     0.444 HEAT:  81.58476
 CYCLE:   424 TIME:   0.152 TIME LEFT:  2.00D  GRAD.:     0.627 HEAT:  81.58465
 CYCLE:   425 TIME:   0.168 TIME LEFT:  2.00D  GRAD.:     0.407 HEAT:  81.58451
 CYCLE:   426 TIME:   0.164 TIME LEFT:  2.00D  GRAD.:     0.485 HEAT:  81.58437
 CYCLE:   427 TIME:   0.172 TIME LEFT:  2.00D  GRAD.:     0.490 HEAT:  81.58428
 CYCLE:   428 TIME:   0.180 TIME LEFT:  2.00D  GRAD.:     0.361 HEAT:  81.58416
 CYCLE:   429 TIME:   0.172 TIME LEFT:  2.00D  GRAD.:     0.887 HEAT:  81.58407
 CYCLE:   430 TIME:   0.152 TIME LEFT:  2.00D  GRAD.:     0.345 HEAT:  81.58398
 CYCLE:   431 TIME:   0.152 TIME LEFT:  2.00D  GRAD.:     0.285 HEAT:  81.58392
 CYCLE:   432 TIME:   0.172 TIME LEFT:  2.00D  GRAD.:     0.471 HEAT:  81.58383
 CYCLE:   433 TIME:   0.152 TIME LEFT:  2.00D  GRAD.:     0.449 HEAT:  81.58375
 CYCLE:   434 TIME:   0.168 TIME LEFT:  2.00D  GRAD.:     0.351 HEAT:  81.58359
 CYCLE:   435 TIME:   0.180 TIME LEFT:  2.00D  GRAD.:     0.512 HEAT:  81.58352
 CYCLE:   436 TIME:   0.184 TIME LEFT:  2.00D  GRAD.:     0.356 HEAT:  81.58344
 CYCLE:   437 TIME:   0.176 TIME LEFT:  2.00D  GRAD.:     0.309 HEAT:  81.58334
 CYCLE:   438 TIME:   0.184 TIME LEFT:  2.00D  GRAD.:     0.367 HEAT:  81.58323
 CYCLE:   439 TIME:   0.188 TIME LEFT:  2.00D  GRAD.:     0.883 HEAT:  81.58320
 CYCLE:   440 TIME:   0.184 TIME LEFT:  2.00D  GRAD.:     0.306 HEAT:  81.58307
 CYCLE:   441 TIME:   0.176 TIME LEFT:  2.00D  GRAD.:     0.268 HEAT:  81.58302
 CYCLE:   442 TIME:   0.176 TIME LEFT:  2.00D  GRAD.:     0.374 HEAT:  81.58292
 CYCLE:   443 TIME:   0.180 TIME LEFT:  2.00D  GRAD.:     0.590 HEAT:  81.58276
 CYCLE:   444 TIME:   0.152 TIME LEFT:  2.00D  GRAD.:     0.551 HEAT:  81.58262
 CYCLE:   445 TIME:   0.168 TIME LEFT:  2.00D  GRAD.:     0.421 HEAT:  81.58249
 CYCLE:   446 TIME:   0.160 TIME LEFT:  2.00D  GRAD.:     0.519 HEAT:  81.58237
 CYCLE:   447 TIME:   0.191 TIME LEFT:  2.00D  GRAD.:     0.571 HEAT:  81.58220
 CYCLE:   448 TIME:   0.172 TIME LEFT:  2.00D  GRAD.:     0.416 HEAT:  81.58204
 CYCLE:   449 TIME:   0.148 TIME LEFT:  2.00D  GRAD.:     0.737 HEAT:  81.58184
 CYCLE:   450 TIME:   0.141 TIME LEFT:  2.00D  GRAD.:     0.389 HEAT:  81.58167
 CYCLE:   451 TIME:   0.137 TIME LEFT:  2.00D  GRAD.:     0.331 HEAT:  81.58158
 CYCLE:   452 TIME:   0.160 TIME LEFT:  2.00D  GRAD.:     0.428 HEAT:  81.58144
 CYCLE:   453 TIME:   0.164 TIME LEFT:  2.00D  GRAD.:     0.845 HEAT:  81.58133
 CYCLE:   454 TIME:   0.141 TIME LEFT:  2.00D  GRAD.:     0.426 HEAT:  81.58117
 CYCLE:   455 TIME:   0.156 TIME LEFT:  2.00D  GRAD.:     0.333 HEAT:  81.58104
 CYCLE:   456 TIME:   0.172 TIME LEFT:  2.00D  GRAD.:     0.349 HEAT:  81.58092
 CYCLE:   457 TIME:   0.160 TIME LEFT:  2.00D  GRAD.:     0.513 HEAT:  81.58073
 CYCLE:   458 TIME:   0.164 TIME LEFT:  2.00D  GRAD.:     1.406 HEAT:  81.58080
 CYCLE:   459 TIME:   0.168 TIME LEFT:  2.00D  GRAD.:     0.363 HEAT:  81.58055
 CYCLE:   460 TIME:   0.156 TIME LEFT:  2.00D  GRAD.:     0.285 HEAT:  81.58049
 CYCLE:   461 TIME:   0.137 TIME LEFT:  2.00D  GRAD.:     0.388 HEAT:  81.58034
 CYCLE:   462 TIME:   0.156 TIME LEFT:  2.00D  GRAD.:     1.090 HEAT:  81.58028
 CYCLE:   463 TIME:   0.184 TIME LEFT:  2.00D  GRAD.:     0.410 HEAT:  81.58016
 CYCLE:   464 TIME:   0.164 TIME LEFT:  2.00D  GRAD.:     0.339 HEAT:  81.58011
 CYCLE:   465 TIME:   0.180 TIME LEFT:  2.00D  GRAD.:     0.422 HEAT:  81.58002
 CYCLE:   466 TIME:   0.188 TIME LEFT:  2.00D  GRAD.:     0.491 HEAT:  81.57991
 CYCLE:   467 TIME:   0.188 TIME LEFT:  2.00D  GRAD.:     1.821 HEAT:  81.58001
 CYCLE:   468 TIME:   0.160 TIME LEFT:  2.00D  GRAD.:     0.478 HEAT:  81.57965
 CYCLE:   469 TIME:   0.156 TIME LEFT:  2.00D  GRAD.:     0.270 HEAT:  81.57958
 CYCLE:   470 TIME:   0.152 TIME LEFT:  2.00D  GRAD.:     0.361 HEAT:  81.57948
 CYCLE:   471 TIME:   0.164 TIME LEFT:  2.00D  GRAD.:     0.375 HEAT:  81.57938
 CYCLE:   472 TIME:   0.168 TIME LEFT:  2.00D  GRAD.:     0.779 HEAT:  81.57927
 CYCLE:   473 TIME:   0.156 TIME LEFT:  2.00D  GRAD.:     0.388 HEAT:  81.57910
 CYCLE:   474 TIME:   0.172 TIME LEFT:  2.00D  GRAD.:     0.275 HEAT:  81.57904
 CYCLE:   475 TIME:   0.148 TIME LEFT:  2.00D  GRAD.:     0.335 HEAT:  81.57895
 CYCLE:   476 TIME:   0.160 TIME LEFT:  2.00D  GRAD.:     0.553 HEAT:  81.57886
 CYCLE:   477 TIME:   0.145 TIME LEFT:  2.00D  GRAD.:     0.496 HEAT:  81.57874
 CYCLE:   478 TIME:   0.148 TIME LEFT:  2.00D  GRAD.:     1.100 HEAT:  81.57867
 CYCLE:   479 TIME:   0.160 TIME LEFT:  2.00D  GRAD.:     0.366 HEAT:  81.57854
 CYCLE:   480 TIME:   0.148 TIME LEFT:  2.00D  GRAD.:     0.367 HEAT:  81.57848
 CYCLE:   481 TIME:   0.168 TIME LEFT:  2.00D  GRAD.:     0.514 HEAT:  81.57830
 CYCLE:   482 TIME:   0.172 TIME LEFT:  2.00D  GRAD.:     0.736 HEAT:  81.57813
 CYCLE:   483 TIME:   0.164 TIME LEFT:  2.00D  GRAD.:     0.656 HEAT:  81.57796
 CYCLE:   484 TIME:   0.156 TIME LEFT:  2.00D  GRAD.:     0.387 HEAT:  81.57782
 CYCLE:   485 TIME:   0.152 TIME LEFT:  2.00D  GRAD.:     0.400 HEAT:  81.57767
 CYCLE:   486 TIME:   0.141 TIME LEFT:  2.00D  GRAD.:     0.741 HEAT:  81.57749
 CYCLE:   487 TIME:   0.156 TIME LEFT:  2.00D  GRAD.:     0.593 HEAT:  81.57725
 CYCLE:   488 TIME:   0.168 TIME LEFT:  2.00D  GRAD.:     0.570 HEAT:  81.57701
 CYCLE:   489 TIME:   0.164 TIME LEFT:  2.00D  GRAD.:     0.627 HEAT:  81.57682
 CYCLE:   490 TIME:   0.156 TIME LEFT:  2.00D  GRAD.:     0.474 HEAT:  81.57669
 CYCLE:   491 TIME:   0.164 TIME LEFT:  2.00D  GRAD.:     0.476 HEAT:  81.57646
 CYCLE:   492 TIME:   0.168 TIME LEFT:  2.00D  GRAD.:     0.603 HEAT:  81.57624
 CYCLE:   493 TIME:   0.188 TIME LEFT:  2.00D  GRAD.:     0.810 HEAT:  81.57599
 CYCLE:   494 TIME:   0.141 TIME LEFT:  2.00D  GRAD.:     0.531 HEAT:  81.57579
 CYCLE:   495 TIME:   0.137 TIME LEFT:  2.00D  GRAD.:     0.505 HEAT:  81.57566
 CYCLE:   496 TIME:   0.160 TIME LEFT:  2.00D  GRAD.:     0.786 HEAT:  81.57554
 CYCLE:   497 TIME:   0.160 TIME LEFT:  2.00D  GRAD.:     0.467 HEAT:  81.57541
 CYCLE:   498 TIME:   0.168 TIME LEFT:  2.00D  GRAD.:     0.441 HEAT:  81.57522
 CYCLE:   499 TIME:   0.145 TIME LEFT:  2.00D  GRAD.:     0.452 HEAT:  81.57509
 CYCLE:   500 TIME:   0.152 TIME LEFT:  2.00D  GRAD.:     0.602 HEAT:  81.57483
 CYCLE:   501 TIME:   0.164 TIME LEFT:  2.00D  GRAD.:     0.784 HEAT:  81.57468
 CYCLE:   502 TIME:   0.172 TIME LEFT:  2.00D  GRAD.:     0.387 HEAT:  81.57453
 CYCLE:   503 TIME:   0.176 TIME LEFT:  2.00D  GRAD.:     0.368 HEAT:  81.57444
 CYCLE:   504 TIME:   0.188 TIME LEFT:  2.00D  GRAD.:     0.510 HEAT:  81.57431
 CYCLE:   505 TIME:   0.191 TIME LEFT:  2.00D  GRAD.:     0.919 HEAT:  81.57425
 CYCLE:   506 TIME:   0.180 TIME LEFT:  2.00D  GRAD.:     0.353 HEAT:  81.57408
 CYCLE:   507 TIME:   0.152 TIME LEFT:  2.00D  GRAD.:     0.282 HEAT:  81.57399
 CYCLE:   508 TIME:   0.133 TIME LEFT:  2.00D  GRAD.:     0.344 HEAT:  81.57389
 CYCLE:   509 TIME:   0.156 TIME LEFT:  2.00D  GRAD.:     0.737 HEAT:  81.57377
 CYCLE:   510 TIME:   0.168 TIME LEFT:  2.00D  GRAD.:     0.437 HEAT:  81.57363
 CYCLE:   511 TIME:   0.176 TIME LEFT:  2.00D  GRAD.:     0.393 HEAT:  81.57356
 CYCLE:   512 TIME:   0.180 TIME LEFT:  2.00D  GRAD.:     0.333 HEAT:  81.57350
 CYCLE:   513 TIME:   0.164 TIME LEFT:  2.00D  GRAD.:     0.334 HEAT:  81.57343
 CYCLE:   514 TIME:   0.141 TIME LEFT:  2.00D  GRAD.:     0.773 HEAT:  81.57334
 CYCLE:   515 TIME:   0.148 TIME LEFT:  2.00D  GRAD.:     0.325 HEAT:  81.57321
 CYCLE:   516 TIME:   0.148 TIME LEFT:  2.00D  GRAD.:     0.282 HEAT:  81.57315
 CYCLE:   517 TIME:   0.164 TIME LEFT:  2.00D  GRAD.:     0.388 HEAT:  81.57304
 CYCLE:   518 TIME:   0.148 TIME LEFT:  2.00D  GRAD.:     0.776 HEAT:  81.57297
 CYCLE:   519 TIME:   0.148 TIME LEFT:  2.00D  GRAD.:     0.346 HEAT:  81.57287
 CYCLE:   520 TIME:   0.176 TIME LEFT:  2.00D  GRAD.:     0.320 HEAT:  81.57279
 CYCLE:   521 TIME:   0.172 TIME LEFT:  2.00D  GRAD.:     0.378 HEAT:  81.57270
 CYCLE:   522 TIME:   0.168 TIME LEFT:  2.00D  GRAD.:     0.458 HEAT:  81.57253
 CYCLE:   523 TIME:   0.148 TIME LEFT:  2.00D  GRAD.:     0.597 HEAT:  81.57241
 CYCLE:   524 TIME:   0.152 TIME LEFT:  2.00D  GRAD.:     0.375 HEAT:  81.57225
 CYCLE:   525 TIME:   0.172 TIME LEFT:  2.00D  GRAD.:     0.788 HEAT:  81.57216
 CYCLE:   526 TIME:   0.160 TIME LEFT:  2.00D  GRAD.:     0.407 HEAT:  81.57205
 CYCLE:   527 TIME:   0.137 TIME LEFT:  2.00D  GRAD.:     0.383 HEAT:  81.57197
 CYCLE:   528 TIME:   0.141 TIME LEFT:  2.00D  GRAD.:     0.400 HEAT:  81.57184
 CYCLE:   529 TIME:   0.152 TIME LEFT:  2.00D  GRAD.:     0.638 HEAT:  81.57169
 CYCLE:   530 TIME:   0.160 TIME LEFT:  2.00D  GRAD.:     0.453 HEAT:  81.57152
 CYCLE:   531 TIME:   0.145 TIME LEFT:  2.00D  GRAD.:     0.333 HEAT:  81.57142
 CYCLE:   532 TIME:   0.156 TIME LEFT:  2.00D  GRAD.:     0.397 HEAT:  81.57128
 CYCLE:   533 TIME:   0.180 TIME LEFT:  2.00D  GRAD.:     0.555 HEAT:  81.57113
 CYCLE:   534 TIME:   0.195 TIME LEFT:  2.00D  GRAD.:     0.556 HEAT:  81.57094
 CYCLE:   535 TIME:   0.180 TIME LEFT:  2.00D  GRAD.:     0.396 HEAT:  81.57081
 CYCLE:   536 TIME:   0.180 TIME LEFT:  2.00D  GRAD.:     0.413 HEAT:  81.57070
 CYCLE:   537 TIME:   0.184 TIME LEFT:  2.00D  GRAD.:     0.505 HEAT:  81.57057
 CYCLE:   538 TIME:   0.176 TIME LEFT:  2.00D  GRAD.:     0.853 HEAT:  81.57042
 CYCLE:   539 TIME:   0.172 TIME LEFT:  2.00D  GRAD.:     0.382 HEAT:  81.57027
 CYCLE:   540 TIME:   0.180 TIME LEFT:  2.00D  GRAD.:     0.368 HEAT:  81.57017
 CYCLE:   541 TIME:   0.180 TIME LEFT:  2.00D  GRAD.:     0.683 HEAT:  81.57008
 CYCLE:   542 TIME:   0.145 TIME LEFT:  2.00D  GRAD.:     0.514 HEAT:  81.56998
 CYCLE:   543 TIME:   0.152 TIME LEFT:  2.00D  GRAD.:     0.328 HEAT:  81.56978
 CYCLE:   544 TIME:   0.188 TIME LEFT:  2.00D  GRAD.:     0.410 HEAT:  81.56965
 CYCLE:   545 TIME:   0.211 TIME LEFT:  2.00D  GRAD.:     0.527 HEAT:  81.56953
 CYCLE:   546 TIME:   0.199 TIME LEFT:  2.00D  GRAD.:     0.405 HEAT:  81.56941
 CYCLE:   547 TIME:   0.195 TIME LEFT:  2.00D  GRAD.:     0.315 HEAT:  81.56930
 CYCLE:   548 TIME:   0.207 TIME LEFT:  2.00D  GRAD.:     0.378 HEAT:  81.56921
 CYCLE:   549 TIME:   0.270 TIME LEFT:  2.00D  GRAD.:     0.417 HEAT:  81.56911
 CYCLE:   550 TIME:   0.219 TIME LEFT:  2.00D  GRAD.:     0.301 HEAT:  81.56900
 CYCLE:   551 TIME:   0.168 TIME LEFT:  2.00D  GRAD.:     0.311 HEAT:  81.56892
 CYCLE:   552 TIME:   0.195 TIME LEFT:  2.00D  GRAD.:     0.416 HEAT:  81.56881
 CYCLE:   553 TIME:   0.164 TIME LEFT:  2.00D  GRAD.:     0.391 HEAT:  81.56871
 CYCLE:   554 TIME:   0.184 TIME LEFT:  2.00D  GRAD.:     0.413 HEAT:  81.56861
 CYCLE:   555 TIME:   0.184 TIME LEFT:  2.00D  GRAD.:     0.867 HEAT:  81.56855
 CYCLE:   556 TIME:   0.176 TIME LEFT:  2.00D  GRAD.:     0.346 HEAT:  81.56847
 CYCLE:   557 TIME:   0.180 TIME LEFT:  2.00D  GRAD.:     0.337 HEAT:  81.56841
 CYCLE:   558 TIME:   0.176 TIME LEFT:  2.00D  GRAD.:     0.398 HEAT:  81.56834
 CYCLE:   559 TIME:   0.188 TIME LEFT:  2.00D  GRAD.:     0.612 HEAT:  81.56823
 CYCLE:   560 TIME:   0.191 TIME LEFT:  2.00D  GRAD.:     0.524 HEAT:  81.56809
 CYCLE:   561 TIME:   0.180 TIME LEFT:  2.00D  GRAD.:     0.317 HEAT:  81.56798
 CYCLE:   562 TIME:   0.180 TIME LEFT:  2.00D  GRAD.:     0.361 HEAT:  81.56788
 CYCLE:   563 TIME:   0.180 TIME LEFT:  2.00D  GRAD.:     0.431 HEAT:  81.56777
 CYCLE:   564 TIME:   0.164 TIME LEFT:  2.00D  GRAD.:     0.698 HEAT:  81.56765
 CYCLE:   565 TIME:   0.180 TIME LEFT:  2.00D  GRAD.:     0.343 HEAT:  81.56751
 CYCLE:   566 TIME:   0.156 TIME LEFT:  2.00D  GRAD.:     0.346 HEAT:  81.56742
 CYCLE:   567 TIME:   0.156 TIME LEFT:  2.00D  GRAD.:     0.455 HEAT:  81.56730
 CYCLE:   568 TIME:   0.152 TIME LEFT:  2.00D  GRAD.:     0.864 HEAT:  81.56719
 CYCLE:   569 TIME:   0.160 TIME LEFT:  2.00D  GRAD.:     0.427 HEAT:  81.56702
 CYCLE:   570 TIME:   0.137 TIME LEFT:  2.00D  GRAD.:     0.407 HEAT:  81.56687
 CYCLE:   571 TIME:   0.145 TIME LEFT:  2.00D  GRAD.:     0.920 HEAT:  81.56679
 CYCLE:   572 TIME:   0.176 TIME LEFT:  2.00D  GRAD.:     0.609 HEAT:  81.56669
 CYCLE:   573 TIME:   0.188 TIME LEFT:  2.00D  GRAD.:     0.402 HEAT:  81.56650
 CYCLE:   574 TIME:   0.176 TIME LEFT:  2.00D  GRAD.:     0.445 HEAT:  81.56639
 CYCLE:   575 TIME:   0.188 TIME LEFT:  2.00D  GRAD.:     0.511 HEAT:  81.56617
 CYCLE:   576 TIME:   0.152 TIME LEFT:  2.00D  GRAD.:     1.281 HEAT:  81.56615
 CYCLE:   577 TIME:   0.133 TIME LEFT:  2.00D  GRAD.:     0.563 HEAT:  81.56595
 CYCLE:   578 TIME:   0.168 TIME LEFT:  2.00D  GRAD.:     0.344 HEAT:  81.56585
 CYCLE:   579 TIME:   0.168 TIME LEFT:  2.00D  GRAD.:     0.395 HEAT:  81.56576
 CYCLE:   580 TIME:   0.180 TIME LEFT:  2.00D  GRAD.:     0.477 HEAT:  81.56561
 CYCLE:   581 TIME:   0.172 TIME LEFT:  2.00D  GRAD.:     1.242 HEAT:  81.56560
 CYCLE:   582 TIME:   0.148 TIME LEFT:  2.00D  GRAD.:     0.392 HEAT:  81.56540
 CYCLE:   583 TIME:   0.176 TIME LEFT:  2.00D  GRAD.:     0.248 HEAT:  81.56533
 CYCLE:   584 TIME:   0.156 TIME LEFT:  2.00D  GRAD.:     0.323 HEAT:  81.56527
 CYCLE:   585 TIME:   0.188 TIME LEFT:  2.00D  GRAD.:     0.494 HEAT:  81.56514
 CYCLE:   586 TIME:   0.188 TIME LEFT:  2.00D  GRAD.:     2.208 HEAT:  81.56537
 CYCLE:   587 TIME:   0.172 TIME LEFT:  2.00D  GRAD.:     0.428 HEAT:  81.56498
 CYCLE:   588 TIME:   0.180 TIME LEFT:  2.00D  GRAD.:     0.302 HEAT:  81.56492
 CYCLE:   589 TIME:   0.148 TIME LEFT:  2.00D  GRAD.:     0.333 HEAT:  81.56481
 CYCLE:   590 TIME:   0.156 TIME LEFT:  2.00D  GRAD.:     0.450 HEAT:  81.56469
 CYCLE:   591 TIME:   0.172 TIME LEFT:  2.00D  GRAD.:     0.718 HEAT:  81.56462
 CYCLE:   592 TIME:   0.137 TIME LEFT:  2.00D  GRAD.:     0.300 HEAT:  81.56451
 CYCLE:   593 TIME:   0.148 TIME LEFT:  2.00D  GRAD.:     0.298 HEAT:  81.56443
 CYCLE:   594 TIME:   0.129 TIME LEFT:  2.00D  GRAD.:     0.353 HEAT:  81.56434
 CYCLE:   595 TIME:   0.160 TIME LEFT:  2.00D  GRAD.:     0.840 HEAT:  81.56421
 CYCLE:   596 TIME:   0.180 TIME LEFT:  2.00D  GRAD.:     0.416 HEAT:  81.56404
 CYCLE:   597 TIME:   0.176 TIME LEFT:  2.00D  GRAD.:     0.331 HEAT:  81.56395
 CYCLE:   598 TIME:   0.172 TIME LEFT:  2.00D  GRAD.:     0.388 HEAT:  81.56378
 CYCLE:   599 TIME:   0.156 TIME LEFT:  2.00D  GRAD.:     1.182 HEAT:  81.56372
 CYCLE:   600 TIME:   0.145 TIME LEFT:  2.00D  GRAD.:     0.463 HEAT:  81.56355
 CYCLE:   601 TIME:   0.148 TIME LEFT:  2.00D  GRAD.:     0.322 HEAT:  81.56345
 CYCLE:   602 TIME:   0.164 TIME LEFT:  2.00D  GRAD.:     0.619 HEAT:  81.56331
 CYCLE:   603 TIME:   0.152 TIME LEFT:  2.00D  GRAD.:     0.773 HEAT:  81.56317
 CYCLE:   604 TIME:   0.145 TIME LEFT:  2.00D  GRAD.:     0.549 HEAT:  81.56297
 CYCLE:   605 TIME:   0.152 TIME LEFT:  2.00D  GRAD.:     0.488 HEAT:  81.56272
 CYCLE:   606 TIME:   0.145 TIME LEFT:  2.00D  GRAD.:     0.578 HEAT:  81.56252
 CYCLE:   607 TIME:   0.145 TIME LEFT:  2.00D  GRAD.:     0.527 HEAT:  81.56233
 CYCLE:   608 TIME:   0.148 TIME LEFT:  2.00D  GRAD.:     0.510 HEAT:  81.56208
 CYCLE:   609 TIME:   0.148 TIME LEFT:  2.00D  GRAD.:     1.010 HEAT:  81.56196
 CYCLE:   610 TIME:   0.148 TIME LEFT:  2.00D  GRAD.:     0.476 HEAT:  81.56176
 CYCLE:   611 TIME:   0.152 TIME LEFT:  2.00D  GRAD.:     0.448 HEAT:  81.56161
 CYCLE:   612 TIME:   0.148 TIME LEFT:  2.00D  GRAD.:     0.536 HEAT:  81.56142
 CYCLE:   613 TIME:   0.156 TIME LEFT:  2.00D  GRAD.:     0.880 HEAT:  81.56119
 CYCLE:   614 TIME:   0.156 TIME LEFT:  2.00D  GRAD.:     0.564 HEAT:  81.56099
 CYCLE:   615 TIME:   0.133 TIME LEFT:  2.00D  GRAD.:     0.339 HEAT:  81.56088
 CYCLE:   616 TIME:   0.160 TIME LEFT:  2.00D  GRAD.:     0.362 HEAT:  81.56078
 CYCLE:   617 TIME:   0.156 TIME LEFT:  2.00D  GRAD.:     0.856 HEAT:  81.56071
 CYCLE:   618 TIME:   0.164 TIME LEFT:  2.00D  GRAD.:     0.437 HEAT:  81.56062
 CYCLE:   619 TIME:   0.160 TIME LEFT:  2.00D  GRAD.:     0.387 HEAT:  81.56052
 CYCLE:   620 TIME:   0.137 TIME LEFT:  2.00D  GRAD.:     0.406 HEAT:  81.56046
 CYCLE:   621 TIME:   0.133 TIME LEFT:  2.00D  GRAD.:     0.514 HEAT:  81.56031
 CYCLE:   622 TIME:   0.180 TIME LEFT:  2.00D  GRAD.:     1.314 HEAT:  81.56036
 CYCLE:   623 TIME:   0.172 TIME LEFT:  2.00D  GRAD.:     0.364 HEAT:  81.56011
 CYCLE:   624 TIME:   0.164 TIME LEFT:  2.00D  GRAD.:     0.271 HEAT:  81.56004
 CYCLE:   625 TIME:   0.184 TIME LEFT:  2.00D  GRAD.:     0.315 HEAT:  81.55993
 CYCLE:   626 TIME:   0.164 TIME LEFT:  2.00D  GRAD.:     0.381 HEAT:  81.55977
 CYCLE:   627 TIME:   0.191 TIME LEFT:  2.00D  GRAD.:     0.495 HEAT:  81.55966
 CYCLE:   628 TIME:   0.184 TIME LEFT:  2.00D  GRAD.:     0.472 HEAT:  81.55955
 CYCLE:   629 TIME:   0.176 TIME LEFT:  2.00D  GRAD.:     0.605 HEAT:  81.55947
 CYCLE:   630 TIME:   0.172 TIME LEFT:  2.00D  GRAD.:     0.277 HEAT:  81.55938
 CYCLE:   631 TIME:   0.176 TIME LEFT:  2.00D  GRAD.:     0.271 HEAT:  81.55933
 CYCLE:   632 TIME:   0.188 TIME LEFT:  2.00D  GRAD.:     0.448 HEAT:  81.55925
 CYCLE:   633 TIME:   0.152 TIME LEFT:  2.00D  GRAD.:     0.438 HEAT:  81.55914
 CYCLE:   634 TIME:   0.188 TIME LEFT:  2.00D  GRAD.:     0.705 HEAT:  81.55905
 CYCLE:   635 TIME:   0.188 TIME LEFT:  2.00D  GRAD.:     0.371 HEAT:  81.55896
 CYCLE:   636 TIME:   0.168 TIME LEFT:  2.00D  GRAD.:     0.320 HEAT:  81.55892
 CYCLE:   637 TIME:   0.188 TIME LEFT:  2.00D  GRAD.:     0.644 HEAT:  81.55887
 CYCLE:   638 TIME:   0.188 TIME LEFT:  2.00D  GRAD.:     1.457 HEAT:  81.55893
 CYCLE:   639 TIME:   0.176 TIME LEFT:  2.00D  GRAD.:     0.289 HEAT:  81.55866
 CYCLE:   640 TIME:   0.152 TIME LEFT:  2.00D  GRAD.:     0.260 HEAT:  81.55860
 CYCLE:   641 TIME:   0.141 TIME LEFT:  2.00D  GRAD.:     0.355 HEAT:  81.55850
 CYCLE:   642 TIME:   0.160 TIME LEFT:  2.00D  GRAD.:     0.419 HEAT:  81.55837
 CYCLE:   643 TIME:   0.184 TIME LEFT:  2.00D  GRAD.:     0.892 HEAT:  81.55832
 CYCLE:   644 TIME:   0.176 TIME LEFT:  2.00D  GRAD.:     0.326 HEAT:  81.55815
 CYCLE:   645 TIME:   0.176 TIME LEFT:  2.00D  GRAD.:     0.304 HEAT:  81.55806
 CYCLE:   646 TIME:   0.137 TIME LEFT:  2.00D  GRAD.:     0.329 HEAT:  81.55796
 CYCLE:   647 TIME:   0.145 TIME LEFT:  2.00D  GRAD.:     0.670 HEAT:  81.55779
 CYCLE:   648 TIME:   0.156 TIME LEFT:  2.00D  GRAD.:     0.333 HEAT:  81.55763
 CYCLE:   649 TIME:   0.145 TIME LEFT:  2.00D  GRAD.:     0.318 HEAT:  81.55756
 CYCLE:   650 TIME:   0.152 TIME LEFT:  2.00D  GRAD.:     0.538 HEAT:  81.55746
 CYCLE:   651 TIME:   0.164 TIME LEFT:  2.00D  GRAD.:     0.483 HEAT:  81.55740
 CYCLE:   652 TIME:   0.160 TIME LEFT:  2.00D  GRAD.:     0.357 HEAT:  81.55736
 CYCLE:   653 TIME:   0.172 TIME LEFT:  2.00D  GRAD.:     0.562 HEAT:  81.55728
 CYCLE:   654 TIME:   0.148 TIME LEFT:  2.00D  GRAD.:     0.479 HEAT:  81.55720
 CYCLE:   655 TIME:   0.137 TIME LEFT:  2.00D  GRAD.:     0.308 HEAT:  81.55715
 CYCLE:   656 TIME:   0.156 TIME LEFT:  2.00D  GRAD.:     0.245 HEAT:  81.55706
 CYCLE:   657 TIME:   0.164 TIME LEFT:  2.00D  GRAD.:     0.320 HEAT:  81.55697
 CYCLE:   658 TIME:   0.160 TIME LEFT:  2.00D  GRAD.:     0.584 HEAT:  81.55687
 CYCLE:   659 TIME:   0.152 TIME LEFT:  2.00D  GRAD.:     0.321 HEAT:  81.55675
 CYCLE:   660 TIME:   0.160 TIME LEFT:  2.00D  GRAD.:     0.312 HEAT:  81.55664
 CYCLE:   661 TIME:   0.172 TIME LEFT:  2.00D  GRAD.:     0.397 HEAT:  81.55651
 CYCLE:   662 TIME:   0.184 TIME LEFT:  2.00D  GRAD.:     0.722 HEAT:  81.55637
 CYCLE:   663 TIME:   0.168 TIME LEFT:  2.00D  GRAD.:     0.383 HEAT:  81.55620
 CYCLE:   664 TIME:   0.145 TIME LEFT:  2.00D  GRAD.:     0.345 HEAT:  81.55606
 CYCLE:   665 TIME:   0.176 TIME LEFT:  2.00D  GRAD.:     0.411 HEAT:  81.55592
 CYCLE:   666 TIME:   0.141 TIME LEFT:  2.00D  GRAD.:     0.891 HEAT:  81.55580
 CYCLE:   667 TIME:   0.180 TIME LEFT:  2.00D  GRAD.:     0.561 HEAT:  81.55565
 CYCLE:   668 TIME:   0.172 TIME LEFT:  2.00D  GRAD.:     0.341 HEAT:  81.55554
 CYCLE:   669 TIME:   0.160 TIME LEFT:  2.00D  GRAD.:     0.494 HEAT:  81.55544
 CYCLE:   670 TIME:   0.176 TIME LEFT:  2.00D  GRAD.:     0.432 HEAT:  81.55526
 CYCLE:   671 TIME:   0.188 TIME LEFT:  2.00D  GRAD.:     0.815 HEAT:  81.55503
 CYCLE:   672 TIME:   0.145 TIME LEFT:  2.00D  GRAD.:     0.423 HEAT:  81.55490
 CYCLE:   673 TIME:   0.145 TIME LEFT:  2.00D  GRAD.:     0.428 HEAT:  81.55480
 CYCLE:   674 TIME:   0.184 TIME LEFT:  2.00D  GRAD.:     0.658 HEAT:  81.55455
 CYCLE:   675 TIME:   0.195 TIME LEFT:  2.00D  GRAD.:     0.773 HEAT:  81.55433
 CYCLE:   676 TIME:   0.191 TIME LEFT:  2.00D  GRAD.:     1.103 HEAT:  81.55416
 CYCLE:   677 TIME:   0.188 TIME LEFT:  2.00D  GRAD.:     0.547 HEAT:  81.55384
 CYCLE:   678 TIME:   0.180 TIME LEFT:  2.00D  GRAD.:     0.539 HEAT:  81.55356
 CYCLE:   679 TIME:   0.191 TIME LEFT:  2.00D  GRAD.:     0.627 HEAT:  81.55334
 CYCLE:   680 TIME:   0.168 TIME LEFT:  2.00D  GRAD.:     1.291 HEAT:  81.55302
 CYCLE:   681 TIME:   0.191 TIME LEFT:  2.00D  GRAD.:     0.692 HEAT:  81.55271
 CYCLE:   682 TIME:   0.188 TIME LEFT:  2.00D  GRAD.:     0.495 HEAT:  81.55252
 CYCLE:   683 TIME:   0.176 TIME LEFT:  2.00D  GRAD.:     0.459 HEAT:  81.55230
 CYCLE:   684 TIME:   0.195 TIME LEFT:  2.00D  GRAD.:     0.600 HEAT:  81.55203
 CYCLE:   685 TIME:   0.156 TIME LEFT:  2.00D  GRAD.:     0.579 HEAT:  81.55183
 CYCLE:   686 TIME:   0.180 TIME LEFT:  2.00D  GRAD.:     0.449 HEAT:  81.55166
 CYCLE:   687 TIME:   0.176 TIME LEFT:  2.00D  GRAD.:     0.448 HEAT:  81.55149
 CYCLE:   688 TIME:   0.188 TIME LEFT:  2.00D  GRAD.:     0.593 HEAT:  81.55127
 CYCLE:   689 TIME:   0.148 TIME LEFT:  2.00D  GRAD.:     0.955 HEAT:  81.55111
 CYCLE:   690 TIME:   0.176 TIME LEFT:  2.00D  GRAD.:     0.562 HEAT:  81.55091
 CYCLE:   691 TIME:   0.176 TIME LEFT:  2.00D  GRAD.:     0.466 HEAT:  81.55076
 CYCLE:   692 TIME:   0.191 TIME LEFT:  2.00D  GRAD.:     0.662 HEAT:  81.55055
 CYCLE:   693 TIME:   0.184 TIME LEFT:  2.00D  GRAD.:     0.841 HEAT:  81.55037
 CYCLE:   694 TIME:   0.172 TIME LEFT:  2.00D  GRAD.:     0.455 HEAT:  81.55013
 CYCLE:   695 TIME:   0.184 TIME LEFT:  2.00D  GRAD.:     0.468 HEAT:  81.55000
 CYCLE:   696 TIME:   0.184 TIME LEFT:  2.00D  GRAD.:     0.560 HEAT:  81.54984
 CYCLE:   697 TIME:   0.164 TIME LEFT:  2.00D  GRAD.:     0.943 HEAT:  81.54965
 CYCLE:   698 TIME:   0.184 TIME LEFT:  2.00D  GRAD.:     0.667 HEAT:  81.54946
 CYCLE:   699 TIME:   0.172 TIME LEFT:  2.00D  GRAD.:     0.568 HEAT:  81.54933
 CYCLE:   700 TIME:   0.188 TIME LEFT:  2.00D  GRAD.:     0.528 HEAT:  81.54912
 CYCLE:   701 TIME:   0.145 TIME LEFT:  2.00D  GRAD.:     0.544 HEAT:  81.54892
 CYCLE:   702 TIME:   0.145 TIME LEFT:  2.00D  GRAD.:     0.791 HEAT:  81.54866
 CYCLE:   703 TIME:   0.145 TIME LEFT:  2.00D  GRAD.:     0.574 HEAT:  81.54841
 CYCLE:   704 TIME:   0.160 TIME LEFT:  2.00D  GRAD.:     0.598 HEAT:  81.54815
 CYCLE:   705 TIME:   0.160 TIME LEFT:  2.00D  GRAD.:     0.673 HEAT:  81.54787
 CYCLE:   706 TIME:   0.164 TIME LEFT:  2.00D  GRAD.:     0.801 HEAT:  81.54749
 CYCLE:   707 TIME:   0.156 TIME LEFT:  2.00D  GRAD.:     1.091 HEAT:  81.54710
 CYCLE:   708 TIME:   0.152 TIME LEFT:  2.00D  GRAD.:     0.623 HEAT:  81.54667
 CYCLE:   709 TIME:   0.195 TIME LEFT:  2.00D  GRAD.:     0.705 HEAT:  81.54622
 CYCLE:   710 TIME:   0.184 TIME LEFT:  2.00D  GRAD.:     0.813 HEAT:  81.54582
 CYCLE:   711 TIME:   0.184 TIME LEFT:  2.00D  GRAD.:     1.099 HEAT:  81.54529
 CYCLE:   712 TIME:   0.160 TIME LEFT:  2.00D  GRAD.:     0.999 HEAT:  81.54471
 CYCLE:   713 TIME:   0.145 TIME LEFT:  2.00D  GRAD.:     2.037 HEAT:  81.54439
 CYCLE:   714 TIME:   0.160 TIME LEFT:  2.00D  GRAD.:     0.922 HEAT:  81.54384
 CYCLE:   715 TIME:   0.172 TIME LEFT:  2.00D  GRAD.:     1.049 HEAT:  81.54362
 CYCLE:   716 TIME:   0.148 TIME LEFT:  2.00D  GRAD.:     1.041 HEAT:  81.54310
 CYCLE:   717 TIME:   0.164 TIME LEFT:  2.00D  GRAD.:     0.977 HEAT:  81.54234
 CYCLE:   718 TIME:   0.168 TIME LEFT:  2.00D  GRAD.:     0.890 HEAT:  81.54177
 CYCLE:   719 TIME:   0.160 TIME LEFT:  2.00D  GRAD.:     0.796 HEAT:  81.54133
 CYCLE:   720 TIME:   0.172 TIME LEFT:  2.00D  GRAD.:     2.106 HEAT:  81.54090
 CYCLE:   721 TIME:   0.141 TIME LEFT:  2.00D  GRAD.:     0.794 HEAT:  81.54006
 CYCLE:   722 TIME:   0.168 TIME LEFT:  2.00D  GRAD.:     0.768 HEAT:  81.53972
 CYCLE:   723 TIME:   0.164 TIME LEFT:  2.00D  GRAD.:     1.309 HEAT:  81.53872
 CYCLE:   724 TIME:   0.168 TIME LEFT:  2.00D  GRAD.:     1.818 HEAT:  81.53824
 CYCLE:   725 TIME:   0.148 TIME LEFT:  2.00D  GRAD.:     0.748 HEAT:  81.53747
 CYCLE:   726 TIME:   0.137 TIME LEFT:  2.00D  GRAD.:     0.745 HEAT:  81.53704
 CYCLE:   727 TIME:   0.156 TIME LEFT:  2.00D  GRAD.:     1.233 HEAT:  81.53626
 CYCLE:   728 TIME:   0.227 TIME LEFT:  2.00D  GRAD.:     2.681 HEAT:  81.53624
 CYCLE:   729 TIME:   0.219 TIME LEFT:  2.00D  GRAD.:     0.771 HEAT:  81.53550
 CYCLE:   730 TIME:   0.211 TIME LEFT:  2.00D  GRAD.:     0.685 HEAT:  81.53532
 CYCLE:   731 TIME:   0.191 TIME LEFT:  2.00D  GRAD.:     0.781 HEAT:  81.53476
 CYCLE:   732 TIME:   0.176 TIME LEFT:  2.00D  GRAD.:     1.493 HEAT:  81.53377
 CYCLE:   733 TIME:   0.180 TIME LEFT:  2.00D  GRAD.:     1.210 HEAT:  81.53314
 CYCLE:   734 TIME:   0.191 TIME LEFT:  2.00D  GRAD.:     0.731 HEAT:  81.53271
 CYCLE:   735 TIME:   0.191 TIME LEFT:  2.00D  GRAD.:     0.887 HEAT:  81.53206
 CYCLE:   736 TIME:   0.195 TIME LEFT:  2.00D  GRAD.:     0.796 HEAT:  81.53163
 CYCLE:   737 TIME:   0.199 TIME LEFT:  2.00D  GRAD.:     0.742 HEAT:  81.53100
 CYCLE:   738 TIME:   0.203 TIME LEFT:  2.00D  GRAD.:     0.982 HEAT:  81.53051
 CYCLE:   739 TIME:   0.191 TIME LEFT:  2.00D  GRAD.:     1.033 HEAT:  81.53014
 CYCLE:   740 TIME:   0.188 TIME LEFT:  2.00D  GRAD.:     0.658 HEAT:  81.52982
 CYCLE:   741 TIME:   0.199 TIME LEFT:  2.00D  GRAD.:     0.674 HEAT:  81.52942
 CYCLE:   742 TIME:   0.191 TIME LEFT:  2.00D  GRAD.:     0.818 HEAT:  81.52895
 CYCLE:   743 TIME:   0.199 TIME LEFT:  2.00D  GRAD.:     1.213 HEAT:  81.52835
 CYCLE:   744 TIME:   0.195 TIME LEFT:  2.00D  GRAD.:     1.608 HEAT:  81.52799
 CYCLE:   745 TIME:   0.184 TIME LEFT:  2.00D  GRAD.:     0.798 HEAT:  81.52761
 CYCLE:   746 TIME:   0.191 TIME LEFT:  2.00D  GRAD.:     0.692 HEAT:  81.52728
 CYCLE:   747 TIME:   0.191 TIME LEFT:  2.00D  GRAD.:     1.040 HEAT:  81.52687
 CYCLE:   748 TIME:   0.191 TIME LEFT:  2.00D  GRAD.:     1.059 HEAT:  81.52615
 CYCLE:   749 TIME:   0.191 TIME LEFT:  2.00D  GRAD.:     1.404 HEAT:  81.52528
 CYCLE:   750 TIME:   0.191 TIME LEFT:  2.00D  GRAD.:     0.882 HEAT:  81.52466
 CYCLE:   751 TIME:   0.176 TIME LEFT:  2.00D  GRAD.:     0.769 HEAT:  81.52434
 CYCLE:   752 TIME:   0.191 TIME LEFT:  2.00D  GRAD.:     0.768 HEAT:  81.52356
 CYCLE:   753 TIME:   0.180 TIME LEFT:  2.00D  GRAD.:     1.812 HEAT:  81.52331
 CYCLE:   754 TIME:   0.176 TIME LEFT:  2.00D  GRAD.:     0.817 HEAT:  81.52278
 CYCLE:   755 TIME:   0.180 TIME LEFT:  2.00D  GRAD.:     0.614 HEAT:  81.52240
 CYCLE:   756 TIME:   0.156 TIME LEFT:  2.00D  GRAD.:     0.777 HEAT:  81.52203
 CYCLE:   757 TIME:   0.148 TIME LEFT:  2.00D  GRAD.:     1.396 HEAT:  81.52149
 CYCLE:   758 TIME:   0.180 TIME LEFT:  2.00D  GRAD.:     0.870 HEAT:  81.52088
 CYCLE:   759 TIME:   0.168 TIME LEFT:  2.00D  GRAD.:     0.994 HEAT:  81.52044
 CYCLE:   760 TIME:   0.156 TIME LEFT:  2.00D  GRAD.:     0.951 HEAT:  81.52003
 CYCLE:   761 TIME:   0.180 TIME LEFT:  2.00D  GRAD.:     0.775 HEAT:  81.51968
 CYCLE:   762 TIME:   0.191 TIME LEFT:  2.00D  GRAD.:     0.941 HEAT:  81.51909
 CYCLE:   763 TIME:   0.195 TIME LEFT:  2.00D  GRAD.:     1.162 HEAT:  81.51876
 CYCLE:   764 TIME:   0.152 TIME LEFT:  2.00D  GRAD.:     0.712 HEAT:  81.51846
 CYCLE:   765 TIME:   0.195 TIME LEFT:  2.00D  GRAD.:     0.566 HEAT:  81.51802
 CYCLE:   766 TIME:   0.184 TIME LEFT:  2.00D  GRAD.:     0.710 HEAT:  81.51770
 CYCLE:   767 TIME:   0.184 TIME LEFT:  2.00D  GRAD.:     0.899 HEAT:  81.51733
 CYCLE:   768 TIME:   0.188 TIME LEFT:  2.00D  GRAD.:     0.611 HEAT:  81.51700
 CYCLE:   769 TIME:   0.188 TIME LEFT:  2.00D  GRAD.:     0.578 HEAT:  81.51673
 CYCLE:   770 TIME:   0.188 TIME LEFT:  2.00D  GRAD.:     0.668 HEAT:  81.51632
 CYCLE:   771 TIME:   0.199 TIME LEFT:  2.00D  GRAD.:     1.504 HEAT:  81.51601
 CYCLE:   772 TIME:   0.148 TIME LEFT:  2.00D  GRAD.:     0.714 HEAT:  81.51548
 CYCLE:   773 TIME:   0.172 TIME LEFT:  2.00D  GRAD.:     0.645 HEAT:  81.51514
 CYCLE:   774 TIME:   0.156 TIME LEFT:  2.00D  GRAD.:     1.115 HEAT:  81.51487
 CYCLE:   775 TIME:   0.160 TIME LEFT:  2.00D  GRAD.:     0.677 HEAT:  81.51460
 CYCLE:   776 TIME:   0.145 TIME LEFT:  2.00D  GRAD.:     0.720 HEAT:  81.51429
 CYCLE:   777 TIME:   0.184 TIME LEFT:  2.00D  GRAD.:     0.789 HEAT:  81.51393
 CYCLE:   778 TIME:   0.180 TIME LEFT:  2.00D  GRAD.:     1.601 HEAT:  81.51364
 CYCLE:   779 TIME:   0.180 TIME LEFT:  2.00D  GRAD.:     0.665 HEAT:  81.51321
 CYCLE:   780 TIME:   0.145 TIME LEFT:  2.00D  GRAD.:     0.499 HEAT:  81.51297
 CYCLE:   781 TIME:   0.148 TIME LEFT:  2.00D  GRAD.:     0.622 HEAT:  81.51278
 CYCLE:   782 TIME:   0.176 TIME LEFT:  2.00D  GRAD.:     0.735 HEAT:  81.51237
 CYCLE:   783 TIME:   0.203 TIME LEFT:  2.00D  GRAD.:     2.310 HEAT:  81.51257
 CYCLE:   784 TIME:   0.180 TIME LEFT:  2.00D  GRAD.:     0.551 HEAT:  81.51179
 CYCLE:   785 TIME:   0.176 TIME LEFT:  2.00D  GRAD.:     0.442 HEAT:  81.51164
 CYCLE:   786 TIME:   0.148 TIME LEFT:  2.00D  GRAD.:     0.704 HEAT:  81.51125
 CYCLE:   787 TIME:   0.160 TIME LEFT:  2.00D  GRAD.:     0.755 HEAT:  81.51089
 CYCLE:   788 TIME:   0.156 TIME LEFT:  2.00D  GRAD.:     1.241 HEAT:  81.51050
 CYCLE:   789 TIME:   0.156 TIME LEFT:  2.00D  GRAD.:     2.195 HEAT:  81.51041
 CYCLE:   790 TIME:   0.152 TIME LEFT:  2.00D  GRAD.:     0.655 HEAT:  81.50996
 CYCLE:   791 TIME:   0.156 TIME LEFT:  2.00D  GRAD.:     0.575 HEAT:  81.50981
 CYCLE:   792 TIME:   0.152 TIME LEFT:  2.00D  GRAD.:     0.757 HEAT:  81.50953
 CYCLE:   793 TIME:   0.145 TIME LEFT:  2.00D  GRAD.:     0.846 HEAT:  81.50910
 CYCLE:   794 TIME:   0.152 TIME LEFT:  2.00D  GRAD.:     1.837 HEAT:  81.50882
 CYCLE:   795 TIME:   1.023 TIME LEFT:  2.00D  GRAD.:     0.726 HEAT:  81.50820
 CYCLE:   796 TIME:   0.195 TIME LEFT:  2.00D  GRAD.:     0.594 HEAT:  81.50795
 CYCLE:   797 TIME:   0.184 TIME LEFT:  2.00D  GRAD.:     0.753 HEAT:  81.50754
 CYCLE:   798 TIME:   0.152 TIME LEFT:  2.00D  GRAD.:     0.862 HEAT:  81.50698
 CYCLE:   799 TIME:   0.160 TIME LEFT:  2.00D  GRAD.:     1.483 HEAT:  81.50657
 CYCLE:   800 TIME:   0.160 TIME LEFT:  2.00D  GRAD.:     0.709 HEAT:  81.50605
 CYCLE:   801 TIME:   0.172 TIME LEFT:  2.00D  GRAD.:     0.560 HEAT:  81.50568
 CYCLE:   802 TIME:   0.172 TIME LEFT:  2.00D  GRAD.:     0.638 HEAT:  81.50544
 CYCLE:   803 TIME:   0.176 TIME LEFT:  2.00D  GRAD.:     1.472 HEAT:  81.50526
 CYCLE:   804 TIME:   0.164 TIME LEFT:  2.00D  GRAD.:     0.569 HEAT:  81.50494
 CYCLE:   805 TIME:   0.152 TIME LEFT:  2.00D  GRAD.:     0.374 HEAT:  81.50483
 CYCLE:   806 TIME:   0.176 TIME LEFT:  2.00D  GRAD.:     0.506 HEAT:  81.50469
 CYCLE:   807 TIME:   0.191 TIME LEFT:  2.00D  GRAD.:     1.145 HEAT:  81.50454
 CYCLE:   808 TIME:   0.160 TIME LEFT:  2.00D  GRAD.:     0.593 HEAT:  81.50437
 CYCLE:   809 TIME:   0.164 TIME LEFT:  2.00D  GRAD.:     0.341 HEAT:  81.50424
 CYCLE:   810 TIME:   0.145 TIME LEFT:  2.00D  GRAD.:     0.410 HEAT:  81.50416
 CYCLE:   811 TIME:   0.152 TIME LEFT:  2.00D  GRAD.:     0.478 HEAT:  81.50396
 CYCLE:   812 TIME:   0.191 TIME LEFT:  2.00D  GRAD.:     0.998 HEAT:  81.50382
 CYCLE:   813 TIME:   0.180 TIME LEFT:  2.00D  GRAD.:     0.402 HEAT:  81.50362
 CYCLE:   814 TIME:   0.184 TIME LEFT:  2.00D  GRAD.:     0.295 HEAT:  81.50352
 CYCLE:   815 TIME:   0.184 TIME LEFT:  2.00D  GRAD.:     0.448 HEAT:  81.50340
 CYCLE:   816 TIME:   0.168 TIME LEFT:  2.00D  GRAD.:     0.570 HEAT:  81.50327
 CYCLE:   817 TIME:   0.168 TIME LEFT:  2.00D  GRAD.:     0.456 HEAT:  81.50312
 CYCLE:   818 TIME:   0.164 TIME LEFT:  2.00D  GRAD.:     0.796 HEAT:  81.50294
 CYCLE:   819 TIME:   0.164 TIME LEFT:  2.00D  GRAD.:     0.538 HEAT:  81.50279
 CYCLE:   820 TIME:   0.348 TIME LEFT:  2.00D  GRAD.:     0.478 HEAT:  81.50269
 CYCLE:   821 TIME:   0.184 TIME LEFT:  2.00D  GRAD.:     0.787 HEAT:  81.50236
 CYCLE:   822 TIME:   0.191 TIME LEFT:  2.00D  GRAD.:     0.926 HEAT:  81.50219
 CYCLE:   823 TIME:   0.152 TIME LEFT:  2.00D  GRAD.:     0.511 HEAT:  81.50201
 CYCLE:   824 TIME:   0.172 TIME LEFT:  2.00D  GRAD.:     0.446 HEAT:  81.50180
 CYCLE:   825 TIME:   0.152 TIME LEFT:  2.00D  GRAD.:     0.680 HEAT:  81.50157
 CYCLE:   826 TIME:   0.152 TIME LEFT:  2.00D  GRAD.:     0.873 HEAT:  81.50124
 CYCLE:   827 TIME:   0.164 TIME LEFT:  2.00D  GRAD.:     0.681 HEAT:  81.50089
 CYCLE:   828 TIME:   0.156 TIME LEFT:  2.00D  GRAD.:     0.802 HEAT:  81.50048
 CYCLE:   829 TIME:   0.203 TIME LEFT:  2.00D  GRAD.:     1.046 HEAT:  81.50010
 CYCLE:   830 TIME:   0.180 TIME LEFT:  2.00D  GRAD.:     0.729 HEAT:  81.49977
 CYCLE:   831 TIME:   0.188 TIME LEFT:  2.00D  GRAD.:     0.612 HEAT:  81.49946
 CYCLE:   832 TIME:   0.184 TIME LEFT:  2.00D  GRAD.:     0.756 HEAT:  81.49905
 CYCLE:   833 TIME:   0.203 TIME LEFT:  2.00D  GRAD.:     1.152 HEAT:  81.49868
 CYCLE:   834 TIME:   0.199 TIME LEFT:  2.00D  GRAD.:     0.821 HEAT:  81.49821
 CYCLE:   835 TIME:   0.195 TIME LEFT:  2.00D  GRAD.:     0.621 HEAT:  81.49781
 CYCLE:   836 TIME:   0.195 TIME LEFT:  2.00D  GRAD.:     0.787 HEAT:  81.49741
 CYCLE:   837 TIME:   0.195 TIME LEFT:  2.00D  GRAD.:     1.253 HEAT:  81.49712
 CYCLE:   838 TIME:   0.184 TIME LEFT:  2.00D  GRAD.:     0.714 HEAT:  81.49679
 CYCLE:   839 TIME:   0.195 TIME LEFT:  2.00D  GRAD.:     0.482 HEAT:  81.49641
 CYCLE:   840 TIME:   0.168 TIME LEFT:  2.00D  GRAD.:     0.527 HEAT:  81.49620
[...]
    7          C          -0.167486        4.1675     1.17922     2.98826
    8          C           0.059293        3.9407     1.15995     2.78076
    9          N          -0.279819        5.2798     1.51250     3.76732
   10          C           0.101334        3.8987     1.15399     2.74468
   11          C          -0.165887        4.1659     1.17036     2.99553
   12          C          -0.056078        4.0561     1.17632     2.87975
   13          C          -0.157174        4.1572     1.17849     2.97869
   14          C          -0.039290        4.0393     1.17276     2.86653
   15          C          -0.081013        4.0810     1.15822     2.92279
   16          C          -0.094248        4.0942     1.15778     2.93646
   17          C           0.143880        3.8561     1.14581     2.71031
   18          C          -0.097660        4.0977     1.15221     2.94545
   19          C          -0.065978        4.0660     1.17653     2.88945
   20          C          -0.243118        4.2431     1.19847     3.04464
   21          S           0.384738        5.6153     1.89215     3.72311
   22          C          -0.217524        4.2175     1.21068     3.00684
   23          C          -0.119905        4.1199     1.16762     2.95228
   24          C           0.054931        3.9451     1.15245     2.79262
   25          C          -0.036911        4.0369     1.16145     2.87546
   26          C          -0.092770        4.0928     1.17919     2.91358
   27          C          -0.108946        4.1089     1.17922     2.92972
   28          C          -0.100605        4.1006     1.17915     2.92145
   29          C          -0.106789        4.1068     1.17896     2.92783
   30          C          -0.094461        4.0945     1.17859     2.91587
   31          C          -0.247182        4.2472     1.20240     3.04478
   32          C          -0.101818        4.1018     1.18222     2.91959
   33          C          -0.088915        4.0889     1.18238     2.90654
   34          C          -0.282044        4.2820     1.20157     3.08047
   35          S           0.460664        5.5393     1.88734     3.65199
   36          C          -0.216474        4.2165     1.20371     3.01277
   37          C          -0.136724        4.1367     1.18464     2.95209
   38          C          -0.019476        4.0195     1.18398     2.83550
   39          C          -0.414951        4.4150     1.21579     3.19916
   40          S           0.494230        5.5058     1.88519     3.62058
   41          C           0.135166        3.8648     1.16999     2.69485
   42          C          -0.131790        4.1318     1.14274     2.98905
   48          H           0.130607        0.8694     0.86939
   49          H           0.061300        0.9387     0.93870
   50          H           0.062077        0.9379     0.93792
   51          H           0.053546        0.9465     0.94645
   52          H           0.060123        0.9399     0.93988
   53          H           0.061399        0.9386     0.93860
   54          H           0.063027        0.9370     0.93697
   55          H           0.058039        0.9420     0.94196
   56          H           0.064001        0.9360     0.93600
   57          H           0.063418        0.9366     0.93658
   58          H           0.058696        0.9413     0.94130
   59          H           0.065111        0.9349     0.93489
   60          H           0.067983        0.9320     0.93202
   61          H           0.064061        0.9359     0.93594
   62          H           0.082317        0.9177     0.91768
   63          H           0.080319        0.9197     0.91968
   64          H           0.079679        0.9203     0.92032
   65          H           0.083640        0.9164     0.91636
   66          H           0.116681        0.8833     0.88332
   67          H           0.101062        0.8989     0.89894
   68          H           0.108240        0.8918     0.89176
   69          H           0.119389        0.8806     0.88061
   70          H           0.128714        0.8713     0.87129
   71          H           0.122691        0.8773     0.87731
   72          H           0.118293        0.8817     0.88171
   73          H           0.107210        0.8928     0.89279
   74          H           0.105313        0.8947     0.89469
   75          H           0.106487        0.8935     0.89351
   76          H           0.113260        0.8867     0.88674
   77          H           0.135089        0.8649     0.86491
   78          H           0.129841        0.8702     0.87016
   79          H           0.140520        0.8595     0.85948
   80          H           0.137233        0.8628     0.86277
 DIPOLE           X         Y         Z       TOTAL
 POINT-CHG.     2.165     4.814     2.020     5.652
 HYBRID        -0.033    -1.699    -1.061     2.004
 SUM            2.132     3.114     0.959     3.894


          ATOMIC ORBITAL ELECTRON POPULATIONS

     Atom    s        px        py        pz   
    1  C   1.15583   0.96072   1.03316   1.02871
    2  C   1.16694   0.95732   0.96293   1.02655
    3  C   1.17088   0.95259   0.97211   1.02659
    4  C   1.17099   0.96087   0.96219   1.03033
    5  C   1.17114   0.95195   0.97541   1.02672
    6  C   1.16943   0.96076   0.95552   1.03447
    7  C   1.17922   1.03563   0.96643   0.98621
    8  C   1.15995   0.98813   0.80779   0.98484
    9  N   1.51250   1.10802   1.08708   1.57222
   10  C   1.15399   0.81340   0.94558   0.98570
   11  C   1.17036   0.93971   0.99265   1.06317
   12  C   1.17632   0.95375   0.95383   0.97218
   13  C   1.17849   0.99302   0.95027   1.03540
   14  C   1.17276   0.91616   0.99038   0.95999
   15  C   1.15822   0.93569   0.93268   1.05442
   16  C   1.15778   0.93071   0.93559   1.07016
   17  C   1.14581   0.92026   0.85280   0.93725
   18  C   1.15221   0.92951   0.94226   1.07368
   19  C   1.17653   0.91107   0.98882   0.98956
   20  C   1.19847   0.95423   0.99792   1.09249
   21  S   1.89215   0.99842   1.04764   1.67705
   22  C   1.21068   0.99368   0.97115   1.04201
   23  C   1.16762   0.92711   0.98106   1.04411
   24  C   1.15245   0.92832   0.91335   0.95094
   25  C   1.16145   0.97256   0.96017   0.94273
   26  C   1.17919   0.97057   0.96892   0.97408
   27  C   1.17922   0.98122   0.97040   0.97810
   28  C   1.17915   0.99342   0.99214   0.93590
   29  C   1.17896   0.97719   0.97363   0.97701
   30  C   1.17859   0.97911   0.96401   0.97275
   31  C   1.20240   0.95800   1.03397   1.05281
   32  C   1.18222   0.91016   1.00484   1.00459
   33  C   1.18238   0.99332   0.94520   0.96802
   34  C   1.20157   0.99463   1.02144   1.06441
   35  S   1.88734   0.95201   1.27418   1.42580
   36  C   1.20371   0.99637   0.96728   1.04912
   37  C   1.18464   1.00442   0.92681   1.02086
   38  C   1.18398   0.91342   0.98885   0.93323
   39  C   1.21579   1.01832   1.02426   1.15657
   40  S   1.88519   1.06772   0.98650   1.56635
   41  C   1.16999   0.88597   0.92005   0.88883
   42  C   1.14274   0.98405   0.96690   1.03810
   43  C   1.18072   0.83299   0.82862   0.75931
   44  O   1.90969   1.65788   1.25233   1.52860
   45  O   1.83989   1.39033   1.39781   1.70450
   46  C   1.19673   0.92295   0.91783   0.91951
   47  N   1.84813   1.09405   1.09499   1.10395
   48  H   0.86939
   49  H   0.93870
   50  H   0.93792
   51  H   0.94645
   52  H   0.93988
   53  H   0.93860
   54  H   0.93697
   55  H   0.94196
   56  H   0.93600
   57  H   0.93658
   58  H   0.94130
   59  H   0.93489
   60  H   0.93202
   61  H   0.93594
   62  H   0.91768
   63  H   0.91968
   64  H   0.92032
   65  H   0.91636
   66  H   0.88332
   67  H   0.89894
   68  H   0.89176
   69  H   0.88061
   70  H   0.87129
   71  H   0.87731
   72  H   0.88171
   73  H   0.89279
   74  H   0.89469
   75  H   0.89351
   76  H   0.88674
   77  H   0.86491
   78  H   0.87016
   79  H   0.85948
   80  H   0.86277
   81  H   0.75367
 ******************** TDHF POLARIZABILITIES ********************



          MOLECULAR WEIGHT =  670.90



          ROTATIONAL CONSTANTS IN CM(-1)

          A =    0.00395985   B =    0.00069845   C =    0.00060610



           PRINCIPAL MOMENTS OF INERTIA IN UNITS OF 10**(-40)*GRAM-CM**2

          A =     7069.1432   B =    40078.5704   C =    46185.0108


 ROTATION MATRIX FOR ORIENTATION OF MOLECULE:

         0.845033   -0.415562    0.336492
         0.474945    0.872430   -0.115295
        -0.245653    0.257243    0.934602


          CARTESIAN COORDINATES 

    NO.       ATOM         X         Y         Z

     1         C       -4.7634   -4.4450   -0.3356
     2         C       -3.4414   -5.0395    0.1216
     3         C       -2.3119   -4.0225   -0.0221
     4         C       -0.9823   -4.6200    0.4326
     5         C        0.1427   -3.5937    0.3072
     6         C        1.4785   -4.2059    0.7208
     7         C        2.5928   -3.1661    0.7928
     8         C        2.9576   -2.6412   -0.6025
     9         N        4.0965   -1.7271   -0.5534
    10         C        5.4231   -2.1466   -0.3178
    11         C        5.9554   -3.4338   -0.3605
    12         C        7.3120   -3.5654   -0.1188
    13         C        8.1151   -2.4553    0.1659
    14         C        7.5844   -1.1762    0.2101
    15         C        6.2292   -1.0097   -0.0409
    16         C        5.3594    0.1390   -0.0632
    17         C        4.0452   -0.3425   -0.3242
    18         C        2.9666    0.5433   -0.3604
    19         C        1.5674    0.3053   -0.5959
    20         C        0.8388    1.4480   -0.5365
    21         S        1.8020    2.8498   -0.1982
    22         C        3.2366    1.9015   -0.1311
    23         C        4.5193    2.3867    0.1088
    24         C        5.5871    1.5018    0.1260
    25         C        6.9350    2.0286    0.3237
    26         C        7.8817    1.9066   -0.6900
    27         C        9.1512    2.4414   -0.5112
    28         C        9.4737    3.0931    0.6738
    29         C        8.5249    3.2150    1.6818
    30         C        7.2510    2.6879    1.5079
    31         C       -0.5730    1.5694   -0.7229
    32         C       -1.2125    2.2782   -1.6985
    33         C       -2.6368    2.1688   -1.5947
    34         C       -3.0152    1.3816   -0.5434
    35         S       -1.6699    0.7781    0.3318
    36         C       -4.3504    1.0499   -0.1625
    37         C       -4.8045   -0.1806    0.2281
    38         C       -6.2026   -0.1654    0.5268
    39         C       -6.7493    1.0771    0.3491
    40         S       -5.5897    2.2289   -0.1563
    41         C       -8.1149    1.4607    0.5674
    42         C       -9.1563    0.6578    0.2825
    43         C      -10.5537    1.0303    0.5508
    44         O      -11.5066    0.2813    0.6810
    45         O      -10.7431    2.3654    0.6544
    46         C       -9.0044   -0.6197   -0.3156
    47         N       -8.8964   -1.6556   -0.8182
    48         H       -8.2734    2.4650    0.9871
    49         H       -4.7397   -4.1337   -1.3900
    50         H       -5.5908   -5.1629   -0.2391
    51         H       -5.0481   -3.5584    0.2498
    52         H       -3.5215   -5.3870    1.1734
    53         H       -3.2140   -5.9579   -0.4601
    54         H       -2.2412   -3.6744   -1.0744
    55         H       -2.5444   -3.1064    0.5616
    56         H       -1.0611   -4.9814    1.4799
    57         H       -0.7441   -5.5279   -0.1608
    58         H        0.1905   -3.2125   -0.7344
    59         H       -0.0830   -2.6995    0.9259
    60         H        1.3801   -4.6989    1.7124
    61         H        1.7577   -5.0306    0.0311
    62         H        2.3064   -2.3267    1.4612
    63         H        3.4905   -3.6099    1.2764
    64         H        3.2056   -3.4798   -1.2946
    65         H        2.0961   -2.1140   -1.0783
    66         H        5.3347   -4.3060   -0.5726
    67         H        7.7678   -4.5602   -0.1457
    68         H        9.1811   -2.6048    0.3594
    69         H        8.2174   -0.3172    0.4479
    70         H        1.1674   -0.6876   -0.8049
    71         H        4.6807    3.4559    0.2700
    72         H        7.6226    1.3928   -1.6209
    73         H        9.8974    2.3507   -1.3058
    74         H       10.4749    3.5115    0.8120
    75         H        8.7795    3.7286    2.6134
    76         H        6.5006    2.7850    2.2979
    77         H       -0.7202    2.8555   -2.4777
    78         H       -3.3146    2.6540   -2.2932
    79         H       -4.1981   -1.0818    0.2976
    80         H       -6.7333   -1.0501    0.8748
    81         H      -11.6729    2.5730    0.8254


 ENERGY OF "REORIENTED" SYSTEM WITHOUT FIELD:       81.4560388845


  NFREQ=  3  IWFLB=  0  IBET=  1  IGAM=  1
  ATOL= 0.10000D-02  BTOL= 0.10000D-02    MAXITU=  500    MAXITA=  150


 *****************************************************************
 CALCULATION OF STATIC FIELD QUANTITIES
 *****************************************************************

 +++++ ALPHA AT       0.00000 EV.

                           COMPONENTS OF ALPHA

                     *X           *Y           *Z
           *=X:     792.4673      -4.9344      12.9181
           *=Y:      -4.9484     454.7659       9.5743
           *=Z:      12.9307       9.5722     211.2021

  ISOTROPIC AVERAGE ALPHA =     486.14512 A.U. =     72.03927 ANG.**3

 +++++ BETA (SECOND HARMONIC GENERATION) AT       0.00000 EV.

                              COMPONENTS OF BETA
            *XX         *XY         *YY         *XZ         *YZ         *ZZ
   *=X  4507.62842  -154.05637    22.18014  -563.97160    34.19702    23.15932
   *=Y  -153.75969    22.22972  -314.84762    34.23849    -2.26808    30.81369
   *=Z  -563.61153    34.12879    -2.19279    23.12365    30.79488    48.00156


 AVERAGE BETAX(SHG) VALUE AT   0.00000 EV =       2731.7863 a.u. =  0.236010E-28 ESU
 AVERAGE BETAY(SHG) VALUE AT   0.00000 EV =       -262.8024 a.u. = -0.227046E-29 ESU
 AVERAGE BETAZ(SHG) VALUE AT   0.00000 EV =       -310.8558 a.u. = -0.268561E-29 ESU



 AVERAGE BETA (SHG) VALUE AT   0.00000 EV =       2761.9473 a.u. =  0.238616E-28 ESU
   (1 a.u. = 8.639418X10-33 esu)



 +++++ ALPHA AT       0.00000 EV.

                           COMPONENTS OF ALPHA

                     *X           *Y           *Z
           *=X:     792.4673      -4.9344      12.9181
           *=Y:      -4.9484     454.7659       9.5743
           *=Z:      12.9307       9.5722     211.2021

  ISOTROPIC AVERAGE ALPHA =     486.14512 A.U. =     72.03927 ANG.**3


 GAMMA (THIRD HARMONIC GENERATION) AT    0.00000 EV.


 GAMMA(X,X,X,X) =       2453188.46211
 GAMMA(Y,Y,Y,Y) =         94246.92672
 GAMMA(Z,Z,Z,Z) =          4039.46884
 GAMMA(X,X,Y,Y) =         55013.38523
 GAMMA(X,X,Z,Z) =         15389.93205
 GAMMA(Y,Y,X,X) =         55013.39132
 GAMMA(Y,Y,Z,Z) =          3992.60451
 GAMMA(Z,Z,X,X) =         15390.01109
 GAMMA(Z,Z,Y,Y) =          3992.52398


 AVERAGE GAMMA VALUE AT    0.00000 =        540053.34117 a.u. =       272008.80567 ESU (X10-39)




 **********************************************************************
 CALCULATION FOR A FREQUENCY OF    0.25000 EV  =       0.00919 A.U. 
                  WAVELENGTH OF    4959.37 NM  =    2016.38525 CM(-1)
 **********************************************************************

 +++++ ALPHA AT       0.25000 EV.

                           COMPONENTS OF ALPHA

                     *X           *Y           *Z
           *=X:     795.8400      -5.0661      12.9632
           *=Y:      -5.0786     455.6188       9.5669
           *=Z:      12.9765       9.5644     211.4547

  ISOTROPIC AVERAGE ALPHA =     487.63781 A.U. =     72.26047 ANG.**3

 +++++ BETA (SECOND HARMONIC GENERATION) AT       0.25000 EV.

                              COMPONENTS OF BETA
            *XX         *XY         *YY         *XZ         *YZ         *ZZ
   *=X  4752.89499  -185.34030    30.24889  -591.40609    34.06069    24.26146
   *=Y  -154.85705    29.72165  -324.41515    33.64285    -2.40721    31.74246
   *=Z  -571.62526    33.57857    -2.02868    24.39149    31.00238    48.45008


 AVERAGE BETAX(SHG) VALUE AT   0.25000 EV =       2884.2843 a.u. =  0.249185E-28 ESU
 AVERAGE BETAY(SHG) VALUE AT   0.25000 EV =       -281.0072 a.u. = -0.242774E-29 ESU
 AVERAGE BETAZ(SHG) VALUE AT   0.25000 EV =       -323.1861 a.u. = -0.279214E-29 ESU



 AVERAGE BETA (SHG) VALUE AT   0.25000 EV =       2915.9064 a.u. =  0.251917E-28 ESU
   (1 a.u. = 8.639418X10-33 esu)



 +++++ ALPHA AT       0.75000 EV.

                           COMPONENTS OF ALPHA

                     *X           *Y           *Z
           *=X:     824.7227      -6.1969      13.3392
           *=Y:      -6.2093     462.6504       9.4965
           *=Z:      13.3498       9.4944     213.5208

  ISOTROPIC AVERAGE ALPHA =     500.29798 A.U. =     74.13651 ANG.**3


 GAMMA (THIRD HARMONIC GENERATION) AT    0.25000 EV.


 GAMMA(X,X,X,X) =       2713467.75348
 GAMMA(Y,Y,Y,Y) =        100028.64799
 GAMMA(Z,Z,Z,Z) =          4143.35130
 GAMMA(X,X,Y,Y) =         59246.36304
 GAMMA(X,X,Z,Z) =         16710.20617
 GAMMA(Y,Y,X,X) =         60719.46790
 GAMMA(Y,Y,Z,Z) =          4139.19887
 GAMMA(Z,Z,X,X) =         16531.68779
 GAMMA(Z,Z,Y,Y) =          4042.66716


 AVERAGE GAMMA VALUE AT    0.25000 =        595805.86874 a.u. =       300089.69562 ESU (X10-39)




 **********************************************************************
 CALCULATION FOR A FREQUENCY OF    0.50000 EV  =       0.01837 A.U. 
                  WAVELENGTH OF    2479.68 NM  =    4032.77050 CM(-1)
 **********************************************************************

 +++++ ALPHA AT       0.50000 EV.

                           COMPONENTS OF ALPHA

                     *X           *Y           *Z
           *=X:     806.2555      -5.4722      13.1026
           *=Y:      -5.4831     458.2099       9.5424
           *=Z:      13.1149       9.5399     212.2206

  ISOTROPIC AVERAGE ALPHA =     492.22868 A.U. =     72.94076 ANG.**3

 +++++ BETA (SECOND HARMONIC GENERATION) AT       0.50000 EV.

                              COMPONENTS OF BETA
            *XX         *XY         *YY         *XZ         *YZ         *ZZ
   *=X  5625.77786  -301.99502    60.95492  -688.37444    33.25563    28.12716
   *=Y  -157.37238    56.58040  -356.33524    31.57119    -2.78322    34.93628
   *=Z  -596.28435    31.35150    -1.27847    28.65852    31.60335    49.84934


 AVERAGE BETAX(SHG) VALUE AT   0.50000 EV =       3427.3787 a.u. =  0.296106E-28 ESU
 AVERAGE BETAY(SHG) VALUE AT   0.50000 EV =       -346.4450 a.u. = -0.299308E-29 ESU
 AVERAGE BETAZ(SHG) VALUE AT   0.50000 EV =       -366.0660 a.u. = -0.316260E-29 ESU



 AVERAGE BETA (SHG) VALUE AT   0.50000 EV =       3464.2392 a.u. =  0.299290E-28 ESU
   (1 a.u. = 8.639418X10-33 esu)



 +++++ ALPHA AT       1.50000 EV.

                           COMPONENTS OF ALPHA

                     *X           *Y           *Z
           *=X:     959.2044     -11.7474      14.6897
           *=Y:     -11.7764     489.8730       9.1080
           *=Z:      14.7036       9.1050     221.1125

  ISOTROPIC AVERAGE ALPHA =     556.72997 A.U. =     82.49887 ANG.**3


 GAMMA (THIRD HARMONIC GENERATION) AT    0.50000 EV.


 GAMMA(X,X,X,X) =       3876689.95879
 GAMMA(Y,Y,Y,Y) =        121615.97085
 GAMMA(Z,Z,Z,Z) =          4493.71453
 GAMMA(X,X,Y,Y) =         76420.34712
 GAMMA(X,X,Z,Z) =         22403.67200
 GAMMA(Y,Y,X,X) =         83566.05335
 GAMMA(Y,Y,Z,Z) =          4663.39047
 GAMMA(Z,Z,X,X) =         20913.61066
 GAMMA(Z,Z,Y,Y) =          4177.90561


 AVERAGE GAMMA VALUE AT    0.50000 =        842988.92468 a.u. =       424588.44917 ESU (X10-39)



 **********************
 *                    *
 * JOB ENDED NORMALLY *
 *                    *
 **********************



 TOTAL JOB TIME:           330.08 SECONDS

 == MOPAC DONE ==
