 *******************************************************************************
 ** Site#: 4824         For non-commercial use only    Version 21.013L 64BITS **
 *******************************************************************************
 ** Cite this program as: MOPAC2016, Version: 21.013L, James J. P. Stewart,   **
 ** Stewart Computational Chemistry, web: HTTP://OpenMOPAC.net. Days left:  88**
 *******************************************************************************
 **                                                                           **
 **                                MOPAC2016                                  **
 **                                                                           **
 *******************************************************************************

                              RM1 CALCULATION RESULTS

 *******************************************************************************
 *  CALCULATION DONE:                                Sun Oct 17 21:19:23 2021  *
 *  RM1        - The RM1 Hamiltonian to be used
 *  POLAR      - CALCULATE FIRST, SECOND AND THIRD-ORDER POLARIZABILITIES
 *  PRECISE    - TIGHTER CRITERIA TO BE USED
 *  T=         - A TIME OF 172800.0 SECONDS REQUESTED
 *  DUMP=N     - RESTART FILE WRITTEN EVERY 7200.0 SECONDS REQUESTED
 *  GNORM      - EXIT WHEN GRADIENT NORM DROPS BELOW 0.100
 *******************************************************************************
RM1 PRECISE POLAR GNORM=0.1


  ATOM    CHEMICAL      BOND LENGTH      BOND ANGLE     TWIST ANGLE 
 NUMBER    SYMBOL       (ANGSTROMS)      (DEGREES)       (DEGREES) 
   (I)                     NA:I           NB:NA:I       NC:NB:NA:I       NA    NB    NC 
     1       N          0.00000000       0.0000000       0.0000000        0     0     0
     2       C          1.15900000  *    0.0000000       0.0000000        1     0     0
     3       C          1.42880000  *  179.3094000  *    0.0000000        2     1     0
     4       C          1.34930000  *  121.5255000  *  179.1249000  *     3     2     1
     5       C          1.46710000  *  125.1847000  *   -0.4100000  *     4     3     2
     6       C          1.34880000  *  129.3579000  *  -40.7155000  *     5     4     3
     7       C          1.48940000  *  115.8218000  * -179.4674000  *     6     5     4
     8       C          1.35070000  *  116.1265000  *    1.3909000  *     7     6     5
     9       S          1.81780000  *  123.5936000  *  142.1133000  *     5     4     3
    10       C          1.47310000  *  128.6586000  * -175.2180000  *     8     7     6
    11       C          1.48170000  *  118.5625000  * -173.2149000  *    10     8     7
    12       C          1.34360000  *  120.8845000  * -175.4104000  *    11    10     8
    13       C          1.46130000  *  118.5828000  *    2.1276000  *    12    11    10
    14       C          1.34410000  *  121.6771000  *   -2.7991000  *    13    12    11
    15       C          1.35220000  *  122.0714000  *    9.3480000  *    10     8     7
    16       C          1.47580000  *  107.1955000  *  175.6512000  *    14    13    12
    17       C          1.48290000  *  134.6835000  * -170.4957000  *    16    14    13
    18       N          1.44350000  *  129.4402000  *  -10.0053000  *    17    16    14
    19       C          1.46520000  *  121.9003000  *   45.4096000  *    18    17    16
    20       C          1.54940000  *  116.8413000  *  123.2168000  *    19    18    17
    21       C          1.42160000  *  105.5784000  * -170.2912000  *    18    17    16
    22       C          1.45530000  *  107.9721000  *  -12.7889000  *    21    18    17
    23       C          1.36130000  *  119.2020000  *  172.1165000  *    17    16    14
    24       C          1.48360000  *  121.1685000  * -170.3325000  *    23    17    18
    25       C          1.35090000  *  117.5784000  *   -5.9173000  *    24    23    17
    26       C          1.34930000  *  105.9907000  *    3.1101000  *    16    14    13
    27       N          1.41680000  *  127.2488000  *  170.4242000  *    13    12    11
    28       C          1.46450000  *  120.3851000  *  137.2249000  *    27    13    14
    29       C          1.54930000  *  112.9895000  *  -51.8979000  *    28    27    13
    30       C          1.45650000  *  109.0358000  *  171.0165000  *    25    24    23
    31       C          1.34180000  *  132.1520000  * -169.5382000  *    30    25    24
    32       C          1.47200000  *  117.9135000  * -177.3355000  *    31    30    25
    33       C          1.34800000  *  120.3128000  *   -0.5781000  *    32    31    30
    34       C          1.47590000  *  120.6740000  *   -3.4465000  *    33    32    31
    35       C          1.34390000  *  118.4772000  *    0.6035000  *    34    33    32
    36       N          1.42930000  *  132.0321000  * -172.4565000  *    35    34    33
    37       C          1.46460000  *  123.8728000  *   33.1004000  *    36    35    34
    38       C          1.54800000  *  117.5996000  *   14.2311000  *    37    36    35
    39       C          1.34200000  *  120.4191000  * -162.8837000  *    22    21    18
    40       C          1.47460000  *  118.1104000  *  -11.3150000  *    39    22    21
    41       C          1.34840000  *  120.5444000  *    1.7658000  *    40    39    22
    42       C          1.34290000  *  130.7849000  *  170.3025000  *    21    18    17
    43       C          1.47520000  *  117.8043000  *  177.7423000  *     3     2     4
    44       O          1.23220000  *  121.0713000  *   -1.2611000  *    43     3     4
    45       O          1.35460000  *  119.9336000  *  178.6942000  *    43     3     4
    46       H          1.05370000  *  118.4832000  *  176.1161000  *     4     3     2
    47       H          1.04890000  *  122.7926000  *    0.2737000  *     6     5     4
    48       H          1.04840000  *  120.9711000  * -176.9069000  *     7     6     5
    49       H          1.05090000  *  120.3096000  * -176.5267000  *    11    10    15
    50       H          1.05020000  *  120.5491000  * -179.3747000  *    12    11    10
    51       H          1.04210000  *  119.8455000  *   -5.5128000  *    15    10     8
    52       H          1.09190000  *  108.2144000  *  106.3792000  *    19    18    21
    53       H          1.09190000  *  108.5923000  * -135.0267000  *    19    18    21
    54       H          1.08930000  *  110.6119000  *  -49.6758000  *    20    19    52
    55       H          1.09170000  *  109.0172000  *  -47.9021000  *    20    19    53
    56       H          1.09020000  *  110.3763000  *   71.6718000  *    20    19    53
    57       H          1.09190000  *  109.0530000  *   70.0343000  *    28    27    13
    58       H          1.08890000  *  110.3172000  * -171.3767000  *    28    27    13
    59       H          1.08980000  *  110.6561000  *  -57.9219000  *    29    28    57
    60       H          1.09110000  *  109.2800000  *  -55.0215000  *    29    28    58
    61       H          1.09100000  *  109.8669000  *   64.4996000  *    29    28    58
    62       H          1.04880000  *  121.8262000  * -174.5912000  *    31    30    35
    63       H          1.05120000  *  119.6281000  *  177.6649000  *    32    31    30
    64       H          1.05110000  *  119.7012000  *  179.2143000  *    33    32    31
    65       H          1.04760000  *  119.7277000  * -176.2243000  *    34    33    32
    66       H          1.09100000  *  108.4673000  *  133.7350000  *    37    36    35
    67       H          1.09190000  *  108.1844000  * -107.9884000  *    37    36    35
    68       H          1.08980000  *  110.5322000  *  -75.1448000  *    38    37    66
    69       H          1.09180000  *  108.9563000  *   44.4310000  *    38    37    66
    70       H          1.08910000  *  110.4788000  *  162.7867000  *    38    37    66
    71       H          1.04600000  *  121.8713000  *  171.8779000  *    39    22    21
    72       H          1.05120000  *  119.5452000  * -175.1160000  *    40    39    22
    73       H          1.05110000  *  119.9091000  * -178.1497000  *    41    40    39
    74       H          1.04930000  *  121.4361000  *   -5.1515000  *    42    21    18
    75       H          0.94030000  *  120.9848000  *   -0.3762000  *    45    43    44
 


          CARTESIAN COORDINATES 

    NO.       ATOM           X           Y           Z

     1         N          0.0000      0.0000      0.0000
     2         C          1.1590      0.0000      0.0000
     3         C          2.5877      0.0172      0.0000
     4         C          3.3070     -1.1242      0.0176
     5         C          2.7433     -2.4784      0.0467
     6         C          1.6888     -2.9511      0.7424
     7         C          1.3825     -4.3964      0.5538
     8         C          2.2103     -5.0775     -0.2680
     9         S          3.4546     -3.8837     -0.8607
    10         C          2.1109     -6.4754     -0.7220
    11         C          3.2301     -7.0464     -1.5073
    12         C          3.1498     -8.2847     -2.0226
    13         C          1.9146     -9.0421     -1.8329
    14         C          0.8899     -8.5527     -1.1139
    15         C          1.0136     -7.2300     -0.4879
    16         C         -0.2185     -9.5215     -1.2184
    17         C         -1.6491     -9.5154     -0.8282
    18         N         -2.3747     -8.5659     -0.0184
    19         C         -2.2300     -7.1198     -0.2042
    20         C         -3.5237     -6.3191     -0.4972
    21         C         -3.6436     -9.1602      0.2220
    22         C         -3.7858    -10.2948     -0.6782
    23         C         -2.4496    -10.5433     -1.2228
    24         C         -1.8852    -11.7467     -1.8820
    25         C         -0.5691    -11.7336     -2.1866
    26         C          0.2590    -10.5560     -1.9413
    27         N          1.5581    -10.2688     -2.4458
    28         C          1.9360    -10.5404     -3.8343
    29         C          1.5183     -9.4095     -4.8074
    30         C         -0.1692    -13.0645     -2.6227
    31         C          1.0334    -13.6128     -2.8540
    32         C          1.0752    -14.9973     -3.3524
    33         C         -0.0679    -15.6828     -3.5534
    34         C         -1.3735    -15.0877     -3.2074
    35         C         -1.3963    -13.8437     -2.6996
    36         N         -2.4518    -13.0559     -2.1443
    37         C         -3.5740    -13.6131     -1.3859
    38         C         -3.4488    -15.0737     -0.8888
    39         C         -4.9948    -10.8273     -0.9145
    40         C         -6.1187    -10.4068     -0.0575
    41         C         -5.9354     -9.4858      0.9101
    42         C         -4.6387     -8.7996      1.0484
    43         C          3.2601      1.3284     -0.0713
    44         O          4.4892      1.4124     -0.0931
    45         O          2.5234      2.4643     -0.1149
    46         H          4.3567     -1.0577     -0.0460
    47         H          1.1150     -2.3501      1.3825
    48         H          0.5520     -4.8369      1.0178
    49         H          4.1123     -6.4941     -1.6524
    50         H          3.9501     -8.6880     -2.5701
    51         H          0.2413     -6.8534      0.1017
    52         H         -1.7750     -6.7037      0.6969
    53         H         -1.5713     -6.9425     -1.0569
    54         H         -4.1400     -6.2453      0.3980
    55         H         -3.2537     -5.3077     -0.8070
    56         H         -4.0910     -6.7942     -1.2979
    57         H          3.0170    -10.6850     -3.8878
    58         H          1.4549    -11.4519     -4.1857
    59         H          2.0406     -8.4836     -4.5676
    60         H          1.7717     -9.7006     -5.8280
    61         H          0.4420     -9.2434     -4.7427
    62         H          1.9226    -13.0736     -2.7176
    63         H          2.0012    -15.4407     -3.5777
    64         H         -0.0274    -16.6666     -3.9213
    65         H         -2.2476    -15.6552     -3.3141
    66         H         -3.7169    -13.0107     -0.4875
    67         H         -4.4700    -13.5489     -2.0065
    68         H         -2.4708    -15.2417     -0.4383
    69         H         -4.2197    -15.2603     -0.1385
    70         H         -3.6063    -15.7707     -1.7107
    71         H         -5.1426    -11.5580     -1.6482
    72         H         -7.0575    -10.8658     -0.1717
    73         H         -6.7366     -9.2147      1.5342
    74         H         -4.5310     -7.9988      1.7179
    75         H          2.9366      3.3079     -0.1558

  H: (RM1): G.B. ROCHA, R.O. FREIRE, A.M.SIMAS, J.J.P. STEWART, J. COMP. CHEM. 27, 1101 (2006)
  C: (RM1): G.B. ROCHA, R.O. FREIRE, A.M.SIMAS, J.J.P. STEWART, J. COMP. CHEM. 27, 1101 (2006)
  N: (RM1): G.B. ROCHA, R.O. FREIRE, A.M.SIMAS, J.J.P. STEWART, J. COMP. CHEM. 27, 1101 (2006)
  O: (RM1): G.B. ROCHA, R.O. FREIRE, A.M.SIMAS, J.J.P. STEWART, J. COMP. CHEM. 27, 1101 (2006)
  S: (RM1): G.B. ROCHA, R.O. FREIRE, A.M.SIMAS, J.J.P. STEWART, J. COMP. CHEM. 27, 1101 (2006)

           Empirical Formula: C38 H30 N4 O2 S  =    75 atoms



      MOLECULAR POINT GROUP   :   C1  


      RHF CALCULATION, NO. OF DOUBLY OCCUPIED LEVELS = 110


          Geometry optimization using L-BFGS
 CYCLE:     1 TIME:   0.641 TIME LEFT:  2.00D  GRAD.:   602.139 HEAT:  170.6321
 CYCLE:     2 TIME:   0.219 TIME LEFT:  2.00D  GRAD.:   477.136 HEAT:  167.4547
 CYCLE:     3 TIME:   0.320 TIME LEFT:  2.00D  GRAD.:   443.231 HEAT:  158.2584
 CYCLE:     4 TIME:   0.250 TIME LEFT:  2.00D  GRAD.:   478.646 HEAT:  167.4546
 CYCLE:     5 TIME:   0.234 TIME LEFT:  2.00D  GRAD.:   445.497 HEAT:  158.2599
 CYCLE:     6 TIME:   0.320 TIME LEFT:  2.00D  GRAD.:   378.222 HEAT:  153.2497
 CYCLE:     7 TIME:   0.359 TIME LEFT:  2.00D  GRAD.:   442.167 HEAT:  138.6437
 CYCLE:     8 TIME:   0.289 TIME LEFT:  2.00D  GRAD.:   429.969 HEAT:  123.6753
 CYCLE:     9 TIME:   0.258 TIME LEFT:  2.00D  GRAD.:   915.828 HEAT:  129.7381
 CYCLE:    10 TIME:   0.273 TIME LEFT:  2.00D  GRAD.:   194.521 HEAT:  110.3724
 CYCLE:    11 TIME:   0.273 TIME LEFT:  2.00D  GRAD.:   109.620 HEAT:  109.4570
 CYCLE:    12 TIME:   0.195 TIME LEFT:  2.00D  GRAD.:   122.267 HEAT:  108.7273
 CYCLE:    13 TIME:   0.289 TIME LEFT:  2.00D  GRAD.:   156.895 HEAT:  106.4453
 CYCLE:    14 TIME:   0.211 TIME LEFT:  2.00D  GRAD.:   144.756 HEAT:  104.9479
 CYCLE:    15 TIME:   0.289 TIME LEFT:  2.00D  GRAD.:   168.870 HEAT:  104.2081
 CYCLE:    16 TIME:   0.234 TIME LEFT:  2.00D  GRAD.:    81.347 HEAT:  103.5255
 CYCLE:    17 TIME:   0.344 TIME LEFT:  2.00D  GRAD.:   107.356 HEAT:  103.0221
 CYCLE:    18 TIME:   0.250 TIME LEFT:  2.00D  GRAD.:   135.964 HEAT:  102.2558
 CYCLE:    19 TIME:   0.242 TIME LEFT:  2.00D  GRAD.:   119.930 HEAT:  101.0076
 CYCLE:    20 TIME:   0.375 TIME LEFT:  2.00D  GRAD.:   452.429 HEAT:  101.7493
 CYCLE:    21 TIME:   0.219 TIME LEFT:  2.00D  GRAD.:    89.134 HEAT:  99.95420
 CYCLE:    22 TIME:   0.289 TIME LEFT:  2.00D  GRAD.:    55.167 HEAT:  99.67810
 CYCLE:    23 TIME:   0.297 TIME LEFT:  2.00D  GRAD.:    60.144 HEAT:  99.40214
 CYCLE:    24 TIME:   0.219 TIME LEFT:  2.00D  GRAD.:    74.268 HEAT:  98.85899
 CYCLE:    25 TIME:   0.406 TIME LEFT:  2.00D  GRAD.:   179.184 HEAT:  98.49355
 CYCLE:    26 TIME:   0.172 TIME LEFT:  2.00D  GRAD.:    64.338 HEAT:  97.96658
 CYCLE:    27 TIME:   0.289 TIME LEFT:  2.00D  GRAD.:    41.376 HEAT:  97.72174
 CYCLE:    28 TIME:   0.258 TIME LEFT:  2.00D  GRAD.:    51.257 HEAT:  97.51795
 CYCLE:    29 TIME:   0.297 TIME LEFT:  2.00D  GRAD.:    51.131 HEAT:  97.13882
 CYCLE:    30 TIME:   0.242 TIME LEFT:  2.00D  GRAD.:   221.544 HEAT:  97.35491
 CYCLE:    31 TIME:   0.258 TIME LEFT:  2.00D  GRAD.:    51.747 HEAT:  96.57334
 CYCLE:    32 TIME:   0.188 TIME LEFT:  2.00D  GRAD.:    31.092 HEAT:  96.46607
 CYCLE:    33 TIME:   0.195 TIME LEFT:  2.00D  GRAD.:    42.018 HEAT:  96.29711
 CYCLE:    34 TIME:   0.195 TIME LEFT:  2.00D  GRAD.:    53.798 HEAT:  96.10370
 CYCLE:    35 TIME:   0.211 TIME LEFT:  2.00D  GRAD.:    87.229 HEAT:  95.89863
 CYCLE:    36 TIME:   0.195 TIME LEFT:  2.00D  GRAD.:    46.844 HEAT:  95.74834
 CYCLE:    37 TIME:   0.188 TIME LEFT:  2.00D  GRAD.:    30.431 HEAT:  95.68734
 CYCLE:    38 TIME:   0.250 TIME LEFT:  2.00D  GRAD.:    32.509 HEAT:  95.60993
 CYCLE:    39 TIME:   0.203 TIME LEFT:  2.00D  GRAD.:    44.866 HEAT:  95.47657
 CYCLE:    40 TIME:   0.328 TIME LEFT:  2.00D  GRAD.:    51.542 HEAT:  95.23953
 CYCLE:    41 TIME:   0.266 TIME LEFT:  2.00D  GRAD.:   148.133 HEAT:  95.27327
 CYCLE:    42 TIME:   0.305 TIME LEFT:  2.00D  GRAD.:    39.443 HEAT:  95.06470
 CYCLE:    43 TIME:   0.172 TIME LEFT:  2.00D  GRAD.:    29.823 HEAT:  94.98877
 CYCLE:    44 TIME:   0.352 TIME LEFT:  2.00D  GRAD.:    34.285 HEAT:  94.85563
 CYCLE:    45 TIME:   0.180 TIME LEFT:  2.00D  GRAD.:    48.262 HEAT:  94.55191
 CYCLE:    46 TIME:   0.320 TIME LEFT:  2.00D  GRAD.:    64.542 HEAT:  94.30798
 CYCLE:    47 TIME:   0.242 TIME LEFT:  2.00D  GRAD.:    53.304 HEAT:  94.10759
 CYCLE:    48 TIME:   0.359 TIME LEFT:  2.00D  GRAD.:    31.532 HEAT:  93.99155
 CYCLE:    49 TIME:   0.188 TIME LEFT:  2.00D  GRAD.:    41.256 HEAT:  93.91654
 CYCLE:    50 TIME:   0.266 TIME LEFT:  2.00D  GRAD.:    58.804 HEAT:  93.81791
 CYCLE:    51 TIME:   0.219 TIME LEFT:  2.00D  GRAD.:    23.623 HEAT:  93.74999
 CYCLE:    52 TIME:   0.266 TIME LEFT:  2.00D  GRAD.:    28.652 HEAT:  93.69796
 CYCLE:    53 TIME:   0.320 TIME LEFT:  2.00D  GRAD.:    31.854 HEAT:  93.63104
 CYCLE:    54 TIME:   0.258 TIME LEFT:  2.00D  GRAD.:    29.559 HEAT:  93.45199
 CYCLE:    55 TIME:   0.305 TIME LEFT:  2.00D  GRAD.:   113.527 HEAT:  93.54823
 CYCLE:    56 TIME:   0.312 TIME LEFT:  2.00D  GRAD.:    21.410 HEAT:  93.34838
 CYCLE:    57 TIME:   0.227 TIME LEFT:  2.00D  GRAD.:    17.165 HEAT:  93.32263
 CYCLE:    58 TIME:   0.195 TIME LEFT:  2.00D  GRAD.:    19.253 HEAT:  93.25421
 CYCLE:    59 TIME:   0.203 TIME LEFT:  2.00D  GRAD.:    39.396 HEAT:  93.19653
 CYCLE:    60 TIME:   0.172 TIME LEFT:  2.00D  GRAD.:    34.126 HEAT:  93.15447
 CYCLE:    61 TIME:   0.273 TIME LEFT:  2.00D  GRAD.:    17.186 HEAT:  93.11547
 CYCLE:    62 TIME:   0.219 TIME LEFT:  2.00D  GRAD.:    16.729 HEAT:  93.07323
 CYCLE:    63 TIME:   0.367 TIME LEFT:  2.00D  GRAD.:    17.448 HEAT:  93.01530
 CYCLE:    64 TIME:   0.266 TIME LEFT:  2.00D  GRAD.:    83.388 HEAT:  93.00913
 CYCLE:    65 TIME:   0.242 TIME LEFT:  2.00D  GRAD.:    39.395 HEAT:  92.93439
 CYCLE:    66 TIME:   0.172 TIME LEFT:  2.00D  GRAD.:    16.079 HEAT:  92.91102
 CYCLE:    67 TIME:   0.180 TIME LEFT:  2.00D  GRAD.:    15.757 HEAT:  92.89324
 CYCLE:    68 TIME:   0.359 TIME LEFT:  2.00D  GRAD.:    24.991 HEAT:  92.86209
 CYCLE:    69 TIME:   0.188 TIME LEFT:  2.00D  GRAD.:    29.663 HEAT:  92.81212
 CYCLE:    70 TIME:   0.305 TIME LEFT:  2.00D  GRAD.:    79.675 HEAT:  92.79945
 CYCLE:    71 TIME:   0.250 TIME LEFT:  2.00D  GRAD.:    20.941 HEAT:  92.72000
 CYCLE:    72 TIME:   0.328 TIME LEFT:  2.00D  GRAD.:    15.332 HEAT:  92.69406
 CYCLE:    73 TIME:   0.195 TIME LEFT:  2.00D  GRAD.:    28.814 HEAT:  92.64498
 CYCLE:    74 TIME:   0.188 TIME LEFT:  2.00D  GRAD.:    25.970 HEAT:  92.60575
 CYCLE:    75 TIME:   0.242 TIME LEFT:  2.00D  GRAD.:    35.903 HEAT:  92.54451
 CYCLE:    76 TIME:   0.234 TIME LEFT:  2.00D  GRAD.:    34.828 HEAT:  92.49389
 CYCLE:    77 TIME:   0.242 TIME LEFT:  2.00D  GRAD.:    18.264 HEAT:  92.45538
 CYCLE:    78 TIME:   0.258 TIME LEFT:  2.00D  GRAD.:    26.509 HEAT:  92.41548
 CYCLE:    79 TIME:   0.195 TIME LEFT:  2.00D  GRAD.:    27.663 HEAT:  92.38015
 CYCLE:    80 TIME:   0.203 TIME LEFT:  2.00D  GRAD.:    40.714 HEAT:  92.34453
 CYCLE:    81 TIME:   0.180 TIME LEFT:  2.00D  GRAD.:    18.167 HEAT:  92.31162
 CYCLE:    82 TIME:   0.273 TIME LEFT:  2.00D  GRAD.:    15.674 HEAT:  92.29730
 CYCLE:    83 TIME:   0.227 TIME LEFT:  2.00D  GRAD.:    16.061 HEAT:  92.28305
 CYCLE:    84 TIME:   0.250 TIME LEFT:  2.00D  GRAD.:    21.693 HEAT:  92.24221
 CYCLE:    85 TIME:   0.273 TIME LEFT:  2.00D  GRAD.:    79.787 HEAT:  92.25498
 CYCLE:    86 TIME:   0.242 TIME LEFT:  2.00D  GRAD.:    22.319 HEAT:  92.19104
 CYCLE:    87 TIME:   0.305 TIME LEFT:  2.00D  GRAD.:    11.611 HEAT:  92.17649
 CYCLE:    88 TIME:   0.289 TIME LEFT:  2.00D  GRAD.:    11.424 HEAT:  92.16436
 CYCLE:    89 TIME:   0.281 TIME LEFT:  2.00D  GRAD.:    11.950 HEAT:  92.14976
 CYCLE:    90 TIME:   0.242 TIME LEFT:  2.00D  GRAD.:    16.743 HEAT:  92.10804
 CYCLE:    91 TIME:   0.281 TIME LEFT:  2.00D  GRAD.:    76.501 HEAT:  92.15155
 CYCLE:    92 TIME:   0.328 TIME LEFT:  2.00D  GRAD.:    17.727 HEAT:  92.06550
 CYCLE:    93 TIME:   0.203 TIME LEFT:  2.00D  GRAD.:    11.880 HEAT:  92.05248
 CYCLE:    94 TIME:   0.180 TIME LEFT:  2.00D  GRAD.:    23.224 HEAT:  92.02532
 CYCLE:    95 TIME:   0.211 TIME LEFT:  2.00D  GRAD.:    35.071 HEAT:  92.01234
 CYCLE:    96 TIME:   0.164 TIME LEFT:  2.00D  GRAD.:    17.766 HEAT:  91.99260
 CYCLE:    97 TIME:   0.359 TIME LEFT:  2.00D  GRAD.:    15.081 HEAT:  91.97309
 CYCLE:    98 TIME:   0.203 TIME LEFT:  2.00D  GRAD.:    16.600 HEAT:  91.95704
 CYCLE:    99 TIME:   0.203 TIME LEFT:  2.00D  GRAD.:    23.523 HEAT:  91.92619
 CYCLE:   100 TIME:   0.227 TIME LEFT:  2.00D  GRAD.:    54.757 HEAT:  91.91970
 CYCLE:   101 TIME:   0.273 TIME LEFT:  2.00D  GRAD.:    15.430 HEAT:  91.87840
 CYCLE:   102 TIME:   0.266 TIME LEFT:  2.00D  GRAD.:    12.776 HEAT:  91.86854
 CYCLE:   103 TIME:   0.156 TIME LEFT:  2.00D  GRAD.:    11.688 HEAT:  91.84984
 CYCLE:   104 TIME:   0.242 TIME LEFT:  2.00D  GRAD.:    13.330 HEAT:  91.82606
 CYCLE:   105 TIME:   0.203 TIME LEFT:  2.00D  GRAD.:    34.472 HEAT:  91.81594
 CYCLE:   106 TIME:   0.148 TIME LEFT:  2.00D  GRAD.:    14.288 HEAT:  91.78649
 CYCLE:   107 TIME:   0.195 TIME LEFT:  2.00D  GRAD.:    11.042 HEAT:  91.76199
 CYCLE:   108 TIME:   0.211 TIME LEFT:  2.00D  GRAD.:    17.218 HEAT:  91.73737
 CYCLE:   109 TIME:   0.156 TIME LEFT:  2.00D  GRAD.:    52.139 HEAT:  91.73205
 CYCLE:   110 TIME:   0.195 TIME LEFT:  2.00D  GRAD.:    16.665 HEAT:  91.69937
 CYCLE:   111 TIME:   0.180 TIME LEFT:  2.00D  GRAD.:    14.463 HEAT:  91.68356
 CYCLE:   112 TIME:   0.195 TIME LEFT:  2.00D  GRAD.:    19.104 HEAT:  91.65683
 CYCLE:   113 TIME:   0.242 TIME LEFT:  2.00D  GRAD.:    23.246 HEAT:  91.62599
 CYCLE:   114 TIME:   0.227 TIME LEFT:  2.00D  GRAD.:    83.229 HEAT:  91.68116
 CYCLE:   115 TIME:   0.203 TIME LEFT:  2.00D  GRAD.:    28.777 HEAT:  91.59372
 CYCLE:   116 TIME:   0.188 TIME LEFT:  2.00D  GRAD.:    12.616 HEAT:  91.57537
 CYCLE:   117 TIME:   0.258 TIME LEFT:  2.00D  GRAD.:    14.696 HEAT:  91.56571
 CYCLE:   118 TIME:   0.188 TIME LEFT:  2.00D  GRAD.:    21.491 HEAT:  91.53882
 CYCLE:   119 TIME:   0.203 TIME LEFT:  2.00D  GRAD.:    24.258 HEAT:  91.49842
 CYCLE:   120 TIME:   0.188 TIME LEFT:  2.00D  GRAD.:   105.293 HEAT:  91.57582
 CYCLE:   121 TIME:   0.203 TIME LEFT:  2.00D  GRAD.:    31.631 HEAT:  91.48101
 CYCLE:   122 TIME:   0.266 TIME LEFT:  2.00D  GRAD.:    14.803 HEAT:  91.44360
 CYCLE:   123 TIME:   0.219 TIME LEFT:  2.00D  GRAD.:    15.300 HEAT:  91.42878
 CYCLE:   124 TIME:   0.211 TIME LEFT:  2.00D  GRAD.:    19.984 HEAT:  91.38644
 CYCLE:   125 TIME:   0.203 TIME LEFT:  2.00D  GRAD.:    86.045 HEAT:  91.38951
 CYCLE:   126 TIME:   0.180 TIME LEFT:  2.00D  GRAD.:    30.808 HEAT:  91.33292
 CYCLE:   127 TIME:   0.289 TIME LEFT:  2.00D  GRAD.:    15.865 HEAT:  91.30432
 CYCLE:   128 TIME:   0.203 TIME LEFT:  2.00D  GRAD.:    19.664 HEAT:  91.27059
 CYCLE:   129 TIME:   0.203 TIME LEFT:  2.00D  GRAD.:    20.461 HEAT:  91.24264
 CYCLE:   130 TIME:   0.289 TIME LEFT:  2.00D  GRAD.:    28.232 HEAT:  91.18676
 CYCLE:   131 TIME:   0.164 TIME LEFT:  2.00D  GRAD.:    32.227 HEAT:  91.12393
 CYCLE:   132 TIME:   0.250 TIME LEFT:  2.00D  GRAD.:    34.191 HEAT:  91.07652
 CYCLE:   133 TIME:   0.211 TIME LEFT:  2.00D  GRAD.:    24.887 HEAT:  91.00794
 CYCLE:   134 TIME:   0.203 TIME LEFT:  2.00D  GRAD.:    27.431 HEAT:  90.96394
 CYCLE:   135 TIME:   0.258 TIME LEFT:  2.00D  GRAD.:    19.017 HEAT:  90.94242
 CYCLE:   136 TIME:   0.359 TIME LEFT:  2.00D  GRAD.:    52.707 HEAT:  90.91009
 CYCLE:   137 TIME:   0.297 TIME LEFT:  2.00D  GRAD.:    26.510 HEAT:  90.87551
 CYCLE:   138 TIME:   0.203 TIME LEFT:  2.00D  GRAD.:    17.042 HEAT:  90.84869
 CYCLE:   139 TIME:   0.250 TIME LEFT:  2.00D  GRAD.:    15.708 HEAT:  90.82984
 CYCLE:   140 TIME:   0.211 TIME LEFT:  2.00D  GRAD.:    38.782 HEAT:  90.80899
 CYCLE:   141 TIME:   0.195 TIME LEFT:  2.00D  GRAD.:    17.384 HEAT:  90.78193
 CYCLE:   142 TIME:   0.195 TIME LEFT:  2.00D  GRAD.:    19.182 HEAT:  90.75656
 CYCLE:   143 TIME:   0.266 TIME LEFT:  2.00D  GRAD.:    34.007 HEAT:  90.72312
 CYCLE:   144 TIME:   0.188 TIME LEFT:  2.00D  GRAD.:    20.492 HEAT:  90.68823
 CYCLE:   145 TIME:   0.352 TIME LEFT:  2.00D  GRAD.:    15.187 HEAT:  90.64012
 CYCLE:   146 TIME:   0.297 TIME LEFT:  2.00D  GRAD.:    16.808 HEAT:  90.61905
 CYCLE:   147 TIME:   0.258 TIME LEFT:  2.00D  GRAD.:    30.045 HEAT:  90.59854
 CYCLE:   148 TIME:   0.227 TIME LEFT:  2.00D  GRAD.:    12.774 HEAT:  90.57020
 CYCLE:   149 TIME:   0.273 TIME LEFT:  2.00D  GRAD.:    16.846 HEAT:  90.54487
 CYCLE:   150 TIME:   0.219 TIME LEFT:  2.00D  GRAD.:    18.922 HEAT:  90.51928
 CYCLE:   151 TIME:   0.250 TIME LEFT:  2.00D  GRAD.:    54.590 HEAT:  90.50265
 CYCLE:   152 TIME:   0.242 TIME LEFT:  2.00D  GRAD.:    13.622 HEAT:  90.46691
 CYCLE:   153 TIME:   0.211 TIME LEFT:  2.00D  GRAD.:    11.686 HEAT:  90.45568
 CYCLE:   154 TIME:   0.367 TIME LEFT:  2.00D  GRAD.:    30.165 HEAT:  90.43572
 CYCLE:   155 TIME:   0.164 TIME LEFT:  2.00D  GRAD.:    14.710 HEAT:  90.42084
 CYCLE:   156 TIME:   0.195 TIME LEFT:  2.00D  GRAD.:     9.499 HEAT:  90.40150
 CYCLE:   157 TIME:   0.305 TIME LEFT:  2.00D  GRAD.:    16.344 HEAT:  90.37522
 CYCLE:   158 TIME:   0.219 TIME LEFT:  2.00D  GRAD.:    16.637 HEAT:  90.34777
 CYCLE:   159 TIME:   0.281 TIME LEFT:  2.00D  GRAD.:    13.988 HEAT:  90.32034
 CYCLE:   160 TIME:   0.203 TIME LEFT:  2.00D  GRAD.:    15.246 HEAT:  90.28774
 CYCLE:   161 TIME:   0.266 TIME LEFT:  2.00D  GRAD.:    15.533 HEAT:  90.26099
 CYCLE:   162 TIME:   0.195 TIME LEFT:  2.00D  GRAD.:    13.671 HEAT:  90.24348
 CYCLE:   163 TIME:   0.266 TIME LEFT:  2.00D  GRAD.:    15.500 HEAT:  90.21539
 CYCLE:   164 TIME:   0.219 TIME LEFT:  2.00D  GRAD.:    22.587 HEAT:  90.18732
 CYCLE:   165 TIME:   0.312 TIME LEFT:  2.00D  GRAD.:    15.396 HEAT:  90.17076
 CYCLE:   166 TIME:   0.211 TIME LEFT:  2.00D  GRAD.:    14.721 HEAT:  90.15451
 CYCLE:   167 TIME:   0.297 TIME LEFT:  2.00D  GRAD.:    10.670 HEAT:  90.14159
 CYCLE:   168 TIME:   0.273 TIME LEFT:  2.00D  GRAD.:    14.577 HEAT:  90.11332
 CYCLE:   169 TIME:   0.289 TIME LEFT:  2.00D  GRAD.:    30.387 HEAT:  90.09083
 CYCLE:   170 TIME:   0.219 TIME LEFT:  2.00D  GRAD.:    17.747 HEAT:  90.05998
 CYCLE:   171 TIME:   0.227 TIME LEFT:  2.00D  GRAD.:    11.165 HEAT:  90.03515
 CYCLE:   172 TIME:   0.227 TIME LEFT:  2.00D  GRAD.:    17.230 HEAT:  90.00436
 CYCLE:   173 TIME:   0.312 TIME LEFT:  2.00D  GRAD.:    48.744 HEAT:  89.99343
 CYCLE:   174 TIME:   0.203 TIME LEFT:  2.00D  GRAD.:    19.810 HEAT:  89.94382
 CYCLE:   175 TIME:   0.289 TIME LEFT:  2.00D  GRAD.:    14.409 HEAT:  89.91647
 CYCLE:   176 TIME:   0.164 TIME LEFT:  2.00D  GRAD.:    25.728 HEAT:  89.88710
 CYCLE:   177 TIME:   0.336 TIME LEFT:  2.00D  GRAD.:    23.537 HEAT:  89.84063
 CYCLE:   178 TIME:   0.312 TIME LEFT:  2.00D  GRAD.:    22.298 HEAT:  89.79701
 CYCLE:   179 TIME:   0.281 TIME LEFT:  2.00D  GRAD.:    18.170 HEAT:  89.77287
 CYCLE:   180 TIME:   0.344 TIME LEFT:  2.00D  GRAD.:    12.245 HEAT:  89.76257
 CYCLE:   181 TIME:   0.289 TIME LEFT:  2.00D  GRAD.:    14.029 HEAT:  89.74921
 CYCLE:   182 TIME:   0.242 TIME LEFT:  2.00D  GRAD.:    13.040 HEAT:  89.72593
 CYCLE:   183 TIME:   0.227 TIME LEFT:  2.00D  GRAD.:    56.533 HEAT:  89.72371
 CYCLE:   184 TIME:   0.266 TIME LEFT:  2.00D  GRAD.:    11.746 HEAT:  89.68783
 CYCLE:   185 TIME:   0.250 TIME LEFT:  2.00D  GRAD.:    11.551 HEAT:  89.67976
 CYCLE:   186 TIME:   0.281 TIME LEFT:  2.00D  GRAD.:    13.269 HEAT:  89.67064
 CYCLE:   187 TIME:   0.211 TIME LEFT:  2.00D  GRAD.:    16.136 HEAT:  89.64935
 CYCLE:   188 TIME:   0.203 TIME LEFT:  2.00D  GRAD.:    24.132 HEAT:  89.63529
 CYCLE:   189 TIME:   0.188 TIME LEFT:  2.00D  GRAD.:     8.004 HEAT:  89.62263
 CYCLE:   190 TIME:   0.188 TIME LEFT:  2.00D  GRAD.:     8.145 HEAT:  89.61780
 CYCLE:   191 TIME:   0.188 TIME LEFT:  2.00D  GRAD.:    12.662 HEAT:  89.60200
 CYCLE:   192 TIME:   0.219 TIME LEFT:  2.00D  GRAD.:    22.074 HEAT:  89.58720
 CYCLE:   193 TIME:   0.289 TIME LEFT:  2.00D  GRAD.:    12.050 HEAT:  89.57198
 CYCLE:   194 TIME:   0.195 TIME LEFT:  2.00D  GRAD.:     8.752 HEAT:  89.56289
 CYCLE:   195 TIME:   0.219 TIME LEFT:  2.00D  GRAD.:    11.816 HEAT:  89.55272
 CYCLE:   196 TIME:   0.266 TIME LEFT:  2.00D  GRAD.:    13.332 HEAT:  89.54173
 CYCLE:   197 TIME:   0.195 TIME LEFT:  2.00D  GRAD.:    12.989 HEAT:  89.52064
 CYCLE:   198 TIME:   0.227 TIME LEFT:  2.00D  GRAD.:    87.161 HEAT:  89.55888
 CYCLE:   199 TIME:   0.203 TIME LEFT:  2.00D  GRAD.:    11.594 HEAT:  89.50634
 CYCLE:   200 TIME:   0.195 TIME LEFT:  2.00D  GRAD.:     9.505 HEAT:  89.50258
 CYCLE:   201 TIME:   0.195 TIME LEFT:  2.00D  GRAD.:     7.136 HEAT:  89.49186
 CYCLE:   202 TIME:   0.250 TIME LEFT:  2.00D  GRAD.:     6.957 HEAT:  89.48297
 CYCLE:   203 TIME:   0.312 TIME LEFT:  2.00D  GRAD.:    12.835 HEAT:  89.47745
 CYCLE:   204 TIME:   0.289 TIME LEFT:  2.00D  GRAD.:     6.061 HEAT:  89.47121
 CYCLE:   205 TIME:   0.320 TIME LEFT:  2.00D  GRAD.:     6.548 HEAT:  89.46518
 CYCLE:   206 TIME:   0.203 TIME LEFT:  2.00D  GRAD.:     7.515 HEAT:  89.46013
 CYCLE:   207 TIME:   0.211 TIME LEFT:  2.00D  GRAD.:    13.908 HEAT:  89.45371
 CYCLE:   208 TIME:   0.250 TIME LEFT:  2.00D  GRAD.:     6.082 HEAT:  89.44536
 CYCLE:   209 TIME:   0.211 TIME LEFT:  2.00D  GRAD.:     6.650 HEAT:  89.44075
 CYCLE:   210 TIME:   0.328 TIME LEFT:  2.00D  GRAD.:     6.897 HEAT:  89.43480
 CYCLE:   211 TIME:   0.406 TIME LEFT:  2.00D  GRAD.:    10.327 HEAT:  89.42881
 CYCLE:   212 TIME:   0.273 TIME LEFT:  2.00D  GRAD.:    22.313 HEAT:  89.42623
 CYCLE:   213 TIME:   0.336 TIME LEFT:  2.00D  GRAD.:     5.265 HEAT:  89.42219
 CYCLE:   214 TIME:   0.234 TIME LEFT:  2.00D  GRAD.:     8.696 HEAT:  89.42069
 CYCLE:   215 TIME:   0.203 TIME LEFT:  2.00D  GRAD.:     5.975 HEAT:  89.41855
 CYCLE:   216 TIME:   0.297 TIME LEFT:  2.00D  GRAD.:     6.273 HEAT:  89.41492
 CYCLE:   217 TIME:   0.211 TIME LEFT:  2.00D  GRAD.:     6.475 HEAT:  89.41181
 CYCLE:   218 TIME:   0.289 TIME LEFT:  2.00D  GRAD.:     9.174 HEAT:  89.40876
 CYCLE:   219 TIME:   0.219 TIME LEFT:  2.00D  GRAD.:     6.950 HEAT:  89.40511
 CYCLE:   220 TIME:   0.266 TIME LEFT:  2.00D  GRAD.:     6.354 HEAT:  89.40225
 CYCLE:   221 TIME:   0.219 TIME LEFT:  2.00D  GRAD.:     5.176 HEAT:  89.39617
 CYCLE:   222 TIME:   0.242 TIME LEFT:  2.00D  GRAD.:     7.964 HEAT:  89.39269
 CYCLE:   223 TIME:   0.305 TIME LEFT:  2.00D  GRAD.:     6.200 HEAT:  89.38774
 CYCLE:   224 TIME:   0.336 TIME LEFT:  2.00D  GRAD.:     4.506 HEAT:  89.38395
 CYCLE:   225 TIME:   0.289 TIME LEFT:  2.00D  GRAD.:     5.870 HEAT:  89.37910
 CYCLE:   226 TIME:   0.203 TIME LEFT:  2.00D  GRAD.:    22.152 HEAT:  89.37827
 CYCLE:   227 TIME:   0.305 TIME LEFT:  2.00D  GRAD.:     6.918 HEAT:  89.37361
 CYCLE:   228 TIME:   0.180 TIME LEFT:  2.00D  GRAD.:     5.541 HEAT:  89.37208
 CYCLE:   229 TIME:   0.289 TIME LEFT:  2.00D  GRAD.:     5.973 HEAT:  89.37063
 CYCLE:   230 TIME:   0.273 TIME LEFT:  2.00D  GRAD.:     7.960 HEAT:  89.36794
 CYCLE:   231 TIME:   0.359 TIME LEFT:  2.00D  GRAD.:     5.715 HEAT:  89.36454
 CYCLE:   232 TIME:   0.203 TIME LEFT:  2.00D  GRAD.:     4.490 HEAT:  89.36266
 CYCLE:   233 TIME:   0.305 TIME LEFT:  2.00D  GRAD.:     4.663 HEAT:  89.36012
 CYCLE:   234 TIME:   0.266 TIME LEFT:  2.00D  GRAD.:     6.694 HEAT:  89.35788
 CYCLE:   235 TIME:   0.211 TIME LEFT:  2.00D  GRAD.:     4.061 HEAT:  89.35560
 CYCLE:   236 TIME:   0.242 TIME LEFT:  2.00D  GRAD.:     3.430 HEAT:  89.35399
 CYCLE:   237 TIME:   0.211 TIME LEFT:  2.00D  GRAD.:     4.210 HEAT:  89.35172
 CYCLE:   238 TIME:   0.312 TIME LEFT:  2.00D  GRAD.:     5.159 HEAT:  89.34915
 CYCLE:   239 TIME:   0.188 TIME LEFT:  2.00D  GRAD.:    14.210 HEAT:  89.34754
 CYCLE:   240 TIME:   0.219 TIME LEFT:  2.00D  GRAD.:     6.543 HEAT:  89.34305
 CYCLE:   241 TIME:   0.289 TIME LEFT:  2.00D  GRAD.:     7.271 HEAT:  89.34059
 CYCLE:   242 TIME:   0.312 TIME LEFT:  2.00D  GRAD.:     5.768 HEAT:  89.33918
 CYCLE:   243 TIME:   0.227 TIME LEFT:  2.00D  GRAD.:     4.754 HEAT:  89.33803
 CYCLE:   244 TIME:   0.211 TIME LEFT:  2.00D  GRAD.:    13.382 HEAT:  89.33462
 CYCLE:   245 TIME:   0.219 TIME LEFT:  2.00D  GRAD.:     9.184 HEAT:  89.33064
 CYCLE:   246 TIME:   0.242 TIME LEFT:  2.00D  GRAD.:     5.173 HEAT:  89.32699
 CYCLE:   247 TIME:   0.227 TIME LEFT:  2.00D  GRAD.:     5.532 HEAT:  89.32362
 CYCLE:   248 TIME:   0.211 TIME LEFT:  2.00D  GRAD.:     6.521 HEAT:  89.32094
 CYCLE:   249 TIME:   0.328 TIME LEFT:  2.00D  GRAD.:     7.592 HEAT:  89.31700
 CYCLE:   250 TIME:   0.242 TIME LEFT:  2.00D  GRAD.:    12.379 HEAT:  89.31577
 CYCLE:   251 TIME:   0.289 TIME LEFT:  2.00D  GRAD.:     4.442 HEAT:  89.31293
 CYCLE:   252 TIME:   0.227 TIME LEFT:  2.00D  GRAD.:     3.804 HEAT:  89.31126
 CYCLE:   253 TIME:   0.234 TIME LEFT:  2.00D  GRAD.:     5.288 HEAT:  89.30856
 CYCLE:   254 TIME:   0.305 TIME LEFT:  2.00D  GRAD.:     7.410 HEAT:  89.30445
 CYCLE:   255 TIME:   0.258 TIME LEFT:  2.00D  GRAD.:    35.735 HEAT:  89.31493
 CYCLE:   256 TIME:   0.266 TIME LEFT:  2.00D  GRAD.:     3.490 HEAT:  89.30097
 CYCLE:   257 TIME:   0.234 TIME LEFT:  2.00D  GRAD.:     4.443 HEAT:  89.30030
 CYCLE:   258 TIME:   0.336 TIME LEFT:  2.00D  GRAD.:    12.268 HEAT:  89.29894
 CYCLE:   259 TIME:   0.242 TIME LEFT:  2.00D  GRAD.:     7.121 HEAT:  89.29636
 CYCLE:   260 TIME:   0.297 TIME LEFT:  2.00D  GRAD.:     4.971 HEAT:  89.29222
 CYCLE:   261 TIME:   0.242 TIME LEFT:  2.00D  GRAD.:     4.724 HEAT:  89.29007
 CYCLE:   262 TIME:   0.367 TIME LEFT:  2.00D  GRAD.:     6.409 HEAT:  89.28738
 CYCLE:   263 TIME:   0.211 TIME LEFT:  2.00D  GRAD.:     7.285 HEAT:  89.28572
 CYCLE:   264 TIME:   0.266 TIME LEFT:  2.00D  GRAD.:     3.483 HEAT:  89.28400
 CYCLE:   265 TIME:   0.305 TIME LEFT:  2.00D  GRAD.:     4.166 HEAT:  89.28189
 CYCLE:   266 TIME:   0.336 TIME LEFT:  2.00D  GRAD.:     5.137 HEAT:  89.27950
 CYCLE:   267 TIME:   0.297 TIME LEFT:  2.00D  GRAD.:     6.429 HEAT:  89.27630
 CYCLE:   268 TIME:   0.344 TIME LEFT:  2.00D  GRAD.:     4.857 HEAT:  89.27318
 CYCLE:   269 TIME:   0.258 TIME LEFT:  2.00D  GRAD.:     9.291 HEAT:  89.27158
 CYCLE:   270 TIME:   0.375 TIME LEFT:  2.00D  GRAD.:    18.734 HEAT:  89.27269
 CYCLE:   271 TIME:   0.195 TIME LEFT:  2.00D  GRAD.:     5.295 HEAT:  89.26873
 CYCLE:   272 TIME:   0.344 TIME LEFT:  2.00D  GRAD.:     5.664 HEAT:  89.26800
 CYCLE:   273 TIME:   0.250 TIME LEFT:  2.00D  GRAD.:     8.532 HEAT:  89.26714
 CYCLE:   274 TIME:   0.219 TIME LEFT:  2.00D  GRAD.:     4.748 HEAT:  89.26501
 CYCLE:   275 TIME:   0.211 TIME LEFT:  2.00D  GRAD.:     4.213 HEAT:  89.26352
 CYCLE:   276 TIME:   0.266 TIME LEFT:  2.00D  GRAD.:     8.620 HEAT:  89.26071
 CYCLE:   277 TIME:   0.188 TIME LEFT:  2.00D  GRAD.:     6.466 HEAT:  89.25859
 CYCLE:   278 TIME:   0.219 TIME LEFT:  2.00D  GRAD.:     3.802 HEAT:  89.25697
 CYCLE:   279 TIME:   0.320 TIME LEFT:  2.00D  GRAD.:     3.130 HEAT:  89.25506
 CYCLE:   280 TIME:   0.180 TIME LEFT:  2.00D  GRAD.:     3.487 HEAT:  89.25354
 CYCLE:   281 TIME:   0.203 TIME LEFT:  2.00D  GRAD.:     6.747 HEAT:  89.25126
 CYCLE:   282 TIME:   0.273 TIME LEFT:  2.00D  GRAD.:     3.694 HEAT:  89.24958
 CYCLE:   283 TIME:   0.156 TIME LEFT:  2.00D  GRAD.:     2.794 HEAT:  89.24876
 CYCLE:   284 TIME:   0.203 TIME LEFT:  2.00D  GRAD.:    11.399 HEAT:  89.24778
 CYCLE:   285 TIME:   0.164 TIME LEFT:  2.00D  GRAD.:     4.263 HEAT:  89.24633
 CYCLE:   286 TIME:   0.320 TIME LEFT:  2.00D  GRAD.:     3.006 HEAT:  89.24571
 CYCLE:   287 TIME:   0.258 TIME LEFT:  2.00D  GRAD.:     3.752 HEAT:  89.24428
 CYCLE:   288 TIME:   0.250 TIME LEFT:  2.00D  GRAD.:     3.874 HEAT:  89.24308
 CYCLE:   289 TIME:   0.195 TIME LEFT:  2.00D  GRAD.:     4.199 HEAT:  89.24092
 CYCLE:   290 TIME:   0.242 TIME LEFT:  2.00D  GRAD.:     4.241 HEAT:  89.23881
 CYCLE:   291 TIME:   0.219 TIME LEFT:  2.00D  GRAD.:     3.017 HEAT:  89.23685
 CYCLE:   292 TIME:   0.242 TIME LEFT:  2.00D  GRAD.:     4.358 HEAT:  89.23473
 CYCLE:   293 TIME:   0.266 TIME LEFT:  2.00D  GRAD.:     2.732 HEAT:  89.23301
 CYCLE:   294 TIME:   0.211 TIME LEFT:  2.00D  GRAD.:     2.562 HEAT:  89.23156
 CYCLE:   295 TIME:   0.320 TIME LEFT:  2.00D  GRAD.:     6.641 HEAT:  89.22990
 CYCLE:   296 TIME:   0.188 TIME LEFT:  2.00D  GRAD.:     3.586 HEAT:  89.22844
 CYCLE:   297 TIME:   0.242 TIME LEFT:  2.00D  GRAD.:     3.178 HEAT:  89.22702
 CYCLE:   298 TIME:   0.156 TIME LEFT:  2.00D  GRAD.:     3.758 HEAT:  89.22601
 CYCLE:   299 TIME:   0.289 TIME LEFT:  2.00D  GRAD.:    20.495 HEAT:  89.22682
 CYCLE:   300 TIME:   0.359 TIME LEFT:  2.00D  GRAD.:     3.931 HEAT:  89.22352
 CYCLE:   301 TIME:   0.289 TIME LEFT:  2.00D  GRAD.:     2.869 HEAT:  89.22286
 CYCLE:   302 TIME:   0.156 TIME LEFT:  2.00D  GRAD.:     4.548 HEAT:  89.22158
 CYCLE:   303 TIME:   0.359 TIME LEFT:  2.00D  GRAD.:     3.274 HEAT:  89.22057
 CYCLE:   304 TIME:   0.219 TIME LEFT:  2.00D  GRAD.:     4.113 HEAT:  89.21916
 CYCLE:   305 TIME:   0.328 TIME LEFT:  2.00D  GRAD.:     9.627 HEAT:  89.21884
 CYCLE:   306 TIME:   0.203 TIME LEFT:  2.00D  GRAD.:     3.052 HEAT:  89.21782
 CYCLE:   307 TIME:   0.305 TIME LEFT:  2.00D  GRAD.:     2.369 HEAT:  89.21741
 CYCLE:   308 TIME:   0.211 TIME LEFT:  2.00D  GRAD.:     4.744 HEAT:  89.21664
 CYCLE:   309 TIME:   0.234 TIME LEFT:  2.00D  GRAD.:     3.999 HEAT:  89.21612
 CYCLE:   310 TIME:   0.195 TIME LEFT:  2.00D  GRAD.:     2.482 HEAT:  89.21506
 CYCLE:   311 TIME:   0.203 TIME LEFT:  2.00D  GRAD.:     3.115 HEAT:  89.21412
 CYCLE:   312 TIME:   0.180 TIME LEFT:  2.00D  GRAD.:     3.182 HEAT:  89.21367
 CYCLE:   313 TIME:   0.188 TIME LEFT:  2.00D  GRAD.:    11.279 HEAT:  89.21384
 CYCLE:   314 TIME:   0.203 TIME LEFT:  2.00D  GRAD.:     2.883 HEAT:  89.21249
 CYCLE:   315 TIME:   0.188 TIME LEFT:  2.00D  GRAD.:     1.955 HEAT:  89.21215
 CYCLE:   316 TIME:   0.195 TIME LEFT:  2.00D  GRAD.:     2.606 HEAT:  89.21167
 CYCLE:   317 TIME:   0.195 TIME LEFT:  2.00D  GRAD.:     3.041 HEAT:  89.21120
 CYCLE:   318 TIME:   0.164 TIME LEFT:  2.00D  GRAD.:     3.953 HEAT:  89.21076
 CYCLE:   319 TIME:   0.156 TIME LEFT:  2.00D  GRAD.:     2.159 HEAT:  89.21029
 CYCLE:   320 TIME:   0.188 TIME LEFT:  2.00D  GRAD.:     2.491 HEAT:  89.21005
 CYCLE:   321 TIME:   0.188 TIME LEFT:  2.00D  GRAD.:     2.930 HEAT:  89.20965
 CYCLE:   322 TIME:   0.305 TIME LEFT:  2.00D  GRAD.:     4.337 HEAT:  89.20947
 CYCLE:   323 TIME:   0.188 TIME LEFT:  2.00D  GRAD.:     1.748 HEAT:  89.20907
 CYCLE:   324 TIME:   0.188 TIME LEFT:  2.00D  GRAD.:     1.366 HEAT:  89.20885
 CYCLE:   325 TIME:   0.156 TIME LEFT:  2.00D  GRAD.:     1.722 HEAT:  89.20858
 CYCLE:   326 TIME:   0.273 TIME LEFT:  2.00D  GRAD.:     1.945 HEAT:  89.20821
 CYCLE:   327 TIME:   0.297 TIME LEFT:  2.00D  GRAD.:     3.115 HEAT:  89.20795
 CYCLE:   328 TIME:   0.273 TIME LEFT:  2.00D  GRAD.:     1.674 HEAT:  89.20765
 CYCLE:   329 TIME:   0.195 TIME LEFT:  2.00D  GRAD.:     1.359 HEAT:  89.20751
 CYCLE:   330 TIME:   0.312 TIME LEFT:  2.00D  GRAD.:     1.840 HEAT:  89.20727
 CYCLE:   331 TIME:   0.234 TIME LEFT:  2.00D  GRAD.:     2.708 HEAT:  89.20696
 CYCLE:   332 TIME:   0.281 TIME LEFT:  2.00D  GRAD.:     3.945 HEAT:  89.20675
 CYCLE:   333 TIME:   0.219 TIME LEFT:  2.00D  GRAD.:     1.133 HEAT:  89.20660
 CYCLE:   334 TIME:   0.180 TIME LEFT:  2.00D  GRAD.:     1.503 HEAT:  89.20653
 CYCLE:   335 TIME:   0.289 TIME LEFT:  2.00D  GRAD.:     1.351 HEAT:  89.20646
 CYCLE:   336 TIME:   0.195 TIME LEFT:  2.00D  GRAD.:     1.514 HEAT:  89.20622
 CYCLE:   337 TIME:   0.297 TIME LEFT:  2.00D  GRAD.:     2.430 HEAT:  89.20614
 CYCLE:   338 TIME:   0.148 TIME LEFT:  2.00D  GRAD.:     1.079 HEAT:  89.20598
 CYCLE:   339 TIME:   0.195 TIME LEFT:  2.00D  GRAD.:     1.216 HEAT:  89.20586
 CYCLE:   340 TIME:   0.203 TIME LEFT:  2.00D  GRAD.:     1.464 HEAT:  89.20569
 CYCLE:   341 TIME:   0.148 TIME LEFT:  2.00D  GRAD.:     1.985 HEAT:  89.20541
 CYCLE:   342 TIME:   0.234 TIME LEFT:  2.00D  GRAD.:     2.775 HEAT:  89.20525
 CYCLE:   343 TIME:   0.180 TIME LEFT:  2.00D  GRAD.:     0.979 HEAT:  89.20502
 CYCLE:   344 TIME:   0.195 TIME LEFT:  2.00D  GRAD.:     1.410 HEAT:  89.20489
 CYCLE:   345 TIME:   0.234 TIME LEFT:  2.00D  GRAD.:     1.742 HEAT:  89.20474
 CYCLE:   346 TIME:   0.203 TIME LEFT:  2.00D  GRAD.:     4.961 HEAT:  89.20474
 CYCLE:   347 TIME:   0.297 TIME LEFT:  2.00D  GRAD.:     1.003 HEAT:  89.20455
 CYCLE:   348 TIME:   0.148 TIME LEFT:  2.00D  GRAD.:     0.977 HEAT:  89.20451
 CYCLE:   349 TIME:   0.195 TIME LEFT:  2.00D  GRAD.:     1.328 HEAT:  89.20444
 CYCLE:   350 TIME:   0.250 TIME LEFT:  2.00D  GRAD.:     1.938 HEAT:  89.20432
 CYCLE:   351 TIME:   0.180 TIME LEFT:  2.00D  GRAD.:     3.326 HEAT:  89.20431
 CYCLE:   352 TIME:   0.289 TIME LEFT:  2.00D  GRAD.:     0.900 HEAT:  89.20413
 CYCLE:   353 TIME:   0.172 TIME LEFT:  2.00D  GRAD.:     0.854 HEAT:  89.20406
 CYCLE:   354 TIME:   0.180 TIME LEFT:  2.00D  GRAD.:     0.873 HEAT:  89.20397
 CYCLE:   355 TIME:   0.211 TIME LEFT:  2.00D  GRAD.:     1.039 HEAT:  89.20375
 CYCLE:   356 TIME:   0.172 TIME LEFT:  2.00D  GRAD.:     1.413 HEAT:  89.20354
 CYCLE:   357 TIME:   0.250 TIME LEFT:  2.00D  GRAD.:     1.374 HEAT:  89.20336
 CYCLE:   358 TIME:   0.164 TIME LEFT:  2.00D  GRAD.:     1.705 HEAT:  89.20321
 CYCLE:   359 TIME:   0.156 TIME LEFT:  2.00D  GRAD.:     1.066 HEAT:  89.20302
 CYCLE:   360 TIME:   0.227 TIME LEFT:  2.00D  GRAD.:     2.126 HEAT:  89.20296
 CYCLE:   361 TIME:   0.172 TIME LEFT:  2.00D  GRAD.:     1.731 HEAT:  89.20280
 CYCLE:   362 TIME:   0.195 TIME LEFT:  2.00D  GRAD.:     1.706 HEAT:  89.20268
 CYCLE:   363 TIME:   0.258 TIME LEFT:  2.00D  GRAD.:     1.522 HEAT:  89.20259
 CYCLE:   364 TIME:   0.195 TIME LEFT:  2.00D  GRAD.:     0.765 HEAT:  89.20253
 CYCLE:   365 TIME:   0.312 TIME LEFT:  2.00D  GRAD.:     1.025 HEAT:  89.20244
 CYCLE:   366 TIME:   0.188 TIME LEFT:  2.00D  GRAD.:     1.257 HEAT:  89.20237
 CYCLE:   367 TIME:   0.352 TIME LEFT:  2.00D  GRAD.:     2.582 HEAT:  89.20230
 CYCLE:   368 TIME:   0.273 TIME LEFT:  2.00D  GRAD.:     2.326 HEAT:  89.20214
 CYCLE:   369 TIME:   0.250 TIME LEFT:  2.00D  GRAD.:     1.480 HEAT:  89.20201
 CYCLE:   370 TIME:   0.219 TIME LEFT:  2.00D  GRAD.:     0.618 HEAT:  89.20197
 CYCLE:   371 TIME:   0.281 TIME LEFT:  2.00D  GRAD.:     0.660 HEAT:  89.20193
 CYCLE:   372 TIME:   0.297 TIME LEFT:  2.00D  GRAD.:     1.213 HEAT:  89.20179
 CYCLE:   373 TIME:   0.398 TIME LEFT:  2.00D  GRAD.:     1.208 HEAT:  89.20169
 CYCLE:   374 TIME:   0.305 TIME LEFT:  2.00D  GRAD.:     0.958 HEAT:  89.20153
 CYCLE:   375 TIME:   0.289 TIME LEFT:  2.00D  GRAD.:     0.920 HEAT:  89.20146
 CYCLE:   376 TIME:   0.477 TIME LEFT:  2.00D  GRAD.:     1.611 HEAT:  89.20140
 CYCLE:   377 TIME:   0.312 TIME LEFT:  2.00D  GRAD.:     0.961 HEAT:  89.20134
 CYCLE:   378 TIME:   0.297 TIME LEFT:  2.00D  GRAD.:     0.601 HEAT:  89.20129
 CYCLE:   379 TIME:   0.328 TIME LEFT:  2.00D  GRAD.:     0.655 HEAT:  89.20123
 CYCLE:   380 TIME:   0.414 TIME LEFT:  2.00D  GRAD.:     0.714 HEAT:  89.20115
 CYCLE:   381 TIME:   0.297 TIME LEFT:  2.00D  GRAD.:     2.052 HEAT:  89.20113
 CYCLE:   382 TIME:   0.344 TIME LEFT:  2.00D  GRAD.:     0.710 HEAT:  89.20104
 CYCLE:   383 TIME:   0.320 TIME LEFT:  2.00D  GRAD.:     0.651 HEAT:  89.20101
 CYCLE:   384 TIME:   0.320 TIME LEFT:  2.00D  GRAD.:     1.020 HEAT:  89.20098
 CYCLE:   385 TIME:   0.445 TIME LEFT:  2.00D  GRAD.:     0.744 HEAT:  89.20094
 CYCLE:   386 TIME:   0.453 TIME LEFT:  2.00D  GRAD.:     0.612 HEAT:  89.20089
 CYCLE:   387 TIME:   0.328 TIME LEFT:  2.00D  GRAD.:     0.533 HEAT:  89.20083
 CYCLE:   388 TIME:   0.453 TIME LEFT:  2.00D  GRAD.:     1.168 HEAT:  89.20076
 CYCLE:   389 TIME:   0.305 TIME LEFT:  2.00D  GRAD.:     0.519 HEAT:  89.20071
 CYCLE:   390 TIME:   0.375 TIME LEFT:  2.00D  GRAD.:     0.660 HEAT:  89.20068
 CYCLE:   391 TIME:   0.312 TIME LEFT:  2.00D  GRAD.:     0.972 HEAT:  89.20065
 CYCLE:   392 TIME:   0.266 TIME LEFT:  2.00D  GRAD.:     0.609 HEAT:  89.20063
 CYCLE:   393 TIME:   0.430 TIME LEFT:  2.00D  GRAD.:     0.793 HEAT:  89.20058
 CYCLE:   394 TIME:   0.414 TIME LEFT:  2.00D  GRAD.:     0.725 HEAT:  89.20054
 CYCLE:   395 TIME:   0.398 TIME LEFT:  2.00D  GRAD.:     0.601 HEAT:  89.20048
 CYCLE:   396 TIME:   0.453 TIME LEFT:  2.00D  GRAD.:     0.713 HEAT:  89.20044
 CYCLE:   397 TIME:   0.289 TIME LEFT:  2.00D  GRAD.:     0.570 HEAT:  89.20039
 CYCLE:   398 TIME:   0.289 TIME LEFT:  2.00D  GRAD.:     0.519 HEAT:  89.20034
 CYCLE:   399 TIME:   0.359 TIME LEFT:  2.00D  GRAD.:     0.548 HEAT:  89.20030
 CYCLE:   400 TIME:   0.477 TIME LEFT:  2.00D  GRAD.:     0.642 HEAT:  89.20026
 CYCLE:   401 TIME:   0.375 TIME LEFT:  2.00D  GRAD.:     0.562 HEAT:  89.20023
 CYCLE:   402 TIME:   0.375 TIME LEFT:  2.00D  GRAD.:     0.855 HEAT:  89.20019
 CYCLE:   403 TIME:   0.227 TIME LEFT:  2.00D  GRAD.:     0.371 HEAT:  89.20016
 CYCLE:   404 TIME:   0.320 TIME LEFT:  2.00D  GRAD.:     0.364 HEAT:  89.20015
 CYCLE:   405 TIME:   0.383 TIME LEFT:  2.00D  GRAD.:     0.902 HEAT:  89.20014
 CYCLE:   406 TIME:   0.398 TIME LEFT:  2.00D  GRAD.:     0.608 HEAT:  89.20011
 CYCLE:   407 TIME:   0.297 TIME LEFT:  2.00D  GRAD.:     1.182 HEAT:  89.20010
 CYCLE:   408 TIME:   0.344 TIME LEFT:  2.00D  GRAD.:     0.637 HEAT:  89.20008
 CYCLE:   409 TIME:   0.344 TIME LEFT:  2.00D  GRAD.:     0.343 HEAT:  89.20007
 CYCLE:   410 TIME:   0.375 TIME LEFT:  2.00D  GRAD.:     0.397 HEAT:  89.20004
 CYCLE:   411 TIME:   0.320 TIME LEFT:  2.00D  GRAD.:     0.429 HEAT:  89.20001
 CYCLE:   412 TIME:   0.422 TIME LEFT:  2.00D  GRAD.:     0.912 HEAT:  89.19998
 CYCLE:   413 TIME:   0.453 TIME LEFT:  2.00D  GRAD.:     0.739 HEAT:  89.19994
 CYCLE:   414 TIME:   0.297 TIME LEFT:  2.00D  GRAD.:     0.477 HEAT:  89.19992
 CYCLE:   415 TIME:   0.500 TIME LEFT:  2.00D  GRAD.:     0.831 HEAT:  89.19991
 CYCLE:   416 TIME:   0.266 TIME LEFT:  2.00D  GRAD.:     1.065 HEAT:  89.19991
 CYCLE:   417 TIME:   0.336 TIME LEFT:  2.00D  GRAD.:     0.334 HEAT:  89.19988
 CYCLE:   418 TIME:   0.242 TIME LEFT:  2.00D  GRAD.:     0.254 HEAT:  89.19987
 CYCLE:   419 TIME:   0.266 TIME LEFT:  2.00D  GRAD.:     0.307 HEAT:  89.19985
 CYCLE:   420 TIME:   0.297 TIME LEFT:  2.00D  GRAD.:     0.428 HEAT:  89.19982
 CYCLE:   421 TIME:   0.422 TIME LEFT:  2.00D  GRAD.:     0.776 HEAT:  89.19980
 CYCLE:   422 TIME:   0.391 TIME LEFT:  2.00D  GRAD.:     0.704 HEAT:  89.19979
 CYCLE:   423 TIME:   0.391 TIME LEFT:  2.00D  GRAD.:     0.795 HEAT:  89.19977
 CYCLE:   424 TIME:   0.273 TIME LEFT:  2.00D  GRAD.:     1.608 HEAT:  89.19977
 CYCLE:   425 TIME:   0.281 TIME LEFT:  2.00D  GRAD.:     0.459 HEAT:  89.19974
 CYCLE:   426 TIME:   0.305 TIME LEFT:  2.00D  GRAD.:     0.345 HEAT:  89.19973
 CYCLE:   427 TIME:   0.211 TIME LEFT:  2.00D  GRAD.:     0.439 HEAT:  89.19971
 CYCLE:   428 TIME:   0.242 TIME LEFT:  2.00D  GRAD.:     0.621 HEAT:  89.19967
 CYCLE:   429 TIME:   0.328 TIME LEFT:  2.00D  GRAD.:     1.774 HEAT:  89.19967
 CYCLE:   430 TIME:   0.406 TIME LEFT:  2.00D  GRAD.:     0.511 HEAT:  89.19962
 CYCLE:   431 TIME:   0.320 TIME LEFT:  2.00D  GRAD.:     0.427 HEAT:  89.19959
 CYCLE:   432 TIME:   0.281 TIME LEFT:  2.00D  GRAD.:     0.373 HEAT:  89.19957
 CYCLE:   433 TIME:   0.289 TIME LEFT:  2.00D  GRAD.:     0.637 HEAT:  89.19953
 CYCLE:   434 TIME:   0.359 TIME LEFT:  2.00D  GRAD.:     0.687 HEAT:  89.19951
 CYCLE:   435 TIME:   0.383 TIME LEFT:  2.00D  GRAD.:     0.449 HEAT:  89.19949
 CYCLE:   436 TIME:   0.391 TIME LEFT:  2.00D  GRAD.:     0.897 HEAT:  89.19946
 CYCLE:   437 TIME:   0.430 TIME LEFT:  2.00D  GRAD.:     0.996 HEAT:  89.19945
 CYCLE:   438 TIME:   0.453 TIME LEFT:  2.00D  GRAD.:     0.635 HEAT:  89.19943
 CYCLE:   439 TIME:   0.320 TIME LEFT:  2.00D  GRAD.:     0.350 HEAT:  89.19942
 CYCLE:   440 TIME:   0.289 TIME LEFT:  2.00D  GRAD.:     0.427 HEAT:  89.19941
 CYCLE:   441 TIME:   0.352 TIME LEFT:  2.00D  GRAD.:     0.493 HEAT:  89.19938
 CYCLE:   442 TIME:   0.328 TIME LEFT:  2.00D  GRAD.:     0.406 HEAT:  89.19936
 CYCLE:   443 TIME:   0.367 TIME LEFT:  2.00D  GRAD.:     0.337 HEAT:  89.19935
 CYCLE:   444 TIME:   0.328 TIME LEFT:  2.00D  GRAD.:     0.411 HEAT:  89.19933
 CYCLE:   445 TIME:   0.367 TIME LEFT:  2.00D  GRAD.:     0.484 HEAT:  89.19931
 CYCLE:   446 TIME:   0.289 TIME LEFT:  2.00D  GRAD.:     0.408 HEAT:  89.19930
 CYCLE:   447 TIME:   0.398 TIME LEFT:  2.00D  GRAD.:     0.668 HEAT:  89.19928
 CYCLE:   448 TIME:   0.344 TIME LEFT:  2.00D  GRAD.:     0.315 HEAT:  89.19926
 CYCLE:   449 TIME:   0.383 TIME LEFT:  2.00D  GRAD.:     0.318 HEAT:  89.19925
 CYCLE:   450 TIME:   0.336 TIME LEFT:  2.00D  GRAD.:     0.335 HEAT:  89.19923
 CYCLE:   451 TIME:   0.320 TIME LEFT:  2.00D  GRAD.:     2.360 HEAT:  89.19928
 CYCLE:   452 TIME:   0.234 TIME LEFT:  2.00D  GRAD.:     0.391 HEAT:  89.19920
 CYCLE:   453 TIME:   0.406 TIME LEFT:  2.00D  GRAD.:     0.296 HEAT:  89.19919
 CYCLE:   454 TIME:   0.320 TIME LEFT:  2.00D  GRAD.:     0.480 HEAT:  89.19918
 CYCLE:   455 TIME:   0.398 TIME LEFT:  2.00D  GRAD.:     0.372 HEAT:  89.19917
 CYCLE:   456 TIME:   0.242 TIME LEFT:  2.00D  GRAD.:     0.246 HEAT:  89.19917
 CYCLE:   457 TIME:   0.391 TIME LEFT:  2.00D  GRAD.:     0.460 HEAT:  89.19916
 CYCLE:   458 TIME:   0.320 TIME LEFT:  2.00D  GRAD.:     0.511 HEAT:  89.19916
 CYCLE:   459 TIME:   0.445 TIME LEFT:  2.00D  GRAD.:     0.244 HEAT:  89.19915
 CYCLE:   460 TIME:   0.344 TIME LEFT:  2.00D  GRAD.:     0.232 HEAT:  89.19915
 CYCLE:   461 TIME:   0.352 TIME LEFT:  2.00D  GRAD.:     0.434 HEAT:  89.19913
 CYCLE:   462 TIME:   0.312 TIME LEFT:  2.00D  GRAD.:     0.448 HEAT:  89.19912
 CYCLE:   463 TIME:   0.453 TIME LEFT:  2.00D  GRAD.:     0.272 HEAT:  89.19911
 CYCLE:   464 TIME:   0.242 TIME LEFT:  2.00D  GRAD.:     0.246 HEAT:  89.19910
 CYCLE:   465 TIME:   0.367 TIME LEFT:  2.00D  GRAD.:     0.271 HEAT:  89.19909
 CYCLE:   466 TIME:   0.297 TIME LEFT:  2.00D  GRAD.:     0.299 HEAT:  89.19908
 CYCLE:   467 TIME:   0.234 TIME LEFT:  2.00D  GRAD.:     0.185 HEAT:  89.19908
 CYCLE:   468 TIME:   0.344 TIME LEFT:  2.00D  GRAD.:     0.367 HEAT:  89.19907
 CYCLE:   469 TIME:   0.273 TIME LEFT:  2.00D  GRAD.:     0.838 HEAT:  89.19907
 CYCLE:   470 TIME:   0.320 TIME LEFT:  2.00D  GRAD.:     0.330 HEAT:  89.19906
 CYCLE:   471 TIME:   0.266 TIME LEFT:  2.00D  GRAD.:     0.204 HEAT:  89.19906
 CYCLE:   472 TIME:   0.359 TIME LEFT:  2.00D  GRAD.:     0.867 HEAT:  89.19906
 CYCLE:   473 TIME:   0.320 TIME LEFT:  2.00D  GRAD.:     0.175 HEAT:  89.19905
 CYCLE:   474 TIME:   0.305 TIME LEFT:  2.00D  GRAD.:     0.211 HEAT:  89.19905
 CYCLE:   475 TIME:   0.406 TIME LEFT:  2.00D  GRAD.:     0.214 HEAT:  89.19905
 CYCLE:   476 TIME:   0.422 TIME LEFT:  2.00D  GRAD.:     0.204 HEAT:  89.19904
 CYCLE:   477 TIME:   0.492 TIME LEFT:  2.00D  GRAD.:     0.280 HEAT:  89.19903
 CYCLE:   478 TIME:   0.297 TIME LEFT:  2.00D  GRAD.:     0.564 HEAT:  89.19902
 CYCLE:   479 TIME:   0.312 TIME LEFT:  2.00D  GRAD.:     0.224 HEAT:  89.19902
 CYCLE:   480 TIME:   0.344 TIME LEFT:  2.00D  GRAD.:     0.382 HEAT:  89.19901
 CYCLE:   481 TIME:   0.266 TIME LEFT:  2.00D  GRAD.:     0.246 HEAT:  89.19901
 CYCLE:   482 TIME:   0.281 TIME LEFT:  2.00D  GRAD.:     0.214 HEAT:  89.19901
 CYCLE:   483 TIME:   0.305 TIME LEFT:  2.00D  GRAD.:     0.325 HEAT:  89.19900
 CYCLE:   484 TIME:   0.336 TIME LEFT:  2.00D  GRAD.:     0.145 HEAT:  89.19900
 CYCLE:   485 TIME:   0.414 TIME LEFT:  2.00D  GRAD.:     0.154 HEAT:  89.19900
 CYCLE:   486 TIME:   0.305 TIME LEFT:  2.00D  GRAD.:     0.367 HEAT:  89.19899
 CYCLE:   487 TIME:   0.195 TIME LEFT:  2.00D  GRAD.:     0.253 HEAT:  89.19898
 CYCLE:   488 TIME:   0.258 TIME LEFT:  2.00D  GRAD.:     0.301 HEAT:  89.19898
 CYCLE:   489 TIME:   0.250 TIME LEFT:  2.00D  GRAD.:     0.250 HEAT:  89.19897
 CYCLE:   490 TIME:   0.367 TIME LEFT:  2.00D  GRAD.:     0.353 HEAT:  89.19897
 CYCLE:   491 TIME:   0.258 TIME LEFT:  2.00D  GRAD.:     0.178 HEAT:  89.19897
 CYCLE:   492 TIME:   0.211 TIME LEFT:  2.00D  GRAD.:     0.165 HEAT:  89.19896
 CYCLE:   493 TIME:   0.406 TIME LEFT:  2.00D  GRAD.:     0.131 HEAT:  89.19896
 CYCLE:   494 TIME:   0.391 TIME LEFT:  2.00D  GRAD.:     0.136 HEAT:  89.19896
 CYCLE:   495 TIME:   0.312 TIME LEFT:  2.00D  GRAD.:     0.314 HEAT:  89.19895
 CYCLE:   496 TIME:   0.305 TIME LEFT:  2.00D  GRAD.:     0.314 HEAT:  89.19895
 CYCLE:   497 TIME:   0.422 TIME LEFT:  2.00D  GRAD.:     0.128 HEAT:  89.19895
 CYCLE:   498 TIME:   0.359 TIME LEFT:  2.00D  GRAD.:     0.153 HEAT:  89.19895
 CYCLE:   499 TIME:   0.273 TIME LEFT:  2.00D  GRAD.:     0.210 HEAT:  89.19894
 CYCLE:   500 TIME:   0.320 TIME LEFT:  2.00D  GRAD.:     0.240 HEAT:  89.19894
 CYCLE:   501 TIME:   0.336 TIME LEFT:  2.00D  GRAD.:     0.165 HEAT:  89.19894
 CYCLE:   502 TIME:   0.297 TIME LEFT:  2.00D  GRAD.:     0.126 HEAT:  89.19893
 CYCLE:   503 TIME:   0.320 TIME LEFT:  2.00D  GRAD.:     0.128 HEAT:  89.19893
 CYCLE:   504 TIME:   0.383 TIME LEFT:  2.00D  GRAD.:     0.145 HEAT:  89.19893
 CYCLE:   505 TIME:   0.367 TIME LEFT:  2.00D  GRAD.:     0.525 HEAT:  89.19893
 CYCLE:   506 TIME:   0.391 TIME LEFT:  2.00D  GRAD.:     0.167 HEAT:  89.19892
 CYCLE:   507 TIME:   0.438 TIME LEFT:  2.00D  GRAD.:     0.143 HEAT:  89.19892
 CYCLE:   508 TIME:   0.305 TIME LEFT:  2.00D  GRAD.:     0.129 HEAT:  89.19892
 CYCLE:   509 TIME:   0.359 TIME LEFT:  2.00D  GRAD.:     0.163 HEAT:  89.19891
 CYCLE:   510 TIME:   0.258 TIME LEFT:  2.00D  GRAD.:     0.397 HEAT:  89.19891
 CYCLE:   511 TIME:   0.305 TIME LEFT:  2.00D  GRAD.:     0.215 HEAT:  89.19891
 CYCLE:   512 TIME:   0.266 TIME LEFT:  2.00D  GRAD.:     0.328 HEAT:  89.19890
 CYCLE:   513 TIME:   0.320 TIME LEFT:  2.00D  GRAD.:     0.094 HEAT:  89.19890

 -------------------------------------------------------------------------------
 RM1 PRECISE POLAR GNORM=0.1




     HERBERTS TEST WAS SATISFIED IN BFGS                      
     SCF FIELD WAS ACHIEVED                                   


                              RM1 CALCULATION
                                                       MOPAC2016 (Version: 21.013L)
                                                       Sun Oct 17 21:21:42 2021
                                                       No. of days remaining =  88




          FINAL HEAT OF FORMATION =         89.19890 KCAL/MOL =     373.20821 KJ/MOL


          TOTAL ENERGY            =      -6840.75386 EV
          ELECTRONIC ENERGY       =     -70347.40996 EV  POINT GROUP:     C1  
          CORE-CORE REPULSION     =      63506.65610 EV
          COSMO AREA              =        568.75 SQUARE ANGSTROMS
          COSMO VOLUME            =        692.55 CUBIC ANGSTROMS

          GRADIENT NORM           =          0.09362 = 0.01081 PER ATOM
          IONIZATION POTENTIAL    =          7.829962 EV
          HOMO LUMO ENERGIES (EV) =         -7.830 -1.196
          NO. OF FILLED LEVELS    =        110
          MOLECULAR WEIGHT        =        606.7406

          MOLECULAR DIMENSIONS (Angstroms)

            Atom       Atom       Distance
            H    75    H    64    20.26800
            H    73    H    50    11.36357
            H    60    H    69     6.55419


          SCF CALCULATIONS        =        514
 
          WALL-CLOCK TIME         =  2 MINUTES AND 19.383 SECONDS
          COMPUTATION TIME        = 21 MINUTES AND 28.375 SECONDS




  ATOM    CHEMICAL      BOND LENGTH      BOND ANGLE     TWIST ANGLE 
 NUMBER    SYMBOL       (ANGSTROMS)      (DEGREES)       (DEGREES) 
   (I)                     NA:I           NB:NA:I       NC:NB:NA:I       NA    NB    NC 
     1       N          0.00000000       0.0000000       0.0000000        0     0     0
     2       C          1.15651443  *    0.0000000       0.0000000        1     0     0
     3       C          1.41693414  *  179.2602970  *    0.0000000        2     1     0
     4       C          1.34800326  *  122.9686161  * -178.3880300  *     3     2     1
     5       C          1.43264982  *  123.3236553  *   -2.8643917  *     4     3     2
     6       C          1.36940471  *  127.2225755  *  -36.4581911  *     5     4     3
     7       C          1.42998755  *  111.8827009  * -178.9546807  *     6     5     4
     8       C          1.36730481  *  112.0451166  *    0.0038312  *     7     6     5
     9       S          1.71278114  *  120.6238823  *  145.1186886  *     5     4     3
    10       C          1.44436286  *  125.6758377  * -178.4906649  *     8     7     6
    11       C          1.39876181  *  120.1549281  * -137.8893284  *    10     8     7
    12       C          1.38740066  *  120.8535589  *  177.7920041  *    11    10     8
    13       C          1.38858763  *  117.6728597  *    0.8696432  *    12    11    10
    14       C          1.42010430  *  122.0959476  *    2.2999352  *    13    12    11
    15       C          1.39495484  *  118.6556546  *   41.4128594  *    10     8     7
    16       C          1.44508369  *  107.0260847  *  179.3176745  *    14    13    12
    17       C          1.39379395  *  134.8520890  * -172.8297514  *    16    14    13
    18       N          1.42199840  *  130.1172129  *    6.0365634  *    17    16    14
    19       C          1.47343541  *  121.9963937  *   39.5513722  *    18    17    16
    20       C          1.52580988  *  112.4945915  *   69.6958648  *    19    18    17
    21       C          1.43055969  *  106.0000886  *  176.0861464  *    18    17    16
    22       C          1.41774181  *  110.1250708  *    4.3094655  *    21    18    17
    23       C          1.42443250  *  120.5142869  * -171.0995861  *    17    16    14
    24       C          1.39078438  *  118.6067235  * -174.6063111  *    23    17    18
    25       C          1.42545060  *  121.4985936  *  -11.2472581  *    24    23    17
    26       C          1.42656651  *  106.6670189  *    6.9214030  *    16    14    13
    27       N          1.42615143  *  127.5814725  * -171.7407581  *    13    12    11
    28       C          1.47425372  *  117.1245904  *  140.1735416  *    27    13    14
    29       C          1.52616548  *  112.6617314  *  -56.8576694  *    28    27    13
    30       C          1.44386402  *  106.6044288  * -177.8485464  *    25    24    23
    31       C          1.38607530  *  133.8822662  * -178.5357708  *    30    25    24
    32       C          1.38721176  *  119.3005049  * -179.2308325  *    31    30    25
    33       C          1.39528063  *  121.0374975  *    0.1192905  *    32    31    30
    34       C          1.38632726  *  121.0956032  *   -1.6089590  *    33    32    31
    35       C          1.39043114  *  117.7375446  *    0.0684428  *    34    33    32
    36       N          1.41988996  *  128.5139526  *  178.5730454  *    35    34    33
    37       C          1.47377965  *  123.5109082  *   36.8557818  *    36    35    34
    38       C          1.52338872  *  114.2089129  *   10.8950844  *    37    36    35
    39       C          1.38691668  *  119.3006047  * -176.6913337  *    22    21    18
    40       C          1.38820464  *  118.7719239  *   -4.1049320  *    39    22    21
    41       C          1.39538016  *  121.2231987  *    0.9020543  *    40    39    22
    42       C          1.38957509  *  127.9251724  * -177.2802580  *    21    18    17
    43       C          1.46880518  *  117.4912272  *  178.5689141  *     3     2     4
    44       O          1.22297930  *  126.5042597  *    1.0067697  *    43     3     4
    45       O          1.34804243  *  113.9752573  * -178.8838573  *    43     3     4
    46       H          1.10142240  *  120.2619340  *  176.7854103  *     4     3     2
    47       H          1.08862688  *  125.7031163  *   -0.7300614  *     6     5     4
    48       H          1.08786006  *  122.8189812  *  179.3928964  *     7     6     5
    49       H          1.09444872  *  119.9038408  *  179.9013139  *    11    10    15
    50       H          1.09214401  *  120.6188286  * -177.9674949  *    12    11    10
    51       H          1.09584675  *  120.6787234  *   -0.2345114  *    15    10     8
    52       H          1.11475347  *  108.0761862  *   60.3587297  *    19    18    21
    53       H          1.11325108  *  109.4496369  *  173.7516040  *    19    18    21
    54       H          1.09992317  *  112.4443963  *  -60.7662815  *    20    19    52
    55       H          1.09961984  *  111.1550036  *  -56.8659131  *    20    19    53
    56       H          1.09964315  *  112.2702798  *   62.8042856  *    20    19    53
    57       H          1.11448917  *  107.7623518  *   66.0487686  *    28    27    13
    58       H          1.11491330  *  109.2047023  * -179.9481164  *    28    27    13
    59       H          1.09984406  *  112.5491094  *  -60.0566593  *    29    28    57
    60       H          1.09967513  *  111.1129404  *  -56.9042322  *    29    28    58
    61       H          1.09967241  *  112.2847344  *   62.6845219  *    29    28    58
    62       H          1.09451466  *  120.5492527  * -177.0602269  *    31    30    35
    63       H          1.09367241  *  119.5828150  *  179.9090272  *    32    31    30
    64       H          1.09414978  *  119.4654459  *  178.6456777  *    33    32    31
    65       H          1.09460621  *  120.9477780  * -179.9913682  *    34    33    32
    66       H          1.11879041  *  109.5057946  *  133.1028350  *    37    36    35
    67       H          1.11911615  *  107.4370959  * -112.5853677  *    37    36    35
    68       H          1.09968288  *  112.8304092  *  -71.9370958  *    38    37    66
    69       H          1.10058016  *  110.5131966  *   47.5318729  *    38    37    66
    70       H          1.10186579  *  112.8770414  *  166.4434764  *    38    37    66
    71       H          1.09501644  *  121.3804055  *  173.9171666  *    39    22    21
    72       H          1.09389516  *  119.5069826  * -179.4216644  *    40    39    22
    73       H          1.09422914  *  119.4178724  * -178.9900965  *    41    40    39
    74       H          1.09185442  *  121.9967832  *   -0.3778744  *    42    21    18
    75       H          0.96826619  *  111.0647737  *    0.1474170  *    45    43    44

                             CARTESIAN COORDINATES

   1    N        0.000000000     0.000000000     0.000000000
   2    C        1.156514430     0.000000000     0.000000000
   3    C        2.573330486     0.018292470     0.000000000
   4    C        3.321419633    -1.102628277    -0.031813670
   5    C        2.763633996    -2.422035471    -0.008892994
   6    C        1.661294669    -2.843417000     0.685768698
   7    C        1.408940832    -4.237339121     0.490415031
   8    C        2.327986867    -4.813543606    -0.341970228
   9    S        3.501131863    -3.696393161    -0.883952206
  10    C        2.333759535    -6.195219617    -0.762829042
  11    C        3.535241892    -6.909751315    -0.812014411
  12    C        3.551875291    -8.249990650    -1.170291466
  13    C        2.340244011    -8.846062479    -1.494056218
  14    C        1.121758726    -8.116924098    -1.512685590
  15    C        1.121363514    -6.796559389    -1.101038104
  16    C        0.081594177    -9.041037629    -1.902991593
  17    C       -1.270653123    -8.922565998    -2.219303612
  18    N       -2.078283532    -7.761833868    -2.369348569
  19    C       -1.576995501    -6.541372154    -3.025241406
  20    C       -1.377014293    -6.725606292    -4.526627798
  21    C       -3.364597448    -8.227809544    -2.787396670
  22    C       -3.389571616    -9.645276760    -2.799839732
  23    C       -2.078147717   -10.083659864    -2.389072468
  24    C       -1.504759093   -11.331513517    -2.169145362
  25    C       -0.096263212   -11.487183782    -2.014822500
  26    C        0.680135126   -10.335151149    -1.948936474
  27    N        2.087259991   -10.229490953    -1.730768402
  28    C        3.041795519   -10.949358358    -2.593367311
  29    C        3.186731493   -10.309973251    -3.971540489
  30    C        0.147670948   -12.901482887    -1.856716645
  31    C        1.286944274   -13.662310824    -1.645999108
  32    C        1.174293981   -15.041736939    -1.551924870
  33    C       -0.065084703   -15.671940166    -1.668511372
  34    C       -1.227318518   -14.938085091    -1.848990059
  35    C       -1.115357088   -13.553567639    -1.911238060
  36    N       -2.139890958   -12.591949527    -2.115464526
  37    C       -3.499142549   -12.720866641    -1.560629454
  38    C       -3.651433207   -13.835422156    -0.533357945
  39    C       -4.528538687   -10.300186325    -3.244120444
  40    C       -5.643664983    -9.545999659    -3.582953667
  41    C       -5.626968795    -8.153123850    -3.501075708
  42    C       -4.482395891    -7.470162929    -3.115142258
  43    C        3.234472383     1.329880486     0.004113437
  44    O        4.439014083     1.537561047    -0.036215850
  45    O        2.382181512     2.372748343     0.061081052
  46    H        4.419585755    -1.035767265    -0.083698999
  47    H        1.048079177    -2.225811816     1.339709886
  48    H        0.582262362    -4.759386121     0.967394233
  49    H        4.474725729    -6.416610093    -0.543686542
  50    H        4.487819778    -8.812804147    -1.175528809
  51    H        0.183016050    -6.233329064    -1.044862115
  52    H       -2.295205585    -5.715359936    -2.814164670
  53    H       -0.628906725    -6.221136969    -2.537486274
  54    H       -2.311370092    -6.984380309    -5.046095061
  55    H       -0.998035287    -5.804455785    -4.992482326
  56    H       -0.652998599    -7.520807654    -4.756129716
  57    H        4.020960140   -10.983778398    -2.062200659
  58    H        2.719670435   -12.012385926    -2.689489569
  59    H        3.560739489    -9.276958580    -3.920007448
  60    H        3.894208405   -10.873334251    -4.597149149
  61    H        2.233385562   -10.277884341    -4.518697911
  62    H        2.266399723   -13.183020041    -1.551607828
  63    H        2.070426916   -15.646657780    -1.387195173
  64    H       -0.121380473   -16.763202593    -1.612468087
  65    H       -2.198380556   -15.434989354    -1.940025353
  66    H       -3.803384101   -11.753121390    -1.088826326
  67    H       -4.199454307   -12.871395478    -2.420469829
  68    H       -2.887527629   -13.794859447     0.256645449
  69    H       -4.629536437   -13.768024848    -0.033309577
  70    H       -3.601483611   -14.840791249    -0.981516680
  71    H       -4.551253707   -11.388673229    -3.361343701
  72    H       -6.551601907   -10.050746590    -3.925718452
  73    H       -6.528052568    -7.588703176    -3.759561210
  74    H       -4.474496853    -6.379154126    -3.072911126
  75    H        2.861289193     3.214172842     0.060845837


           Empirical Formula: C38 H30 N4 O2 S  =    75 atoms



      MOLECULAR POINT GROUP   :   C1  


                  EIGENVALUES  
 -40.33104 -39.24833 -39.16842 -39.13767 -37.12798 -36.56384 -35.76211 -35.64968
 -35.57834 -35.23065 -34.47173 -33.31642 -32.81295 -32.67817 -30.97069 -30.26594
 -30.11717 -29.72970 -29.52117 -29.01150 -28.52242 -27.72381 -26.96722 -26.93643
 -25.46949 -24.31228 -24.10950 -24.00682 -23.50987 -22.94759 -22.80373 -22.52266
 -22.35261 -21.47416 -21.33050 -21.16270 -20.26737 -20.04336 -19.89807 -19.03993
 -18.48907 -18.22283 -18.01336 -17.61715 -17.54499 -17.31868 -17.23346 -16.83814
 -16.54190 -16.37823 -16.29312 -16.24959 -16.13795 -15.92500 -15.78678 -15.61305
 -15.48360 -15.25516 -15.19925 -15.05240 -14.90960 -14.83072 -14.61086 -14.57103
 -14.50755 -14.45083 -14.34974 -14.26196 -14.18600 -14.14660 -13.99534 -13.88074
 -13.85807 -13.77281 -13.56453 -13.49645 -13.45847 -13.29687 -13.26843 -13.21259
 -13.07533 -12.87043 -12.76130 -12.73386 -12.58868 -12.49086 -12.47229 -12.42837
 -12.34187 -12.23493 -12.01204 -11.88175 -11.83823 -11.80904 -11.65848 -11.60753
 -11.53634 -11.43659 -11.19516 -10.70951 -10.42112 -10.36205  -9.75948  -9.62150
  -9.33333  -9.16241  -9.00937  -8.65946  -7.86703  -7.82996  -1.19598  -0.26472
  -0.25939  -0.01632   0.39184   0.45220   0.63062   0.68676   0.96202   1.09883
   1.24306   1.27880   1.33370   1.52401   1.60721   1.84520   1.86326   2.09909
   2.24341   2.46590   2.69830   2.95034   3.00116   3.09799   3.21932   3.48685
   3.55526   3.59173   3.67331   3.71811   3.79914   3.81841   3.86913   3.87589
   3.90840   4.03428   4.05216   4.07553   4.08950   4.11745   4.16247   4.17945
   4.21975   4.26289   4.29106   4.30498   4.34784   4.37927   4.41309   4.44437
   4.46376   4.49293   4.52884   4.54483   4.57752   4.61117   4.63262   4.64694
   4.69360   4.71823   4.72930   4.78102   4.81741   4.83256   4.88500   4.92341
   4.95718   4.96832   5.01276   5.04062   5.10204   5.13310   5.13677   5.20831
   5.21542   5.22478   5.28572   5.32533   5.33236   5.36318   5.48849   5.62615
   5.64281   5.71508   5.77989   5.80455   5.91590   5.93081   5.93438   5.97341
   6.02683   6.08696   6.17556   6.25300   6.25378   6.32536   6.38998   6.43250
   6.49161   6.55948


              NET ATOMIC CHARGES AND DIPOLE CONTRIBUTIONS

  ATOM NO.   TYPE          CHARGE      No. of ELECS.   s-Pop       p-Pop
   44          O          -0.377790        6.3778     1.91039     4.46740
   43          C           0.402641        3.5974     1.18034     2.41702
   45          O          -0.311127        6.3111     1.83994     4.47119
   75          H           0.244918        0.7551     0.75508
    2          C           0.054408        3.9456     1.19473     2.75086
    1          N          -0.151170        5.1512     1.84821     3.30296
    3          C          -0.146644        4.1466     1.14223     3.00441
    4          C           0.141707        3.8583     1.17196     2.68633
    5          C          -0.420715        4.4207     1.21481     3.20591
    6          C          -0.013102        4.0131     1.18463     2.82847
    7          C          -0.141009        4.1410     1.18429     2.95672
    8          C          -0.246242        4.2462     1.21747     3.02877
    9          S           0.482917        5.5171     1.88441     3.63267
   10          C          -0.031810        4.0318     1.14817     2.88364
   11          C          -0.080714        4.0807     1.17599     2.90472
   12          C          -0.129611        4.1296     1.17026     2.95936
   13          C           0.067101        3.9329     1.16080     2.77210
   14          C          -0.025423        4.0254     1.15651     2.86891
   15          C          -0.069509        4.0695     1.17246     2.89705
   16          C          -0.192669        4.1927     1.15357     3.03910
   17          C           0.203913        3.7961     1.14725     2.64884
   18          N          -0.267799        5.2678     1.57548     3.69232
   19          C           0.043954        3.9560     1.15963     2.79642
   20          C          -0.226311        4.2263     1.16402     3.06229
   21          C           0.059044        3.9410     1.15935     2.78161
   22          C          -0.026569        4.0266     1.15522     2.87135
   23          C          -0.194099        4.1941     1.15288     3.04122
   24          C           0.202871        3.7971     1.14571     2.65142
   25          C          -0.179061        4.1791     1.15172     3.02734
   26          C           0.199082        3.8009     1.14962     2.65130
   27          N          -0.269886        5.2699     1.58274     3.68714
   28          C           0.046171        3.9538     1.16036     2.79347
   29          C          -0.228195        4.2282     1.16444     3.06375
   30          C          -0.034835        4.0348     1.15582     2.87901
   31          C          -0.074822        4.0748     1.17137     2.90345
   32          C          -0.135728        4.1357     1.17715     2.95858
   33          C          -0.077844        4.0778     1.17597     2.90187
   34          C          -0.144791        4.1448     1.17256     2.97223
   35          C           0.081871        3.9181     1.15606     2.76207
   36          N          -0.282127        5.2821     1.54546     3.73666
   37          C           0.066318        3.9337     1.15994     2.77374
   38          C          -0.220891        4.2209     1.16293     3.05796
   39          C          -0.086119        4.0861     1.17322     2.91290
   40          C          -0.129219        4.1292     1.17781     2.95141
   41          C          -0.083970        4.0840     1.17686     2.90711
   42          C          -0.131099        4.1311     1.17097     2.96013
   46          H           0.133078        0.8669     0.86692
   47          H           0.135833        0.8642     0.86417
   48          H           0.140722        0.8593     0.85928
   49          H           0.109781        0.8902     0.89022
   50          H           0.120116        0.8799     0.87988
   51          H           0.124254        0.8757     0.87575
   52          H           0.079723        0.9203     0.92028
   53          H           0.089398        0.9106     0.91060
   54          H           0.078518        0.9215     0.92148
   55          H           0.071750        0.9282     0.92825
   56          H           0.078477        0.9215     0.92152
   57          H           0.076889        0.9231     0.92311
   58          H           0.093356        0.9066     0.90664
   59          H           0.076055        0.9239     0.92395
   60          H           0.072413        0.9276     0.92759
   61          H           0.080427        0.9196     0.91957
   62          H           0.111594        0.8884     0.88841
   63          H           0.105799        0.8942     0.89420
   64          H           0.102856        0.8971     0.89714
   65          H           0.120600        0.8794     0.87940
   66          H           0.082994        0.9170     0.91701
   67          H           0.072043        0.9280     0.92796
   68          H           0.085006        0.9150     0.91499
   69          H           0.074479        0.9255     0.92552
   70          H           0.075887        0.9241     0.92411
   71          H           0.114721        0.8853     0.88528
   72          H           0.105404        0.8946     0.89460
   73          H           0.104251        0.8957     0.89575
   74          H           0.117560        0.8824     0.88244
 DIPOLE           X         Y         Z       TOTAL
 POINT-CHG.     1.543    -4.468    -2.198     5.213
 HYBRID        -0.556     0.733     0.673     1.140
 SUM            0.987    -3.735    -1.524     4.153


          ATOMIC ORBITAL ELECTRON POPULATIONS

     Atom    s        px        py        pz   
    1  N   1.84821   1.11270   1.08850   1.10176
    2  C   1.19473   0.91160   0.91866   0.92061
    3  C   1.14223   0.89045   0.93399   1.17998
    4  C   1.17196   0.98898   0.88776   0.80960
    5  C   1.21481   1.06204   1.00370   1.14016
    6  C   1.18463   0.92301   0.95188   0.95358
    7  C   1.18429   1.00737   0.94429   1.00505
    8  C   1.21747   1.01529   0.98739   1.02608
    9  S   1.88441   1.24599   0.92363   1.46305
   10  C   1.14817   0.94044   0.90456   1.03864
   11  C   1.17599   0.96635   0.94552   0.99285
   12  C   1.17026   0.96538   0.95693   1.03705
   13  C   1.16080   0.94582   0.83358   0.99271
   14  C   1.15651   0.91833   0.92972   1.02087
   15  C   1.17246   0.97088   0.94139   0.98478
   16  C   1.15357   0.92852   0.93893   1.17166
   17  C   1.14725   0.88055   0.84163   0.92665
   18  N   1.57548   1.06312   1.09554   1.53367
   19  C   1.15963   1.01834   0.85599   0.92208
   20  C   1.16402   1.05171   1.04656   0.96401
   21  C   1.15935   0.87121   0.92685   0.98355
   22  C   1.15522   0.92793   0.92134   1.02208
   23  C   1.15288   0.95626   0.91617   1.16879
   24  C   1.14571   0.89390   0.83079   0.92673
   25  C   1.15172   0.92746   0.92311   1.17677
   26  C   1.14962   0.82299   0.91156   0.91675
   27  N   1.58274   1.05801   1.13928   1.48985
   28  C   1.16036   0.92877   0.96794   0.89676
   29  C   1.16444   1.05127   1.03525   0.97723
   30  C   1.15582   0.93064   0.90581   1.04257
   31  C   1.17137   0.97060   0.93965   0.99320
   32  C   1.17715   0.97472   0.95015   1.03372
   33  C   1.17597   0.92771   0.98519   0.98897
   34  C   1.17256   0.99192   0.92126   1.05905
   35  C   1.15606   0.86523   0.89926   0.99758
   36  N   1.54546   1.07748   1.06403   1.59516
   37  C   1.15994   0.80891   1.00262   0.96221
   38  C   1.16293   1.04903   1.00213   1.00679
   39  C   1.17322   0.93137   0.99245   0.98908
   40  C   1.17781   0.98276   0.94621   1.02244
   41  C   1.17686   0.96994   0.94628   0.99089
   42  C   1.17097   0.93025   0.99019   1.03969
   43  C   1.18034   0.84464   0.84998   0.72240
   44  O   1.91039   1.15907   1.85442   1.45391
   45  O   1.83994   1.42041   1.18646   1.86432
   46  H   0.86692
   47  H   0.86417
   48  H   0.85928
   49  H   0.89022
   50  H   0.87988
   51  H   0.87575
   52  H   0.92028
   53  H   0.91060
   54  H   0.92148
   55  H   0.92825
   56  H   0.92152
   57  H   0.92311
   58  H   0.90664
   59  H   0.92395
   60  H   0.92759
   61  H   0.91957
   62  H   0.88841
   63  H   0.89420
   64  H   0.89714
   65  H   0.87940
   66  H   0.91701
   67  H   0.92796
   68  H   0.91499
   69  H   0.92552
   70  H   0.92411
   71  H   0.88528
   72  H   0.89460
   73  H   0.89575
   74  H   0.88244
   75  H   0.75508
 ******************** TDHF POLARIZABILITIES ********************



          MOLECULAR WEIGHT =  606.74



          ROTATIONAL CONSTANTS IN CM(-1)

          A =    0.00432283   B =    0.00102603   C =    0.00087380



           PRINCIPAL MOMENTS OF INERTIA IN UNITS OF 10**(-40)*GRAM-CM**2

          A =     6475.5656   B =    27282.7174   C =    32035.6340


 ROTATION MATRIX FOR ORIENTATION OF MOLECULE:

         0.331066   -0.919508   -0.211895
         0.930053    0.355902   -0.091296
         0.159361   -0.166849    0.973019


          CARTESIAN COORDINATES 

    NO.       ATOM         X         Y         Z

     1         N        7.2383    2.6716    0.8862
     2         C        7.6212    1.6081    0.6411
     3         C        8.1072    0.3119    0.3392
     4         C        7.3073   -0.7696    0.2521
     5         C        5.8992   -0.7301    0.5130
     6         C        5.2530    0.0176    1.4610
     7         C        3.8419   -0.2139    1.4517
     8         C        3.4777   -1.1251    0.4996
     9         S        4.8187   -1.7158   -0.3783
    10         C        2.1275   -1.5520    0.2150
    11         C        1.8529   -2.9028   -0.0222
    12         C        0.5548   -3.3353   -0.2520
    13         C       -0.4523   -2.3793   -0.2558
    14         C       -0.1806   -0.9963   -0.0824
    15         C        1.1129   -0.5947    0.1977
    16         C       -1.4466   -0.3037   -0.1574
    17         C       -1.8345    1.0347   -0.1894
    18         N       -1.0463    2.2154   -0.2702
    19         C        0.1503    2.2983   -1.1261
    20         C       -0.1941    2.2994   -2.6125
    21         C       -1.9721    3.3021   -0.3619
    22         C       -3.3007    2.8227   -0.2393
    23         C       -3.2088    1.3923   -0.0775
    24         C       -4.1445    0.3842    0.1289
    25         C       -3.7984   -0.9921   -0.0052
    26         C       -2.4594   -1.3069   -0.2107
    27         N       -1.8605   -2.5996   -0.3063
    28         C       -2.3514   -3.5896   -1.2821
    29         C       -1.9284   -3.2653   -2.7122
    30         C       -5.0078   -1.7461    0.2261
    31         C       -5.3046   -3.0996    0.2592
    32         C       -6.6099   -3.5026    0.5005
    33         C       -7.6249   -2.5679    0.7073
    34         C       -7.3559   -1.2079    0.7109
    35         C       -6.0411   -0.8077    0.5002
    36         N       -5.5185    0.5107    0.4308
    37         C       -5.9999    1.6221    1.2705
    38         C       -6.9232    1.1940    2.4040
    39         C       -4.3577    3.7110   -0.3705
    40         C       -4.0794    5.0613   -0.5327
    41         C       -2.7654    5.5281   -0.5838
    42         C       -1.6898    4.6543   -0.5131
    43         C        9.5466    0.1701    0.0834
    44         O       10.1321   -0.8569   -0.2300
    45         O       10.2435    1.3154    0.2242
    46         H        7.7248   -1.7469   -0.0372
    47         H        5.7287    0.6922    2.1709
    48         H        3.1587    0.2809    2.1386
    49         H        2.6653   -3.6359   -0.0052
    50         H        0.3403   -4.3954   -0.4040
    51         H        1.3350    0.4592    0.3998
    52         H        0.7144    3.2175   -0.8439
    53         H        0.8397    1.4591   -0.8816
    54         H       -0.8269    3.1531   -2.8964
    55         H        0.7138    2.3564   -3.2302
    56         H       -0.7306    1.3889   -2.9166
    57         H       -1.9746   -4.5908   -0.9696
    58         H       -3.4621   -3.6557   -1.2104
    59         H       -0.8356   -3.2502   -2.8356
    60         H       -2.3179   -4.0120   -3.4194
    61         H       -2.3014   -2.2860   -3.0455
    62         H       -4.5196   -3.8454    0.0997
    63         H       -6.8495   -4.5694    0.5262
    64         H       -8.6495   -2.9138    0.8733
    65         H       -8.1540   -0.4766    0.8735
    66         H       -5.1254    2.1675    1.7057
    67         H       -6.5088    2.3559    0.5960
    68         H       -6.5067    0.3742    3.0072
    69         H       -7.1047    2.0340    3.0917
    70         H       -7.9132    0.8651    2.0492
    71         H       -5.3962    3.3641   -0.3803
    72         H       -4.9041    5.7737   -0.6278
    73         H       -2.5800    6.6006   -0.6959
    74         H       -0.6657    5.0283   -0.5733
    75         H       11.1846    1.1744    0.0456


 ENERGY OF "REORIENTED" SYSTEM WITHOUT FIELD:       89.1989056912


  NFREQ=  3  IWFLB=  0  IBET=  1  IGAM=  1
  ATOL= 0.10000D-02  BTOL= 0.10000D-02    MAXITU=  500    MAXITA=  150


 *****************************************************************
 CALCULATION OF STATIC FIELD QUANTITIES
 *****************************************************************

 +++++ ALPHA AT       0.00000 EV.

                           COMPONENTS OF ALPHA

                     *X           *Y           *Z
           *=X:     692.6425      36.9941     -31.1772
           *=Y:      37.0215     512.1397      29.8559
           *=Z:     -31.1581      29.8611     151.9448

  ISOTROPIC AVERAGE ALPHA =     452.24234 A.U. =     67.01540 ANG.**3

 +++++ BETA (SECOND HARMONIC GENERATION) AT       0.00000 EV.

                              COMPONENTS OF BETA
            *XX         *XY         *YY         *XZ         *YZ         *ZZ
   *=X -7705.85480  -421.02869  1064.20226    22.76077   -12.74772   -17.92734
   *=Y  -421.62259  1064.04839  -211.83736   -12.74191   -86.74865   -20.40448
   *=Z    21.75414   -12.95233   -86.60269   -17.89450   -20.41936   -17.08701


 AVERAGE BETAX(SHG) VALUE AT   0.00000 EV =      -3995.7963 a.u. = -0.345214E-28 ESU
 AVERAGE BETAY(SHG) VALUE AT   0.00000 EV =       -392.0871 a.u. = -0.338740E-29 ESU
 AVERAGE BETAZ(SHG) VALUE AT   0.00000 EV =        -48.8171 a.u. = -0.421751E-30 ESU



 AVERAGE BETA (SHG) VALUE AT   0.00000 EV =       4015.2838 a.u. =  0.346897E-28 ESU
   (1 a.u. = 8.639418X10-33 esu)



 +++++ ALPHA AT       0.00000 EV.

                           COMPONENTS OF ALPHA

                     *X           *Y           *Z
           *=X:     692.6425      36.9941     -31.1772
           *=Y:      37.0215     512.1397      29.8559
           *=Z:     -31.1581      29.8611     151.9448

  ISOTROPIC AVERAGE ALPHA =     452.24234 A.U. =     67.01540 ANG.**3


 GAMMA (THIRD HARMONIC GENERATION) AT    0.00000 EV.


 GAMMA(X,X,X,X) =       1861973.15663
 GAMMA(Y,Y,Y,Y) =        239005.87975
 GAMMA(Z,Z,Z,Z) =         10132.73106
 GAMMA(X,X,Y,Y) =        120362.71159
 GAMMA(X,X,Z,Z) =         17517.70584
 GAMMA(Y,Y,X,X) =        120362.74406
 GAMMA(Y,Y,Z,Z) =         11153.24163
 GAMMA(Z,Z,X,X) =         17517.56686
 GAMMA(Z,Z,Y,Y) =         11153.25797


 AVERAGE GAMMA VALUE AT    0.00000 =        481835.79908 a.u. =       242686.36123 ESU (X10-39)




 **********************************************************************
 CALCULATION FOR A FREQUENCY OF    0.25000 EV  =       0.00919 A.U. 
                  WAVELENGTH OF    4959.37 NM  =    2016.38525 CM(-1)
 **********************************************************************

 +++++ ALPHA AT       0.25000 EV.

                           COMPONENTS OF ALPHA

                     *X           *Y           *Z
           *=X:     695.2371      37.2710     -31.2249
           *=Y:      37.2939     513.2796      29.8599
           *=Z:     -31.2137      29.8622     152.1336

  ISOTROPIC AVERAGE ALPHA =     453.55012 A.U. =     67.20919 ANG.**3

 +++++ BETA (SECOND HARMONIC GENERATION) AT       0.25000 EV.

                              COMPONENTS OF BETA
            *XX         *XY         *YY         *XZ         *YZ         *ZZ
   *=X -8015.30225  -446.24960  1088.90526    22.34190   -11.99244   -17.67181
   *=Y  -457.85461  1076.97059  -219.44084   -12.67104   -87.49948   -21.02580
   *=Z    10.54735   -15.36983   -87.95395   -18.73420   -21.24347   -17.47170


 AVERAGE BETAX(SHG) VALUE AT   0.25000 EV =      -4171.6401 a.u. = -0.360405E-28 ESU
 AVERAGE BETAY(SHG) VALUE AT   0.25000 EV =       -414.4378 a.u. = -0.358050E-29 ESU
 AVERAGE BETAZ(SHG) VALUE AT   0.25000 EV =        -52.0274 a.u. = -0.449486E-30 ESU



 AVERAGE BETA (SHG) VALUE AT   0.25000 EV =       4192.4989 a.u. =  0.362208E-28 ESU
   (1 a.u. = 8.639418X10-33 esu)



 +++++ ALPHA AT       0.75000 EV.

                           COMPONENTS OF ALPHA

                     *X           *Y           *Z
           *=X:     717.2054      39.6055     -31.6779
           *=Y:      39.6245     522.7187      29.8579
           *=Z:     -31.6649      29.8604     153.6478

  ISOTROPIC AVERAGE ALPHA =     464.52395 A.U. =     68.83535 ANG.**3


 GAMMA (THIRD HARMONIC GENERATION) AT    0.25000 EV.


 GAMMA(X,X,X,X) =       2051040.75597
 GAMMA(Y,Y,Y,Y) =        254601.41969
 GAMMA(Z,Z,Z,Z) =         10362.44221
 GAMMA(X,X,Y,Y) =        129817.59497
 GAMMA(X,X,Z,Z) =         18507.13203
 GAMMA(Y,Y,X,X) =        130692.17251
 GAMMA(Y,Y,Z,Z) =         11778.28725
 GAMMA(Z,Z,X,X) =         18512.04695
 GAMMA(Z,Z,Y,Y) =         11596.96655


 AVERAGE GAMMA VALUE AT    0.25000 =        527381.76363 a.u. =       265626.50895 ESU (X10-39)




 **********************************************************************
 CALCULATION FOR A FREQUENCY OF    0.50000 EV  =       0.01837 A.U. 
                  WAVELENGTH OF    2479.68 NM  =    4032.77050 CM(-1)
 **********************************************************************

 +++++ ALPHA AT       0.50000 EV.

                           COMPONENTS OF ALPHA

                     *X           *Y           *Z
           *=X:     703.2129      38.1166     -31.3926
           *=Y:      38.1350     516.7501      29.8612
           *=Z:     -31.3817      29.8635     152.6941

  ISOTROPIC AVERAGE ALPHA =     457.55234 A.U. =     67.80226 ANG.**3

 +++++ BETA (SECOND HARMONIC GENERATION) AT       0.50000 EV.

                              COMPONENTS OF BETA
            *XX         *XY         *YY         *XZ         *YZ         *ZZ
   *=X -9083.97655  -537.07431  1171.04348    22.42627    -8.59028   -16.72035
   *=Y  -586.86871  1115.79510  -244.88351   -12.02354   -89.83838   -23.01277
   *=Z   -29.72807   -24.04065   -92.23297   -21.59712   -23.98942   -18.74500


 AVERAGE BETAX(SHG) VALUE AT   0.50000 EV =      -4781.8421 a.u. = -0.413123E-28 ESU
 AVERAGE BETAY(SHG) VALUE AT   0.50000 EV =       -493.3319 a.u. = -0.426210E-29 ESU
 AVERAGE BETAZ(SHG) VALUE AT   0.50000 EV =        -62.6041 a.u. = -0.540863E-30 ESU



 AVERAGE BETA (SHG) VALUE AT   0.50000 EV =       4807.6304 a.u. =  0.415351E-28 ESU
   (1 a.u. = 8.639418X10-33 esu)



 +++++ ALPHA AT       1.50000 EV.

                           COMPONENTS OF ALPHA

                     *X           *Y           *Z
           *=X:     813.4394      50.2953     -33.2494
           *=Y:      50.3343     559.8497      29.7202
           *=Z:     -33.2177      29.7251     159.3230

  ISOTROPIC AVERAGE ALPHA =     510.87071 A.U. =     75.70323 ANG.**3


 GAMMA (THIRD HARMONIC GENERATION) AT    0.50000 EV.


 GAMMA(X,X,X,X) =       2859985.76667
 GAMMA(Y,Y,Y,Y) =        312561.71170
 GAMMA(Z,Z,Z,Z) =         11147.43061
 GAMMA(X,X,Y,Y) =        167072.18128
 GAMMA(X,X,Z,Z) =         22212.36787
 GAMMA(Y,Y,X,X) =        171933.75085
 GAMMA(Y,Y,Z,Z) =         14109.43123
 GAMMA(Z,Z,X,X) =         22290.02825
 GAMMA(Z,Z,Y,Y) =         13232.64457


 AVERAGE GAMMA VALUE AT    0.50000 =        718909.06261 a.u. =       362093.11303 ESU (X10-39)



 **********************
 *                    *
 * JOB ENDED NORMALLY *
 *                    *
 **********************



 TOTAL JOB TIME:           305.71 SECONDS

 == MOPAC DONE ==
