 *******************************************************************************
 ** Site#: 4824         For non-commercial use only    Version 21.013L 64BITS **
 *******************************************************************************
 ** Cite this program as: MOPAC2016, Version: 21.013L, James J. P. Stewart,   **
 ** Stewart Computational Chemistry, web: HTTP://OpenMOPAC.net. Days left:  87**
 *******************************************************************************
 **                                                                           **
 **                                MOPAC2016                                  **
 **                                                                           **
 *******************************************************************************

                              RM1 CALCULATION RESULTS

 *******************************************************************************
 *  CALCULATION DONE:                                Mon Oct 18 09:13:53 2021  *
 *  RM1        - The RM1 Hamiltonian to be used
 *  POLAR      - CALCULATE FIRST, SECOND AND THIRD-ORDER POLARIZABILITIES
 *  PRECISE    - TIGHTER CRITERIA TO BE USED
 *  T=         - A TIME OF 172800.0 SECONDS REQUESTED
 *  DUMP=N     - RESTART FILE WRITTEN EVERY 7200.0 SECONDS REQUESTED
 *  GNORM      - EXIT WHEN GRADIENT NORM DROPS BELOW 0.100
 *******************************************************************************
RM1 PRECISE POLAR GNORM=0.1


  ATOM    CHEMICAL      BOND LENGTH      BOND ANGLE     TWIST ANGLE 
 NUMBER    SYMBOL       (ANGSTROMS)      (DEGREES)       (DEGREES) 
   (I)                     NA:I           NB:NA:I       NC:NB:NA:I       NA    NB    NC 
     1       N          0.00000000       0.0000000       0.0000000        0     0     0
     2       C          1.15740000  *    0.0000000       0.0000000        1     0     0
     3       C          1.42990000  *  179.9911000  *    0.0000000        2     1     0
     4       C          1.34890000  *  120.6615000  *  178.9821000  *     3     2     1
     5       C          1.47110000  *  122.5092000  *    0.3842000  *     4     3     2
     6       C          1.48300000  *  120.1830000  *   70.4827000  *     5     4     3
     7       C          1.34770000  *  120.9649000  * -178.6563000  *     6     5     4
     8       C          1.46520000  *  118.5682000  *    0.8392000  *     7     6     5
     9       C          1.34340000  *  120.0284000  *   -2.5269000  *     8     7     6
    10       C          1.34860000  *  119.7138000  * -109.7304000  *     5     4     3
    11       C          1.45610000  *  107.7978000  * -179.9839000  *     9     8     7
    12       C          1.46110000  *  130.2928000  *  179.2135000  *    11     9     8
    13       C          1.34700000  *  117.9865000  *  179.7552000  *    12    11     9
    14       C          1.47860000  *  120.5493000  *   -0.8269000  *    13    12    11
    15       C          1.34770000  *  120.8234000  *    0.6981000  *    14    13    12
    16       C          1.34340000  *  107.7534000  *   -0.5503000  *    11     9     8
    17       N          1.42410000  *  109.2306000  *    0.3396000  *    16    11     9
    18       C          1.41760000  *  126.5100000  *  169.9472000  *    17    16    11
    19       C          1.35080000  *  120.5211000  *  140.3958000  *    18    17    16
    20       C          1.47160000  *  120.9453000  *  179.8099000  *    19    18    17
    21       C          1.34060000  *  118.1841000  *    1.3195000  *    20    19    18
    22       C          1.46520000  *  122.1596000  *    0.1633000  *    21    20    19
    23       C          1.34490000  *  119.2894000  *   -0.9258000  *    22    21    20
    24       C          1.53490000  *  112.1391000  *  174.3922000  *    22    21    20
    25       C          1.56630000  *  106.6488000  *   69.4038000  *    24    22    23
    26       C          1.54770000  *  115.8141000  *  171.1763000  *    25    24    22
    27       C          1.56360000  *  113.8251000  *  -58.9284000  *    24    22    23
    28       C          1.55050000  *  116.7045000  *   74.6981000  *    27    24    22
    29       C          1.53660000  *   99.3513000  * -175.9794000  *    24    22    23
    30       C          1.45160000  *  130.1374000  * -179.3447000  *    21    20    19
    31       C          1.34000000  *  130.2181000  *    2.0420000  *    30    21    20
    32       C          1.47140000  *  118.1316000  *  175.3367000  *    31    30    21
    33       C          1.35220000  *  121.1937000  *   -3.7908000  *    32    31    30
    34       C          1.34650000  *  128.4977000  *  167.9105000  *    29    24    22
    35       N          1.42400000  *  120.5758000  * -177.2262000  *    33    32    31
    36       C          1.43220000  *  126.0008000  *   38.2901000  *    35    33    32
    37       C          1.34430000  *  130.5174000  *   11.8418000  *    36    35    33
    38       C          1.47590000  *  118.6410000  * -178.5126000  *    37    36    35
    39       C          1.34860000  *  120.8984000  *   -1.2798000  *    38    37    36
    40       C          1.47270000  *  120.4745000  *   -1.0233000  *    39    38    37
    41       C          1.34090000  *  117.7438000  *    1.2907000  *    40    39    38
    42       C          1.45430000  *  130.8311000  * -178.8657000  *    41    40    39
    43       C          1.43180000  *  126.3156000  * -131.2170000  *    35    33    32
    44       C          1.34370000  *  130.8064000  *   -8.2385000  *    43    35    33
    45       C          1.47500000  *  118.8922000  * -178.7985000  *    44    43    35
    46       C          1.34820000  *  120.8755000  *   -1.2717000  *    45    44    43
    47       C          1.34110000  *  130.7399000  *    1.3085000  *    42    41    40
    48       C          1.47390000  *  118.0046000  * -178.5059000  *     3     2     4
    49       O          1.23180000  *  120.9313000  *    4.4927000  *    48     3     4
    50       O          1.35480000  *  120.1506000  * -175.0683000  *    48     3     4
    51       H          1.05310000  *  119.6831000  * -177.4736000  *     4     3     2
    52       H          1.05170000  *  119.6288000  * -177.7667000  *     6     5    10
    53       H          1.04920000  *  120.2273000  * -178.8279000  *     7     6     5
    54       H          1.05070000  *  121.1256000  *    0.2414000  *    10     5     4
    55       H          1.04980000  *  121.0880000  *  178.9033000  *    12    11    16
    56       H          1.05110000  *  119.8490000  *  179.6470000  *    13    12    11
    57       H          1.05120000  *  119.4482000  * -178.6641000  *    14    13    12
    58       H          1.04960000  *  120.3834000  * -178.7028000  *    15    14    13
    59       H          1.05100000  *  120.2381000  *   -0.6142000  *    19    18    17
    60       H          1.04980000  *  120.4709000  * -178.3326000  *    20    19    18
    61       H          1.04730000  *  120.4131000  *  177.4130000  *    23    22    21
    62       H          1.09250000  *  109.2225000  *  -66.3332000  *    25    24    22
    63       H          1.09490000  *  108.7073000  *   50.3304000  *    25    24    22
    64       H          1.09160000  *  109.0508000  *   50.6268000  *    26    25    62
    65       H          1.08870000  *  110.0194000  *  169.2862000  *    26    25    62
    66       H          1.08930000  *  110.8903000  *  -69.1911000  *    26    25    62
    67       H          1.09300000  *  108.6474000  * -164.9049000  *    27    24    22
    68       H          1.09330000  *  108.8069000  *  -48.0597000  *    27    24    22
    69       H          1.08970000  *  110.9287000  *  -68.9856000  *    28    27    67
    70       H          1.09170000  *  108.8584000  *   50.0725000  *    28    27    67
    71       H          1.08790000  *  110.8748000  *  168.9624000  *    28    27    67
    72       H          1.04980000  *  121.3491000  *   -2.0426000  *    31    30    21
    73       H          1.05080000  *  118.4542000  *  177.7336000  *    32    31    30
    74       H          1.04940000  *  120.2350000  *  176.0127000  *    34    29    30
    75       H          1.04930000  *  121.4590000  *    0.6012000  *    37    36    35
    76       H          1.05130000  *  119.4298000  *  177.8470000  *    38    37    36
    77       H          1.05110000  *  119.9222000  *  179.3392000  *    39    38    37
    78       H          1.04980000  *  120.7684000  * -178.2096000  *    40    39    38
    79       H          1.04610000  *  121.5222000  *    0.5659000  *    44    43    35
    80       H          1.05120000  *  119.4044000  *  178.1110000  *    45    44    43
    81       H          1.05110000  *  119.9213000  *  179.5829000  *    46    45    44
    82       H          1.04980000  *  121.4968000  *    0.1001000  *    47    42    41
    83       H          0.94130000  *  120.8716000  *   -0.2451000  *    50    48    49
 


          CARTESIAN COORDINATES 

    NO.       ATOM           X           Y           Z

     1         N          0.0000      0.0000      0.0000
     2         C          1.1574      0.0000      0.0000
     3         C          2.5873      0.0002      0.0000
     4         C          3.2754     -1.1598      0.0206
     5         C          2.6116     -2.4726      0.0356
     6         C          1.9000     -2.9621     -1.1699
     7         C          1.2639     -4.1502     -1.1650
     8         C          1.2730     -4.9447      0.0661
     9         C          1.9487     -4.5092      1.1424
    10         C          2.6566     -3.2316      1.1494
    11         C          1.7798     -5.4933      2.2022
    12         C          2.3129     -5.5180      3.5624
    13         C          1.9905     -6.5631      4.3487
    14         C          1.1078     -7.6376      3.8462
    15         C          0.6207     -7.6003      2.5901
    16         C          0.9987     -6.4774      1.7267
    17         N          0.6459     -6.1861      0.3781
    18         C          0.0044     -7.0616     -0.5339
    19         C         -0.9432     -6.5988     -1.3780
    20         C         -1.6121     -7.4985     -2.3312
    21         C         -1.2747     -8.7959     -2.3210
    22         C         -0.2741     -9.3342     -1.3959
    23         C          0.3439     -8.5027     -0.5383
    24         C         -0.1658    -10.8626     -1.4863
    25         C         -0.8678    -11.4384     -0.2100
    26         C         -1.0697    -12.9727     -0.1862
    27         C          1.2881    -11.3789     -1.7405
    28         C          2.2659    -11.3275     -0.5384
    29         C         -1.0379    -11.1017     -2.7286
    30         C         -1.7520     -9.8934     -3.1424
    31         C         -2.6302     -9.8983     -4.1545
    32         C         -2.8465    -11.1605     -4.8792
    33         C         -2.1263    -12.2673     -4.5884
    34         C         -1.1656    -12.2253     -3.4594
    35         N         -2.3050    -13.4653     -5.3372
    36         C         -2.5308    -13.5498     -6.7489
    37         C         -2.4210    -12.6148     -7.7085
    38         C         -2.7543    -12.9845     -9.0979
    39         C         -3.1365    -14.2401     -9.4078
    40         C         -3.2079    -15.2778     -8.3653
    41         C         -2.9072    -14.9214     -7.1081
    42         C         -2.8630    -15.7034     -5.8828
    43         C         -2.5011    -14.7787     -4.8018
    44         C         -2.4218    -15.2334     -3.5399
    45         C         -2.6528    -16.6674     -3.2832
    46         C         -2.9643    -17.5089     -4.2894
    47         C         -3.0885    -17.0079     -5.6684
    48         C          3.2792      1.3016      0.0108
    49         O          4.5081      1.3658     -0.0437
    50         O          2.5660      2.4508      0.0904
    51         H          4.3276     -1.1414      0.0606
    52         H          1.8995     -2.3798     -2.0457
    53         H          0.7796     -4.4936     -2.0300
    54         H          3.1558     -2.9005      2.0126
    55         H          2.9360     -4.7500      3.9144
    56         H          2.3624     -6.6133      5.3305
    57         H          0.8504     -8.4344      4.4816
    58         H         -0.0216     -8.3562      2.2471
    59         H         -1.2199     -5.5851     -1.3585
    60         H         -2.3288     -7.1259     -3.0017
    61         H          1.0323     -8.8747      0.1578
    62         H         -0.2935    -11.1552      0.6751
    63         H         -1.8567    -10.9782     -0.1153
    64         H         -1.4600    -13.2657      0.7902
    65         H         -1.7931    -13.2652     -0.9455
    66         H         -0.1273    -13.4913     -0.3581
    67         H          1.2376    -12.4241     -2.0560
    68         H          1.7265    -10.8067     -2.5626
    69         H          1.8368    -11.8200      0.3338
    70         H          3.1856    -11.8499     -0.8090
    71         H          2.5203    -10.2995     -0.2892
    72         H         -3.1227     -9.0211     -4.4545
    73         H         -3.5603    -11.1792     -5.6501
    74         H         -0.6119    -13.0820     -3.2126
    75         H         -2.1191    -11.6348     -7.4861
    76         H         -2.7056    -12.2542     -9.8526
    77         H         -3.3804    -14.4839    -10.4007
    78         H         -3.4778    -16.2633     -8.6061
    79         H         -2.1912    -14.5966     -2.7425
    80         H         -2.5634    -17.0373     -2.3033
    81         H         -3.1194    -18.5293     -4.0905
    82         H         -3.3447    -17.6564     -6.4532
    83         H          2.9978      3.2870      0.1076

  H: (RM1): G.B. ROCHA, R.O. FREIRE, A.M.SIMAS, J.J.P. STEWART, J. COMP. CHEM. 27, 1101 (2006)
  C: (RM1): G.B. ROCHA, R.O. FREIRE, A.M.SIMAS, J.J.P. STEWART, J. COMP. CHEM. 27, 1101 (2006)
  N: (RM1): G.B. ROCHA, R.O. FREIRE, A.M.SIMAS, J.J.P. STEWART, J. COMP. CHEM. 27, 1101 (2006)
  O: (RM1): G.B. ROCHA, R.O. FREIRE, A.M.SIMAS, J.J.P. STEWART, J. COMP. CHEM. 27, 1101 (2006)

           Empirical Formula: C45 H33 N3 O2  =    83 atoms



      MOLECULAR POINT GROUP   :   C1  


      RHF CALCULATION, NO. OF DOUBLY OCCUPIED LEVELS = 120


          Geometry optimization using L-BFGS
 CYCLE:     1 TIME:   1.148 TIME LEFT:  2.00D  GRAD.:   878.987 HEAT:  167.5165
 CYCLE:     2 TIME:   0.418 TIME LEFT:  2.00D  GRAD.:   552.627 HEAT:  163.0872
 CYCLE:     3 TIME:   0.352 TIME LEFT:  2.00D  GRAD.:   498.979 HEAT:  160.4710
 CYCLE:     4 TIME:   0.309 TIME LEFT:  2.00D  GRAD.:   554.069 HEAT:  163.0871
 CYCLE:     5 TIME:   0.496 TIME LEFT:  2.00D  GRAD.:   502.538 HEAT:  160.4569
 CYCLE:     6 TIME:   0.609 TIME LEFT:  2.00D  GRAD.:   455.236 HEAT:  152.3698
 CYCLE:     7 TIME:   0.477 TIME LEFT:  2.00D  GRAD.:   456.321 HEAT:  145.6614
 CYCLE:     8 TIME:   0.648 TIME LEFT:  2.00D  GRAD.:   526.532 HEAT:  123.0566
 CYCLE:     9 TIME:   0.426 TIME LEFT:  2.00D  GRAD.:  1865.470 HEAT:  126.3233
 CYCLE:    10 TIME:   0.559 TIME LEFT:  2.00D  GRAD.:   391.800 HEAT:  108.8693
 CYCLE:    11 TIME:   0.316 TIME LEFT:  2.00D  GRAD.:   202.529 HEAT:  107.5037
 CYCLE:    12 TIME:   0.547 TIME LEFT:  2.00D  GRAD.:   215.072 HEAT:  106.3685
 CYCLE:    13 TIME:   0.316 TIME LEFT:  2.00D  GRAD.:   189.112 HEAT:  105.3000
 CYCLE:    14 TIME:   0.477 TIME LEFT:  2.00D  GRAD.:   160.869 HEAT:  103.1194
 CYCLE:    15 TIME:   0.418 TIME LEFT:  2.00D  GRAD.:   325.563 HEAT:  102.2895
 CYCLE:    16 TIME:   0.676 TIME LEFT:  2.00D  GRAD.:    99.448 HEAT:  101.3132
 CYCLE:    17 TIME:   0.285 TIME LEFT:  2.00D  GRAD.:    59.692 HEAT:  101.0641
 CYCLE:    18 TIME:   0.348 TIME LEFT:  2.00D  GRAD.:    67.003 HEAT:  100.8492
 CYCLE:    19 TIME:   0.227 TIME LEFT:  2.00D  GRAD.:    86.684 HEAT:  100.4169
 CYCLE:    20 TIME:   0.434 TIME LEFT:  2.00D  GRAD.:   358.944 HEAT:  100.1427
 CYCLE:    21 TIME:   0.445 TIME LEFT:  2.00D  GRAD.:    79.694 HEAT:  99.43002
 CYCLE:    22 TIME:   0.273 TIME LEFT:  2.00D  GRAD.:    62.118 HEAT:  99.24751
 CYCLE:    23 TIME:   0.312 TIME LEFT:  2.00D  GRAD.:    54.656 HEAT:  99.07032
 CYCLE:    24 TIME:   0.863 TIME LEFT:  2.00D  GRAD.:    65.045 HEAT:  98.78632
 CYCLE:    25 TIME:   0.504 TIME LEFT:  2.00D  GRAD.:   318.342 HEAT:  98.68092
 CYCLE:    26 TIME:   0.316 TIME LEFT:  2.00D  GRAD.:    94.224 HEAT:  97.97206
 CYCLE:    27 TIME:   0.328 TIME LEFT:  2.00D  GRAD.:    70.993 HEAT:  97.72147
 CYCLE:    28 TIME:   0.473 TIME LEFT:  2.00D  GRAD.:    46.885 HEAT:  97.38247
 CYCLE:    29 TIME:   0.348 TIME LEFT:  2.00D  GRAD.:    58.354 HEAT:  97.20995
 CYCLE:    30 TIME:   0.410 TIME LEFT:  2.00D  GRAD.:   166.804 HEAT:  97.13760
 CYCLE:    31 TIME:   0.332 TIME LEFT:  2.00D  GRAD.:    44.595 HEAT:  96.86138
 CYCLE:    32 TIME:   0.289 TIME LEFT:  2.00D  GRAD.:    44.729 HEAT:  96.74110
 CYCLE:    33 TIME:   0.664 TIME LEFT:  2.00D  GRAD.:    42.879 HEAT:  96.54531
 CYCLE:    34 TIME:   0.375 TIME LEFT:  2.00D  GRAD.:    95.059 HEAT:  96.41360
 CYCLE:    35 TIME:   0.500 TIME LEFT:  2.00D  GRAD.:   195.361 HEAT:  96.50086
 CYCLE:    36 TIME:   0.234 TIME LEFT:  2.00D  GRAD.:    31.962 HEAT:  96.31133
 CYCLE:    37 TIME:   0.305 TIME LEFT:  2.00D  GRAD.:    24.365 HEAT:  96.29684
 CYCLE:    38 TIME:   0.367 TIME LEFT:  2.00D  GRAD.:    27.052 HEAT:  96.26901
 CYCLE:    39 TIME:   0.219 TIME LEFT:  2.00D  GRAD.:    29.127 HEAT:  96.24000
 CYCLE:    40 TIME:   0.309 TIME LEFT:  2.00D  GRAD.:   100.286 HEAT:  96.21373
 CYCLE:    41 TIME:   0.434 TIME LEFT:  2.00D  GRAD.:    28.144 HEAT:  96.13974
 CYCLE:    42 TIME:   0.211 TIME LEFT:  2.00D  GRAD.:    17.955 HEAT:  96.11242
 CYCLE:    43 TIME:   0.414 TIME LEFT:  2.00D  GRAD.:    17.014 HEAT:  96.09093
 CYCLE:    44 TIME:   0.398 TIME LEFT:  2.00D  GRAD.:    38.620 HEAT:  96.07517
 CYCLE:    45 TIME:   0.496 TIME LEFT:  2.00D  GRAD.:    20.581 HEAT:  96.05213
 CYCLE:    46 TIME:   0.211 TIME LEFT:  2.00D  GRAD.:    21.230 HEAT:  96.03232
 CYCLE:    47 TIME:   0.453 TIME LEFT:  2.00D  GRAD.:    24.738 HEAT:  96.00875
 CYCLE:    48 TIME:   0.332 TIME LEFT:  2.00D  GRAD.:    20.603 HEAT:  95.97999
 CYCLE:    49 TIME:   0.316 TIME LEFT:  2.00D  GRAD.:    30.817 HEAT:  95.95080
 CYCLE:    50 TIME:   0.484 TIME LEFT:  2.00D  GRAD.:    57.718 HEAT:  95.92960
 CYCLE:    51 TIME:   0.867 TIME LEFT:  2.00D  GRAD.:    38.696 HEAT:  95.90261
 CYCLE:    52 TIME:   1.434 TIME LEFT:  2.00D  GRAD.:    20.604 HEAT:  95.87004
 CYCLE:    53 TIME:   0.352 TIME LEFT:  2.00D  GRAD.:    14.688 HEAT:  95.85382
 CYCLE:    54 TIME:   0.246 TIME LEFT:  2.00D  GRAD.:    18.456 HEAT:  95.83375
 CYCLE:    55 TIME:   0.266 TIME LEFT:  2.00D  GRAD.:    23.822 HEAT:  95.80550
 CYCLE:    56 TIME:   0.254 TIME LEFT:  2.00D  GRAD.:    26.471 HEAT:  95.76148
 CYCLE:    57 TIME:   0.234 TIME LEFT:  2.00D  GRAD.:   146.440 HEAT:  95.81795
 CYCLE:    58 TIME:   0.324 TIME LEFT:  2.00D  GRAD.:   133.356 HEAT:  95.82538
 CYCLE:    59 TIME:   0.285 TIME LEFT:  2.00D  GRAD.:    15.131 HEAT:  95.70512
 CYCLE:    60 TIME:   0.270 TIME LEFT:  2.00D  GRAD.:    15.688 HEAT:  95.69798
 CYCLE:    61 TIME:   0.230 TIME LEFT:  2.00D  GRAD.:    14.517 HEAT:  95.68065
 CYCLE:    62 TIME:   0.348 TIME LEFT:  2.00D  GRAD.:    94.485 HEAT:  95.72725
 CYCLE:    63 TIME:   0.238 TIME LEFT:  2.00D  GRAD.:    20.786 HEAT:  95.64730
 CYCLE:    64 TIME:   0.207 TIME LEFT:  2.00D  GRAD.:    17.244 HEAT:  95.63760
 CYCLE:    65 TIME:   0.301 TIME LEFT:  2.00D  GRAD.:    24.976 HEAT:  95.62421
 CYCLE:    66 TIME:   0.277 TIME LEFT:  2.00D  GRAD.:    14.512 HEAT:  95.61759
 CYCLE:    67 TIME:   0.227 TIME LEFT:  2.00D  GRAD.:    17.238 HEAT:  95.60933
 CYCLE:    68 TIME:   0.449 TIME LEFT:  2.00D  GRAD.:    25.333 HEAT:  95.59376
 CYCLE:    69 TIME:   0.242 TIME LEFT:  2.00D  GRAD.:    36.620 HEAT:  95.55526
 CYCLE:    70 TIME:   0.297 TIME LEFT:  2.00D  GRAD.:    41.656 HEAT:  95.51054
 CYCLE:    71 TIME:   0.395 TIME LEFT:  2.00D  GRAD.:    35.730 HEAT:  95.46906
 CYCLE:    72 TIME:   0.441 TIME LEFT:  2.00D  GRAD.:    34.737 HEAT:  95.42884
 CYCLE:    73 TIME:   0.387 TIME LEFT:  2.00D  GRAD.:    33.849 HEAT:  95.41026
 CYCLE:    74 TIME:   0.512 TIME LEFT:  2.00D  GRAD.:    26.707 HEAT:  95.39449
 CYCLE:    75 TIME:   0.230 TIME LEFT:  2.00D  GRAD.:    32.559 HEAT:  95.37965
 CYCLE:    76 TIME:   0.223 TIME LEFT:  2.00D  GRAD.:    25.430 HEAT:  95.35980
 CYCLE:    77 TIME:   0.441 TIME LEFT:  2.00D  GRAD.:    18.966 HEAT:  95.32663
 CYCLE:    78 TIME:   0.258 TIME LEFT:  2.00D  GRAD.:    18.101 HEAT:  95.29815
 CYCLE:    79 TIME:   0.395 TIME LEFT:  2.00D  GRAD.:   154.275 HEAT:  95.33862
 CYCLE:    80 TIME:   0.246 TIME LEFT:  2.00D  GRAD.:    31.813 HEAT:  95.26588
 CYCLE:    81 TIME:   0.250 TIME LEFT:  2.00D  GRAD.:    22.927 HEAT:  95.25798
 CYCLE:    82 TIME:   0.262 TIME LEFT:  2.00D  GRAD.:    18.866 HEAT:  95.23772
 CYCLE:    83 TIME:   0.195 TIME LEFT:  2.00D  GRAD.:    20.598 HEAT:  95.20547
 CYCLE:    84 TIME:   0.375 TIME LEFT:  2.00D  GRAD.:    25.000 HEAT:  95.18431
 CYCLE:    85 TIME:   0.223 TIME LEFT:  2.00D  GRAD.:    16.624 HEAT:  95.16078
 CYCLE:    86 TIME:   0.277 TIME LEFT:  2.00D  GRAD.:    20.123 HEAT:  95.12239
 CYCLE:    87 TIME:   0.414 TIME LEFT:  2.00D  GRAD.:    72.870 HEAT:  95.11057
 CYCLE:    88 TIME:   0.195 TIME LEFT:  2.00D  GRAD.:    25.546 HEAT:  95.08136
 CYCLE:    89 TIME:   0.309 TIME LEFT:  2.00D  GRAD.:    13.881 HEAT:  95.06986
 CYCLE:    90 TIME:   0.207 TIME LEFT:  2.00D  GRAD.:    18.464 HEAT:  95.05949
 CYCLE:    91 TIME:   0.230 TIME LEFT:  2.00D  GRAD.:    22.130 HEAT:  95.03627
 CYCLE:    92 TIME:   0.398 TIME LEFT:  2.00D  GRAD.:    34.507 HEAT:  94.97566
 CYCLE:    93 TIME:   0.262 TIME LEFT:  2.00D  GRAD.:   141.875 HEAT:  95.02138
 CYCLE:    94 TIME:   0.316 TIME LEFT:  2.00D  GRAD.:    30.371 HEAT:  94.92365
 CYCLE:    95 TIME:   0.191 TIME LEFT:  2.00D  GRAD.:    17.614 HEAT:  94.91137
 CYCLE:    96 TIME:   0.410 TIME LEFT:  2.00D  GRAD.:    25.247 HEAT:  94.89601
 CYCLE:    97 TIME:   0.434 TIME LEFT:  2.00D  GRAD.:    23.178 HEAT:  94.87631
 CYCLE:    98 TIME:   0.355 TIME LEFT:  2.00D  GRAD.:   108.419 HEAT:  94.92183
 CYCLE:    99 TIME:   0.234 TIME LEFT:  2.00D  GRAD.:    24.753 HEAT:  94.83340
 CYCLE:   100 TIME:   0.406 TIME LEFT:  2.00D  GRAD.:    14.041 HEAT:  94.82091
 CYCLE:   101 TIME:   0.262 TIME LEFT:  2.00D  GRAD.:    20.060 HEAT:  94.80240
 CYCLE:   102 TIME:   0.410 TIME LEFT:  2.00D  GRAD.:    26.203 HEAT:  94.78809
 CYCLE:   103 TIME:   0.340 TIME LEFT:  2.00D  GRAD.:    50.189 HEAT:  94.76455
 CYCLE:   104 TIME:   0.398 TIME LEFT:  2.00D  GRAD.:    26.872 HEAT:  94.73152
 CYCLE:   105 TIME:   0.207 TIME LEFT:  2.00D  GRAD.:    22.147 HEAT:  94.71612
 CYCLE:   106 TIME:   0.477 TIME LEFT:  2.00D  GRAD.:    25.839 HEAT:  94.68558
 CYCLE:   107 TIME:   0.262 TIME LEFT:  2.00D  GRAD.:    38.455 HEAT:  94.67556
 CYCLE:   108 TIME:   0.410 TIME LEFT:  2.00D  GRAD.:    17.443 HEAT:  94.66063
 CYCLE:   109 TIME:   0.309 TIME LEFT:  2.00D  GRAD.:    17.196 HEAT:  94.65104
 CYCLE:   110 TIME:   0.438 TIME LEFT:  2.00D  GRAD.:    17.235 HEAT:  94.63641
 CYCLE:   111 TIME:   0.309 TIME LEFT:  2.00D  GRAD.:    21.193 HEAT:  94.59880
 CYCLE:   112 TIME:   0.328 TIME LEFT:  2.00D  GRAD.:   177.738 HEAT:  94.73828
 CYCLE:   113 TIME:   0.309 TIME LEFT:  2.00D  GRAD.:    19.030 HEAT:  94.56443
 CYCLE:   114 TIME:   0.211 TIME LEFT:  2.00D  GRAD.:    16.088 HEAT:  94.55659
 CYCLE:   115 TIME:   0.387 TIME LEFT:  2.00D  GRAD.:    28.737 HEAT:  94.54065
 CYCLE:   116 TIME:   0.320 TIME LEFT:  2.00D  GRAD.:    33.414 HEAT:  94.51987
 CYCLE:   117 TIME:   0.402 TIME LEFT:  2.00D  GRAD.:    19.870 HEAT:  94.50421
 CYCLE:   118 TIME:   0.277 TIME LEFT:  2.00D  GRAD.:    16.751 HEAT:  94.49321
 CYCLE:   119 TIME:   0.348 TIME LEFT:  2.00D  GRAD.:    18.812 HEAT:  94.47912
 CYCLE:   120 TIME:   0.320 TIME LEFT:  2.00D  GRAD.:    76.971 HEAT:  94.47104
 CYCLE:   121 TIME:   0.453 TIME LEFT:  2.00D  GRAD.:    24.908 HEAT:  94.43241
 CYCLE:   122 TIME:   0.266 TIME LEFT:  2.00D  GRAD.:    12.047 HEAT:  94.41955
 CYCLE:   123 TIME:   0.340 TIME LEFT:  2.00D  GRAD.:    18.521 HEAT:  94.41032
 CYCLE:   124 TIME:   0.316 TIME LEFT:  2.00D  GRAD.:    25.635 HEAT:  94.40333
 CYCLE:   125 TIME:   0.262 TIME LEFT:  2.00D  GRAD.:    19.102 HEAT:  94.39428
 CYCLE:   126 TIME:   0.410 TIME LEFT:  2.00D  GRAD.:    19.348 HEAT:  94.37258
 CYCLE:   127 TIME:   0.465 TIME LEFT:  2.00D  GRAD.:    44.884 HEAT:  94.36831
 CYCLE:   128 TIME:   0.242 TIME LEFT:  2.00D  GRAD.:    18.559 HEAT:  94.35261
 CYCLE:   129 TIME:   0.430 TIME LEFT:  2.00D  GRAD.:    11.909 HEAT:  94.34262
 CYCLE:   130 TIME:   0.250 TIME LEFT:  2.00D  GRAD.:    23.864 HEAT:  94.33173
 CYCLE:   131 TIME:   0.469 TIME LEFT:  2.00D  GRAD.:    13.889 HEAT:  94.32318
 CYCLE:   132 TIME:   0.367 TIME LEFT:  2.00D  GRAD.:    14.464 HEAT:  94.31532
 CYCLE:   133 TIME:   0.375 TIME LEFT:  2.00D  GRAD.:    15.506 HEAT:  94.29670
 CYCLE:   134 TIME:   0.270 TIME LEFT:  2.00D  GRAD.:    17.106 HEAT:  94.28212
 CYCLE:   135 TIME:   0.297 TIME LEFT:  2.00D  GRAD.:    34.437 HEAT:  94.27406
 CYCLE:   136 TIME:   0.324 TIME LEFT:  2.00D  GRAD.:    15.589 HEAT:  94.26053
 CYCLE:   137 TIME:   0.246 TIME LEFT:  2.00D  GRAD.:    14.385 HEAT:  94.24486
 CYCLE:   138 TIME:   0.305 TIME LEFT:  2.00D  GRAD.:    19.192 HEAT:  94.23138
 CYCLE:   139 TIME:   0.441 TIME LEFT:  2.00D  GRAD.:    37.712 HEAT:  94.22483
 CYCLE:   140 TIME:   0.219 TIME LEFT:  2.00D  GRAD.:    11.727 HEAT:  94.21410
 CYCLE:   141 TIME:   0.355 TIME LEFT:  2.00D  GRAD.:    10.067 HEAT:  94.20919
 CYCLE:   142 TIME:   0.285 TIME LEFT:  2.00D  GRAD.:    14.769 HEAT:  94.19935
 CYCLE:   143 TIME:   0.430 TIME LEFT:  2.00D  GRAD.:    17.774 HEAT:  94.18879
 CYCLE:   144 TIME:   0.266 TIME LEFT:  2.00D  GRAD.:    50.271 HEAT:  94.19668
 CYCLE:   145 TIME:   0.355 TIME LEFT:  2.00D  GRAD.:     7.551 HEAT:  94.18236
 CYCLE:   146 TIME:   0.305 TIME LEFT:  2.00D  GRAD.:     7.010 HEAT:  94.18120
 CYCLE:   147 TIME:   0.238 TIME LEFT:  2.00D  GRAD.:    10.465 HEAT:  94.17753
 CYCLE:   148 TIME:   0.367 TIME LEFT:  2.00D  GRAD.:    14.486 HEAT:  94.16967
 CYCLE:   149 TIME:   0.496 TIME LEFT:  2.00D  GRAD.:    29.636 HEAT:  94.16603
 CYCLE:   150 TIME:   0.293 TIME LEFT:  2.00D  GRAD.:    11.513 HEAT:  94.15584
 CYCLE:   151 TIME:   0.383 TIME LEFT:  2.00D  GRAD.:    10.325 HEAT:  94.15258
 CYCLE:   152 TIME:   0.230 TIME LEFT:  2.00D  GRAD.:     9.787 HEAT:  94.14698
 CYCLE:   153 TIME:   0.477 TIME LEFT:  2.00D  GRAD.:    14.925 HEAT:  94.14120
 CYCLE:   154 TIME:   0.246 TIME LEFT:  2.00D  GRAD.:    13.620 HEAT:  94.13543
 CYCLE:   155 TIME:   0.359 TIME LEFT:  2.00D  GRAD.:    12.210 HEAT:  94.12918
 CYCLE:   156 TIME:   0.281 TIME LEFT:  2.00D  GRAD.:    11.326 HEAT:  94.11925
 CYCLE:   157 TIME:   0.387 TIME LEFT:  2.00D  GRAD.:    19.737 HEAT:  94.11188
 CYCLE:   158 TIME:   0.203 TIME LEFT:  2.00D  GRAD.:    34.690 HEAT:  94.11046
 CYCLE:   159 TIME:   0.379 TIME LEFT:  2.00D  GRAD.:     9.195 HEAT:  94.10480
 CYCLE:   160 TIME:   0.355 TIME LEFT:  2.00D  GRAD.:     7.858 HEAT:  94.10314
 CYCLE:   161 TIME:   0.238 TIME LEFT:  2.00D  GRAD.:    11.126 HEAT:  94.10018
 CYCLE:   162 TIME:   0.430 TIME LEFT:  2.00D  GRAD.:    13.556 HEAT:  94.09521
 CYCLE:   163 TIME:   0.211 TIME LEFT:  2.00D  GRAD.:    16.960 HEAT:  94.08373
 CYCLE:   164 TIME:   0.594 TIME LEFT:  2.00D  GRAD.:    70.279 HEAT:  94.10525
 CYCLE:   165 TIME:   0.289 TIME LEFT:  2.00D  GRAD.:    46.193 HEAT:  94.09260
 CYCLE:   166 TIME:   0.391 TIME LEFT:  2.00D  GRAD.:     8.316 HEAT:  94.07001
 CYCLE:   167 TIME:   0.277 TIME LEFT:  2.00D  GRAD.:     7.741 HEAT:  94.06788
 CYCLE:   168 TIME:   0.223 TIME LEFT:  2.00D  GRAD.:    14.693 HEAT:  94.06114
 CYCLE:   169 TIME:   0.422 TIME LEFT:  2.00D  GRAD.:    14.128 HEAT:  94.05419
 CYCLE:   170 TIME:   0.262 TIME LEFT:  2.00D  GRAD.:    62.336 HEAT:  94.07169
 CYCLE:   171 TIME:   0.383 TIME LEFT:  2.00D  GRAD.:     7.838 HEAT:  94.04952
 CYCLE:   172 TIME:   0.254 TIME LEFT:  2.00D  GRAD.:     5.806 HEAT:  94.04869
 CYCLE:   173 TIME:   0.391 TIME LEFT:  2.00D  GRAD.:    10.601 HEAT:  94.04664
 CYCLE:   174 TIME:   0.277 TIME LEFT:  2.00D  GRAD.:    15.130 HEAT:  94.04424
 CYCLE:   175 TIME:   0.293 TIME LEFT:  2.00D  GRAD.:    15.124 HEAT:  94.03265
 CYCLE:   176 TIME:   0.301 TIME LEFT:  2.00D  GRAD.:    30.302 HEAT:  94.02748
 CYCLE:   177 TIME:   0.227 TIME LEFT:  2.00D  GRAD.:     7.778 HEAT:  94.02075
 CYCLE:   178 TIME:   0.324 TIME LEFT:  2.00D  GRAD.:     8.621 HEAT:  94.01914
 CYCLE:   179 TIME:   0.238 TIME LEFT:  2.00D  GRAD.:    10.256 HEAT:  94.01415
 CYCLE:   180 TIME:   0.277 TIME LEFT:  2.00D  GRAD.:    24.854 HEAT:  94.01079
 CYCLE:   181 TIME:   0.285 TIME LEFT:  2.00D  GRAD.:     8.725 HEAT:  94.00290
 CYCLE:   182 TIME:   0.238 TIME LEFT:  2.00D  GRAD.:     7.267 HEAT:  93.99765
 CYCLE:   183 TIME:   0.301 TIME LEFT:  2.00D  GRAD.:     6.702 HEAT:  93.99118
 CYCLE:   184 TIME:   0.281 TIME LEFT:  2.00D  GRAD.:   190.726 HEAT:  94.13974
 CYCLE:   185 TIME:   0.258 TIME LEFT:  2.00D  GRAD.:     8.043 HEAT:  93.98650
 CYCLE:   186 TIME:   0.262 TIME LEFT:  2.00D  GRAD.:    10.168 HEAT:  93.98439
 CYCLE:   187 TIME:   0.246 TIME LEFT:  2.00D  GRAD.:    10.344 HEAT:  93.98249
 CYCLE:   188 TIME:   0.215 TIME LEFT:  2.00D  GRAD.:    31.682 HEAT:  93.98056
 CYCLE:   189 TIME:   0.230 TIME LEFT:  2.00D  GRAD.:     7.909 HEAT:  93.97438
 CYCLE:   190 TIME:   0.246 TIME LEFT:  2.00D  GRAD.:     8.052 HEAT:  93.97245
 CYCLE:   191 TIME:   0.258 TIME LEFT:  2.00D  GRAD.:    20.417 HEAT:  93.96907
 CYCLE:   192 TIME:   0.379 TIME LEFT:  2.00D  GRAD.:    19.723 HEAT:  93.96689
 CYCLE:   193 TIME:   0.316 TIME LEFT:  2.00D  GRAD.:    18.574 HEAT:  93.95864
 CYCLE:   194 TIME:   0.293 TIME LEFT:  2.00D  GRAD.:    37.907 HEAT:  93.95879
 CYCLE:   195 TIME:   0.242 TIME LEFT:  2.00D  GRAD.:     9.111 HEAT:  93.95075
 CYCLE:   196 TIME:   0.199 TIME LEFT:  2.00D  GRAD.:    12.147 HEAT:  93.95018
 CYCLE:   197 TIME:   0.402 TIME LEFT:  2.00D  GRAD.:     8.420 HEAT:  93.94529
 CYCLE:   198 TIME:   0.250 TIME LEFT:  2.00D  GRAD.:    16.056 HEAT:  93.94271
 CYCLE:   199 TIME:   0.305 TIME LEFT:  2.00D  GRAD.:     9.146 HEAT:  93.93968
 CYCLE:   200 TIME:   0.387 TIME LEFT:  2.00D  GRAD.:    11.317 HEAT:  93.93739
 CYCLE:   201 TIME:   0.250 TIME LEFT:  2.00D  GRAD.:    12.514 HEAT:  93.93490
 CYCLE:   202 TIME:   0.336 TIME LEFT:  2.00D  GRAD.:     9.322 HEAT:  93.93123
 CYCLE:   203 TIME:   0.230 TIME LEFT:  2.00D  GRAD.:     6.904 HEAT:  93.92831
 CYCLE:   204 TIME:   0.363 TIME LEFT:  2.00D  GRAD.:     5.959 HEAT:  93.92614
 CYCLE:   205 TIME:   0.246 TIME LEFT:  2.00D  GRAD.:    10.422 HEAT:  93.92399
 CYCLE:   206 TIME:   0.363 TIME LEFT:  2.00D  GRAD.:    16.402 HEAT:  93.92407
 CYCLE:   207 TIME:   0.293 TIME LEFT:  2.00D  GRAD.:     4.907 HEAT:  93.92146
 CYCLE:   208 TIME:   0.328 TIME LEFT:  2.00D  GRAD.:     3.620 HEAT:  93.92037
 CYCLE:   209 TIME:   0.266 TIME LEFT:  2.00D  GRAD.:     9.668 HEAT:  93.91840
 CYCLE:   210 TIME:   0.254 TIME LEFT:  2.00D  GRAD.:     7.992 HEAT:  93.91687
 CYCLE:   211 TIME:   0.336 TIME LEFT:  2.00D  GRAD.:     5.872 HEAT:  93.91599
 CYCLE:   212 TIME:   0.293 TIME LEFT:  2.00D  GRAD.:     4.569 HEAT:  93.91423
 CYCLE:   213 TIME:   0.215 TIME LEFT:  2.00D  GRAD.:     7.519 HEAT:  93.91229
 CYCLE:   214 TIME:   0.309 TIME LEFT:  2.00D  GRAD.:     5.437 HEAT:  93.91092
 CYCLE:   215 TIME:   0.266 TIME LEFT:  2.00D  GRAD.:     5.090 HEAT:  93.90960
 CYCLE:   216 TIME:   0.234 TIME LEFT:  2.00D  GRAD.:     4.364 HEAT:  93.90725
 CYCLE:   217 TIME:   0.324 TIME LEFT:  2.00D  GRAD.:     6.558 HEAT:  93.90437
 CYCLE:   218 TIME:   0.340 TIME LEFT:  2.00D  GRAD.:    17.711 HEAT:  93.90463
 CYCLE:   219 TIME:   0.242 TIME LEFT:  2.00D  GRAD.:     4.248 HEAT:  93.90073
 CYCLE:   220 TIME:   0.363 TIME LEFT:  2.00D  GRAD.:     3.690 HEAT:  93.90001
 CYCLE:   221 TIME:   0.238 TIME LEFT:  2.00D  GRAD.:     6.775 HEAT:  93.89813
 CYCLE:   222 TIME:   0.359 TIME LEFT:  2.00D  GRAD.:     5.722 HEAT:  93.89633
 CYCLE:   223 TIME:   0.281 TIME LEFT:  2.00D  GRAD.:    10.959 HEAT:  93.89548
 CYCLE:   224 TIME:   0.164 TIME LEFT:  2.00D  GRAD.:     6.237 HEAT:  93.89466
 CYCLE:   225 TIME:   0.254 TIME LEFT:  2.00D  GRAD.:     4.164 HEAT:  93.89381
 CYCLE:   226 TIME:   0.273 TIME LEFT:  2.00D  GRAD.:     5.519 HEAT:  93.89302
 CYCLE:   227 TIME:   0.195 TIME LEFT:  2.00D  GRAD.:     6.173 HEAT:  93.89190
 CYCLE:   228 TIME:   0.238 TIME LEFT:  2.00D  GRAD.:    13.356 HEAT:  93.89219
 CYCLE:   229 TIME:   0.262 TIME LEFT:  2.00D  GRAD.:     2.678 HEAT:  93.89115
 CYCLE:   230 TIME:   0.238 TIME LEFT:  2.00D  GRAD.:     2.547 HEAT:  93.89101
 CYCLE:   231 TIME:   0.297 TIME LEFT:  2.00D  GRAD.:     3.701 HEAT:  93.89022
 CYCLE:   232 TIME:   0.199 TIME LEFT:  2.00D  GRAD.:     4.199 HEAT:  93.88956
 CYCLE:   233 TIME:   0.449 TIME LEFT:  2.00D  GRAD.:    14.134 HEAT:  93.89037
 CYCLE:   234 TIME:   0.363 TIME LEFT:  2.00D  GRAD.:     3.791 HEAT:  93.88853
 CYCLE:   235 TIME:   0.363 TIME LEFT:  2.00D  GRAD.:     2.486 HEAT:  93.88820
 CYCLE:   236 TIME:   0.352 TIME LEFT:  2.00D  GRAD.:     2.584 HEAT:  93.88742
 CYCLE:   237 TIME:   0.375 TIME LEFT:  2.00D  GRAD.:    19.795 HEAT:  93.88821
 CYCLE:   238 TIME:   0.246 TIME LEFT:  2.00D  GRAD.:     3.540 HEAT:  93.88692
 CYCLE:   239 TIME:   0.238 TIME LEFT:  2.00D  GRAD.:     2.287 HEAT:  93.88678
 CYCLE:   240 TIME:   0.320 TIME LEFT:  2.00D  GRAD.:     4.770 HEAT:  93.88667
 CYCLE:   241 TIME:   0.301 TIME LEFT:  2.00D  GRAD.:     4.577 HEAT:  93.88638
 CYCLE:   242 TIME:   0.203 TIME LEFT:  2.00D  GRAD.:    24.670 HEAT:  93.89034
 CYCLE:   243 TIME:   0.266 TIME LEFT:  2.00D  GRAD.:    14.671 HEAT:  93.88756
 CYCLE:   244 TIME:   0.324 TIME LEFT:  2.00D  GRAD.:     2.151 HEAT:  93.88575
 CYCLE:   245 TIME:   0.297 TIME LEFT:  2.00D  GRAD.:     2.296 HEAT:  93.88563
 CYCLE:   246 TIME:   0.172 TIME LEFT:  2.00D  GRAD.:     2.527 HEAT:  93.88522
 CYCLE:   247 TIME:   0.414 TIME LEFT:  2.00D  GRAD.:     2.857 HEAT:  93.88440
 CYCLE:   248 TIME:   0.270 TIME LEFT:  2.00D  GRAD.:     4.420 HEAT:  93.88390
 CYCLE:   249 TIME:   0.324 TIME LEFT:  2.00D  GRAD.:     3.639 HEAT:  93.88330
 CYCLE:   250 TIME:   0.312 TIME LEFT:  2.00D  GRAD.:     2.319 HEAT:  93.88286
 CYCLE:   251 TIME:   0.207 TIME LEFT:  2.00D  GRAD.:     2.061 HEAT:  93.88254
 CYCLE:   252 TIME:   0.312 TIME LEFT:  2.00D  GRAD.:     9.583 HEAT:  93.88232
 CYCLE:   253 TIME:   0.398 TIME LEFT:  2.00D  GRAD.:     6.588 HEAT:  93.88176
 CYCLE:   254 TIME:   0.203 TIME LEFT:  2.00D  GRAD.:     2.891 HEAT:  93.88142
 CYCLE:   255 TIME:   0.305 TIME LEFT:  2.00D  GRAD.:     2.549 HEAT:  93.88105
 CYCLE:   256 TIME:   0.305 TIME LEFT:  2.00D  GRAD.:     2.027 HEAT:  93.88081
 CYCLE:   257 TIME:   0.230 TIME LEFT:  2.00D  GRAD.:    10.930 HEAT:  93.88121
 CYCLE:   258 TIME:   0.320 TIME LEFT:  2.00D  GRAD.:     1.751 HEAT:  93.88038
 CYCLE:   259 TIME:   0.281 TIME LEFT:  2.00D  GRAD.:     1.575 HEAT:  93.88031
 CYCLE:   260 TIME:   0.312 TIME LEFT:  2.00D  GRAD.:     2.597 HEAT:  93.87978
 CYCLE:   261 TIME:   0.312 TIME LEFT:  2.00D  GRAD.:     2.590 HEAT:  93.87929
 CYCLE:   262 TIME:   0.211 TIME LEFT:  2.00D  GRAD.:     4.359 HEAT:  93.87881
 CYCLE:   263 TIME:   0.352 TIME LEFT:  2.00D  GRAD.:     2.693 HEAT:  93.87816
 CYCLE:   264 TIME:   0.262 TIME LEFT:  2.00D  GRAD.:     1.459 HEAT:  93.87780
 CYCLE:   265 TIME:   0.227 TIME LEFT:  2.00D  GRAD.:     4.626 HEAT:  93.87741
 CYCLE:   266 TIME:   0.277 TIME LEFT:  2.00D  GRAD.:     4.113 HEAT:  93.87704
 CYCLE:   267 TIME:   0.230 TIME LEFT:  2.00D  GRAD.:     3.949 HEAT:  93.87675
 CYCLE:   268 TIME:   0.211 TIME LEFT:  2.00D  GRAD.:     3.221 HEAT:  93.87650
 CYCLE:   269 TIME:   0.340 TIME LEFT:  2.00D  GRAD.:     4.065 HEAT:  93.87612
 CYCLE:   270 TIME:   0.324 TIME LEFT:  2.00D  GRAD.:    12.195 HEAT:  93.87625
 CYCLE:   271 TIME:   0.344 TIME LEFT:  2.00D  GRAD.:     2.886 HEAT:  93.87539
 CYCLE:   272 TIME:   0.285 TIME LEFT:  2.00D  GRAD.:     2.398 HEAT:  93.87518
 CYCLE:   273 TIME:   0.363 TIME LEFT:  2.00D  GRAD.:     3.191 HEAT:  93.87489
 CYCLE:   274 TIME:   0.324 TIME LEFT:  2.00D  GRAD.:     4.006 HEAT:  93.87448
 CYCLE:   275 TIME:   0.156 TIME LEFT:  2.00D  GRAD.:     5.598 HEAT:  93.87405
 CYCLE:   276 TIME:   0.219 TIME LEFT:  2.00D  GRAD.:     2.596 HEAT:  93.87364
 CYCLE:   277 TIME:   0.359 TIME LEFT:  2.00D  GRAD.:     4.219 HEAT:  93.87325
 CYCLE:   278 TIME:   0.184 TIME LEFT:  2.00D  GRAD.:     2.835 HEAT:  93.87308
 CYCLE:   279 TIME:   0.262 TIME LEFT:  2.00D  GRAD.:     3.624 HEAT:  93.87255
 CYCLE:   280 TIME:   0.273 TIME LEFT:  2.00D  GRAD.:     3.197 HEAT:  93.87231
 CYCLE:   281 TIME:   0.301 TIME LEFT:  2.00D  GRAD.:     9.366 HEAT:  93.87189
 CYCLE:   282 TIME:   0.184 TIME LEFT:  2.00D  GRAD.:     3.283 HEAT:  93.87132
 CYCLE:   283 TIME:   0.285 TIME LEFT:  2.00D  GRAD.:     2.684 HEAT:  93.87106
 CYCLE:   284 TIME:   0.293 TIME LEFT:  2.00D  GRAD.:     4.128 HEAT:  93.87064
 CYCLE:   285 TIME:   0.352 TIME LEFT:  2.00D  GRAD.:     5.563 HEAT:  93.87029
 CYCLE:   286 TIME:   0.367 TIME LEFT:  2.00D  GRAD.:     7.325 HEAT:  93.87029
 CYCLE:   287 TIME:   0.188 TIME LEFT:  2.00D  GRAD.:     1.942 HEAT:  93.86989
 CYCLE:   288 TIME:   0.289 TIME LEFT:  2.00D  GRAD.:     2.060 HEAT:  93.86971
 CYCLE:   289 TIME:   0.309 TIME LEFT:  2.00D  GRAD.:     4.241 HEAT:  93.86927
 CYCLE:   290 TIME:   0.203 TIME LEFT:  2.00D  GRAD.:     3.575 HEAT:  93.86862
 CYCLE:   291 TIME:   0.352 TIME LEFT:  2.00D  GRAD.:     4.057 HEAT:  93.86794
 CYCLE:   292 TIME:   0.289 TIME LEFT:  2.00D  GRAD.:     7.643 HEAT:  93.86750
 CYCLE:   293 TIME:   0.172 TIME LEFT:  2.00D  GRAD.:     2.705 HEAT:  93.86709
 CYCLE:   294 TIME:   0.254 TIME LEFT:  2.00D  GRAD.:     2.761 HEAT:  93.86676
 CYCLE:   295 TIME:   0.363 TIME LEFT:  2.00D  GRAD.:     3.453 HEAT:  93.86629
 CYCLE:   296 TIME:   0.242 TIME LEFT:  2.00D  GRAD.:     2.526 HEAT:  93.86577
 CYCLE:   297 TIME:   0.262 TIME LEFT:  2.00D  GRAD.:     8.289 HEAT:  93.86572
 CYCLE:   298 TIME:   0.324 TIME LEFT:  2.00D  GRAD.:     2.294 HEAT:  93.86533
 CYCLE:   299 TIME:   0.262 TIME LEFT:  2.00D  GRAD.:     3.313 HEAT:  93.86510
 CYCLE:   300 TIME:   0.285 TIME LEFT:  2.00D  GRAD.:     4.358 HEAT:  93.86482
 CYCLE:   301 TIME:   0.336 TIME LEFT:  2.00D  GRAD.:     5.732 HEAT:  93.86434
 CYCLE:   302 TIME:   0.219 TIME LEFT:  2.00D  GRAD.:     8.673 HEAT:  93.86452
 CYCLE:   303 TIME:   0.312 TIME LEFT:  2.00D  GRAD.:     2.063 HEAT:  93.86396
 CYCLE:   304 TIME:   0.305 TIME LEFT:  2.00D  GRAD.:     2.153 HEAT:  93.86375
 CYCLE:   305 TIME:   0.254 TIME LEFT:  2.00D  GRAD.:     3.451 HEAT:  93.86338
 CYCLE:   306 TIME:   0.305 TIME LEFT:  2.00D  GRAD.:     3.380 HEAT:  93.86285
 CYCLE:   307 TIME:   0.332 TIME LEFT:  2.00D  GRAD.:    22.129 HEAT:  93.86551
 CYCLE:   308 TIME:   0.379 TIME LEFT:  2.00D  GRAD.:     3.336 HEAT:  93.86244
 CYCLE:   309 TIME:   0.238 TIME LEFT:  2.00D  GRAD.:     2.423 HEAT:  93.86229
 CYCLE:   310 TIME:   0.289 TIME LEFT:  2.00D  GRAD.:     4.597 HEAT:  93.86188
 CYCLE:   311 TIME:   0.297 TIME LEFT:  2.00D  GRAD.:     3.311 HEAT:  93.86168
 CYCLE:   312 TIME:   0.238 TIME LEFT:  2.00D  GRAD.:     4.107 HEAT:  93.86118
 CYCLE:   313 TIME:   0.398 TIME LEFT:  2.00D  GRAD.:    11.551 HEAT:  93.86113
 CYCLE:   314 TIME:   0.273 TIME LEFT:  2.00D  GRAD.:     4.053 HEAT:  93.86067
 CYCLE:   315 TIME:   0.277 TIME LEFT:  2.00D  GRAD.:     2.406 HEAT:  93.86045
 CYCLE:   316 TIME:   0.320 TIME LEFT:  2.00D  GRAD.:     2.179 HEAT:  93.86017
 CYCLE:   317 TIME:   0.230 TIME LEFT:  2.00D  GRAD.:     2.150 HEAT:  93.85986
 CYCLE:   318 TIME:   0.301 TIME LEFT:  2.00D  GRAD.:     2.081 HEAT:  93.85941
 CYCLE:   319 TIME:   0.215 TIME LEFT:  2.00D  GRAD.:     4.468 HEAT:  93.85902
 CYCLE:   320 TIME:   0.230 TIME LEFT:  2.00D  GRAD.:     3.129 HEAT:  93.85866
 CYCLE:   321 TIME:   0.270 TIME LEFT:  2.00D  GRAD.:     2.001 HEAT:  93.85846
 CYCLE:   322 TIME:   0.277 TIME LEFT:  2.00D  GRAD.:     1.807 HEAT:  93.85814
 CYCLE:   323 TIME:   0.340 TIME LEFT:  2.00D  GRAD.:     1.702 HEAT:  93.85784
 CYCLE:   324 TIME:   0.387 TIME LEFT:  2.00D  GRAD.:    10.303 HEAT:  93.85767
 CYCLE:   325 TIME:   0.551 TIME LEFT:  2.00D  GRAD.:     4.051 HEAT:  93.85700
 CYCLE:   326 TIME:   0.383 TIME LEFT:  2.00D  GRAD.:     1.588 HEAT:  93.85678
 CYCLE:   327 TIME:   0.391 TIME LEFT:  2.00D  GRAD.:     1.374 HEAT:  93.85668
 CYCLE:   328 TIME:   0.613 TIME LEFT:  2.00D  GRAD.:     2.704 HEAT:  93.85647
 CYCLE:   329 TIME:   0.434 TIME LEFT:  2.00D  GRAD.:    22.830 HEAT:  93.85793
 CYCLE:   330 TIME:   0.516 TIME LEFT:  2.00D  GRAD.:     2.737 HEAT:  93.85625
 CYCLE:   331 TIME:   0.414 TIME LEFT:  2.00D  GRAD.:     2.556 HEAT:  93.85610
 CYCLE:   332 TIME:   0.523 TIME LEFT:  2.00D  GRAD.:     2.658 HEAT:  93.85550
 CYCLE:   333 TIME:   0.324 TIME LEFT:  2.00D  GRAD.:     6.445 HEAT:  93.85565
 CYCLE:   334 TIME:   0.520 TIME LEFT:  2.00D  GRAD.:     2.148 HEAT:  93.85507
 CYCLE:   335 TIME:   0.332 TIME LEFT:  2.00D  GRAD.:     1.204 HEAT:  93.85497
 CYCLE:   336 TIME:   0.441 TIME LEFT:  2.00D  GRAD.:     1.598 HEAT:  93.85487
 CYCLE:   337 TIME:   0.410 TIME LEFT:  2.00D  GRAD.:     2.398 HEAT:  93.85455
 CYCLE:   338 TIME:   0.559 TIME LEFT:  2.00D  GRAD.:     9.117 HEAT:  93.85459
 CYCLE:   339 TIME:   0.504 TIME LEFT:  2.00D  GRAD.:     3.154 HEAT:  93.85387
 CYCLE:   340 TIME:   0.441 TIME LEFT:  2.00D  GRAD.:     1.945 HEAT:  93.85348
 CYCLE:   341 TIME:   0.383 TIME LEFT:  2.00D  GRAD.:     3.233 HEAT:  93.85302
 CYCLE:   342 TIME:   0.449 TIME LEFT:  2.00D  GRAD.:     2.607 HEAT:  93.85269
 CYCLE:   343 TIME:   0.418 TIME LEFT:  2.00D  GRAD.:     4.464 HEAT:  93.85249
 CYCLE:   344 TIME:   0.398 TIME LEFT:  2.00D  GRAD.:     3.331 HEAT:  93.85230
 CYCLE:   345 TIME:   0.348 TIME LEFT:  2.00D  GRAD.:     2.315 HEAT:  93.85220
 CYCLE:   346 TIME:   0.336 TIME LEFT:  2.00D  GRAD.:     3.004 HEAT:  93.85188
 CYCLE:   347 TIME:   0.488 TIME LEFT:  2.00D  GRAD.:     3.386 HEAT:  93.85163
 CYCLE:   348 TIME:   0.535 TIME LEFT:  2.00D  GRAD.:     3.097 HEAT:  93.85109
 CYCLE:   349 TIME:   0.449 TIME LEFT:  2.00D  GRAD.:    13.461 HEAT:  93.85211
 CYCLE:   350 TIME:   0.559 TIME LEFT:  2.00D  GRAD.:     2.028 HEAT:  93.85061
 CYCLE:   351 TIME:   0.449 TIME LEFT:  2.00D  GRAD.:     1.820 HEAT:  93.85049
 CYCLE:   352 TIME:   0.465 TIME LEFT:  2.00D  GRAD.:     2.503 HEAT:  93.85030
 CYCLE:   353 TIME:   0.402 TIME LEFT:  2.00D  GRAD.:     2.079 HEAT:  93.84995
 CYCLE:   354 TIME:   0.676 TIME LEFT:  2.00D  GRAD.:    24.551 HEAT:  93.85564
 CYCLE:   355 TIME:   0.391 TIME LEFT:  2.00D  GRAD.:     2.210 HEAT:  93.84972
 CYCLE:   356 TIME:   0.434 TIME LEFT:  2.00D  GRAD.:     1.609 HEAT:  93.84965
 CYCLE:   357 TIME:   0.520 TIME LEFT:  2.00D  GRAD.:     2.176 HEAT:  93.84947
 CYCLE:   358 TIME:   0.281 TIME LEFT:  2.00D  GRAD.:     2.815 HEAT:  93.84937
 CYCLE:   359 TIME:   0.426 TIME LEFT:  2.00D  GRAD.:     4.878 HEAT:  93.84925
 CYCLE:   360 TIME:   0.461 TIME LEFT:  2.00D  GRAD.:     1.694 HEAT:  93.84911
 CYCLE:   361 TIME:   0.328 TIME LEFT:  2.00D  GRAD.:     1.428 HEAT:  93.84907
 CYCLE:   362 TIME:   0.324 TIME LEFT:  2.00D  GRAD.:     3.318 HEAT:  93.84899
 CYCLE:   363 TIME:   0.500 TIME LEFT:  2.00D  GRAD.:     1.488 HEAT:  93.84872
 CYCLE:   364 TIME:   0.336 TIME LEFT:  2.00D  GRAD.:     1.121 HEAT:  93.84856
 CYCLE:   365 TIME:   0.352 TIME LEFT:  2.00D  GRAD.:     1.372 HEAT:  93.84846
 CYCLE:   366 TIME:   0.523 TIME LEFT:  2.00D  GRAD.:     1.215 HEAT:  93.84836
 CYCLE:   367 TIME:   0.320 TIME LEFT:  2.00D  GRAD.:     1.233 HEAT:  93.84824
 CYCLE:   368 TIME:   0.414 TIME LEFT:  2.00D  GRAD.:     1.430 HEAT:  93.84806
 CYCLE:   369 TIME:   0.477 TIME LEFT:  2.00D  GRAD.:     5.174 HEAT:  93.84806
 CYCLE:   370 TIME:   0.352 TIME LEFT:  2.00D  GRAD.:     1.223 HEAT:  93.84782
 CYCLE:   371 TIME:   0.359 TIME LEFT:  2.00D  GRAD.:     1.135 HEAT:  93.84776
 CYCLE:   372 TIME:   0.430 TIME LEFT:  2.00D  GRAD.:     2.397 HEAT:  93.84760
 CYCLE:   373 TIME:   0.488 TIME LEFT:  2.00D  GRAD.:    10.838 HEAT:  93.84785
 CYCLE:   374 TIME:   0.414 TIME LEFT:  2.00D  GRAD.:     1.287 HEAT:  93.84745
 CYCLE:   375 TIME:   0.434 TIME LEFT:  2.00D  GRAD.:     1.246 HEAT:  93.84741
 CYCLE:   376 TIME:   0.387 TIME LEFT:  2.00D  GRAD.:     0.877 HEAT:  93.84732
 CYCLE:   377 TIME:   0.387 TIME LEFT:  2.00D  GRAD.:     1.674 HEAT:  93.84720
 CYCLE:   378 TIME:   0.535 TIME LEFT:  2.00D  GRAD.:     4.141 HEAT:  93.84714
 CYCLE:   379 TIME:   0.402 TIME LEFT:  2.00D  GRAD.:     1.743 HEAT:  93.84700
 CYCLE:   380 TIME:   0.262 TIME LEFT:  2.00D  GRAD.:     1.413 HEAT:  93.84692
 CYCLE:   381 TIME:   0.352 TIME LEFT:  2.00D  GRAD.:     1.693 HEAT:  93.84685
 CYCLE:   382 TIME:   0.402 TIME LEFT:  2.00D  GRAD.:     1.774 HEAT:  93.84674
 CYCLE:   383 TIME:   0.363 TIME LEFT:  2.00D  GRAD.:     3.536 HEAT:  93.84666
 CYCLE:   384 TIME:   0.395 TIME LEFT:  2.00D  GRAD.:     1.502 HEAT:  93.84653
 CYCLE:   385 TIME:   0.555 TIME LEFT:  2.00D  GRAD.:     1.323 HEAT:  93.84647
 CYCLE:   386 TIME:   0.402 TIME LEFT:  2.00D  GRAD.:     2.932 HEAT:  93.84633
 CYCLE:   387 TIME:   0.465 TIME LEFT:  2.00D  GRAD.:     4.807 HEAT:  93.84633
 CYCLE:   388 TIME:   0.355 TIME LEFT:  2.00D  GRAD.:     1.429 HEAT:  93.84617
 CYCLE:   389 TIME:   0.395 TIME LEFT:  2.00D  GRAD.:     1.475 HEAT:  93.84610
 CYCLE:   390 TIME:   0.375 TIME LEFT:  2.00D  GRAD.:     1.460 HEAT:  93.84591
 CYCLE:   391 TIME:   0.414 TIME LEFT:  2.00D  GRAD.:     4.226 HEAT:  93.84603
 CYCLE:   392 TIME:   0.371 TIME LEFT:  2.00D  GRAD.:     0.978 HEAT:  93.84578
 CYCLE:   393 TIME:   0.461 TIME LEFT:  2.00D  GRAD.:     0.791 HEAT:  93.84574
 CYCLE:   394 TIME:   0.527 TIME LEFT:  2.00D  GRAD.:     2.257 HEAT:  93.84566
 CYCLE:   395 TIME:   0.570 TIME LEFT:  2.00D  GRAD.:     1.852 HEAT:  93.84557
 CYCLE:   396 TIME:   1.023 TIME LEFT:  2.00D  GRAD.:     1.254 HEAT:  93.84542
 CYCLE:   397 TIME:   1.742 TIME LEFT:  2.00D  GRAD.:     1.211 HEAT:  93.84535
 CYCLE:   398 TIME:   0.656 TIME LEFT:  2.00D  GRAD.:     1.935 HEAT:  93.84524
 CYCLE:   399 TIME:   0.602 TIME LEFT:  2.00D  GRAD.:     2.211 HEAT:  93.84520
 CYCLE:   400 TIME:   0.574 TIME LEFT:  2.00D  GRAD.:     1.453 HEAT:  93.84516
 CYCLE:   401 TIME:   0.641 TIME LEFT:  2.00D  GRAD.:     7.288 HEAT:  93.84533
 CYCLE:   402 TIME:   0.426 TIME LEFT:  2.00D  GRAD.:     1.166 HEAT:  93.84508
 CYCLE:   403 TIME:   0.617 TIME LEFT:  2.00D  GRAD.:     0.875 HEAT:  93.84505
 CYCLE:   404 TIME:   0.852 TIME LEFT:  2.00D  GRAD.:     1.726 HEAT:  93.84501
 CYCLE:   405 TIME:   0.656 TIME LEFT:  2.00D  GRAD.:     1.567 HEAT:  93.84497
 CYCLE:   406 TIME:   0.703 TIME LEFT:  2.00D  GRAD.:     2.457 HEAT:  93.84487
 CYCLE:   407 TIME:   0.648 TIME LEFT:  2.00D  GRAD.:     2.088 HEAT:  93.84482
 CYCLE:   408 TIME:   0.438 TIME LEFT:  2.00D  GRAD.:     1.529 HEAT:  93.84467
 CYCLE:   409 TIME:   0.484 TIME LEFT:  2.00D  GRAD.:     1.837 HEAT:  93.84454
 CYCLE:   410 TIME:   0.848 TIME LEFT:  2.00D  GRAD.:     2.337 HEAT:  93.84441
 CYCLE:   411 TIME:   0.406 TIME LEFT:  2.00D  GRAD.:     2.655 HEAT:  93.84433
 CYCLE:   412 TIME:   0.734 TIME LEFT:  2.00D  GRAD.:     1.423 HEAT:  93.84425
 CYCLE:   413 TIME:   0.730 TIME LEFT:  2.00D  GRAD.:     1.802 HEAT:  93.84418
 CYCLE:   414 TIME:   0.586 TIME LEFT:  2.00D  GRAD.:     2.085 HEAT:  93.84410
 CYCLE:   415 TIME:   0.820 TIME LEFT:  2.00D  GRAD.:     2.801 HEAT:  93.84395
 CYCLE:   416 TIME:   0.938 TIME LEFT:  2.00D  GRAD.:     6.772 HEAT:  93.84405
 CYCLE:   417 TIME:   0.762 TIME LEFT:  2.00D  GRAD.:     0.967 HEAT:  93.84386
 CYCLE:   418 TIME:   0.965 TIME LEFT:  2.00D  GRAD.:     1.084 HEAT:  93.84386
 CYCLE:   419 TIME:   0.676 TIME LEFT:  2.00D  GRAD.:     0.813 HEAT:  93.84380
 CYCLE:   420 TIME:   0.820 TIME LEFT:  2.00D  GRAD.:     2.464 HEAT:  93.84371
 CYCLE:   421 TIME:   0.809 TIME LEFT:  2.00D  GRAD.:     6.766 HEAT:  93.84418
 CYCLE:   422 TIME:   0.734 TIME LEFT:  2.00D  GRAD.:     1.243 HEAT:  93.84361
 CYCLE:   423 TIME:   0.902 TIME LEFT:  2.00D  GRAD.:     2.671 HEAT:  93.84367
 CYCLE:   424 TIME:   0.676 TIME LEFT:  2.00D  GRAD.:     1.093 HEAT:  93.84351
 CYCLE:   425 TIME:   0.789 TIME LEFT:  2.00D  GRAD.:     1.470 HEAT:  93.84345
 CYCLE:   426 TIME:   0.684 TIME LEFT:  2.00D  GRAD.:     1.055 HEAT:  93.84339
 CYCLE:   427 TIME:   0.910 TIME LEFT:  2.00D  GRAD.:     1.893 HEAT:  93.84323
 CYCLE:   428 TIME:   0.621 TIME LEFT:  2.00D  GRAD.:     1.395 HEAT:  93.84313
 CYCLE:   429 TIME:   0.684 TIME LEFT:  2.00D  GRAD.:     1.153 HEAT:  93.84303
 CYCLE:   430 TIME:   1.082 TIME LEFT:  2.00D  GRAD.:     2.050 HEAT:  93.84298
 CYCLE:   431 TIME:   0.488 TIME LEFT:  2.00D  GRAD.:     0.979 HEAT:  93.84295
 CYCLE:   432 TIME:   0.613 TIME LEFT:  2.00D  GRAD.:     1.038 HEAT:  93.84291
 CYCLE:   433 TIME:   0.680 TIME LEFT:  2.00D  GRAD.:     1.847 HEAT:  93.84281
 CYCLE:   434 TIME:   0.668 TIME LEFT:  2.00D  GRAD.:     1.840 HEAT:  93.84267
 CYCLE:   435 TIME:   0.895 TIME LEFT:  2.00D  GRAD.:     3.991 HEAT:  93.84256
 CYCLE:   436 TIME:   0.559 TIME LEFT:  2.00D  GRAD.:     1.464 HEAT:  93.84236
 CYCLE:   437 TIME:   0.766 TIME LEFT:  2.00D  GRAD.:     0.948 HEAT:  93.84229
 CYCLE:   438 TIME:   0.789 TIME LEFT:  2.00D  GRAD.:     1.212 HEAT:  93.84222
 CYCLE:   439 TIME:   0.621 TIME LEFT:  2.00D  GRAD.:     1.299 HEAT:  93.84210
 CYCLE:   440 TIME:   0.715 TIME LEFT:  2.00D  GRAD.:     1.837 HEAT:  93.84193
 CYCLE:   441 TIME:   0.570 TIME LEFT:  2.00D  GRAD.:     3.496 HEAT:  93.84182
 CYCLE:   442 TIME:   0.789 TIME LEFT:  2.00D  GRAD.:     1.376 HEAT:  93.84171
 CYCLE:   443 TIME:   0.832 TIME LEFT:  2.00D  GRAD.:     1.076 HEAT:  93.84166
 CYCLE:   444 TIME:   0.910 TIME LEFT:  2.00D  GRAD.:     1.478 HEAT:  93.84157
 CYCLE:   445 TIME:   0.551 TIME LEFT:  2.00D  GRAD.:     5.505 HEAT:  93.84158
 CYCLE:   446 TIME:   0.723 TIME LEFT:  2.00D  GRAD.:     1.464 HEAT:  93.84145
 CYCLE:   447 TIME:   0.785 TIME LEFT:  2.00D  GRAD.:     1.202 HEAT:  93.84139
 CYCLE:   448 TIME:   0.551 TIME LEFT:  2.00D  GRAD.:     1.876 HEAT:  93.84132
 CYCLE:   449 TIME:   0.535 TIME LEFT:  2.00D  GRAD.:     1.445 HEAT:  93.84124
 CYCLE:   450 TIME:   0.625 TIME LEFT:  2.00D  GRAD.:     1.632 HEAT:  93.84113
 CYCLE:   451 TIME:   0.586 TIME LEFT:  2.00D  GRAD.:     1.722 HEAT:  93.84102
 CYCLE:   452 TIME:   0.609 TIME LEFT:  2.00D  GRAD.:     1.404 HEAT:  93.84093
 CYCLE:   453 TIME:   0.988 TIME LEFT:  2.00D  GRAD.:     1.103 HEAT:  93.84076
 CYCLE:   454 TIME:   0.566 TIME LEFT:  2.00D  GRAD.:     1.296 HEAT:  93.84063
 CYCLE:   455 TIME:   0.840 TIME LEFT:  2.00D  GRAD.:     4.851 HEAT:  93.84057
 CYCLE:   456 TIME:   0.562 TIME LEFT:  2.00D  GRAD.:     1.675 HEAT:  93.84041
 CYCLE:   457 TIME:   0.848 TIME LEFT:  2.00D  GRAD.:     1.206 HEAT:  93.84035
 CYCLE:   458 TIME:   0.887 TIME LEFT:  2.00D  GRAD.:     1.014 HEAT:  93.84031
 CYCLE:   459 TIME:   0.430 TIME LEFT:  2.00D  GRAD.:     0.898 HEAT:  93.84025
 CYCLE:   460 TIME:   0.617 TIME LEFT:  2.00D  GRAD.:     3.022 HEAT:  93.84025
 CYCLE:   461 TIME:   0.723 TIME LEFT:  2.00D  GRAD.:     1.348 HEAT:  93.84019
 CYCLE:   462 TIME:   0.562 TIME LEFT:  2.00D  GRAD.:     1.035 HEAT:  93.84017
 CYCLE:   463 TIME:   0.793 TIME LEFT:  2.00D  GRAD.:     1.187 HEAT:  93.84007
 CYCLE:   464 TIME:   0.691 TIME LEFT:  2.00D  GRAD.:     3.431 HEAT:  93.84004
 CYCLE:   465 TIME:   0.488 TIME LEFT:  2.00D  GRAD.:     0.955 HEAT:  93.83989
 CYCLE:   466 TIME:   0.539 TIME LEFT:  2.00D  GRAD.:     0.732 HEAT:  93.83984
 CYCLE:   467 TIME:   0.758 TIME LEFT:  2.00D  GRAD.:     2.017 HEAT:  93.83980
 CYCLE:   468 TIME:   0.703 TIME LEFT:  2.00D  GRAD.:     0.737 HEAT:  93.83974
 CYCLE:   469 TIME:   0.629 TIME LEFT:  2.00D  GRAD.:     0.707 HEAT:  93.83973
 CYCLE:   470 TIME:   0.648 TIME LEFT:  2.00D  GRAD.:     1.398 HEAT:  93.83969
 CYCLE:   471 TIME:   0.770 TIME LEFT:  2.00D  GRAD.:     1.372 HEAT:  93.83964
 CYCLE:   472 TIME:   0.746 TIME LEFT:  2.00D  GRAD.:     4.027 HEAT:  93.83966
 CYCLE:   473 TIME:   0.629 TIME LEFT:  2.00D  GRAD.:     0.954 HEAT:  93.83957
 CYCLE:   474 TIME:   0.527 TIME LEFT:  2.00D  GRAD.:     0.873 HEAT:  93.83955
 CYCLE:   475 TIME:   1.008 TIME LEFT:  2.00D  GRAD.:     0.811 HEAT:  93.83953
 CYCLE:   476 TIME:   0.535 TIME LEFT:  2.00D  GRAD.:     1.096 HEAT:  93.83950
 CYCLE:   477 TIME:   0.621 TIME LEFT:  2.00D  GRAD.:     1.019 HEAT:  93.83947
 CYCLE:   478 TIME:   0.484 TIME LEFT:  2.00D  GRAD.:     1.009 HEAT:  93.83943
 CYCLE:   479 TIME:   0.652 TIME LEFT:  2.00D  GRAD.:     1.059 HEAT:  93.83938
 CYCLE:   480 TIME:   0.656 TIME LEFT:  2.00D  GRAD.:     1.102 HEAT:  93.83931
 CYCLE:   481 TIME:   0.598 TIME LEFT:  2.00D  GRAD.:     1.082 HEAT:  93.83924
 CYCLE:   482 TIME:   0.656 TIME LEFT:  2.00D  GRAD.:     0.831 HEAT:  93.83919
 CYCLE:   483 TIME:   0.676 TIME LEFT:  2.00D  GRAD.:     1.000 HEAT:  93.83912
 CYCLE:   484 TIME:   0.723 TIME LEFT:  2.00D  GRAD.:     3.156 HEAT:  93.83912
 CYCLE:   485 TIME:   0.555 TIME LEFT:  2.00D  GRAD.:     0.985 HEAT:  93.83905
 CYCLE:   486 TIME:   0.648 TIME LEFT:  2.00D  GRAD.:     0.675 HEAT:  93.83902
 CYCLE:   487 TIME:   0.660 TIME LEFT:  2.00D  GRAD.:     1.028 HEAT:  93.83897
 CYCLE:   488 TIME:   0.672 TIME LEFT:  2.00D  GRAD.:     1.242 HEAT:  93.83892
 CYCLE:   489 TIME:   0.605 TIME LEFT:  2.00D  GRAD.:     1.393 HEAT:  93.83891
 CYCLE:   490 TIME:   0.496 TIME LEFT:  2.00D  GRAD.:     0.629 HEAT:  93.83889
 CYCLE:   491 TIME:   0.562 TIME LEFT:  2.00D  GRAD.:     0.986 HEAT:  93.83888
 CYCLE:   492 TIME:   0.609 TIME LEFT:  2.00D  GRAD.:     0.887 HEAT:  93.83887
 CYCLE:   493 TIME:   0.477 TIME LEFT:  2.00D  GRAD.:     1.441 HEAT:  93.83882
 CYCLE:   494 TIME:   0.953 TIME LEFT:  2.00D  GRAD.:     0.901 HEAT:  93.83879
 CYCLE:   495 TIME:   0.734 TIME LEFT:  2.00D  GRAD.:     0.587 HEAT:  93.83877
 CYCLE:   496 TIME:   0.621 TIME LEFT:  2.00D  GRAD.:     0.660 HEAT:  93.83875
 CYCLE:   497 TIME:   0.801 TIME LEFT:  2.00D  GRAD.:     0.959 HEAT:  93.83871
 CYCLE:   498 TIME:   0.762 TIME LEFT:  2.00D  GRAD.:     1.438 HEAT:  93.83867
 CYCLE:   499 TIME:   0.965 TIME LEFT:  2.00D  GRAD.:     1.375 HEAT:  93.83863
 CYCLE:   500 TIME:   0.797 TIME LEFT:  2.00D  GRAD.:     1.522 HEAT:  93.83859
 CYCLE:   501 TIME:   0.617 TIME LEFT:  2.00D  GRAD.:     1.585 HEAT:  93.83854
 CYCLE:   502 TIME:   0.676 TIME LEFT:  2.00D  GRAD.:     2.433 HEAT:  93.83846
 CYCLE:   503 TIME:   0.719 TIME LEFT:  2.00D  GRAD.:     5.395 HEAT:  93.83853
 CYCLE:   504 TIME:   0.609 TIME LEFT:  2.00D  GRAD.:     2.922 HEAT:  93.83843
 CYCLE:   505 TIME:   0.672 TIME LEFT:  2.00D  GRAD.:     2.888 HEAT:  93.83836
 CYCLE:   506 TIME:   0.629 TIME LEFT:  2.00D  GRAD.:     6.566 HEAT:  93.83849
 CYCLE:   507 TIME:   0.855 TIME LEFT:  2.00D  GRAD.:     0.993 HEAT:  93.83832
 CYCLE:   508 TIME:   0.344 TIME LEFT:  2.00D  GRAD.:     1.084 HEAT:  93.83831
 CYCLE:   509 TIME:   0.828 TIME LEFT:  2.00D  GRAD.:     0.669 HEAT:  93.83829
 CYCLE:   510 TIME:   0.691 TIME LEFT:  2.00D  GRAD.:     0.964 HEAT:  93.83827
 CYCLE:   511 TIME:   0.484 TIME LEFT:  2.00D  GRAD.:     0.975 HEAT:  93.83824
 CYCLE:   512 TIME:   0.785 TIME LEFT:  2.00D  GRAD.:     1.093 HEAT:  93.83819
 CYCLE:   513 TIME:   0.777 TIME LEFT:  2.00D  GRAD.:     1.220 HEAT:  93.83814
 CYCLE:   514 TIME:   1.020 TIME LEFT:  2.00D  GRAD.:     1.680 HEAT:  93.83806
 CYCLE:   515 TIME:   0.844 TIME LEFT:  2.00D  GRAD.:     0.962 HEAT:  93.83801
 CYCLE:   516 TIME:   0.832 TIME LEFT:  2.00D  GRAD.:     0.722 HEAT:  93.83797
 CYCLE:   517 TIME:   0.770 TIME LEFT:  2.00D  GRAD.:     0.980 HEAT:  93.83792
 CYCLE:   518 TIME:   0.781 TIME LEFT:  2.00D  GRAD.:     0.933 HEAT:  93.83787
 CYCLE:   519 TIME:   0.645 TIME LEFT:  2.00D  GRAD.:     0.876 HEAT:  93.83781
 CYCLE:   520 TIME:   0.859 TIME LEFT:  2.00D  GRAD.:     3.548 HEAT:  93.83781
 CYCLE:   521 TIME:   0.371 TIME LEFT:  2.00D  GRAD.:     0.946 HEAT:  93.83778
 CYCLE:   522 TIME:   0.418 TIME LEFT:  2.00D  GRAD.:     0.882 HEAT:  93.83776
 CYCLE:   523 TIME:   0.809 TIME LEFT:  2.00D  GRAD.:     0.557 HEAT:  93.83775
 CYCLE:   524 TIME:   0.496 TIME LEFT:  2.00D  GRAD.:     0.827 HEAT:  93.83772
 CYCLE:   525 TIME:   0.789 TIME LEFT:  2.00D  GRAD.:     0.880 HEAT:  93.83769
 CYCLE:   526 TIME:   1.039 TIME LEFT:  2.00D  GRAD.:     1.168 HEAT:  93.83762
 CYCLE:   527 TIME:   0.445 TIME LEFT:  2.00D  GRAD.:     3.629 HEAT:  93.83761
 CYCLE:   528 TIME:   0.559 TIME LEFT:  2.00D  GRAD.:     1.328 HEAT:  93.83754
 CYCLE:   529 TIME:   0.898 TIME LEFT:  2.00D  GRAD.:     0.765 HEAT:  93.83750
 CYCLE:   530 TIME:   0.598 TIME LEFT:  2.00D  GRAD.:     0.853 HEAT:  93.83746
 CYCLE:   531 TIME:   0.789 TIME LEFT:  2.00D  GRAD.:     0.978 HEAT:  93.83740
 CYCLE:   532 TIME:   0.523 TIME LEFT:  2.00D  GRAD.:     1.463 HEAT:  93.83731
 CYCLE:   533 TIME:   0.859 TIME LEFT:  2.00D  GRAD.:     1.222 HEAT:  93.83725
 CYCLE:   534 TIME:   0.523 TIME LEFT:  2.00D  GRAD.:     2.601 HEAT:  93.83722
 CYCLE:   535 TIME:   0.844 TIME LEFT:  2.00D  GRAD.:     0.803 HEAT:  93.83718
 CYCLE:   536 TIME:   0.566 TIME LEFT:  2.00D  GRAD.:     0.762 HEAT:  93.83717
 CYCLE:   537 TIME:   0.652 TIME LEFT:  2.00D  GRAD.:     0.850 HEAT:  93.83713
 CYCLE:   538 TIME:   0.648 TIME LEFT:  2.00D  GRAD.:     1.187 HEAT:  93.83707
 CYCLE:   539 TIME:   0.613 TIME LEFT:  2.00D  GRAD.:     1.626 HEAT:  93.83704
 CYCLE:   540 TIME:   0.578 TIME LEFT:  2.00D  GRAD.:     0.842 HEAT:  93.83701
 CYCLE:   541 TIME:   0.535 TIME LEFT:  2.00D  GRAD.:     0.557 HEAT:  93.83698
 CYCLE:   542 TIME:   0.738 TIME LEFT:  2.00D  GRAD.:     0.686 HEAT:  93.83695
 CYCLE:   543 TIME:   0.605 TIME LEFT:  2.00D  GRAD.:     2.758 HEAT:  93.83697
 CYCLE:   544 TIME:   0.766 TIME LEFT:  2.00D  GRAD.:     0.590 HEAT:  93.83692
 CYCLE:   545 TIME:   0.680 TIME LEFT:  2.00D  GRAD.:     0.436 HEAT:  93.83691
 CYCLE:   546 TIME:   0.758 TIME LEFT:  2.00D  GRAD.:     1.743 HEAT:  93.83691
 CYCLE:   547 TIME:   0.773 TIME LEFT:  2.00D  GRAD.:     0.639 HEAT:  93.83689
 CYCLE:   548 TIME:   0.793 TIME LEFT:  2.00D  GRAD.:     0.388 HEAT:  93.83687
 CYCLE:   549 TIME:   0.832 TIME LEFT:  2.00D  GRAD.:     0.492 HEAT:  93.83686
 CYCLE:   550 TIME:   0.906 TIME LEFT:  2.00D  GRAD.:     4.160 HEAT:  93.83689
 CYCLE:   551 TIME:   0.789 TIME LEFT:  2.00D  GRAD.:     0.553 HEAT:  93.83684
 CYCLE:   552 TIME:   0.824 TIME LEFT:  2.00D  GRAD.:     0.521 HEAT:  93.83684
 CYCLE:   553 TIME:   0.750 TIME LEFT:  2.00D  GRAD.:     0.352 HEAT:  93.83682
 CYCLE:   554 TIME:   0.773 TIME LEFT:  2.00D  GRAD.:     0.596 HEAT:  93.83680
 CYCLE:   555 TIME:   0.715 TIME LEFT:  2.00D  GRAD.:     0.688 HEAT:  93.83678
 CYCLE:   556 TIME:   0.766 TIME LEFT:  2.00D  GRAD.:     1.061 HEAT:  93.83675
 CYCLE:   557 TIME:   0.531 TIME LEFT:  2.00D  GRAD.:     2.258 HEAT:  93.83675
 CYCLE:   558 TIME:   0.746 TIME LEFT:  2.00D  GRAD.:     0.480 HEAT:  93.83672
 CYCLE:   559 TIME:   0.680 TIME LEFT:  2.00D  GRAD.:     0.443 HEAT:  93.83671
 CYCLE:   560 TIME:   0.738 TIME LEFT:  2.00D  GRAD.:     0.622 HEAT:  93.83669
 CYCLE:   561 TIME:   0.375 TIME LEFT:  2.00D  GRAD.:     0.585 HEAT:  93.83667
 CYCLE:   562 TIME:   0.562 TIME LEFT:  2.00D  GRAD.:     0.618 HEAT:  93.83664
 CYCLE:   563 TIME:   0.738 TIME LEFT:  2.00D  GRAD.:     1.181 HEAT:  93.83662
 CYCLE:   564 TIME:   0.641 TIME LEFT:  2.00D  GRAD.:     1.250 HEAT:  93.83660
 CYCLE:   565 TIME:   0.816 TIME LEFT:  2.00D  GRAD.:     0.822 HEAT:  93.83659
 CYCLE:   566 TIME:   0.680 TIME LEFT:  2.00D  GRAD.:     0.500 HEAT:  93.83657
 CYCLE:   567 TIME:   0.727 TIME LEFT:  2.00D  GRAD.:     0.505 HEAT:  93.83656
 CYCLE:   568 TIME:   0.617 TIME LEFT:  2.00D  GRAD.:    10.765 HEAT:  93.83723
 CYCLE:   569 TIME:   0.688 TIME LEFT:  2.00D  GRAD.:     0.556 HEAT:  93.83654
 CYCLE:   570 TIME:   0.785 TIME LEFT:  2.00D  GRAD.:     0.587 HEAT:  93.83653
 CYCLE:   571 TIME:   0.719 TIME LEFT:  2.00D  GRAD.:     0.476 HEAT:  93.83652
 CYCLE:   572 TIME:   0.648 TIME LEFT:  2.00D  GRAD.:     0.710 HEAT:  93.83650
 CYCLE:   573 TIME:   0.844 TIME LEFT:  2.00D  GRAD.:     1.079 HEAT:  93.83649
 CYCLE:   574 TIME:   0.762 TIME LEFT:  2.00D  GRAD.:     0.445 HEAT:  93.83648
 CYCLE:   575 TIME:   0.801 TIME LEFT:  2.00D  GRAD.:     0.416 HEAT:  93.83648
 CYCLE:   576 TIME:   0.824 TIME LEFT:  2.00D  GRAD.:     0.464 HEAT:  93.83647
 CYCLE:   577 TIME:   0.871 TIME LEFT:  2.00D  GRAD.:     0.781 HEAT:  93.83645
 CYCLE:   578 TIME:   0.840 TIME LEFT:  2.00D  GRAD.:     0.764 HEAT:  93.83643
 CYCLE:   579 TIME:   1.059 TIME LEFT:  2.00D  GRAD.:     1.689 HEAT:  93.83642
 CYCLE:   580 TIME:   0.695 TIME LEFT:  2.00D  GRAD.:     0.875 HEAT:  93.83640
 CYCLE:   581 TIME:   0.691 TIME LEFT:  2.00D  GRAD.:     0.467 HEAT:  93.83640
 CYCLE:   582 TIME:   0.512 TIME LEFT:  2.00D  GRAD.:     0.582 HEAT:  93.83639
 CYCLE:   583 TIME:   0.441 TIME LEFT:  2.00D  GRAD.:     0.753 HEAT:  93.83638
 CYCLE:   584 TIME:   0.605 TIME LEFT:  2.00D  GRAD.:     0.957 HEAT:  93.83636
 CYCLE:   585 TIME:   0.715 TIME LEFT:  2.00D  GRAD.:     1.063 HEAT:  93.83634
 CYCLE:   586 TIME:   0.668 TIME LEFT:  2.00D  GRAD.:     0.600 HEAT:  93.83633
 CYCLE:   587 TIME:   0.648 TIME LEFT:  2.00D  GRAD.:     0.703 HEAT:  93.83631
 CYCLE:   588 TIME:   0.809 TIME LEFT:  2.00D  GRAD.:     0.522 HEAT:  93.83629
 CYCLE:   589 TIME:   0.637 TIME LEFT:  2.00D  GRAD.:     1.174 HEAT:  93.83627
 CYCLE:   590 TIME:   0.719 TIME LEFT:  2.00D  GRAD.:     0.748 HEAT:  93.83625
 CYCLE:   591 TIME:   0.707 TIME LEFT:  2.00D  GRAD.:     0.587 HEAT:  93.83623
 CYCLE:   592 TIME:   0.531 TIME LEFT:  2.00D  GRAD.:     0.724 HEAT:  93.83620
 CYCLE:   593 TIME:   0.688 TIME LEFT:  2.00D  GRAD.:     0.702 HEAT:  93.83617
 CYCLE:   594 TIME:   0.504 TIME LEFT:  2.00D  GRAD.:     1.448 HEAT:  93.83614
 CYCLE:   595 TIME:   0.570 TIME LEFT:  2.00D  GRAD.:     1.316 HEAT:  93.83612
 CYCLE:   596 TIME:   0.543 TIME LEFT:  2.00D  GRAD.:     1.349 HEAT:  93.83610
 CYCLE:   597 TIME:   0.723 TIME LEFT:  2.00D  GRAD.:     0.798 HEAT:  93.83609
 CYCLE:   598 TIME:   0.609 TIME LEFT:  2.00D  GRAD.:     1.076 HEAT:  93.83608
 CYCLE:   599 TIME:   0.578 TIME LEFT:  2.00D  GRAD.:     0.361 HEAT:  93.83606
 CYCLE:   600 TIME:   0.668 TIME LEFT:  2.00D  GRAD.:     0.453 HEAT:  93.83605
 CYCLE:   601 TIME:   0.707 TIME LEFT:  2.00D  GRAD.:     1.321 HEAT:  93.83604
 CYCLE:   602 TIME:   0.504 TIME LEFT:  2.00D  GRAD.:     1.357 HEAT:  93.83602
 CYCLE:   603 TIME:   0.609 TIME LEFT:  2.00D  GRAD.:     3.918 HEAT:  93.83610
 CYCLE:   604 TIME:   0.570 TIME LEFT:  2.00D  GRAD.:     0.558 HEAT:  93.83599
 CYCLE:   605 TIME:   0.695 TIME LEFT:  2.00D  GRAD.:     0.469 HEAT:  93.83598
 CYCLE:   606 TIME:   0.527 TIME LEFT:  2.00D  GRAD.:     0.503 HEAT:  93.83596
 CYCLE:   607 TIME:   0.652 TIME LEFT:  2.00D  GRAD.:     0.480 HEAT:  93.83595
 CYCLE:   608 TIME:   0.699 TIME LEFT:  2.00D  GRAD.:     0.491 HEAT:  93.83593
 CYCLE:   609 TIME:   0.641 TIME LEFT:  2.00D  GRAD.:     1.637 HEAT:  93.83592
 CYCLE:   610 TIME:   0.699 TIME LEFT:  2.00D  GRAD.:     1.070 HEAT:  93.83589
 CYCLE:   611 TIME:   0.629 TIME LEFT:  2.00D  GRAD.:     0.443 HEAT:  93.83588
 CYCLE:   612 TIME:   0.594 TIME LEFT:  2.00D  GRAD.:     1.346 HEAT:  93.83587
 CYCLE:   613 TIME:   0.719 TIME LEFT:  2.00D  GRAD.:     0.474 HEAT:  93.83586
 CYCLE:   614 TIME:   0.551 TIME LEFT:  2.00D  GRAD.:     0.479 HEAT:  93.83585
 CYCLE:   615 TIME:   0.723 TIME LEFT:  2.00D  GRAD.:     0.577 HEAT:  93.83584
 CYCLE:   616 TIME:   0.652 TIME LEFT:  2.00D  GRAD.:     0.609 HEAT:  93.83583
 CYCLE:   617 TIME:   0.766 TIME LEFT:  2.00D  GRAD.:     0.420 HEAT:  93.83582
 CYCLE:   618 TIME:   0.703 TIME LEFT:  2.00D  GRAD.:     0.572 HEAT:  93.83581
 CYCLE:   619 TIME:   0.746 TIME LEFT:  2.00D  GRAD.:     0.903 HEAT:  93.83580
 CYCLE:   620 TIME:   0.770 TIME LEFT:  2.00D  GRAD.:     1.592 HEAT:  93.83579
 CYCLE:   621 TIME:   0.762 TIME LEFT:  2.00D  GRAD.:     0.560 HEAT:  93.83577
 CYCLE:   622 TIME:   0.414 TIME LEFT:  2.00D  GRAD.:     0.458 HEAT:  93.83576
 CYCLE:   623 TIME:   0.492 TIME LEFT:  2.00D  GRAD.:     0.599 HEAT:  93.83575
 CYCLE:   624 TIME:   0.668 TIME LEFT:  2.00D  GRAD.:     0.626 HEAT:  93.83574
 CYCLE:   625 TIME:   0.605 TIME LEFT:  2.00D  GRAD.:     1.082 HEAT:  93.83573
 CYCLE:   626 TIME:   0.570 TIME LEFT:  2.00D  GRAD.:     0.481 HEAT:  93.83571
 CYCLE:   627 TIME:   0.664 TIME LEFT:  2.00D  GRAD.:     0.472 HEAT:  93.83569
 CYCLE:   628 TIME:   0.855 TIME LEFT:  2.00D  GRAD.:     0.666 HEAT:  93.83568
 CYCLE:   629 TIME:   0.703 TIME LEFT:  2.00D  GRAD.:     1.315 HEAT:  93.83567
 CYCLE:   630 TIME:   0.711 TIME LEFT:  2.00D  GRAD.:     0.420 HEAT:  93.83567
 CYCLE:   631 TIME:   0.625 TIME LEFT:  2.00D  GRAD.:     1.282 HEAT:  93.83567
 CYCLE:   632 TIME:   0.480 TIME LEFT:  2.00D  GRAD.:     0.472 HEAT:  93.83566
 CYCLE:   633 TIME:   0.840 TIME LEFT:  2.00D  GRAD.:     0.721 HEAT:  93.83565
 CYCLE:   634 TIME:   0.457 TIME LEFT:  2.00D  GRAD.:     0.449 HEAT:  93.83565
 CYCLE:   635 TIME:   0.492 TIME LEFT:  2.00D  GRAD.:     0.865 HEAT:  93.83564
 CYCLE:   636 TIME:   0.656 TIME LEFT:  2.00D  GRAD.:     0.286 HEAT:  93.83563
 CYCLE:   637 TIME:   0.449 TIME LEFT:  2.00D  GRAD.:     0.269 HEAT:  93.83562
 CYCLE:   638 TIME:   0.688 TIME LEFT:  2.00D  GRAD.:     0.469 HEAT:  93.83561
 CYCLE:   639 TIME:   0.691 TIME LEFT:  2.00D  GRAD.:     0.324 HEAT:  93.83560
 CYCLE:   640 TIME:   0.777 TIME LEFT:  2.00D  GRAD.:     0.465 HEAT:  93.83559
 CYCLE:   641 TIME:   0.840 TIME LEFT:  2.00D  GRAD.:     0.525 HEAT:  93.83558
 CYCLE:   642 TIME:   0.594 TIME LEFT:  2.00D  GRAD.:     0.527 HEAT:  93.83556
 CYCLE:   643 TIME:   0.988 TIME LEFT:  2.00D  GRAD.:     0.541 HEAT:  93.83555
 CYCLE:   644 TIME:   0.605 TIME LEFT:  2.00D  GRAD.:     0.559 HEAT:  93.83553
 CYCLE:   645 TIME:   0.617 TIME LEFT:  2.00D  GRAD.:     1.542 HEAT:  93.83554
 CYCLE:   646 TIME:   0.508 TIME LEFT:  2.00D  GRAD.:     0.572 HEAT:  93.83551
 CYCLE:   647 TIME:   0.945 TIME LEFT:  2.00D  GRAD.:     0.839 HEAT:  93.83553
 CYCLE:   648 TIME:   0.906 TIME LEFT:  2.00D  GRAD.:     1.251 HEAT:  93.83551
 CYCLE:   649 TIME:   0.691 TIME LEFT:  2.00D  GRAD.:     5.174 HEAT:  93.83559
 CYCLE:   650 TIME:   0.414 TIME LEFT:  2.00D  GRAD.:     0.484 HEAT:  93.83550
 CYCLE:   651 TIME:   0.672 TIME LEFT:  2.00D  GRAD.:     0.663 HEAT:  93.83550
 CYCLE:   652 TIME:   0.719 TIME LEFT:  2.00D  GRAD.:     0.882 HEAT:  93.83549
 CYCLE:   653 TIME:   0.812 TIME LEFT:  2.00D  GRAD.:     0.539 HEAT:  93.83549
 CYCLE:   654 TIME:   0.660 TIME LEFT:  2.00D  GRAD.:     0.357 HEAT:  93.83548
 CYCLE:   655 TIME:   0.605 TIME LEFT:  2.00D  GRAD.:     1.230 HEAT:  93.83548
 CYCLE:   656 TIME:   0.887 TIME LEFT:  2.00D  GRAD.:     0.338 HEAT:  93.83548
 CYCLE:   657 TIME:   0.406 TIME LEFT:  2.00D  GRAD.:     0.289 HEAT:  93.83547
 CYCLE:   658 TIME:   0.496 TIME LEFT:  2.00D  GRAD.:     0.228 HEAT:  93.83547
 CYCLE:   659 TIME:   0.727 TIME LEFT:  2.00D  GRAD.:     0.348 HEAT:  93.83546
 CYCLE:   660 TIME:   0.578 TIME LEFT:  2.00D  GRAD.:     0.298 HEAT:  93.83545
 CYCLE:   661 TIME:   0.527 TIME LEFT:  2.00D  GRAD.:     0.539 HEAT:  93.83544
 CYCLE:   662 TIME:   0.574 TIME LEFT:  2.00D  GRAD.:     0.451 HEAT:  93.83543
 CYCLE:   663 TIME:   0.488 TIME LEFT:  2.00D  GRAD.:     0.448 HEAT:  93.83542
 CYCLE:   664 TIME:   0.645 TIME LEFT:  2.00D  GRAD.:     1.477 HEAT:  93.83542
 CYCLE:   665 TIME:   0.727 TIME LEFT:  2.00D  GRAD.:     0.291 HEAT:  93.83541
 CYCLE:   666 TIME:   0.805 TIME LEFT:  2.00D  GRAD.:     0.233 HEAT:  93.83541
 CYCLE:   667 TIME:   0.559 TIME LEFT:  2.00D  GRAD.:     0.285 HEAT:  93.83540
 CYCLE:   668 TIME:   0.828 TIME LEFT:  2.00D  GRAD.:     0.729 HEAT:  93.83540
 CYCLE:   669 TIME:   0.574 TIME LEFT:  2.00D  GRAD.:     0.329 HEAT:  93.83539
 CYCLE:   670 TIME:   0.844 TIME LEFT:  2.00D  GRAD.:     0.441 HEAT:  93.83538
 CYCLE:   671 TIME:   0.496 TIME LEFT:  2.00D  GRAD.:     0.720 HEAT:  93.83538
 CYCLE:   672 TIME:   1.016 TIME LEFT:  2.00D  GRAD.:     0.611 HEAT:  93.83537
 CYCLE:   673 TIME:   0.703 TIME LEFT:  2.00D  GRAD.:     0.706 HEAT:  93.83536
 CYCLE:   674 TIME:   0.605 TIME LEFT:  2.00D  GRAD.:     0.388 HEAT:  93.83535
 CYCLE:   675 TIME:   0.711 TIME LEFT:  2.00D  GRAD.:     0.322 HEAT:  93.83535
 CYCLE:   676 TIME:   0.801 TIME LEFT:  2.00D  GRAD.:     0.817 HEAT:  93.83535
 CYCLE:   677 TIME:   0.445 TIME LEFT:  2.00D  GRAD.:     0.378 HEAT:  93.83534
 CYCLE:   678 TIME:   0.652 TIME LEFT:  2.00D  GRAD.:     0.347 HEAT:  93.83533
 CYCLE:   679 TIME:   1.164 TIME LEFT:  2.00D  GRAD.:     0.248 HEAT:  93.83533
 CYCLE:   680 TIME:   1.254 TIME LEFT:  2.00D  GRAD.:     0.790 HEAT:  93.83532
 CYCLE:   681 TIME:   0.820 TIME LEFT:  2.00D  GRAD.:     0.511 HEAT:  93.83532
 CYCLE:   682 TIME:   0.703 TIME LEFT:  2.00D  GRAD.:     0.252 HEAT:  93.83532
 CYCLE:   683 TIME:   0.910 TIME LEFT:  2.00D  GRAD.:     0.367 HEAT:  93.83532
 CYCLE:   684 TIME:   0.805 TIME LEFT:  2.00D  GRAD.:     0.211 HEAT:  93.83531
 CYCLE:   685 TIME:   1.430 TIME LEFT:  2.00D  GRAD.:     0.186 HEAT:  93.83531
 CYCLE:   686 TIME:   3.211 TIME LEFT:  2.00D  GRAD.:     0.433 HEAT:  93.83529
 CYCLE:   687 TIME:   0.832 TIME LEFT:  2.00D  GRAD.:     0.907 HEAT:  93.83529
 CYCLE:   688 TIME:   0.793 TIME LEFT:  2.00D  GRAD.:     0.378 HEAT:  93.83528
 CYCLE:   689 TIME:   0.953 TIME LEFT:  2.00D  GRAD.:     0.305 HEAT:  93.83528
 CYCLE:   690 TIME:   0.770 TIME LEFT:  2.00D  GRAD.:     0.296 HEAT:  93.83528
 CYCLE:   691 TIME:   0.844 TIME LEFT:  2.00D  GRAD.:     1.247 HEAT:  93.83527
 CYCLE:   692 TIME:   0.934 TIME LEFT:  2.00D  GRAD.:     0.229 HEAT:  93.83526
 CYCLE:   693 TIME:   0.793 TIME LEFT:  2.00D  GRAD.:     0.188 HEAT:  93.83526
 CYCLE:   694 TIME:   0.688 TIME LEFT:  2.00D  GRAD.:     0.454 HEAT:  93.83525
 CYCLE:   695 TIME:   0.809 TIME LEFT:  2.00D  GRAD.:     0.267 HEAT:  93.83524
 CYCLE:   696 TIME:   0.871 TIME LEFT:  2.00D  GRAD.:     0.246 HEAT:  93.83524
 CYCLE:   697 TIME:   1.180 TIME LEFT:  2.00D  GRAD.:     0.827 HEAT:  93.83523
 CYCLE:   698 TIME:   0.957 TIME LEFT:  2.00D  GRAD.:     0.641 HEAT:  93.83523
 CYCLE:   699 TIME:   1.008 TIME LEFT:  2.00D  GRAD.:     0.463 HEAT:  93.83522
 CYCLE:   700 TIME:   0.945 TIME LEFT:  2.00D  GRAD.:     0.382 HEAT:  93.83521
 CYCLE:   701 TIME:   0.875 TIME LEFT:  2.00D  GRAD.:     0.275 HEAT:  93.83521
 CYCLE:   702 TIME:   0.793 TIME LEFT:  2.00D  GRAD.:     0.519 HEAT:  93.83520
 CYCLE:   703 TIME:   0.812 TIME LEFT:  2.00D  GRAD.:     0.831 HEAT:  93.83520
 CYCLE:   704 TIME:   1.105 TIME LEFT:  2.00D  GRAD.:     0.313 HEAT:  93.83520
 CYCLE:   705 TIME:   1.020 TIME LEFT:  2.00D  GRAD.:     0.586 HEAT:  93.83519
 CYCLE:   706 TIME:   0.789 TIME LEFT:  2.00D  GRAD.:     0.215 HEAT:  93.83519
 CYCLE:   707 TIME:   1.027 TIME LEFT:  2.00D  GRAD.:     0.404 HEAT:  93.83519
 CYCLE:   708 TIME:   0.949 TIME LEFT:  2.00D  GRAD.:     0.337 HEAT:  93.83518
 CYCLE:   709 TIME:   0.832 TIME LEFT:  2.00D  GRAD.:     0.801 HEAT:  93.83518
 CYCLE:   710 TIME:   0.801 TIME LEFT:  2.00D  GRAD.:     0.346 HEAT:  93.83517
 CYCLE:   711 TIME:   0.625 TIME LEFT:  2.00D  GRAD.:     0.202 HEAT:  93.83517
 CYCLE:   712 TIME:   0.723 TIME LEFT:  2.00D  GRAD.:     0.360 HEAT:  93.83517
 CYCLE:   713 TIME:   0.617 TIME LEFT:  2.00D  GRAD.:     0.194 HEAT:  93.83517
 CYCLE:   714 TIME:   0.918 TIME LEFT:  2.00D  GRAD.:     0.370 HEAT:  93.83516
 CYCLE:   715 TIME:   1.082 TIME LEFT:  2.00D  GRAD.:     0.232 HEAT:  93.83516
 CYCLE:   716 TIME:   0.906 TIME LEFT:  2.00D  GRAD.:     0.615 HEAT:  93.83516
 CYCLE:   717 TIME:   1.160 TIME LEFT:  2.00D  GRAD.:     0.389 HEAT:  93.83515
 CYCLE:   718 TIME:   0.844 TIME LEFT:  2.00D  GRAD.:     0.410 HEAT:  93.83515
 CYCLE:   719 TIME:   0.988 TIME LEFT:  2.00D  GRAD.:     0.931 HEAT:  93.83514
 CYCLE:   720 TIME:   0.680 TIME LEFT:  2.00D  GRAD.:     0.206 HEAT:  93.83514
 CYCLE:   721 TIME:   0.957 TIME LEFT:  2.00D  GRAD.:     0.219 HEAT:  93.83514
 CYCLE:   722 TIME:   1.012 TIME LEFT:  2.00D  GRAD.:     0.254 HEAT:  93.83513
 CYCLE:   723 TIME:   0.809 TIME LEFT:  2.00D  GRAD.:     0.256 HEAT:  93.83513
 CYCLE:   724 TIME:   0.766 TIME LEFT:  2.00D  GRAD.:     0.235 HEAT:  93.83512
 CYCLE:   725 TIME:   1.031 TIME LEFT:  2.00D  GRAD.:     0.736 HEAT:  93.83512
 CYCLE:   726 TIME:   0.879 TIME LEFT:  2.00D  GRAD.:     0.259 HEAT:  93.83511
 CYCLE:   727 TIME:   0.723 TIME LEFT:  2.00D  GRAD.:     0.198 HEAT:  93.83511
 CYCLE:   728 TIME:   0.969 TIME LEFT:  2.00D  GRAD.:     0.211 HEAT:  93.83511
 CYCLE:   729 TIME:   0.926 TIME LEFT:  2.00D  GRAD.:     0.345 HEAT:  93.83510
 CYCLE:   730 TIME:   0.836 TIME LEFT:  2.00D  GRAD.:     0.373 HEAT:  93.83510
 CYCLE:   731 TIME:   0.879 TIME LEFT:  2.00D  GRAD.:     0.574 HEAT:  93.83510
 CYCLE:   732 TIME:   0.715 TIME LEFT:  2.00D  GRAD.:     0.306 HEAT:  93.83509
 CYCLE:   733 TIME:   0.520 TIME LEFT:  2.00D  GRAD.:     0.222 HEAT:  93.83509
 CYCLE:   734 TIME:   0.781 TIME LEFT:  2.00D  GRAD.:     0.255 HEAT:  93.83509
 CYCLE:   735 TIME:   0.957 TIME LEFT:  2.00D  GRAD.:     0.378 HEAT:  93.83508
 CYCLE:   736 TIME:   0.902 TIME LEFT:  2.00D  GRAD.:     0.284 HEAT:  93.83508
 CYCLE:   737 TIME:   0.816 TIME LEFT:  2.00D  GRAD.:     0.376 HEAT:  93.83508
 CYCLE:   738 TIME:   0.926 TIME LEFT:  2.00D  GRAD.:     0.249 HEAT:  93.83507
 CYCLE:   739 TIME:   0.660 TIME LEFT:  2.00D  GRAD.:     0.546 HEAT:  93.83507
 CYCLE:   740 TIME:   0.895 TIME LEFT:  2.00D  GRAD.:     0.494 HEAT:  93.83507
 CYCLE:   741 TIME:   0.773 TIME LEFT:  2.00D  GRAD.:     0.222 HEAT:  93.83507
 CYCLE:   742 TIME:   0.664 TIME LEFT:  2.00D  GRAD.:     0.216 HEAT:  93.83506
 CYCLE:   743 TIME:   0.820 TIME LEFT:  2.00D  GRAD.:     0.281 HEAT:  93.83506
 CYCLE:   744 TIME:   0.781 TIME LEFT:  2.00D  GRAD.:     0.905 HEAT:  93.83505
 CYCLE:   745 TIME:   0.895 TIME LEFT:  2.00D  GRAD.:     0.447 HEAT:  93.83505
 CYCLE:   746 TIME:   0.719 TIME LEFT:  2.00D  GRAD.:     0.210 HEAT:  93.83504
 CYCLE:   747 TIME:   0.945 TIME LEFT:  2.00D  GRAD.:     0.201 HEAT:  93.83504
 CYCLE:   748 TIME:   0.996 TIME LEFT:  2.00D  GRAD.:     0.436 HEAT:  93.83504
 CYCLE:   749 TIME:   0.922 TIME LEFT:  2.00D  GRAD.:     0.144 HEAT:  93.83504
 CYCLE:   750 TIME:   0.750 TIME LEFT:  2.00D  GRAD.:     0.221 HEAT:  93.83503
 CYCLE:   751 TIME:   1.121 TIME LEFT:  2.00D  GRAD.:     0.243 HEAT:  93.83503
 CYCLE:   752 TIME:   1.086 TIME LEFT:  2.00D  GRAD.:     0.253 HEAT:  93.83503
 CYCLE:   753 TIME:   0.910 TIME LEFT:  2.00D  GRAD.:     0.613 HEAT:  93.83502
 CYCLE:   754 TIME:   1.027 TIME LEFT:  2.00D  GRAD.:     0.935 HEAT:  93.83502
 CYCLE:   755 TIME:   0.758 TIME LEFT:  2.00D  GRAD.:     0.161 HEAT:  93.83502
 CYCLE:   756 TIME:   0.883 TIME LEFT:  2.00D  GRAD.:     0.197 HEAT:  93.83502
 CYCLE:   757 TIME:   0.930 TIME LEFT:  2.00D  GRAD.:     1.622 HEAT:  93.83503
 CYCLE:   758 TIME:   0.930 TIME LEFT:  2.00D  GRAD.:     0.433 HEAT:  93.83501
 CYCLE:   759 TIME:   1.180 TIME LEFT:  2.00D  GRAD.:     0.192 HEAT:  93.83501
 CYCLE:   760 TIME:   0.898 TIME LEFT:  2.00D  GRAD.:     0.208 HEAT:  93.83501
 CYCLE:   761 TIME:   1.121 TIME LEFT:  2.00D  GRAD.:     0.983 HEAT:  93.83501
 CYCLE:   762 TIME:   0.582 TIME LEFT:  2.00D  GRAD.:     0.438 HEAT:  93.83500
 CYCLE:   763 TIME:   0.938 TIME LEFT:  2.00D  GRAD.:     0.269 HEAT:  93.83500
 CYCLE:   764 TIME:   0.883 TIME LEFT:  2.00D  GRAD.:     0.153 HEAT:  93.83500
 CYCLE:   765 TIME:   0.844 TIME LEFT:  2.00D  GRAD.:     0.184 HEAT:  93.83500
 CYCLE:   766 TIME:   0.707 TIME LEFT:  2.00D  GRAD.:     0.229 HEAT:  93.83499
 CYCLE:   767 TIME:   0.723 TIME LEFT:  2.00D  GRAD.:     0.185 HEAT:  93.83499
 CYCLE:   768 TIME:   0.934 TIME LEFT:  2.00D  GRAD.:     0.345 HEAT:  93.83499
 CYCLE:   769 TIME:   0.812 TIME LEFT:  2.00D  GRAD.:     0.287 HEAT:  93.83498
 CYCLE:   770 TIME:   0.668 TIME LEFT:  2.00D  GRAD.:     0.349 HEAT:  93.83498
 CYCLE:   771 TIME:   0.914 TIME LEFT:  2.00D  GRAD.:     0.756 HEAT:  93.83498
 CYCLE:   772 TIME:   0.879 TIME LEFT:  2.00D  GRAD.:     0.237 HEAT:  93.83498
 CYCLE:   773 TIME:   0.781 TIME LEFT:  2.00D  GRAD.:     0.335 HEAT:  93.83497
 CYCLE:   774 TIME:   0.738 TIME LEFT:  2.00D  GRAD.:     0.333 HEAT:  93.83497
 CYCLE:   775 TIME:   1.020 TIME LEFT:  2.00D  GRAD.:     0.333 HEAT:  93.83497
 CYCLE:   776 TIME:   0.574 TIME LEFT:  2.00D  GRAD.:     0.852 HEAT:  93.83496
 CYCLE:   777 TIME:   0.699 TIME LEFT:  2.00D  GRAD.:     0.324 HEAT:  93.83496
 CYCLE:   778 TIME:   1.461 TIME LEFT:  2.00D  GRAD.:     0.205 HEAT:  93.83496
 CYCLE:   779 TIME:   0.750 TIME LEFT:  2.00D  GRAD.:     0.295 HEAT:  93.83495
 CYCLE:   780 TIME:   0.906 TIME LEFT:  2.00D  GRAD.:     0.315 HEAT:  93.83495
 CYCLE:   781 TIME:   0.664 TIME LEFT:  2.00D  GRAD.:     0.367 HEAT:  93.83495
 CYCLE:   782 TIME:   1.016 TIME LEFT:  2.00D  GRAD.:     0.718 HEAT:  93.83495
 CYCLE:   783 TIME:   0.547 TIME LEFT:  2.00D  GRAD.:     0.289 HEAT:  93.83494
 CYCLE:   784 TIME:   0.809 TIME LEFT:  2.00D  GRAD.:     0.188 HEAT:  93.83494
 CYCLE:   785 TIME:   0.828 TIME LEFT:  2.00D  GRAD.:     0.189 HEAT:  93.83494
 CYCLE:   786 TIME:   0.582 TIME LEFT:  2.00D  GRAD.:     0.194 HEAT:  93.83493
 CYCLE:   787 TIME:   0.633 TIME LEFT:  2.00D  GRAD.:     0.224 HEAT:  93.83493
 CYCLE:   788 TIME:   0.754 TIME LEFT:  2.00D  GRAD.:     1.288 HEAT:  93.83493
 CYCLE:   789 TIME:   0.852 TIME LEFT:  2.00D  GRAD.:     3.344 HEAT:  93.83503
 CYCLE:   790 TIME:   0.738 TIME LEFT:  2.00D  GRAD.:     0.444 HEAT:  93.83492
 CYCLE:   791 TIME:   0.602 TIME LEFT:  2.00D  GRAD.:     0.267 HEAT:  93.83492
 CYCLE:   792 TIME:   0.676 TIME LEFT:  2.00D  GRAD.:     1.130 HEAT:  93.83492
 CYCLE:   793 TIME:   0.641 TIME LEFT:  2.00D  GRAD.:     5.550 HEAT:  93.83501
 CYCLE:   794 TIME:   0.746 TIME LEFT:  1.99D  GRAD.:     0.472 HEAT:  93.83492
 CYCLE:   795 TIME:   0.754 TIME LEFT:  1.99D  GRAD.:     0.284 HEAT:  93.83491
 CYCLE:   796 TIME:   0.648 TIME LEFT:  1.99D  GRAD.:     1.897 HEAT:  93.83497
 CYCLE:   797 TIME:   0.629 TIME LEFT:  1.99D  GRAD.:     0.317 HEAT:  93.83491
 CYCLE:   798 TIME:   0.918 TIME LEFT:  1.99D  GRAD.:     0.271 HEAT:  93.83490
 CYCLE:   799 TIME:   0.727 TIME LEFT:  1.99D  GRAD.:     0.323 HEAT:  93.83490
 CYCLE:   800 TIME:   0.785 TIME LEFT:  1.99D  GRAD.:     0.203 HEAT:  93.83490
 CYCLE:   801 TIME:   0.672 TIME LEFT:  1.99D  GRAD.:     0.429 HEAT:  93.83490
 CYCLE:   802 TIME:   0.719 TIME LEFT:  1.99D  GRAD.:     0.161 HEAT:  93.83490
 CYCLE:   803 TIME:   0.824 TIME LEFT:  1.99D  GRAD.:     0.404 HEAT:  93.83490
 CYCLE:   804 TIME:   0.672 TIME LEFT:  1.99D  GRAD.:     0.112 HEAT:  93.83490
 CYCLE:   805 TIME:   0.711 TIME LEFT:  1.99D  GRAD.:     0.196 HEAT:  93.83489
 CYCLE:   806 TIME:   0.723 TIME LEFT:  1.99D  GRAD.:     0.144 HEAT:  93.83489
 CYCLE:   807 TIME:   0.648 TIME LEFT:  1.99D  GRAD.:     0.186 HEAT:  93.83489
 CYCLE:   808 TIME:   0.598 TIME LEFT:  1.99D  GRAD.:     1.279 HEAT:  93.83489
 CYCLE:   809 TIME:   0.914 TIME LEFT:  1.99D  GRAD.:     0.155 HEAT:  93.83488
 CYCLE:   810 TIME:   0.781 TIME LEFT:  1.99D  GRAD.:     0.181 HEAT:  93.83488
 CYCLE:   811 TIME:   0.895 TIME LEFT:  1.99D  GRAD.:     0.697 HEAT:  93.83488
 CYCLE:   812 TIME:   0.812 TIME LEFT:  1.99D  GRAD.:     0.147 HEAT:  93.83488
 CYCLE:   813 TIME:   0.891 TIME LEFT:  1.99D  GRAD.:     0.170 HEAT:  93.83488
 CYCLE:   814 TIME:   0.758 TIME LEFT:  1.99D  GRAD.:     0.125 HEAT:  93.83488
 CYCLE:   815 TIME:   0.758 TIME LEFT:  1.99D  GRAD.:     0.153 HEAT:  93.83488
 CYCLE:   816 TIME:   0.883 TIME LEFT:  1.99D  GRAD.:     0.174 HEAT:  93.83487
 CYCLE:   817 TIME:   0.348 TIME LEFT:  1.99D  GRAD.:     0.216 HEAT:  93.83487
 CYCLE:   818 TIME:   0.762 TIME LEFT:  1.99D  GRAD.:     0.727 HEAT:  93.83487
 CYCLE:   819 TIME:   0.879 TIME LEFT:  1.99D  GRAD.:     0.159 HEAT:  93.83487
[...]
   14          C          -0.053753        4.0538     1.17717     2.87658
   15          C          -0.163364        4.1634     1.17225     2.99111
   16          C           0.120582        3.8794     1.15161     2.72781
   17          N          -0.255048        5.2550     1.48019     3.77486
   18          C           0.124642        3.8754     1.14324     2.73211
   19          C          -0.141550        4.1416     1.18248     2.95907
   20          C          -0.065110        4.0651     1.17226     2.89285
   21          C          -0.036429        4.0364     1.16276     2.87367
   22          C          -0.044326        4.0443     1.18627     2.85805
   23          C          -0.133374        4.1334     1.17804     2.95533
   24          C           0.058146        3.9419     1.16926     2.77259
   25          C          -0.106946        4.1069     1.16729     2.93965
   26          C          -0.181830        4.1818     1.15520     3.02663
   27          C          -0.109316        4.1093     1.16713     2.94218
   28          C          -0.183666        4.1837     1.15660     3.02707
   29          C          -0.036292        4.0363     1.18486     2.85143
   30          C          -0.049238        4.0492     1.16264     2.88660
   31          C          -0.061168        4.0612     1.17179     2.88938
   32          C          -0.147271        4.1473     1.18251     2.96476
   33          C           0.139204        3.8608     1.14343     2.71737
   34          C          -0.133115        4.1331     1.17749     2.95563
   35          N          -0.265155        5.2652     1.47997     3.78519
   36          C           0.124494        3.8755     1.15128     2.72423
   37          C          -0.170534        4.1705     1.17189     2.99865
   38          C          -0.053309        4.0533     1.17644     2.87687
   39          C          -0.157867        4.1579     1.17825     2.97962
   40          C          -0.035178        4.0352     1.16950     2.86568
   41          C          -0.091331        4.0913     1.15901     2.93232
   42          C          -0.091196        4.0912     1.15913     2.93207
   43          C           0.125749        3.8743     1.15093     2.72332
   44          C          -0.172533        4.1725     1.17164     3.00089
   45          C          -0.053309        4.0533     1.17620     2.87711
   46          C          -0.158494        4.1585     1.17818     2.98031
   47          C          -0.034663        4.0347     1.16953     2.86513
   51          H           0.132619        0.8674     0.86738
   52          H           0.115510        0.8845     0.88449
   53          H           0.133925        0.8661     0.86607
   54          H           0.114079        0.8859     0.88592
   55          H           0.109613        0.8904     0.89039
   56          H           0.111124        0.8889     0.88888
   57          H           0.104412        0.8956     0.89559
   58          H           0.125319        0.8747     0.87468
   59          H           0.131613        0.8684     0.86839
   60          H           0.117561        0.8824     0.88244
   61          H           0.138569        0.8614     0.86143
   62          H           0.067797        0.9322     0.93220
   63          H           0.070984        0.9290     0.92902
   64          H           0.059230        0.9408     0.94077
   65          H           0.062415        0.9376     0.93758
   66          H           0.065315        0.9347     0.93468
   67          H           0.071121        0.9289     0.92888
   68          H           0.072870        0.9271     0.92713
   69          H           0.062714        0.9373     0.93729
   70          H           0.061836        0.9382     0.93816
   71          H           0.063163        0.9368     0.93684
   72          H           0.115093        0.8849     0.88491
   73          H           0.130642        0.8694     0.86936
   74          H           0.135883        0.8641     0.86412
   75          H           0.123195        0.8768     0.87680
   76          H           0.101694        0.8983     0.89831
   77          H           0.108617        0.8914     0.89138
   78          H           0.108093        0.8919     0.89191
   79          H           0.122269        0.8777     0.87773
   80          H           0.101011        0.8990     0.89899
   81          H           0.108540        0.8915     0.89146
   82          H           0.108221        0.8918     0.89178
 DIPOLE           X         Y         Z       TOTAL
 POINT-CHG.     0.684     4.287     0.160     4.345
 HYBRID         0.643    -0.647    -0.108     0.919
 SUM            1.327     3.641     0.052     3.876


          ATOMIC ORBITAL ELECTRON POPULATIONS

     Atom    s        px        py        pz   
    1  N   1.84805   1.11297   1.08796   1.10074
    2  C   1.19509   0.91170   0.91944   0.92122
    3  C   1.14250   0.89000   0.93439   1.17709
    4  C   1.18549   0.99601   0.91067   0.80511
    5  C   1.16242   1.02871   0.94387   1.03805
    6  C   1.17561   0.91961   0.95841   0.95599
    7  C   1.17312   1.04677   0.94419   1.01627
    8  C   1.15221   0.93007   0.81688   0.94497
    9  C   1.15903   1.00035   0.94712   1.00261
   10  C   1.16786   0.96015   0.90958   0.95225
   11  C   1.15806   0.99926   0.92853   1.00142
   12  C   1.16969   0.96294   0.96204   0.94228
   13  C   1.17879   1.00800   0.94654   1.01746
   14  C   1.17717   0.94302   0.98204   0.95152
   15  C   1.17225   1.02744   0.95786   1.00582
   16  C   1.15161   0.90853   0.93887   0.88040
   17  N   1.48019   1.31806   1.11459   1.34221
   18  C   1.14324   0.85564   0.92274   0.95373
   19  C   1.18248   0.92382   1.01716   1.01809
   20  C   1.17226   0.98376   0.94251   0.96657
   21  C   1.16276   0.94213   0.94467   0.98688
   22  C   1.18627   0.93628   0.95594   0.96584
   23  C   1.17804   1.00109   0.95884   0.99540
   24  C   1.16926   0.91738   0.91596   0.93925
   25  C   1.16729   1.03470   0.93694   0.96800
   26  C   1.15520   1.03388   0.96279   1.02995
   27  C   1.16713   0.93660   1.04081   0.96476
   28  C   1.15660   0.96456   1.03237   1.03014
   29  C   1.18486   0.95135   0.93994   0.96014
   30  C   1.16264   0.94230   0.94937   0.99493
   31  C   1.17179   0.94288   0.98152   0.96498
   32  C   1.18251   1.00255   0.95758   1.00464
   33  C   1.14343   0.90600   0.88647   0.92490
   34  C   1.17749   0.94033   1.00936   1.00594
   35  N   1.47997   1.52375   1.06310   1.19833
   36  C   1.15128   0.94224   0.94626   0.83572
   37  C   1.17189   1.05587   0.96439   0.97839
   38  C   1.17644   0.95946   0.97251   0.94491
   39  C   1.17825   1.03685   0.93570   1.00706
   40  C   1.16950   0.95979   0.97291   0.93298
   41  C   1.15901   1.04558   0.91952   0.96722
   42  C   1.15913   1.04136   0.93560   0.95511
   43  C   1.15093   0.97464   0.79530   0.95338
   44  C   1.17164   1.06678   0.95024   0.98387
   45  C   1.17620   0.96634   0.93922   0.97155
   46  C   1.17818   1.02606   0.99475   0.95950
   47  C   1.16953   0.96971   0.92385   0.97157
   48  C   1.18096   0.84495   0.85024   0.72211
   49  O   1.91034   1.15871   1.85515   1.45360
   50  O   1.83996   1.42141   1.18626   1.86382
   51  H   0.86738
   52  H   0.88449
   53  H   0.86607
   54  H   0.88592
   55  H   0.89039
   56  H   0.88888
   57  H   0.89559
   58  H   0.87468
   59  H   0.86839
   60  H   0.88244
   61  H   0.86143
   62  H   0.93220
   63  H   0.92902
   64  H   0.94077
   65  H   0.93758
   66  H   0.93468
   67  H   0.92888
   68  H   0.92713
   69  H   0.93729
   70  H   0.93816
   71  H   0.93684
   72  H   0.88491
   73  H   0.86936
   74  H   0.86412
   75  H   0.87680
   76  H   0.89831
   77  H   0.89138
   78  H   0.89191
   79  H   0.87773
   80  H   0.89899
   81  H   0.89146
   82  H   0.89178
   83  H   0.75547
 ******************** TDHF POLARIZABILITIES ********************



          MOLECULAR WEIGHT =  647.77



          ROTATIONAL CONSTANTS IN CM(-1)

          A =    0.00402714   B =    0.00069164   C =    0.00061203



           PRINCIPAL MOMENTS OF INERTIA IN UNITS OF 10**(-40)*GRAM-CM**2

          A =     6951.0299   B =    40473.1585   C =    45737.8170


 ROTATION MATRIX FOR ORIENTATION OF MOLECULE:

         0.505246    0.475401    0.720222
        -0.756256    0.645931    0.104162
        -0.415695   -0.597300    0.685879


          CARTESIAN COORDINATES 

    NO.       ATOM         X         Y         Z

     1         N        7.2471   -3.5028   -1.6634
     2         C        7.8314   -2.9531   -0.8305
     3         C        8.5592   -2.2888    0.1891
     4         C        8.0986   -1.1897    0.8147
     5         C        6.7940   -0.6122    0.5462
     6         C        5.6596   -1.4344    0.4705
     7         C        4.4056   -0.9107    0.2077
     8         C        4.3152    0.4658    0.0103
     9         C        5.4567    1.3113    0.1182
    10         C        6.6973    0.7703    0.3938
    11         C        5.0066    2.6629   -0.1012
    12         C        5.6646    3.8821   -0.1206
    13         C        4.9244    5.0250   -0.3847
    14         C        3.5502    4.9554   -0.6360
    15         C        2.8666    3.7491   -0.6232
    16         C        3.6076    2.6058   -0.3411
    17         N        3.1907    1.2590   -0.2647
    18         C        1.8714    0.7863   -0.4742
    19         C        1.6537   -0.2609   -1.3697
    20         C        0.3591   -0.7416   -1.5705
    21         C       -0.6791   -0.1491   -0.8830
    22         C       -0.4530    0.9168    0.0106
    23         C        0.8178    1.3912    0.2330
    24         C       -1.7596    1.4072    0.6019
    25         C       -1.9828    2.8377    0.1052
    26         C       -3.3029    3.4455    0.5393
    27         C       -1.7701    1.2564    2.1241
    28         C       -0.9346    2.2966    2.8494
    29         C       -2.7528    0.4399   -0.0095
    30         C       -2.0990   -0.4497   -0.8884
    31         C       -2.7877   -1.4349   -1.5633
    32         C       -4.1604   -1.5557   -1.3485
    33         C       -4.7981   -0.6988   -0.4509
    34         C       -4.1013    0.3159    0.2323
    35         N       -6.1816   -0.8673   -0.2060
    36         C       -6.8099   -2.0796    0.1471
    37         C       -6.2560   -3.3399    0.3493
    38         C       -7.1242   -4.3605    0.7062
    39         C       -8.4956   -4.1376    0.8649
    40         C       -9.0437   -2.8768    0.6787
    41         C       -8.1996   -1.8385    0.3209
    42         C       -8.4252   -0.4380    0.0653
    43         C       -7.1674    0.1384   -0.2606
    44         C       -7.0467    1.4817   -0.6018
    45         C       -8.2038    2.2454   -0.5802
    46         C       -9.4428    1.6929   -0.2413
    47         C       -9.5654    0.3482    0.0776
    48         C        9.8828   -2.8230    0.5365
    49         O       10.6656   -2.3542    1.3507
    50         O       10.2160   -3.9428   -0.1362
    51         H        8.7175   -0.6725    1.5636
    52         H        5.7560   -2.5115    0.6465
    53         H        3.5230   -1.5535    0.1669
    54         H        7.5756    1.4169    0.4767
    55         H        6.7402    3.9317    0.0663
    56         H        5.4218    5.9989   -0.4027
    57         H        3.0011    5.8777   -0.8516
    58         H        1.7973    3.7012   -0.8398
    59         H        2.4857   -0.7041   -1.9273
    60         H        0.1775   -1.5663   -2.2647
    61         H        0.9992    2.1938    0.9592
    62         H       -1.1392    3.4824    0.4336
    63         H       -1.9168    2.8541   -1.0054
    64         H       -3.3291    4.5273    0.3352
    65         H       -4.1590    3.0181   -0.0009
    66         H       -3.5084    3.3321    1.6122
    67         H       -2.8120    1.2843    2.5086
    68         H       -1.4136    0.2362    2.3870
    69         H       -1.3772    3.3024    2.8150
    70         H       -0.8261    2.0481    3.9161
    71         H        0.0870    2.3840    2.4460
    72         H       -2.2737   -2.1107   -2.2517
    73         H       -4.7269   -2.3208   -1.8895
    74         H       -4.6208    0.9594    0.9487
    75         H       -5.1841   -3.5192    0.2450
    76         H       -6.7258   -5.3668    0.8704
    77         H       -9.1436   -4.9729    1.1443
    78         H      -10.1135   -2.6967    0.8101
    79         H       -6.0869    1.9130   -0.8913
    80         H       -8.1471    3.3075   -0.8388
    81         H      -10.3292    2.3331   -0.2341
    82         H      -10.5337   -0.0899    0.3317
    83         H       11.0949   -4.2558    0.1225


 ENERGY OF "REORIENTED" SYSTEM WITHOUT FIELD:       93.8348616152


  NFREQ=  3  IWFLB=  0  IBET=  1  IGAM=  1
  ATOL= 0.10000D-02  BTOL= 0.10000D-02    MAXITU=  500    MAXITA=  150


 *****************************************************************
 CALCULATION OF STATIC FIELD QUANTITIES
 *****************************************************************

 +++++ ALPHA AT       0.00000 EV.

                           COMPONENTS OF ALPHA

                     *X           *Y           *Z
           *=X:     734.4527     -18.5256       0.6501
           *=Y:     -18.5184     542.9855      15.4646
           *=Z:       0.6253      15.4676     189.6306

  ISOTROPIC AVERAGE ALPHA =     489.02292 A.U. =     72.46572 ANG.**3

 +++++ BETA (SECOND HARMONIC GENERATION) AT       0.00000 EV.

                              COMPONENTS OF BETA
            *XX         *XY         *YY         *XZ         *YZ         *ZZ
   *=X -3393.87500  1941.78836  -777.56544    33.65237   218.56305    20.58604
   *=Y  1941.86301  -777.90541    43.38466   218.64044  -212.59331    53.34468
   *=Z    33.95553   218.24136  -212.67928    20.63131    53.31595    20.28079


 AVERAGE BETAX(SHG) VALUE AT   0.00000 EV =      -2490.6305 a.u. = -0.215176E-28 ESU
 AVERAGE BETAY(SHG) VALUE AT   0.00000 EV =       1223.1141 a.u. =  0.105670E-28 ESU
 AVERAGE BETAZ(SHG) VALUE AT   0.00000 EV =        -95.1527 a.u. = -0.822064E-30 ESU



 AVERAGE BETA (SHG) VALUE AT   0.00000 EV =       2776.3830 a.u. =  0.239863E-28 ESU
   (1 a.u. = 8.639418X10-33 esu)



 +++++ ALPHA AT       0.00000 EV.

                           COMPONENTS OF ALPHA

                     *X           *Y           *Z
           *=X:     734.4527     -18.5256       0.6501
           *=Y:     -18.5184     542.9855      15.4646
           *=Z:       0.6253      15.4676     189.6306

  ISOTROPIC AVERAGE ALPHA =     489.02292 A.U. =     72.46572 ANG.**3


 GAMMA (THIRD HARMONIC GENERATION) AT    0.00000 EV.


 GAMMA(X,X,X,X) =       1900361.56440
 GAMMA(Y,Y,Y,Y) =        202226.41355
 GAMMA(Z,Z,Z,Z) =          8474.66910
 GAMMA(X,X,Y,Y) =        226125.35838
 GAMMA(X,X,Z,Z) =          8520.90498
 GAMMA(Y,Y,X,X) =        226125.20200
 GAMMA(Y,Y,Z,Z) =         12376.83945
 GAMMA(Z,Z,X,X) =          8520.91282
 GAMMA(Z,Z,Y,Y) =         12376.83533


 AVERAGE GAMMA VALUE AT    0.00000 =        521021.74001 a.u. =       262423.15421 ESU (X10-39)




 **********************************************************************
 CALCULATION FOR A FREQUENCY OF    0.25000 EV  =       0.00919 A.U. 
                  WAVELENGTH OF    4959.37 NM  =    2016.38525 CM(-1)
 **********************************************************************

 +++++ ALPHA AT       0.25000 EV.

                           COMPONENTS OF ALPHA

                     *X           *Y           *Z
           *=X:     737.0074     -18.6589       0.6063
           *=Y:     -18.6527     544.2203      15.4242
           *=Z:       0.5856      15.4265     189.8426

  ISOTROPIC AVERAGE ALPHA =     490.35679 A.U. =     72.66338 ANG.**3

 +++++ BETA (SECOND HARMONIC GENERATION) AT       0.25000 EV.

                              COMPONENTS OF BETA
            *XX         *XY         *YY         *XZ         *YZ         *ZZ
   *=X -3526.08951  2015.06301  -809.95148    34.25818   225.16456    20.79903
   *=Y  2010.13736  -818.55187    53.12536   225.20024  -217.34494    54.32783
   *=Z    38.58215   220.58758  -215.57384    20.57473    54.17628    20.48389


 AVERAGE BETAX(SHG) VALUE AT   0.25000 EV =      -2592.6751 a.u. = -0.223992E-28 ESU
 AVERAGE BETAY(SHG) VALUE AT   0.25000 EV =       1272.4640 a.u. =  0.109933E-28 ESU
 AVERAGE BETAZ(SHG) VALUE AT   0.25000 EV =        -96.3427 a.u. = -0.832345E-30 ESU



 AVERAGE BETA (SHG) VALUE AT   0.25000 EV =       2889.7077 a.u. =  0.249654E-28 ESU
   (1 a.u. = 8.639418X10-33 esu)



 +++++ ALPHA AT       0.75000 EV.

                           COMPONENTS OF ALPHA

                     *X           *Y           *Z
           *=X:     758.6278     -19.7816       0.2704
           *=Y:     -19.7750     554.4282      15.0755
           *=Z:       0.2461      15.0774     191.5629

  ISOTROPIC AVERAGE ALPHA =     501.53961 A.U. =     74.32050 ANG.**3


 GAMMA (THIRD HARMONIC GENERATION) AT    0.25000 EV.


 GAMMA(X,X,X,X) =       2087635.15197
 GAMMA(Y,Y,Y,Y) =        214521.83247
 GAMMA(Z,Z,Z,Z) =          8646.61074
 GAMMA(X,X,Y,Y) =        247489.61113
 GAMMA(X,X,Z,Z) =          8493.10827
 GAMMA(Y,Y,X,X) =        247489.82006
 GAMMA(Y,Y,Z,Z) =         12982.63365
 GAMMA(Z,Z,X,X) =          9075.08559
 GAMMA(Z,Z,Y,Y) =         12833.50794


 AVERAGE GAMMA VALUE AT    0.25000 =        569833.47236 a.u. =       287008.17204 ESU (X10-39)




 **********************************************************************
 CALCULATION FOR A FREQUENCY OF    0.50000 EV  =       0.01837 A.U. 
                  WAVELENGTH OF    2479.68 NM  =    4032.77050 CM(-1)
 **********************************************************************

 +++++ ALPHA AT       0.50000 EV.

                           COMPONENTS OF ALPHA

                     *X           *Y           *Z
           *=X:     744.8580     -19.0702       0.4838
           *=Y:     -19.0636     547.9753      15.2977
           *=Z:       0.4631      15.2996     190.4811

  ISOTROPIC AVERAGE ALPHA =     494.43813 A.U. =     73.26817 ANG.**3

 +++++ BETA (SECOND HARMONIC GENERATION) AT       0.50000 EV.

                              COMPONENTS OF BETA
            *XX         *XY         *YY         *XZ         *YZ         *ZZ
   *=X -3980.83777  2266.64537  -920.77303    36.41676   247.79248    21.44813
   *=Y  2239.44076  -958.40227    87.07929   247.66361  -232.82497    57.53655
   *=Z    55.26085   227.58116  -224.63480    20.31849    56.89668    21.12510


 AVERAGE BETAX(SHG) VALUE AT   0.50000 EV =      -2943.6012 a.u. = -0.254310E-28 ESU
 AVERAGE BETAY(SHG) VALUE AT   0.50000 EV =       1441.0599 a.u. =  0.124499E-28 ESU
 AVERAGE BETAZ(SHG) VALUE AT   0.50000 EV =        -99.7630 a.u. = -0.861894E-30 ESU



 AVERAGE BETA (SHG) VALUE AT   0.50000 EV =       3278.9318 a.u. =  0.283281E-28 ESU
   (1 a.u. = 8.639418X10-33 esu)



 +++++ ALPHA AT       1.50000 EV.

                           COMPONENTS OF ALPHA

                     *X           *Y           *Z
           *=X:     853.7408     -24.2346      -1.2754
           *=Y:     -24.2245     594.3148      13.5991
           *=Z:      -1.3202      13.6012     197.8535

  ISOTROPIC AVERAGE ALPHA =     548.63637 A.U. =     81.29952 ANG.**3


 GAMMA (THIRD HARMONIC GENERATION) AT    0.50000 EV.


 GAMMA(X,X,X,X) =       2891783.73113
 GAMMA(Y,Y,Y,Y) =        260171.15181
 GAMMA(Z,Z,Z,Z) =          9213.42019
 GAMMA(X,X,Y,Y) =        337140.15542
 GAMMA(X,X,Z,Z) =          7730.65132
 GAMMA(Y,Y,X,X) =        334486.96101
 GAMMA(Y,Y,Z,Z) =         15145.61246
 GAMMA(Z,Z,X,X) =         11236.05963
 GAMMA(Z,Z,Y,Y) =         14419.46379


 AVERAGE GAMMA VALUE AT    0.50000 =        776265.44135 a.u. =       390981.81511 ESU (X10-39)



 **********************
 *                    *
 * JOB ENDED NORMALLY *
 *                    *
 **********************



 TOTAL JOB TIME:           882.32 SECONDS

 == MOPAC DONE ==
