 *******************************************************************************
 ** Site#: 4824         For non-commercial use only    Version 21.013L 64BITS **
 *******************************************************************************
 ** Cite this program as: MOPAC2016, Version: 21.013L, James J. P. Stewart,   **
 ** Stewart Computational Chemistry, web: HTTP://OpenMOPAC.net. Days left:  87**
 *******************************************************************************
 **                                                                           **
 **                                MOPAC2016                                  **
 **                                                                           **
 *******************************************************************************

                              RM1 CALCULATION RESULTS

 *******************************************************************************
 *  CALCULATION DONE:                                Mon Oct 18 11:15:43 2021  *
 *  RM1        - The RM1 Hamiltonian to be used
 *  POLAR      - CALCULATE FIRST, SECOND AND THIRD-ORDER POLARIZABILITIES
 *  PRECISE    - TIGHTER CRITERIA TO BE USED
 *  XYZ        - CARTESIAN COORDINATE SYSTEM TO BE USED
 *  T=         - A TIME OF 172800.0 SECONDS REQUESTED
 *  DUMP=N     - RESTART FILE WRITTEN EVERY 7200.0 SECONDS REQUESTED
 *  GNORM      - EXIT WHEN GRADIENT NORM DROPS BELOW 0.100
 *******************************************************************************
RM1 PRECISE POLAR XYZ GNORM=0.1


   ATOM   CHEMICAL          X               Y               Z
  NUMBER   SYMBOL      (ANGSTROMS)     (ANGSTROMS)     (ANGSTROMS)
 
     1       N          0.00000000  *   0.00000000  *   0.00000000  *
     2       C          1.15568268  *   0.00000000  *   0.00000000  *
     3       C          2.57527199  *   0.00672882  *   0.00000000  *
     4       C          3.29072664  *  -1.13353323  *  -0.00382977  *
     5       C          2.69440592  *  -2.44407195  *   0.01924807  *
     6       C          2.86010484  *  -3.40822685  *  -0.93600448  *
     7       C          2.12822730  *  -4.60196770  *  -0.64219877  *
     8       C          1.45142654  *  -4.53002709  *   0.53522631  *
     9       S          1.70003617  *  -2.99741620  *   1.29265197  *
    10       C          0.59786625  *  -5.53607557  *   1.12710244  *
    11       C          1.01755455  *  -6.20644667  *   2.27542053  *
    12       C          0.21506982  *  -7.19699090  *   2.82977638  *
    13       C         -1.00856109  *  -7.51484619  *   2.23664093  *
    14       C         -1.43897845  *  -6.84056302  *   1.08596827  *
    15       C         -0.62988803  *  -5.84218197  *   0.53470753  *
    16       N         -1.79749588  *  -8.55605744  *   2.78173607  *
    17       C         -1.41175255  *  -9.90645289  *   2.88051944  *
    18       C         -0.23341798  * -10.53570284  *   2.49308908  *
    19       C         -0.13740536  * -11.90077103  *   2.71529753  *
    20       C         -1.16799721  * -12.63637801  *   3.30955349  *
    21       C         -2.36274874  * -12.00341625  *   3.65693547  *
    22       C         -2.48394577  * -10.63814883  *   3.44984495  *
    23       C         -3.56123127  *  -9.70944294  *   3.69679373  *
    24       C         -3.10565905  *  -8.43553579  *   3.27196219  *
    25       C         -3.91630256  *  -7.31859069  *   3.41342929  *
    26       C         -5.17347834  *  -7.51344294  *   3.95935700  *
    27       C         -5.63263760  *  -8.78451199  *   4.34524514  *
    28       C         -4.82855927  *  -9.86841891  *   4.24175930  *
    29       C         -6.99956229  *  -8.92997050  *   4.95814359  *
    30       C         -7.55905289  * -10.34797555  *   4.77057561  *
    31       C         -7.99437098  *  -7.95446445  *   4.31288798  *
    32       C         -6.87561743  *  -8.62544489  *   6.45576762  *
    33       C         -1.04863979  * -14.12082800  *   3.54679324  *
    34       C          0.41621322  * -14.56445225  *   3.66132506  *
    35       C         -1.75412217  * -14.51821590  *   4.85374556  *
    36       C         -1.70774180  * -14.84351377  *   2.36538926  *
    37       C          3.25625005  *   1.30815279  *  -0.04452034  *
    38       O          4.46712080  *   1.43932719  *   0.08227907  *
    39       O          2.48528297  *   2.38829385  *  -0.23631267  *
    40       H          4.39486854  *  -1.10116620  *  -0.06153326  *
    41       H          3.46950013  *  -3.27218069  *  -1.83250180  *
    42       H          2.13161415  *  -5.45962913  *  -1.31870712  *
    43       H          1.98198241  *  -5.95086851  *   2.73366756  *
    44       H          0.54405373  *  -7.73332490  *   3.73162526  *
    45       H         -2.39539898  *  -7.10053233  *   0.61080193  *
    46       H         -0.95782086  *  -5.31253417  *  -0.37007130  *
    47       H          0.59045737  *  -9.97780572  *   2.03408696  *
    48       H          0.79671620  * -12.38951528  *   2.40639419  *
    49       H         -3.20374724  * -12.57133990  *   4.07787613  *
    50       H         -3.57531131  *  -6.32157379  *   3.11284446  *
    51       H         -5.80719718  *  -6.62542612  *   4.09320838  *
    52       H         -5.15100905  * -10.86351913  *   4.57505384  *
    53       H         -7.55149654  * -10.63612707  *   3.71023253  *
    54       H         -6.97874518  * -11.09372980  *   5.33338179  *
    55       H         -8.59628105  * -10.41616601  *   5.12881820  *
    56       H         -7.99954232  *  -8.06702908  *   3.22004582  *
    57       H         -9.01716949  *  -8.13202252  *   4.67528581  *
    58       H         -7.75269632  *  -6.90756973  *   4.54660735  *
    59       H         -7.84649693  *  -8.72297317  *   6.96128335  *
    60       H         -6.17088719  *  -9.31523696  *   6.94108469  *
    61       H         -6.50959455  *  -7.60252462  *   6.62243314  *
    62       H          0.95195483  * -14.45296078  *   2.70789773  *
    63       H          0.94593644  * -13.97724432  *   4.42416308  *
    64       H          0.48921797  * -15.62460769  *   3.94376900  *
    65       H         -2.84431427  * -14.38366730  *   4.78818475  *
    66       H         -1.57739246  * -15.57611500  *   5.09535131  *
    67       H         -1.38706383  * -13.91461829  *   5.69521693  *
    68       H         -1.21145641  * -14.58529146  *   1.41942412  *
    69       H         -1.65324521  * -15.93410076  *   2.48900927  *
    70       H         -2.76745208  * -14.56698443  *   2.27273731  *
    71       H          2.93646763  *   3.24299331  *  -0.27683443  *
 


          CARTESIAN COORDINATES 

    NO.       ATOM           X           Y           Z

     1         N          0.0000      0.0000      0.0000
     2         C          1.1557      0.0000      0.0000
     3         C          2.5753      0.0067      0.0000
     4         C          3.2907     -1.1335     -0.0038
     5         C          2.6944     -2.4441      0.0192
     6         C          2.8601     -3.4082     -0.9360
     7         C          2.1282     -4.6020     -0.6422
     8         C          1.4514     -4.5300      0.5352
     9         S          1.7000     -2.9974      1.2927
    10         C          0.5979     -5.5361      1.1271
    11         C          1.0176     -6.2064      2.2754
    12         C          0.2151     -7.1970      2.8298
    13         C         -1.0086     -7.5148      2.2366
    14         C         -1.4390     -6.8406      1.0860
    15         C         -0.6299     -5.8422      0.5347
    16         N         -1.7975     -8.5561      2.7817
    17         C         -1.4118     -9.9065      2.8805
    18         C         -0.2334    -10.5357      2.4931
    19         C         -0.1374    -11.9008      2.7153
    20         C         -1.1680    -12.6364      3.3096
    21         C         -2.3627    -12.0034      3.6569
    22         C         -2.4839    -10.6381      3.4498
    23         C         -3.5612     -9.7094      3.6968
    24         C         -3.1057     -8.4355      3.2720
    25         C         -3.9163     -7.3186      3.4134
    26         C         -5.1735     -7.5134      3.9594
    27         C         -5.6326     -8.7845      4.3452
    28         C         -4.8286     -9.8684      4.2418
    29         C         -6.9996     -8.9300      4.9581
    30         C         -7.5591    -10.3480      4.7706
    31         C         -7.9944     -7.9545      4.3129
    32         C         -6.8756     -8.6254      6.4558
    33         C         -1.0486    -14.1208      3.5468
    34         C          0.4162    -14.5645      3.6613
    35         C         -1.7541    -14.5182      4.8537
    36         C         -1.7077    -14.8435      2.3654
    37         C          3.2563      1.3082     -0.0445
    38         O          4.4671      1.4393      0.0823
    39         O          2.4853      2.3883     -0.2363
    40         H          4.3949     -1.1012     -0.0615
    41         H          3.4695     -3.2722     -1.8325
    42         H          2.1316     -5.4596     -1.3187
    43         H          1.9820     -5.9509      2.7337
    44         H          0.5441     -7.7333      3.7316
    45         H         -2.3954     -7.1005      0.6108
    46         H         -0.9578     -5.3125     -0.3701
    47         H          0.5905     -9.9778      2.0341
    48         H          0.7967    -12.3895      2.4064
    49         H         -3.2037    -12.5713      4.0779
    50         H         -3.5753     -6.3216      3.1128
    51         H         -5.8072     -6.6254      4.0932
    52         H         -5.1510    -10.8635      4.5751
    53         H         -7.5515    -10.6361      3.7102
    54         H         -6.9787    -11.0937      5.3334
    55         H         -8.5963    -10.4162      5.1288
    56         H         -7.9995     -8.0670      3.2200
    57         H         -9.0172     -8.1320      4.6753
    58         H         -7.7527     -6.9076      4.5466
    59         H         -7.8465     -8.7230      6.9613
    60         H         -6.1709     -9.3152      6.9411
    61         H         -6.5096     -7.6025      6.6224
    62         H          0.9520    -14.4530      2.7079
    63         H          0.9459    -13.9772      4.4242
    64         H          0.4892    -15.6246      3.9438
    65         H         -2.8443    -14.3837      4.7882
    66         H         -1.5774    -15.5761      5.0954
    67         H         -1.3871    -13.9146      5.6952
    68         H         -1.2115    -14.5853      1.4194
    69         H         -1.6532    -15.9341      2.4890
    70         H         -2.7675    -14.5670      2.2727
    71         H          2.9365      3.2430     -0.2768

  H: (RM1): G.B. ROCHA, R.O. FREIRE, A.M.SIMAS, J.J.P. STEWART, J. COMP. CHEM. 27, 1101 (2006)
  C: (RM1): G.B. ROCHA, R.O. FREIRE, A.M.SIMAS, J.J.P. STEWART, J. COMP. CHEM. 27, 1101 (2006)
  N: (RM1): G.B. ROCHA, R.O. FREIRE, A.M.SIMAS, J.J.P. STEWART, J. COMP. CHEM. 27, 1101 (2006)
  O: (RM1): G.B. ROCHA, R.O. FREIRE, A.M.SIMAS, J.J.P. STEWART, J. COMP. CHEM. 27, 1101 (2006)
  S: (RM1): G.B. ROCHA, R.O. FREIRE, A.M.SIMAS, J.J.P. STEWART, J. COMP. CHEM. 27, 1101 (2006)

           Empirical Formula: C34 H32 N2 O2 S  =    71 atoms



      MOLECULAR POINT GROUP   :   C1  


      RHF CALCULATION, NO. OF DOUBLY OCCUPIED LEVELS = 98


          Geometry optimization using L-BFGS
 CYCLE:     1 TIME:   0.141 TIME LEFT:  2.00D  GRAD.:    84.582 HEAT:  23.20463
 CYCLE:     2 TIME:   0.094 TIME LEFT:  2.00D  GRAD.:    82.460 HEAT:  23.13397
 CYCLE:     3 TIME:   0.098 TIME LEFT:  2.00D  GRAD.:    24.547 HEAT:  21.34230
 CYCLE:     4 TIME:   0.102 TIME LEFT:  2.00D  GRAD.:    82.621 HEAT:  23.13395
 CYCLE:     5 TIME:   0.074 TIME LEFT:  2.00D  GRAD.:    24.499 HEAT:  21.34116
 CYCLE:     6 TIME:   0.098 TIME LEFT:  2.00D  GRAD.:    23.764 HEAT:  21.06447
 CYCLE:     7 TIME:   0.105 TIME LEFT:  2.00D  GRAD.:    38.767 HEAT:  20.76311
 CYCLE:     8 TIME:   0.074 TIME LEFT:  2.00D  GRAD.:    23.546 HEAT:  20.51450
 CYCLE:     9 TIME:   0.078 TIME LEFT:  2.00D  GRAD.:    16.049 HEAT:  20.39823
 CYCLE:    10 TIME:   0.086 TIME LEFT:  2.00D  GRAD.:    10.262 HEAT:  20.27208
 CYCLE:    11 TIME:   0.074 TIME LEFT:  2.00D  GRAD.:    10.145 HEAT:  20.20571
 CYCLE:    12 TIME:   0.090 TIME LEFT:  2.00D  GRAD.:    10.234 HEAT:  20.15543
 CYCLE:    13 TIME:   0.082 TIME LEFT:  2.00D  GRAD.:     5.970 HEAT:  20.11992
 CYCLE:    14 TIME:   0.082 TIME LEFT:  2.00D  GRAD.:     6.394 HEAT:  20.09082
 CYCLE:    15 TIME:   0.086 TIME LEFT:  2.00D  GRAD.:     6.735 HEAT:  20.05589
 CYCLE:    16 TIME:   0.082 TIME LEFT:  2.00D  GRAD.:     8.938 HEAT:  20.00622
 CYCLE:    17 TIME:   0.109 TIME LEFT:  2.00D  GRAD.:    14.260 HEAT:  20.00703
 CYCLE:    18 TIME:   0.098 TIME LEFT:  2.00D  GRAD.:     3.457 HEAT:  19.96472
 CYCLE:    19 TIME:   0.086 TIME LEFT:  2.00D  GRAD.:     3.119 HEAT:  19.95741
 CYCLE:    20 TIME:   0.102 TIME LEFT:  2.00D  GRAD.:     4.547 HEAT:  19.93967
 CYCLE:    21 TIME:   0.102 TIME LEFT:  2.00D  GRAD.:     8.858 HEAT:  19.92233
 CYCLE:    22 TIME:   0.074 TIME LEFT:  2.00D  GRAD.:     5.072 HEAT:  19.90001
 CYCLE:    23 TIME:   0.086 TIME LEFT:  2.00D  GRAD.:     6.275 HEAT:  19.88179
 CYCLE:    24 TIME:   0.082 TIME LEFT:  2.00D  GRAD.:     8.298 HEAT:  19.87198
 CYCLE:    25 TIME:   0.078 TIME LEFT:  2.00D  GRAD.:     4.840 HEAT:  19.86403
 CYCLE:    26 TIME:   0.070 TIME LEFT:  2.00D  GRAD.:     4.292 HEAT:  19.85092
 CYCLE:    27 TIME:   0.070 TIME LEFT:  2.00D  GRAD.:     5.581 HEAT:  19.84005
 CYCLE:    28 TIME:   0.070 TIME LEFT:  2.00D  GRAD.:     6.231 HEAT:  19.81785
 CYCLE:    29 TIME:   0.070 TIME LEFT:  2.00D  GRAD.:    12.954 HEAT:  19.80440
 CYCLE:    30 TIME:   0.070 TIME LEFT:  2.00D  GRAD.:     5.271 HEAT:  19.76671
 CYCLE:    31 TIME:   0.070 TIME LEFT:  2.00D  GRAD.:     5.045 HEAT:  19.74116
 CYCLE:    32 TIME:   0.070 TIME LEFT:  2.00D  GRAD.:     6.978 HEAT:  19.70417
 CYCLE:    33 TIME:   0.070 TIME LEFT:  2.00D  GRAD.:     6.172 HEAT:  19.66981
 CYCLE:    34 TIME:   0.090 TIME LEFT:  2.00D  GRAD.:    11.473 HEAT:  19.64920
 CYCLE:    35 TIME:   0.074 TIME LEFT:  2.00D  GRAD.:     4.977 HEAT:  19.61633
 CYCLE:    36 TIME:   0.066 TIME LEFT:  2.00D  GRAD.:     4.927 HEAT:  19.59407
 CYCLE:    37 TIME:   0.070 TIME LEFT:  2.00D  GRAD.:     5.979 HEAT:  19.56526
 CYCLE:    38 TIME:   0.074 TIME LEFT:  2.00D  GRAD.:    15.985 HEAT:  19.54844
 CYCLE:    39 TIME:   0.082 TIME LEFT:  2.00D  GRAD.:     7.303 HEAT:  19.50350
 CYCLE:    40 TIME:   0.082 TIME LEFT:  2.00D  GRAD.:     4.592 HEAT:  19.47980
 CYCLE:    41 TIME:   0.074 TIME LEFT:  2.00D  GRAD.:     6.230 HEAT:  19.46034
 CYCLE:    42 TIME:   0.078 TIME LEFT:  2.00D  GRAD.:     6.793 HEAT:  19.43666
 CYCLE:    43 TIME:   0.078 TIME LEFT:  2.00D  GRAD.:     5.167 HEAT:  19.41395
 CYCLE:    44 TIME:   0.070 TIME LEFT:  2.00D  GRAD.:     6.599 HEAT:  19.38900
 CYCLE:    45 TIME:   0.090 TIME LEFT:  2.00D  GRAD.:    10.417 HEAT:  19.37916
 CYCLE:    46 TIME:   0.078 TIME LEFT:  2.00D  GRAD.:     4.000 HEAT:  19.36107
 CYCLE:    47 TIME:   0.066 TIME LEFT:  2.00D  GRAD.:     3.635 HEAT:  19.35132
 CYCLE:    48 TIME:   0.070 TIME LEFT:  2.00D  GRAD.:     4.591 HEAT:  19.33663
 CYCLE:    49 TIME:   0.090 TIME LEFT:  2.00D  GRAD.:     5.047 HEAT:  19.31368
 CYCLE:    50 TIME:   0.090 TIME LEFT:  2.00D  GRAD.:    15.836 HEAT:  19.32689
 CYCLE:    51 TIME:   0.078 TIME LEFT:  2.00D  GRAD.:     3.001 HEAT:  19.28867
 CYCLE:    52 TIME:   0.078 TIME LEFT:  2.00D  GRAD.:     2.617 HEAT:  19.28274
 CYCLE:    53 TIME:   0.074 TIME LEFT:  2.00D  GRAD.:     4.265 HEAT:  19.26745
 CYCLE:    54 TIME:   0.086 TIME LEFT:  2.00D  GRAD.:     6.281 HEAT:  19.25430
 CYCLE:    55 TIME:   0.086 TIME LEFT:  2.00D  GRAD.:     7.675 HEAT:  19.24020
 CYCLE:    56 TIME:   0.070 TIME LEFT:  2.00D  GRAD.:     4.483 HEAT:  19.22644
 CYCLE:    57 TIME:   0.070 TIME LEFT:  2.00D  GRAD.:     3.781 HEAT:  19.21726
 CYCLE:    58 TIME:   0.070 TIME LEFT:  2.00D  GRAD.:     3.720 HEAT:  19.20544
 CYCLE:    59 TIME:   0.070 TIME LEFT:  2.00D  GRAD.:     5.587 HEAT:  19.19314
 CYCLE:    60 TIME:   0.090 TIME LEFT:  2.00D  GRAD.:     4.010 HEAT:  19.18467
 CYCLE:    61 TIME:   0.082 TIME LEFT:  2.00D  GRAD.:     2.241 HEAT:  19.17999
 CYCLE:    62 TIME:   0.078 TIME LEFT:  2.00D  GRAD.:     2.618 HEAT:  19.17515
 CYCLE:    63 TIME:   0.074 TIME LEFT:  2.00D  GRAD.:     3.714 HEAT:  19.16906
 CYCLE:    64 TIME:   0.078 TIME LEFT:  2.00D  GRAD.:     5.068 HEAT:  19.16183
 CYCLE:    65 TIME:   0.102 TIME LEFT:  2.00D  GRAD.:     2.634 HEAT:  19.15422
 CYCLE:    66 TIME:   0.098 TIME LEFT:  2.00D  GRAD.:     2.457 HEAT:  19.14917
 CYCLE:    67 TIME:   0.082 TIME LEFT:  2.00D  GRAD.:     3.299 HEAT:  19.14223
 CYCLE:    68 TIME:   0.082 TIME LEFT:  2.00D  GRAD.:     4.853 HEAT:  19.13534
 CYCLE:    69 TIME:   0.078 TIME LEFT:  2.00D  GRAD.:     2.829 HEAT:  19.12805
 CYCLE:    70 TIME:   0.086 TIME LEFT:  2.00D  GRAD.:     2.643 HEAT:  19.12240
 CYCLE:    71 TIME:   0.082 TIME LEFT:  2.00D  GRAD.:     5.871 HEAT:  19.11962
 CYCLE:    72 TIME:   0.078 TIME LEFT:  2.00D  GRAD.:     2.600 HEAT:  19.11571
 CYCLE:    73 TIME:   0.070 TIME LEFT:  2.00D  GRAD.:     2.261 HEAT:  19.11256
 CYCLE:    74 TIME:   0.082 TIME LEFT:  2.00D  GRAD.:     2.941 HEAT:  19.10869
 CYCLE:    75 TIME:   0.082 TIME LEFT:  2.00D  GRAD.:     2.356 HEAT:  19.10459
 CYCLE:    76 TIME:   0.078 TIME LEFT:  2.00D  GRAD.:     5.798 HEAT:  19.10236
 CYCLE:    77 TIME:   0.066 TIME LEFT:  2.00D  GRAD.:     2.147 HEAT:  19.09711
 CYCLE:    78 TIME:   0.086 TIME LEFT:  2.00D  GRAD.:     1.957 HEAT:  19.09514
 CYCLE:    79 TIME:   0.078 TIME LEFT:  2.00D  GRAD.:     2.257 HEAT:  19.09103
 CYCLE:    80 TIME:   0.070 TIME LEFT:  2.00D  GRAD.:     2.826 HEAT:  19.08648
 CYCLE:    81 TIME:   0.070 TIME LEFT:  2.00D  GRAD.:     3.535 HEAT:  19.08299
 CYCLE:    82 TIME:   0.070 TIME LEFT:  2.00D  GRAD.:     1.822 HEAT:  19.07928
 CYCLE:    83 TIME:   0.078 TIME LEFT:  2.00D  GRAD.:     1.973 HEAT:  19.07689
 CYCLE:    84 TIME:   0.086 TIME LEFT:  2.00D  GRAD.:     2.501 HEAT:  19.07349
 CYCLE:    85 TIME:   0.074 TIME LEFT:  2.00D  GRAD.:     5.103 HEAT:  19.07013
 CYCLE:    86 TIME:   0.066 TIME LEFT:  2.00D  GRAD.:     2.270 HEAT:  19.06526
 CYCLE:    87 TIME:   0.082 TIME LEFT:  2.00D  GRAD.:     1.888 HEAT:  19.06184
 CYCLE:    88 TIME:   0.078 TIME LEFT:  2.00D  GRAD.:     3.658 HEAT:  19.05943
 CYCLE:    89 TIME:   0.074 TIME LEFT:  2.00D  GRAD.:     2.268 HEAT:  19.05695
 CYCLE:    90 TIME:   0.070 TIME LEFT:  2.00D  GRAD.:     1.628 HEAT:  19.05377
 CYCLE:    91 TIME:   0.105 TIME LEFT:  2.00D  GRAD.:     1.835 HEAT:  19.05139
 CYCLE:    92 TIME:   0.105 TIME LEFT:  2.00D  GRAD.:     2.746 HEAT:  19.04768
 CYCLE:    93 TIME:   0.105 TIME LEFT:  2.00D  GRAD.:     2.545 HEAT:  19.04451
 CYCLE:    94 TIME:   0.098 TIME LEFT:  2.00D  GRAD.:     1.482 HEAT:  19.04191
 CYCLE:    95 TIME:   0.090 TIME LEFT:  2.00D  GRAD.:     1.879 HEAT:  19.03945
 CYCLE:    96 TIME:   0.094 TIME LEFT:  2.00D  GRAD.:     2.669 HEAT:  19.03585
 CYCLE:    97 TIME:   0.102 TIME LEFT:  2.00D  GRAD.:     3.702 HEAT:  19.03085
 CYCLE:    98 TIME:   0.094 TIME LEFT:  2.00D  GRAD.:     2.160 HEAT:  19.02519
 CYCLE:    99 TIME:   0.094 TIME LEFT:  2.00D  GRAD.:     1.632 HEAT:  19.02182
 CYCLE:   100 TIME:   0.082 TIME LEFT:  2.00D  GRAD.:     2.379 HEAT:  19.01993
 CYCLE:   101 TIME:   0.086 TIME LEFT:  2.00D  GRAD.:     1.682 HEAT:  19.01824
 CYCLE:   102 TIME:   0.090 TIME LEFT:  2.00D  GRAD.:     1.844 HEAT:  19.01554
 CYCLE:   103 TIME:   0.086 TIME LEFT:  2.00D  GRAD.:     4.448 HEAT:  19.01347
 CYCLE:   104 TIME:   0.094 TIME LEFT:  2.00D  GRAD.:     2.282 HEAT:  19.01110
 CYCLE:   105 TIME:   0.078 TIME LEFT:  2.00D  GRAD.:     1.780 HEAT:  19.00923
 CYCLE:   106 TIME:   0.102 TIME LEFT:  2.00D  GRAD.:     2.305 HEAT:  19.00659
 CYCLE:   107 TIME:   0.102 TIME LEFT:  2.00D  GRAD.:     2.336 HEAT:  19.00369
 CYCLE:   108 TIME:   0.102 TIME LEFT:  2.00D  GRAD.:     5.930 HEAT:  19.00152
 CYCLE:   109 TIME:   0.102 TIME LEFT:  2.00D  GRAD.:     2.018 HEAT:  18.99636
 CYCLE:   110 TIME:   0.070 TIME LEFT:  2.00D  GRAD.:     1.336 HEAT:  18.99434
 CYCLE:   111 TIME:   0.074 TIME LEFT:  2.00D  GRAD.:     2.046 HEAT:  18.99198
 CYCLE:   112 TIME:   0.070 TIME LEFT:  2.00D  GRAD.:     2.312 HEAT:  18.98903
 CYCLE:   113 TIME:   0.070 TIME LEFT:  2.00D  GRAD.:     3.645 HEAT:  18.98663
 CYCLE:   114 TIME:   0.078 TIME LEFT:  2.00D  GRAD.:     1.462 HEAT:  18.98345
 CYCLE:   115 TIME:   0.066 TIME LEFT:  2.00D  GRAD.:     1.291 HEAT:  18.98236
 CYCLE:   116 TIME:   0.074 TIME LEFT:  2.00D  GRAD.:     1.744 HEAT:  18.98027
 CYCLE:   117 TIME:   0.078 TIME LEFT:  2.00D  GRAD.:     3.094 HEAT:  18.97836
 CYCLE:   118 TIME:   0.070 TIME LEFT:  2.00D  GRAD.:     1.794 HEAT:  18.97648
 CYCLE:   119 TIME:   0.082 TIME LEFT:  2.00D  GRAD.:     1.479 HEAT:  18.97484
 CYCLE:   120 TIME:   0.070 TIME LEFT:  2.00D  GRAD.:     2.004 HEAT:  18.97319
 CYCLE:   121 TIME:   0.070 TIME LEFT:  2.00D  GRAD.:     1.923 HEAT:  18.97089
 CYCLE:   122 TIME:   0.074 TIME LEFT:  2.00D  GRAD.:     1.299 HEAT:  18.96900
 CYCLE:   123 TIME:   0.070 TIME LEFT:  2.00D  GRAD.:     1.299 HEAT:  18.96729
 CYCLE:   124 TIME:   0.086 TIME LEFT:  2.00D  GRAD.:     2.334 HEAT:  18.96574
 CYCLE:   125 TIME:   0.082 TIME LEFT:  2.00D  GRAD.:     1.369 HEAT:  18.96403
 CYCLE:   126 TIME:   0.074 TIME LEFT:  2.00D  GRAD.:     1.300 HEAT:  18.96224
 CYCLE:   127 TIME:   0.285 TIME LEFT:  2.00D  GRAD.:     1.862 HEAT:  18.96081
 CYCLE:   128 TIME:   0.074 TIME LEFT:  2.00D  GRAD.:     1.291 HEAT:  18.95919
 CYCLE:   129 TIME:   0.078 TIME LEFT:  2.00D  GRAD.:     1.148 HEAT:  18.95778
 CYCLE:   130 TIME:   0.082 TIME LEFT:  2.00D  GRAD.:     2.091 HEAT:  18.95584
 CYCLE:   131 TIME:   0.082 TIME LEFT:  2.00D  GRAD.:     1.623 HEAT:  18.95401
 CYCLE:   132 TIME:   0.105 TIME LEFT:  2.00D  GRAD.:     1.333 HEAT:  18.95243
 CYCLE:   133 TIME:   0.102 TIME LEFT:  2.00D  GRAD.:     1.914 HEAT:  18.95036
 CYCLE:   134 TIME:   0.098 TIME LEFT:  2.00D  GRAD.:     1.711 HEAT:  18.94891
 CYCLE:   135 TIME:   0.070 TIME LEFT:  2.00D  GRAD.:     1.545 HEAT:  18.94770
 CYCLE:   136 TIME:   0.078 TIME LEFT:  2.00D  GRAD.:     1.402 HEAT:  18.94608
 CYCLE:   137 TIME:   0.078 TIME LEFT:  2.00D  GRAD.:     1.950 HEAT:  18.94504
 CYCLE:   138 TIME:   0.086 TIME LEFT:  2.00D  GRAD.:     1.713 HEAT:  18.94391
 CYCLE:   139 TIME:   0.082 TIME LEFT:  2.00D  GRAD.:     1.867 HEAT:  18.94132
 CYCLE:   140 TIME:   0.082 TIME LEFT:  2.00D  GRAD.:     3.207 HEAT:  18.94013
 CYCLE:   141 TIME:   0.102 TIME LEFT:  2.00D  GRAD.:     1.384 HEAT:  18.93843
 CYCLE:   142 TIME:   0.090 TIME LEFT:  2.00D  GRAD.:     1.431 HEAT:  18.93689
 CYCLE:   143 TIME:   0.074 TIME LEFT:  2.00D  GRAD.:     1.627 HEAT:  18.93527
 CYCLE:   144 TIME:   0.070 TIME LEFT:  2.00D  GRAD.:     2.099 HEAT:  18.93321
 CYCLE:   145 TIME:   0.082 TIME LEFT:  2.00D  GRAD.:     2.219 HEAT:  18.93071
 CYCLE:   146 TIME:   0.074 TIME LEFT:  2.00D  GRAD.:     1.634 HEAT:  18.92884
 CYCLE:   147 TIME:   0.094 TIME LEFT:  2.00D  GRAD.:     1.297 HEAT:  18.92701
 CYCLE:   148 TIME:   0.082 TIME LEFT:  2.00D  GRAD.:     1.451 HEAT:  18.92559
 CYCLE:   149 TIME:   0.082 TIME LEFT:  2.00D  GRAD.:     3.499 HEAT:  18.92380
 CYCLE:   150 TIME:   0.066 TIME LEFT:  2.00D  GRAD.:     2.081 HEAT:  18.92168
 CYCLE:   151 TIME:   0.090 TIME LEFT:  2.00D  GRAD.:     1.598 HEAT:  18.92038
 CYCLE:   152 TIME:   0.102 TIME LEFT:  2.00D  GRAD.:     1.670 HEAT:  18.91858
 CYCLE:   153 TIME:   0.105 TIME LEFT:  2.00D  GRAD.:     2.718 HEAT:  18.91609
 CYCLE:   154 TIME:   0.102 TIME LEFT:  2.00D  GRAD.:     1.675 HEAT:  18.91353
 CYCLE:   155 TIME:   0.102 TIME LEFT:  2.00D  GRAD.:     1.554 HEAT:  18.91157
 CYCLE:   156 TIME:   0.105 TIME LEFT:  2.00D  GRAD.:     1.798 HEAT:  18.90952
 CYCLE:   157 TIME:   0.102 TIME LEFT:  2.00D  GRAD.:     2.431 HEAT:  18.90697
 CYCLE:   158 TIME:   0.102 TIME LEFT:  2.00D  GRAD.:     2.256 HEAT:  18.90402
 CYCLE:   159 TIME:   0.102 TIME LEFT:  2.00D  GRAD.:     2.033 HEAT:  18.90148
 CYCLE:   160 TIME:   0.070 TIME LEFT:  2.00D  GRAD.:     1.470 HEAT:  18.89967
 CYCLE:   161 TIME:   0.074 TIME LEFT:  2.00D  GRAD.:     1.558 HEAT:  18.89750
 CYCLE:   162 TIME:   0.105 TIME LEFT:  2.00D  GRAD.:     1.923 HEAT:  18.89518
 CYCLE:   163 TIME:   0.094 TIME LEFT:  2.00D  GRAD.:     1.698 HEAT:  18.89316
 CYCLE:   164 TIME:   0.070 TIME LEFT:  2.00D  GRAD.:     1.250 HEAT:  18.89189
 CYCLE:   165 TIME:   0.102 TIME LEFT:  2.00D  GRAD.:     1.290 HEAT:  18.89096
 CYCLE:   166 TIME:   0.105 TIME LEFT:  2.00D  GRAD.:     2.597 HEAT:  18.89029
 CYCLE:   167 TIME:   0.098 TIME LEFT:  2.00D  GRAD.:     1.156 HEAT:  18.88930
 CYCLE:   168 TIME:   0.102 TIME LEFT:  2.00D  GRAD.:     1.414 HEAT:  18.88832
 CYCLE:   169 TIME:   0.105 TIME LEFT:  2.00D  GRAD.:     1.701 HEAT:  18.88738
 CYCLE:   170 TIME:   0.105 TIME LEFT:  2.00D  GRAD.:     2.189 HEAT:  18.88539
 CYCLE:   171 TIME:   0.109 TIME LEFT:  2.00D  GRAD.:     4.129 HEAT:  18.88428
 CYCLE:   172 TIME:   0.098 TIME LEFT:  2.00D  GRAD.:     1.395 HEAT:  18.88147
 CYCLE:   173 TIME:   0.102 TIME LEFT:  2.00D  GRAD.:     1.275 HEAT:  18.88044
 CYCLE:   174 TIME:   0.098 TIME LEFT:  2.00D  GRAD.:     1.417 HEAT:  18.87875
 CYCLE:   175 TIME:   0.074 TIME LEFT:  2.00D  GRAD.:     1.867 HEAT:  18.87582
 CYCLE:   176 TIME:   0.105 TIME LEFT:  2.00D  GRAD.:     2.167 HEAT:  18.87347
 CYCLE:   177 TIME:   0.102 TIME LEFT:  2.00D  GRAD.:     1.637 HEAT:  18.87048
 CYCLE:   178 TIME:   0.102 TIME LEFT:  2.00D  GRAD.:     1.860 HEAT:  18.86843
 CYCLE:   179 TIME:   0.102 TIME LEFT:  2.00D  GRAD.:     1.623 HEAT:  18.86626
 CYCLE:   180 TIME:   0.148 TIME LEFT:  2.00D  GRAD.:     1.765 HEAT:  18.86399
 CYCLE:   181 TIME:   0.078 TIME LEFT:  2.00D  GRAD.:     3.591 HEAT:  18.86218
 CYCLE:   182 TIME:   0.074 TIME LEFT:  2.00D  GRAD.:     1.586 HEAT:  18.86014
 CYCLE:   183 TIME:   0.070 TIME LEFT:  2.00D  GRAD.:     1.710 HEAT:  18.85888
 CYCLE:   184 TIME:   0.078 TIME LEFT:  2.00D  GRAD.:     1.968 HEAT:  18.85710
 CYCLE:   185 TIME:   0.074 TIME LEFT:  2.00D  GRAD.:     2.589 HEAT:  18.85328
 CYCLE:   186 TIME:   0.074 TIME LEFT:  2.00D  GRAD.:     4.452 HEAT:  18.85147
 CYCLE:   187 TIME:   0.090 TIME LEFT:  2.00D  GRAD.:     1.589 HEAT:  18.84801
 CYCLE:   188 TIME:   0.098 TIME LEFT:  2.00D  GRAD.:     1.485 HEAT:  18.84665
 CYCLE:   189 TIME:   0.082 TIME LEFT:  2.00D  GRAD.:     1.964 HEAT:  18.84410
 CYCLE:   190 TIME:   0.070 TIME LEFT:  2.00D  GRAD.:     2.372 HEAT:  18.84160
 CYCLE:   191 TIME:   0.070 TIME LEFT:  2.00D  GRAD.:     2.208 HEAT:  18.83924
 CYCLE:   192 TIME:   0.070 TIME LEFT:  2.00D  GRAD.:     1.224 HEAT:  18.83765
 CYCLE:   193 TIME:   0.082 TIME LEFT:  2.00D  GRAD.:     1.565 HEAT:  18.83614
 CYCLE:   194 TIME:   0.082 TIME LEFT:  2.00D  GRAD.:     1.812 HEAT:  18.83432
 CYCLE:   195 TIME:   0.078 TIME LEFT:  2.00D  GRAD.:     3.984 HEAT:  18.83236
 CYCLE:   196 TIME:   0.082 TIME LEFT:  2.00D  GRAD.:     1.842 HEAT:  18.82939
 CYCLE:   197 TIME:   0.074 TIME LEFT:  2.00D  GRAD.:     1.194 HEAT:  18.82824
 CYCLE:   198 TIME:   0.078 TIME LEFT:  2.00D  GRAD.:     1.358 HEAT:  18.82699
 CYCLE:   199 TIME:   0.070 TIME LEFT:  2.00D  GRAD.:     2.426 HEAT:  18.82513
 CYCLE:   200 TIME:   0.086 TIME LEFT:  2.00D  GRAD.:     1.830 HEAT:  18.82270
 CYCLE:   201 TIME:   0.078 TIME LEFT:  2.00D  GRAD.:     1.760 HEAT:  18.82071
 CYCLE:   202 TIME:   0.078 TIME LEFT:  2.00D  GRAD.:     1.948 HEAT:  18.81827
 CYCLE:   203 TIME:   0.105 TIME LEFT:  2.00D  GRAD.:     2.419 HEAT:  18.81447
 CYCLE:   204 TIME:   0.074 TIME LEFT:  2.00D  GRAD.:     2.798 HEAT:  18.81011
 CYCLE:   205 TIME:   0.074 TIME LEFT:  2.00D  GRAD.:     2.088 HEAT:  18.80578
 CYCLE:   206 TIME:   0.078 TIME LEFT:  2.00D  GRAD.:     2.289 HEAT:  18.80216
 CYCLE:   207 TIME:   0.082 TIME LEFT:  2.00D  GRAD.:     2.009 HEAT:  18.79808
 CYCLE:   208 TIME:   0.070 TIME LEFT:  2.00D  GRAD.:     2.133 HEAT:  18.79322
 CYCLE:   209 TIME:   0.086 TIME LEFT:  2.00D  GRAD.:     5.219 HEAT:  18.79157
 CYCLE:   210 TIME:   0.102 TIME LEFT:  2.00D  GRAD.:     1.877 HEAT:  18.78713
 CYCLE:   211 TIME:   0.082 TIME LEFT:  2.00D  GRAD.:     1.567 HEAT:  18.78527
 CYCLE:   212 TIME:   0.070 TIME LEFT:  2.00D  GRAD.:     2.513 HEAT:  18.78303
 CYCLE:   213 TIME:   0.078 TIME LEFT:  2.00D  GRAD.:     3.009 HEAT:  18.77976
 CYCLE:   214 TIME:   0.074 TIME LEFT:  2.00D  GRAD.:     2.008 HEAT:  18.77634
 CYCLE:   215 TIME:   0.070 TIME LEFT:  2.00D  GRAD.:     1.926 HEAT:  18.77223
 CYCLE:   216 TIME:   0.070 TIME LEFT:  2.00D  GRAD.:     3.755 HEAT:  18.76861
 CYCLE:   217 TIME:   0.070 TIME LEFT:  2.00D  GRAD.:     2.181 HEAT:  18.76456
 CYCLE:   218 TIME:   0.074 TIME LEFT:  2.00D  GRAD.:     2.126 HEAT:  18.76036
 CYCLE:   219 TIME:   0.074 TIME LEFT:  2.00D  GRAD.:     2.856 HEAT:  18.75477
 CYCLE:   220 TIME:   0.070 TIME LEFT:  2.00D  GRAD.:     4.187 HEAT:  18.74829
 CYCLE:   221 TIME:   0.070 TIME LEFT:  2.00D  GRAD.:     3.450 HEAT:  18.73978
 CYCLE:   222 TIME:   0.102 TIME LEFT:  2.00D  GRAD.:     3.409 HEAT:  18.73060
 CYCLE:   223 TIME:   0.074 TIME LEFT:  2.00D  GRAD.:     3.564 HEAT:  18.72052
 CYCLE:   224 TIME:   0.105 TIME LEFT:  2.00D  GRAD.:     4.458 HEAT:  18.70914
 CYCLE:   225 TIME:   0.102 TIME LEFT:  2.00D  GRAD.:     6.918 HEAT:  18.69822
 CYCLE:   226 TIME:   0.102 TIME LEFT:  2.00D  GRAD.:    10.272 HEAT:  18.69104
 CYCLE:   227 TIME:   0.102 TIME LEFT:  2.00D  GRAD.:     3.185 HEAT:  18.68106
 CYCLE:   228 TIME:   0.109 TIME LEFT:  2.00D  GRAD.:     5.501 HEAT:  18.67767
 CYCLE:   229 TIME:   0.090 TIME LEFT:  2.00D  GRAD.:     3.165 HEAT:  18.66730
 CYCLE:   230 TIME:   0.074 TIME LEFT:  2.00D  GRAD.:     3.885 HEAT:  18.65607
 CYCLE:   231 TIME:   0.086 TIME LEFT:  2.00D  GRAD.:     6.009 HEAT:  18.64248
 CYCLE:   232 TIME:   0.070 TIME LEFT:  2.00D  GRAD.:     6.871 HEAT:  18.62915
 CYCLE:   233 TIME:   0.070 TIME LEFT:  2.00D  GRAD.:     3.639 HEAT:  18.61776
 CYCLE:   234 TIME:   0.078 TIME LEFT:  2.00D  GRAD.:     4.373 HEAT:  18.60988
 CYCLE:   235 TIME:   0.090 TIME LEFT:  2.00D  GRAD.:     4.960 HEAT:  18.59947
 CYCLE:   236 TIME:   0.090 TIME LEFT:  2.00D  GRAD.:     5.954 HEAT:  18.58542
 CYCLE:   237 TIME:   0.082 TIME LEFT:  2.00D  GRAD.:     3.723 HEAT:  18.57246
 CYCLE:   238 TIME:   0.090 TIME LEFT:  2.00D  GRAD.:     3.674 HEAT:  18.56495
 CYCLE:   239 TIME:   0.098 TIME LEFT:  2.00D  GRAD.:     3.379 HEAT:  18.55807
 CYCLE:   240 TIME:   0.078 TIME LEFT:  2.00D  GRAD.:     7.835 HEAT:  18.54867
 CYCLE:   241 TIME:   0.070 TIME LEFT:  2.00D  GRAD.:     3.078 HEAT:  18.53875
 CYCLE:   242 TIME:   0.070 TIME LEFT:  2.00D  GRAD.:     3.621 HEAT:  18.53429
 CYCLE:   243 TIME:   0.074 TIME LEFT:  2.00D  GRAD.:     4.330 HEAT:  18.52635
 CYCLE:   244 TIME:   0.090 TIME LEFT:  2.00D  GRAD.:     3.197 HEAT:  18.51623
 CYCLE:   245 TIME:   0.074 TIME LEFT:  2.00D  GRAD.:     3.080 HEAT:  18.50730
 CYCLE:   246 TIME:   0.086 TIME LEFT:  2.00D  GRAD.:     3.052 HEAT:  18.50068
 CYCLE:   247 TIME:   0.078 TIME LEFT:  2.00D  GRAD.:     5.494 HEAT:  18.49354
 CYCLE:   248 TIME:   0.086 TIME LEFT:  2.00D  GRAD.:     2.969 HEAT:  18.48671
 CYCLE:   249 TIME:   0.066 TIME LEFT:  2.00D  GRAD.:     2.700 HEAT:  18.48233
 CYCLE:   250 TIME:   0.082 TIME LEFT:  2.00D  GRAD.:     2.666 HEAT:  18.47592
 CYCLE:   251 TIME:   0.082 TIME LEFT:  2.00D  GRAD.:     5.390 HEAT:  18.46956
 CYCLE:   252 TIME:   0.094 TIME LEFT:  2.00D  GRAD.:     2.400 HEAT:  18.46050
 CYCLE:   253 TIME:   0.098 TIME LEFT:  2.00D  GRAD.:     2.300 HEAT:  18.45556
 CYCLE:   254 TIME:   0.078 TIME LEFT:  2.00D  GRAD.:     4.142 HEAT:  18.45144
 CYCLE:   255 TIME:   0.082 TIME LEFT:  2.00D  GRAD.:     4.032 HEAT:  18.44711
 CYCLE:   256 TIME:   0.074 TIME LEFT:  2.00D  GRAD.:     1.966 HEAT:  18.44300
 CYCLE:   257 TIME:   0.102 TIME LEFT:  2.00D  GRAD.:     1.889 HEAT:  18.43928
 CYCLE:   258 TIME:   0.086 TIME LEFT:  2.00D  GRAD.:     3.521 HEAT:  18.43519
 CYCLE:   259 TIME:   0.070 TIME LEFT:  2.00D  GRAD.:     2.075 HEAT:  18.43055
 CYCLE:   260 TIME:   0.090 TIME LEFT:  2.00D  GRAD.:     1.842 HEAT:  18.42752
 CYCLE:   261 TIME:   0.090 TIME LEFT:  2.00D  GRAD.:     2.778 HEAT:  18.42484
 CYCLE:   262 TIME:   0.082 TIME LEFT:  2.00D  GRAD.:     2.401 HEAT:  18.42268
 CYCLE:   263 TIME:   0.074 TIME LEFT:  2.00D  GRAD.:     1.973 HEAT:  18.42024
 CYCLE:   264 TIME:   0.074 TIME LEFT:  2.00D  GRAD.:     2.389 HEAT:  18.41678
 CYCLE:   265 TIME:   0.070 TIME LEFT:  2.00D  GRAD.:     2.350 HEAT:  18.41496
 CYCLE:   266 TIME:   0.070 TIME LEFT:  2.00D  GRAD.:     1.412 HEAT:  18.41313
 CYCLE:   267 TIME:   0.078 TIME LEFT:  2.00D  GRAD.:     1.157 HEAT:  18.41128
 CYCLE:   268 TIME:   0.074 TIME LEFT:  2.00D  GRAD.:     1.313 HEAT:  18.41004
 CYCLE:   269 TIME:   0.078 TIME LEFT:  2.00D  GRAD.:     1.791 HEAT:  18.40858
 CYCLE:   270 TIME:   0.070 TIME LEFT:  2.00D  GRAD.:     1.466 HEAT:  18.40739
 CYCLE:   271 TIME:   0.070 TIME LEFT:  2.00D  GRAD.:     1.277 HEAT:  18.40640
 CYCLE:   272 TIME:   0.078 TIME LEFT:  2.00D  GRAD.:     1.911 HEAT:  18.40512
 CYCLE:   273 TIME:   0.082 TIME LEFT:  2.00D  GRAD.:     1.326 HEAT:  18.40373
 CYCLE:   274 TIME:   0.070 TIME LEFT:  2.00D  GRAD.:     1.425 HEAT:  18.40203
 CYCLE:   275 TIME:   0.070 TIME LEFT:  2.00D  GRAD.:     2.196 HEAT:  18.39980
 CYCLE:   276 TIME:   0.074 TIME LEFT:  2.00D  GRAD.:     3.868 HEAT:  18.39854
 CYCLE:   277 TIME:   0.062 TIME LEFT:  2.00D  GRAD.:     1.423 HEAT:  18.39627
 CYCLE:   278 TIME:   0.070 TIME LEFT:  2.00D  GRAD.:     1.285 HEAT:  18.39516
 CYCLE:   279 TIME:   0.070 TIME LEFT:  2.00D  GRAD.:     1.398 HEAT:  18.39380
 CYCLE:   280 TIME:   0.070 TIME LEFT:  2.00D  GRAD.:     1.703 HEAT:  18.39115
 CYCLE:   281 TIME:   0.090 TIME LEFT:  2.00D  GRAD.:     4.438 HEAT:  18.39102
 CYCLE:   282 TIME:   0.094 TIME LEFT:  2.00D  GRAD.:     1.184 HEAT:  18.38735
 CYCLE:   283 TIME:   0.090 TIME LEFT:  2.00D  GRAD.:     1.093 HEAT:  18.38622
 CYCLE:   284 TIME:   0.082 TIME LEFT:  2.00D  GRAD.:     1.434 HEAT:  18.38339
 CYCLE:   285 TIME:   0.105 TIME LEFT:  2.00D  GRAD.:     2.457 HEAT:  18.38106
 CYCLE:   286 TIME:   0.074 TIME LEFT:  2.00D  GRAD.:     2.320 HEAT:  18.37839
 CYCLE:   287 TIME:   0.074 TIME LEFT:  2.00D  GRAD.:     3.203 HEAT:  18.37603
 CYCLE:   288 TIME:   0.086 TIME LEFT:  2.00D  GRAD.:     1.941 HEAT:  18.37322
 CYCLE:   289 TIME:   0.082 TIME LEFT:  2.00D  GRAD.:     1.818 HEAT:  18.37027
 CYCLE:   290 TIME:   0.074 TIME LEFT:  2.00D  GRAD.:     2.125 HEAT:  18.36756
 CYCLE:   291 TIME:   0.074 TIME LEFT:  2.00D  GRAD.:     2.721 HEAT:  18.36463
 CYCLE:   292 TIME:   0.086 TIME LEFT:  2.00D  GRAD.:     2.020 HEAT:  18.36239
 CYCLE:   293 TIME:   0.078 TIME LEFT:  2.00D  GRAD.:     1.636 HEAT:  18.36110
 CYCLE:   294 TIME:   0.070 TIME LEFT:  2.00D  GRAD.:     1.304 HEAT:  18.35910
 CYCLE:   295 TIME:   0.074 TIME LEFT:  2.00D  GRAD.:     1.931 HEAT:  18.35773
 CYCLE:   296 TIME:   0.070 TIME LEFT:  2.00D  GRAD.:     1.119 HEAT:  18.35647
 CYCLE:   297 TIME:   0.086 TIME LEFT:  2.00D  GRAD.:     1.068 HEAT:  18.35544
 CYCLE:   298 TIME:   0.082 TIME LEFT:  2.00D  GRAD.:     1.477 HEAT:  18.35404
 CYCLE:   299 TIME:   0.090 TIME LEFT:  2.00D  GRAD.:     2.451 HEAT:  18.35269
 CYCLE:   300 TIME:   0.070 TIME LEFT:  2.00D  GRAD.:     1.304 HEAT:  18.35110
 CYCLE:   301 TIME:   0.086 TIME LEFT:  2.00D  GRAD.:     1.393 HEAT:  18.34939
 CYCLE:   302 TIME:   0.086 TIME LEFT:  2.00D  GRAD.:     2.902 HEAT:  18.34820
 CYCLE:   303 TIME:   0.086 TIME LEFT:  2.00D  GRAD.:     1.962 HEAT:  18.34675
 CYCLE:   304 TIME:   0.102 TIME LEFT:  2.00D  GRAD.:     1.171 HEAT:  18.34488
 CYCLE:   305 TIME:   0.074 TIME LEFT:  2.00D  GRAD.:     1.878 HEAT:  18.34369
 CYCLE:   306 TIME:   0.102 TIME LEFT:  2.00D  GRAD.:     1.355 HEAT:  18.34255
 CYCLE:   307 TIME:   0.070 TIME LEFT:  2.00D  GRAD.:     1.165 HEAT:  18.34131
 CYCLE:   308 TIME:   0.070 TIME LEFT:  2.00D  GRAD.:     1.563 HEAT:  18.34024
 CYCLE:   309 TIME:   0.098 TIME LEFT:  2.00D  GRAD.:     1.317 HEAT:  18.33913
 CYCLE:   310 TIME:   0.086 TIME LEFT:  2.00D  GRAD.:     1.161 HEAT:  18.33765
 CYCLE:   311 TIME:   0.082 TIME LEFT:  2.00D  GRAD.:     1.813 HEAT:  18.33637
 CYCLE:   312 TIME:   0.078 TIME LEFT:  2.00D  GRAD.:     1.240 HEAT:  18.33500
 CYCLE:   313 TIME:   0.078 TIME LEFT:  2.00D  GRAD.:     1.248 HEAT:  18.33357
 CYCLE:   314 TIME:   0.078 TIME LEFT:  2.00D  GRAD.:     1.657 HEAT:  18.33160
 CYCLE:   315 TIME:   0.074 TIME LEFT:  2.00D  GRAD.:     2.988 HEAT:  18.33001
 CYCLE:   316 TIME:   0.070 TIME LEFT:  2.00D  GRAD.:     1.469 HEAT:  18.32752
 CYCLE:   317 TIME:   0.074 TIME LEFT:  2.00D  GRAD.:     1.490 HEAT:  18.32533
 CYCLE:   318 TIME:   0.074 TIME LEFT:  2.00D  GRAD.:     2.362 HEAT:  18.32331
 CYCLE:   319 TIME:   0.070 TIME LEFT:  2.00D  GRAD.:     2.994 HEAT:  18.32113
 CYCLE:   320 TIME:   0.070 TIME LEFT:  2.00D  GRAD.:     1.852 HEAT:  18.31858
 CYCLE:   321 TIME:   0.074 TIME LEFT:  2.00D  GRAD.:     1.820 HEAT:  18.31606
 CYCLE:   322 TIME:   0.070 TIME LEFT:  2.00D  GRAD.:     2.151 HEAT:  18.31303
 CYCLE:   323 TIME:   0.074 TIME LEFT:  2.00D  GRAD.:     2.531 HEAT:  18.30934
 CYCLE:   324 TIME:   0.070 TIME LEFT:  2.00D  GRAD.:     2.608 HEAT:  18.30574
 CYCLE:   325 TIME:   0.074 TIME LEFT:  2.00D  GRAD.:     2.230 HEAT:  18.30256
 CYCLE:   326 TIME:   0.074 TIME LEFT:  2.00D  GRAD.:     2.969 HEAT:  18.29777
 CYCLE:   327 TIME:   0.074 TIME LEFT:  2.00D  GRAD.:     2.718 HEAT:  18.29405
 CYCLE:   328 TIME:   0.074 TIME LEFT:  2.00D  GRAD.:     2.360 HEAT:  18.29067
 CYCLE:   329 TIME:   0.078 TIME LEFT:  2.00D  GRAD.:     1.996 HEAT:  18.28516
 CYCLE:   330 TIME:   0.082 TIME LEFT:  2.00D  GRAD.:     3.748 HEAT:  18.28081
 CYCLE:   331 TIME:   0.098 TIME LEFT:  2.00D  GRAD.:     2.799 HEAT:  18.27587
 CYCLE:   332 TIME:   0.098 TIME LEFT:  2.00D  GRAD.:     2.621 HEAT:  18.27127
 CYCLE:   333 TIME:   0.105 TIME LEFT:  2.00D  GRAD.:     4.969 HEAT:  18.26654
 CYCLE:   334 TIME:   0.074 TIME LEFT:  2.00D  GRAD.:     2.615 HEAT:  18.26279
 CYCLE:   335 TIME:   0.074 TIME LEFT:  2.00D  GRAD.:     3.026 HEAT:  18.25866
 CYCLE:   336 TIME:   0.086 TIME LEFT:  2.00D  GRAD.:     3.183 HEAT:  18.25284
 CYCLE:   337 TIME:   0.074 TIME LEFT:  2.00D  GRAD.:     4.466 HEAT:  18.24974
 CYCLE:   338 TIME:   0.082 TIME LEFT:  2.00D  GRAD.:     3.934 HEAT:  18.24379
 CYCLE:   339 TIME:   0.086 TIME LEFT:  2.00D  GRAD.:     2.437 HEAT:  18.23879
 CYCLE:   340 TIME:   0.086 TIME LEFT:  2.00D  GRAD.:     2.456 HEAT:  18.23522
 CYCLE:   341 TIME:   0.090 TIME LEFT:  2.00D  GRAD.:     3.294 HEAT:  18.23117
 CYCLE:   342 TIME:   0.094 TIME LEFT:  2.00D  GRAD.:     4.643 HEAT:  18.22541
 CYCLE:   343 TIME:   0.078 TIME LEFT:  2.00D  GRAD.:     4.031 HEAT:  18.21797
 CYCLE:   344 TIME:   0.078 TIME LEFT:  2.00D  GRAD.:     3.810 HEAT:  18.20954
 CYCLE:   345 TIME:   0.074 TIME LEFT:  2.00D  GRAD.:     4.743 HEAT:  18.20368
 CYCLE:   346 TIME:   0.086 TIME LEFT:  2.00D  GRAD.:     4.245 HEAT:  18.19725
 CYCLE:   347 TIME:   0.082 TIME LEFT:  2.00D  GRAD.:     2.664 HEAT:  18.19084
 CYCLE:   348 TIME:   0.090 TIME LEFT:  2.00D  GRAD.:     2.716 HEAT:  18.18332
 CYCLE:   349 TIME:   0.074 TIME LEFT:  2.00D  GRAD.:     5.217 HEAT:  18.17804
 CYCLE:   350 TIME:   0.070 TIME LEFT:  2.00D  GRAD.:     3.281 HEAT:  18.17104
 CYCLE:   351 TIME:   0.078 TIME LEFT:  2.00D  GRAD.:     3.081 HEAT:  18.16180
 CYCLE:   352 TIME:   0.078 TIME LEFT:  2.00D  GRAD.:     3.485 HEAT:  18.15240
 CYCLE:   353 TIME:   0.094 TIME LEFT:  2.00D  GRAD.:     5.921 HEAT:  18.14911
 CYCLE:   354 TIME:   0.074 TIME LEFT:  2.00D  GRAD.:    16.672 HEAT:  18.17413
 CYCLE:   355 TIME:   0.082 TIME LEFT:  2.00D  GRAD.:     3.393 HEAT:  18.13017
 CYCLE:   356 TIME:   0.074 TIME LEFT:  2.00D  GRAD.:     4.412 HEAT:  18.12778
 CYCLE:   357 TIME:   0.074 TIME LEFT:  2.00D  GRAD.:     4.511 HEAT:  18.11553
 CYCLE:   358 TIME:   0.090 TIME LEFT:  2.00D  GRAD.:     3.437 HEAT:  18.10836
 CYCLE:   359 TIME:   0.090 TIME LEFT:  2.00D  GRAD.:     2.525 HEAT:  18.10234
 CYCLE:   360 TIME:   0.105 TIME LEFT:  2.00D  GRAD.:     2.984 HEAT:  18.09684
 CYCLE:   361 TIME:   0.105 TIME LEFT:  2.00D  GRAD.:     4.480 HEAT:  18.09193
 CYCLE:   362 TIME:   0.105 TIME LEFT:  2.00D  GRAD.:     2.069 HEAT:  18.08742
 CYCLE:   363 TIME:   0.074 TIME LEFT:  2.00D  GRAD.:     2.123 HEAT:  18.08406
 CYCLE:   364 TIME:   0.074 TIME LEFT:  2.00D  GRAD.:     2.707 HEAT:  18.08054
 CYCLE:   365 TIME:   0.074 TIME LEFT:  2.00D  GRAD.:     4.095 HEAT:  18.07634
 CYCLE:   366 TIME:   0.070 TIME LEFT:  2.00D  GRAD.:     2.316 HEAT:  18.07267
 CYCLE:   367 TIME:   0.070 TIME LEFT:  2.00D  GRAD.:     2.888 HEAT:  18.07079
 CYCLE:   368 TIME:   0.074 TIME LEFT:  2.00D  GRAD.:     2.310 HEAT:  18.06731
 CYCLE:   369 TIME:   0.070 TIME LEFT:  2.00D  GRAD.:     2.441 HEAT:  18.06370
 CYCLE:   370 TIME:   0.074 TIME LEFT:  2.00D  GRAD.:     2.811 HEAT:  18.05866
 CYCLE:   371 TIME:   0.074 TIME LEFT:  2.00D  GRAD.:     4.444 HEAT:  18.05283
 CYCLE:   372 TIME:   0.082 TIME LEFT:  2.00D  GRAD.:     2.980 HEAT:  18.04547
 CYCLE:   373 TIME:   0.102 TIME LEFT:  2.00D  GRAD.:     2.591 HEAT:  18.03825
 CYCLE:   374 TIME:   0.094 TIME LEFT:  2.00D  GRAD.:     3.128 HEAT:  18.03234
 CYCLE:   375 TIME:   0.074 TIME LEFT:  2.00D  GRAD.:     3.197 HEAT:  18.02628
 CYCLE:   376 TIME:   0.074 TIME LEFT:  2.00D  GRAD.:     2.654 HEAT:  18.02026
 CYCLE:   377 TIME:   0.098 TIME LEFT:  2.00D  GRAD.:     4.121 HEAT:  18.01580
 CYCLE:   378 TIME:   0.078 TIME LEFT:  2.00D  GRAD.:     3.680 HEAT:  18.01137
 CYCLE:   379 TIME:   0.082 TIME LEFT:  2.00D  GRAD.:     2.244 HEAT:  18.00723
 CYCLE:   380 TIME:   0.094 TIME LEFT:  2.00D  GRAD.:     2.266 HEAT:  18.00281
 CYCLE:   381 TIME:   0.082 TIME LEFT:  2.00D  GRAD.:     4.986 HEAT:  17.99808
 CYCLE:   382 TIME:   0.090 TIME LEFT:  2.00D  GRAD.:     3.078 HEAT:  17.99324
 CYCLE:   383 TIME:   0.070 TIME LEFT:  2.00D  GRAD.:     2.467 HEAT:  17.98986
 CYCLE:   384 TIME:   0.074 TIME LEFT:  2.00D  GRAD.:     2.438 HEAT:  17.98336
 CYCLE:   385 TIME:   0.090 TIME LEFT:  2.00D  GRAD.:     3.196 HEAT:  17.97762
 CYCLE:   386 TIME:   0.090 TIME LEFT:  2.00D  GRAD.:     2.977 HEAT:  17.97108
 CYCLE:   387 TIME:   0.090 TIME LEFT:  2.00D  GRAD.:     2.459 HEAT:  17.96602
 CYCLE:   388 TIME:   0.102 TIME LEFT:  2.00D  GRAD.:     1.915 HEAT:  17.96214
 CYCLE:   389 TIME:   0.094 TIME LEFT:  2.00D  GRAD.:     2.056 HEAT:  17.95972
 CYCLE:   390 TIME:   0.070 TIME LEFT:  2.00D  GRAD.:     1.582 HEAT:  17.95691
 CYCLE:   391 TIME:   0.105 TIME LEFT:  2.00D  GRAD.:     1.740 HEAT:  17.95454
 CYCLE:   392 TIME:   0.102 TIME LEFT:  2.00D  GRAD.:     2.140 HEAT:  17.95275
 CYCLE:   393 TIME:   0.102 TIME LEFT:  2.00D  GRAD.:     1.391 HEAT:  17.95118
 CYCLE:   394 TIME:   0.105 TIME LEFT:  2.00D  GRAD.:     1.334 HEAT:  17.94973
 CYCLE:   395 TIME:   0.102 TIME LEFT:  2.00D  GRAD.:     2.307 HEAT:  17.94845
 CYCLE:   396 TIME:   0.082 TIME LEFT:  2.00D  GRAD.:     1.525 HEAT:  17.94712
 CYCLE:   397 TIME:   0.082 TIME LEFT:  2.00D  GRAD.:     1.319 HEAT:  17.94581
 CYCLE:   398 TIME:   0.078 TIME LEFT:  2.00D  GRAD.:     1.642 HEAT:  17.94354
 CYCLE:   399 TIME:   0.074 TIME LEFT:  2.00D  GRAD.:     2.458 HEAT:  17.94165
 CYCLE:   400 TIME:   0.078 TIME LEFT:  2.00D  GRAD.:     1.369 HEAT:  17.93989
 CYCLE:   401 TIME:   0.078 TIME LEFT:  2.00D  GRAD.:     1.111 HEAT:  17.93867
 CYCLE:   402 TIME:   0.078 TIME LEFT:  2.00D  GRAD.:     1.328 HEAT:  17.93744
 CYCLE:   403 TIME:   0.086 TIME LEFT:  2.00D  GRAD.:     2.585 HEAT:  17.93565
 CYCLE:   404 TIME:   0.070 TIME LEFT:  2.00D  GRAD.:     1.527 HEAT:  17.93363
 CYCLE:   405 TIME:   0.070 TIME LEFT:  2.00D  GRAD.:     1.167 HEAT:  17.93215
 CYCLE:   406 TIME:   0.094 TIME LEFT:  2.00D  GRAD.:     1.605 HEAT:  17.93091
 CYCLE:   407 TIME:   0.086 TIME LEFT:  2.00D  GRAD.:     1.726 HEAT:  17.92964
 CYCLE:   408 TIME:   0.082 TIME LEFT:  2.00D  GRAD.:     1.355 HEAT:  17.92827
 CYCLE:   409 TIME:   0.098 TIME LEFT:  2.00D  GRAD.:     2.095 HEAT:  17.92626
 CYCLE:   410 TIME:   0.102 TIME LEFT:  2.00D  GRAD.:     4.204 HEAT:  17.92583
 CYCLE:   411 TIME:   0.098 TIME LEFT:  2.00D  GRAD.:     1.704 HEAT:  17.92428
 CYCLE:   412 TIME:   0.074 TIME LEFT:  2.00D  GRAD.:     1.111 HEAT:  17.92319
 CYCLE:   413 TIME:   0.070 TIME LEFT:  2.00D  GRAD.:     1.503 HEAT:  17.92204
 CYCLE:   414 TIME:   0.074 TIME LEFT:  2.00D  GRAD.:     1.549 HEAT:  17.92062
 CYCLE:   415 TIME:   0.070 TIME LEFT:  2.00D  GRAD.:     3.762 HEAT:  17.91942
 CYCLE:   416 TIME:   0.074 TIME LEFT:  2.00D  GRAD.:     1.409 HEAT:  17.91627
 CYCLE:   417 TIME:   0.070 TIME LEFT:  2.00D  GRAD.:     1.230 HEAT:  17.91476
 CYCLE:   418 TIME:   0.070 TIME LEFT:  2.00D  GRAD.:     1.617 HEAT:  17.91198
 CYCLE:   419 TIME:   0.070 TIME LEFT:  2.00D  GRAD.:     3.806 HEAT:  17.91087
 CYCLE:   420 TIME:   0.070 TIME LEFT:  2.00D  GRAD.:     1.464 HEAT:  17.90802
 CYCLE:   421 TIME:   0.074 TIME LEFT:  2.00D  GRAD.:     1.100 HEAT:  17.90665
 CYCLE:   422 TIME:   0.078 TIME LEFT:  2.00D  GRAD.:     1.350 HEAT:  17.90529
 CYCLE:   423 TIME:   0.074 TIME LEFT:  2.00D  GRAD.:     2.489 HEAT:  17.90373
 CYCLE:   424 TIME:   0.070 TIME LEFT:  2.00D  GRAD.:     1.317 HEAT:  17.90204
 CYCLE:   425 TIME:   0.074 TIME LEFT:  2.00D  GRAD.:     1.101 HEAT:  17.90101
 CYCLE:   426 TIME:   0.078 TIME LEFT:  2.00D  GRAD.:     4.807 HEAT:  17.90118
 CYCLE:   427 TIME:   0.082 TIME LEFT:  2.00D  GRAD.:     1.309 HEAT:  17.89950
 CYCLE:   428 TIME:   0.082 TIME LEFT:  2.00D  GRAD.:     0.911 HEAT:  17.89910
 CYCLE:   429 TIME:   0.094 TIME LEFT:  2.00D  GRAD.:     1.556 HEAT:  17.89782
 CYCLE:   430 TIME:   0.094 TIME LEFT:  2.00D  GRAD.:     1.515 HEAT:  17.89706
 CYCLE:   431 TIME:   0.094 TIME LEFT:  2.00D  GRAD.:     2.134 HEAT:  17.89473
 CYCLE:   432 TIME:   0.074 TIME LEFT:  2.00D  GRAD.:     3.557 HEAT:  17.89419
 CYCLE:   433 TIME:   0.062 TIME LEFT:  2.00D  GRAD.:     1.018 HEAT:  17.89196
 CYCLE:   434 TIME:   0.074 TIME LEFT:  2.00D  GRAD.:     0.878 HEAT:  17.89136
 CYCLE:   435 TIME:   0.074 TIME LEFT:  2.00D  GRAD.:     1.359 HEAT:  17.89004
 CYCLE:   436 TIME:   0.074 TIME LEFT:  2.00D  GRAD.:     3.018 HEAT:  17.88914
 CYCLE:   437 TIME:   0.082 TIME LEFT:  2.00D  GRAD.:     1.548 HEAT:  17.88750
 CYCLE:   438 TIME:   0.070 TIME LEFT:  2.00D  GRAD.:     1.066 HEAT:  17.88608
 CYCLE:   439 TIME:   0.074 TIME LEFT:  2.00D  GRAD.:     1.198 HEAT:  17.88513
 CYCLE:   440 TIME:   0.074 TIME LEFT:  2.00D  GRAD.:     2.402 HEAT:  17.88375
 CYCLE:   441 TIME:   0.086 TIME LEFT:  2.00D  GRAD.:     1.372 HEAT:  17.88215
 CYCLE:   442 TIME:   0.082 TIME LEFT:  2.00D  GRAD.:     1.176 HEAT:  17.88108
 CYCLE:   443 TIME:   0.078 TIME LEFT:  2.00D  GRAD.:     1.551 HEAT:  17.88003
 CYCLE:   444 TIME:   0.105 TIME LEFT:  2.00D  GRAD.:     2.206 HEAT:  17.87871
 CYCLE:   445 TIME:   0.105 TIME LEFT:  2.00D  GRAD.:     2.008 HEAT:  17.87716
 CYCLE:   446 TIME:   0.098 TIME LEFT:  2.00D  GRAD.:     1.450 HEAT:  17.87422
 CYCLE:   447 TIME:   0.105 TIME LEFT:  2.00D  GRAD.:     1.822 HEAT:  17.87214
 CYCLE:   448 TIME:   0.094 TIME LEFT:  2.00D  GRAD.:     1.695 HEAT:  17.87006
 CYCLE:   449 TIME:   0.105 TIME LEFT:  2.00D  GRAD.:     2.337 HEAT:  17.86750
 CYCLE:   450 TIME:   0.105 TIME LEFT:  2.00D  GRAD.:     2.180 HEAT:  17.86352
 CYCLE:   451 TIME:   0.094 TIME LEFT:  2.00D  GRAD.:     2.349 HEAT:  17.86085
 CYCLE:   452 TIME:   0.102 TIME LEFT:  2.00D  GRAD.:     1.822 HEAT:  17.85879
 CYCLE:   453 TIME:   0.070 TIME LEFT:  2.00D  GRAD.:     1.987 HEAT:  17.85567
 CYCLE:   454 TIME:   0.078 TIME LEFT:  2.00D  GRAD.:     2.255 HEAT:  17.85283
 CYCLE:   455 TIME:   0.082 TIME LEFT:  2.00D  GRAD.:     3.302 HEAT:  17.85119
 CYCLE:   456 TIME:   0.082 TIME LEFT:  2.00D  GRAD.:     1.414 HEAT:  17.84917
 CYCLE:   457 TIME:   0.078 TIME LEFT:  2.00D  GRAD.:     1.386 HEAT:  17.84792
 CYCLE:   458 TIME:   0.070 TIME LEFT:  2.00D  GRAD.:     1.525 HEAT:  17.84646
 CYCLE:   459 TIME:   0.074 TIME LEFT:  2.00D  GRAD.:     6.833 HEAT:  17.84758
 CYCLE:   460 TIME:   0.070 TIME LEFT:  2.00D  GRAD.:     1.714 HEAT:  17.84360
 CYCLE:   461 TIME:   0.070 TIME LEFT:  2.00D  GRAD.:     1.289 HEAT:  17.84249
 CYCLE:   462 TIME:   0.070 TIME LEFT:  2.00D  GRAD.:     1.847 HEAT:  17.84035
 CYCLE:   463 TIME:   0.074 TIME LEFT:  2.00D  GRAD.:     1.900 HEAT:  17.83802
 CYCLE:   464 TIME:   0.074 TIME LEFT:  2.00D  GRAD.:     5.189 HEAT:  17.83852
 CYCLE:   465 TIME:   0.070 TIME LEFT:  2.00D  GRAD.:     1.423 HEAT:  17.83320
 CYCLE:   466 TIME:   0.074 TIME LEFT:  2.00D  GRAD.:     1.088 HEAT:  17.83190
 CYCLE:   467 TIME:   0.078 TIME LEFT:  2.00D  GRAD.:     1.774 HEAT:  17.82948
 CYCLE:   468 TIME:   0.086 TIME LEFT:  2.00D  GRAD.:     2.978 HEAT:  17.82762
 CYCLE:   469 TIME:   0.070 TIME LEFT:  2.00D  GRAD.:     1.966 HEAT:  17.82510
 CYCLE:   470 TIME:   0.074 TIME LEFT:  2.00D  GRAD.:     1.506 HEAT:  17.82209
 CYCLE:   471 TIME:   0.070 TIME LEFT:  2.00D  GRAD.:     2.083 HEAT:  17.81989
 CYCLE:   472 TIME:   0.074 TIME LEFT:  2.00D  GRAD.:     2.027 HEAT:  17.81678
 CYCLE:   473 TIME:   0.078 TIME LEFT:  2.00D  GRAD.:     2.541 HEAT:  17.81285
 CYCLE:   474 TIME:   0.082 TIME LEFT:  2.00D  GRAD.:     2.185 HEAT:  17.80913
 CYCLE:   475 TIME:   0.070 TIME LEFT:  2.00D  GRAD.:     1.971 HEAT:  17.80622
 CYCLE:   476 TIME:   0.074 TIME LEFT:  2.00D  GRAD.:     3.151 HEAT:  17.80249
 CYCLE:   477 TIME:   0.094 TIME LEFT:  2.00D  GRAD.:     4.582 HEAT:  17.79945
 CYCLE:   478 TIME:   0.066 TIME LEFT:  2.00D  GRAD.:     2.691 HEAT:  17.79653
 CYCLE:   479 TIME:   0.105 TIME LEFT:  2.00D  GRAD.:     2.062 HEAT:  17.79257
 CYCLE:   480 TIME:   0.070 TIME LEFT:  2.00D  GRAD.:     2.056 HEAT:  17.79048
 CYCLE:   481 TIME:   0.070 TIME LEFT:  2.00D  GRAD.:     3.216 HEAT:  17.78490
 CYCLE:   482 TIME:   0.086 TIME LEFT:  2.00D  GRAD.:     4.810 HEAT:  17.78216
 CYCLE:   483 TIME:   0.074 TIME LEFT:  2.00D  GRAD.:     1.729 HEAT:  17.77704
 CYCLE:   484 TIME:   0.078 TIME LEFT:  2.00D  GRAD.:     1.396 HEAT:  17.77526
 CYCLE:   485 TIME:   0.074 TIME LEFT:  2.00D  GRAD.:     2.178 HEAT:  17.77193
 CYCLE:   486 TIME:   0.074 TIME LEFT:  2.00D  GRAD.:     6.167 HEAT:  17.77283
 CYCLE:   487 TIME:   0.086 TIME LEFT:  2.00D  GRAD.:     1.713 HEAT:  17.76836
 CYCLE:   488 TIME:   0.090 TIME LEFT:  2.00D  GRAD.:     1.299 HEAT:  17.76729
 CYCLE:   489 TIME:   0.082 TIME LEFT:  2.00D  GRAD.:     1.958 HEAT:  17.76576
 CYCLE:   490 TIME:   0.098 TIME LEFT:  2.00D  GRAD.:     1.924 HEAT:  17.76397
 CYCLE:   491 TIME:   0.109 TIME LEFT:  2.00D  GRAD.:     1.949 HEAT:  17.76200
 CYCLE:   492 TIME:   0.105 TIME LEFT:  2.00D  GRAD.:     1.896 HEAT:  17.76052
 CYCLE:   493 TIME:   0.105 TIME LEFT:  2.00D  GRAD.:     1.494 HEAT:  17.75895
 CYCLE:   494 TIME:   0.105 TIME LEFT:  2.00D  GRAD.:     2.050 HEAT:  17.75663
 CYCLE:   495 TIME:   0.105 TIME LEFT:  2.00D  GRAD.:     1.991 HEAT:  17.75483
 CYCLE:   496 TIME:   0.102 TIME LEFT:  2.00D  GRAD.:     1.313 HEAT:  17.75357
 CYCLE:   497 TIME:   0.105 TIME LEFT:  2.00D  GRAD.:     1.017 HEAT:  17.75185
 CYCLE:   498 TIME:   0.086 TIME LEFT:  2.00D  GRAD.:     1.662 HEAT:  17.75094
 CYCLE:   499 TIME:   0.082 TIME LEFT:  2.00D  GRAD.:     1.180 HEAT:  17.74982
 CYCLE:   500 TIME:   0.082 TIME LEFT:  2.00D  GRAD.:     0.993 HEAT:  17.74830
 CYCLE:   501 TIME:   0.090 TIME LEFT:  2.00D  GRAD.:     1.814 HEAT:  17.74751
 CYCLE:   502 TIME:   0.074 TIME LEFT:  2.00D  GRAD.:     1.112 HEAT:  17.74654
 CYCLE:   503 TIME:   0.105 TIME LEFT:  2.00D  GRAD.:     1.004 HEAT:  17.74520
 CYCLE:   504 TIME:   0.105 TIME LEFT:  2.00D  GRAD.:     1.239 HEAT:  17.74411
 CYCLE:   505 TIME:   0.105 TIME LEFT:  2.00D  GRAD.:     3.863 HEAT:  17.74353
 CYCLE:   506 TIME:   0.082 TIME LEFT:  2.00D  GRAD.:     1.549 HEAT:  17.74169
 CYCLE:   507 TIME:   0.270 TIME LEFT:  2.00D  GRAD.:     1.184 HEAT:  17.74095
 CYCLE:   508 TIME:   0.102 TIME LEFT:  2.00D  GRAD.:     1.442 HEAT:  17.73953
 CYCLE:   509 TIME:   0.094 TIME LEFT:  2.00D  GRAD.:     2.343 HEAT:  17.73820
 CYCLE:   510 TIME:   0.078 TIME LEFT:  2.00D  GRAD.:     1.688 HEAT:  17.73638
 CYCLE:   511 TIME:   0.105 TIME LEFT:  2.00D  GRAD.:     1.787 HEAT:  17.73489
 CYCLE:   512 TIME:   0.105 TIME LEFT:  2.00D  GRAD.:     1.292 HEAT:  17.73394
 CYCLE:   513 TIME:   0.102 TIME LEFT:  2.00D  GRAD.:     1.013 HEAT:  17.73336
 CYCLE:   514 TIME:   0.105 TIME LEFT:  2.00D  GRAD.:     1.073 HEAT:  17.73195
 CYCLE:   515 TIME:   0.086 TIME LEFT:  2.00D  GRAD.:     1.829 HEAT:  17.73136
 CYCLE:   516 TIME:   0.082 TIME LEFT:  2.00D  GRAD.:     1.023 HEAT:  17.73065
 CYCLE:   517 TIME:   0.109 TIME LEFT:  2.00D  GRAD.:     0.783 HEAT:  17.72981
 CYCLE:   518 TIME:   0.082 TIME LEFT:  2.00D  GRAD.:     0.912 HEAT:  17.72915
 CYCLE:   519 TIME:   0.094 TIME LEFT:  2.00D  GRAD.:     1.489 HEAT:  17.72775
 CYCLE:   520 TIME:   0.086 TIME LEFT:  2.00D  GRAD.:     4.835 HEAT:  17.72874
 CYCLE:   521 TIME:   0.070 TIME LEFT:  2.00D  GRAD.:     0.865 HEAT:  17.72630
 CYCLE:   522 TIME:   0.066 TIME LEFT:  2.00D  GRAD.:     0.778 HEAT:  17.72599
 CYCLE:   523 TIME:   0.074 TIME LEFT:  2.00D  GRAD.:     1.003 HEAT:  17.72538
 CYCLE:   524 TIME:   0.070 TIME LEFT:  2.00D  GRAD.:     1.140 HEAT:  17.72456
 CYCLE:   525 TIME:   0.074 TIME LEFT:  2.00D  GRAD.:     1.247 HEAT:  17.72325
 CYCLE:   526 TIME:   0.074 TIME LEFT:  2.00D  GRAD.:     1.355 HEAT:  17.72251
 CYCLE:   527 TIME:   0.066 TIME LEFT:  2.00D  GRAD.:     0.999 HEAT:  17.72189
 CYCLE:   528 TIME:   0.074 TIME LEFT:  2.00D  GRAD.:     0.927 HEAT:  17.72098
 CYCLE:   529 TIME:   0.098 TIME LEFT:  2.00D  GRAD.:     1.817 HEAT:  17.72036
 CYCLE:   530 TIME:   0.105 TIME LEFT:  2.00D  GRAD.:     1.060 HEAT:  17.71959
 CYCLE:   531 TIME:   0.109 TIME LEFT:  2.00D  GRAD.:     0.847 HEAT:  17.71867
 CYCLE:   532 TIME:   0.105 TIME LEFT:  2.00D  GRAD.:     0.878 HEAT:  17.71806
 CYCLE:   533 TIME:   0.102 TIME LEFT:  2.00D  GRAD.:     2.319 HEAT:  17.71769
 CYCLE:   534 TIME:   0.078 TIME LEFT:  2.00D  GRAD.:     0.703 HEAT:  17.71674
 CYCLE:   535 TIME:   0.066 TIME LEFT:  2.00D  GRAD.:     0.654 HEAT:  17.71645
 CYCLE:   536 TIME:   0.086 TIME LEFT:  2.00D  GRAD.:     1.020 HEAT:  17.71571
 CYCLE:   537 TIME:   0.078 TIME LEFT:  2.00D  GRAD.:     1.341 HEAT:  17.71470
 CYCLE:   538 TIME:   0.070 TIME LEFT:  2.00D  GRAD.:     3.744 HEAT:  17.71478
 CYCLE:   539 TIME:   0.074 TIME LEFT:  2.00D  GRAD.:     0.864 HEAT:  17.71330
 CYCLE:   540 TIME:   0.074 TIME LEFT:  2.00D  GRAD.:     0.702 HEAT:  17.71303
 CYCLE:   541 TIME:   0.086 TIME LEFT:  2.00D  GRAD.:     0.918 HEAT:  17.71255
 CYCLE:   542 TIME:   0.094 TIME LEFT:  2.00D  GRAD.:     1.366 HEAT:  17.71184
 CYCLE:   543 TIME:   0.105 TIME LEFT:  2.00D  GRAD.:     0.931 HEAT:  17.71093
 CYCLE:   544 TIME:   0.090 TIME LEFT:  2.00D  GRAD.:     1.054 HEAT:  17.71021
 CYCLE:   545 TIME:   0.074 TIME LEFT:  2.00D  GRAD.:     1.085 HEAT:  17.70937
 CYCLE:   546 TIME:   0.074 TIME LEFT:  2.00D  GRAD.:     0.919 HEAT:  17.70873
 CYCLE:   547 TIME:   0.078 TIME LEFT:  2.00D  GRAD.:     1.045 HEAT:  17.70807
 CYCLE:   548 TIME:   0.086 TIME LEFT:  2.00D  GRAD.:     1.425 HEAT:  17.70755
 CYCLE:   549 TIME:   0.094 TIME LEFT:  2.00D  GRAD.:     0.932 HEAT:  17.70702
 CYCLE:   550 TIME:   0.082 TIME LEFT:  2.00D  GRAD.:     0.904 HEAT:  17.70601
 CYCLE:   551 TIME:   0.070 TIME LEFT:  2.00D  GRAD.:     1.116 HEAT:  17.70519
 CYCLE:   552 TIME:   0.074 TIME LEFT:  2.00D  GRAD.:     1.808 HEAT:  17.70391
 CYCLE:   553 TIME:   0.078 TIME LEFT:  2.00D  GRAD.:     2.534 HEAT:  17.70283
 CYCLE:   554 TIME:   0.074 TIME LEFT:  2.00D  GRAD.:     1.143 HEAT:  17.70171
 CYCLE:   555 TIME:   0.094 TIME LEFT:  2.00D  GRAD.:     1.040 HEAT:  17.70103
 CYCLE:   556 TIME:   0.074 TIME LEFT:  2.00D  GRAD.:     1.051 HEAT:  17.70021
 CYCLE:   557 TIME:   0.098 TIME LEFT:  2.00D  GRAD.:     2.103 HEAT:  17.69920
 CYCLE:   558 TIME:   0.105 TIME LEFT:  2.00D  GRAD.:     1.240 HEAT:  17.69811
 CYCLE:   559 TIME:   0.098 TIME LEFT:  2.00D  GRAD.:     0.796 HEAT:  17.69755
 CYCLE:   560 TIME:   0.074 TIME LEFT:  2.00D  GRAD.:     0.894 HEAT:  17.69692
 CYCLE:   561 TIME:   0.109 TIME LEFT:  2.00D  GRAD.:     1.064 HEAT:  17.69611
 CYCLE:   562 TIME:   0.109 TIME LEFT:  2.00D  GRAD.:     1.428 HEAT:  17.69455
 CYCLE:   563 TIME:   0.098 TIME LEFT:  2.00D  GRAD.:     2.265 HEAT:  17.69399
 CYCLE:   564 TIME:   0.070 TIME LEFT:  2.00D  GRAD.:     0.998 HEAT:  17.69304
 CYCLE:   565 TIME:   0.102 TIME LEFT:  2.00D  GRAD.:     0.705 HEAT:  17.69238
 CYCLE:   566 TIME:   0.105 TIME LEFT:  2.00D  GRAD.:     0.983 HEAT:  17.69161
 CYCLE:   567 TIME:   0.074 TIME LEFT:  2.00D  GRAD.:     1.969 HEAT:  17.69097
 CYCLE:   568 TIME:   0.102 TIME LEFT:  2.00D  GRAD.:     1.342 HEAT:  17.69012
 CYCLE:   569 TIME:   0.086 TIME LEFT:  2.00D  GRAD.:     1.042 HEAT:  17.68929
 CYCLE:   570 TIME:   0.074 TIME LEFT:  2.00D  GRAD.:     1.554 HEAT:  17.68797
 CYCLE:   571 TIME:   0.094 TIME LEFT:  2.00D  GRAD.:     1.910 HEAT:  17.68661
 CYCLE:   572 TIME:   0.074 TIME LEFT:  2.00D  GRAD.:     1.227 HEAT:  17.68554
 CYCLE:   573 TIME:   0.070 TIME LEFT:  2.00D  GRAD.:     0.887 HEAT:  17.68485
 CYCLE:   574 TIME:   0.078 TIME LEFT:  2.00D  GRAD.:     0.873 HEAT:  17.68431
 CYCLE:   575 TIME:   0.078 TIME LEFT:  2.00D  GRAD.:     0.993 HEAT:  17.68339
 CYCLE:   576 TIME:   0.078 TIME LEFT:  2.00D  GRAD.:     2.757 HEAT:  17.68314
 CYCLE:   577 TIME:   0.066 TIME LEFT:  2.00D  GRAD.:     0.817 HEAT:  17.68185
 CYCLE:   578 TIME:   0.082 TIME LEFT:  2.00D  GRAD.:     0.728 HEAT:  17.68145
 CYCLE:   579 TIME:   0.090 TIME LEFT:  2.00D  GRAD.:     0.986 HEAT:  17.68061
 CYCLE:   580 TIME:   0.090 TIME LEFT:  2.00D  GRAD.:     1.261 HEAT:  17.67939
 CYCLE:   581 TIME:   0.082 TIME LEFT:  2.00D  GRAD.:     2.340 HEAT:  17.67850
 CYCLE:   582 TIME:   0.082 TIME LEFT:  2.00D  GRAD.:     1.789 HEAT:  17.67702
 CYCLE:   583 TIME:   0.078 TIME LEFT:  2.00D  GRAD.:     1.081 HEAT:  17.67595
 CYCLE:   584 TIME:   0.070 TIME LEFT:  2.00D  GRAD.:     1.231 HEAT:  17.67512
 CYCLE:   585 TIME:   0.078 TIME LEFT:  2.00D  GRAD.:     1.849 HEAT:  17.67420
 CYCLE:   586 TIME:   0.070 TIME LEFT:  2.00D  GRAD.:     1.279 HEAT:  17.67305
 CYCLE:   587 TIME:   0.074 TIME LEFT:  2.00D  GRAD.:     1.072 HEAT:  17.67171
 CYCLE:   588 TIME:   0.082 TIME LEFT:  2.00D  GRAD.:     1.647 HEAT:  17.67073
 CYCLE:   589 TIME:   0.082 TIME LEFT:  2.00D  GRAD.:     1.280 HEAT:  17.66955
 CYCLE:   590 TIME:   0.094 TIME LEFT:  2.00D  GRAD.:     1.304 HEAT:  17.66781
 CYCLE:   591 TIME:   0.086 TIME LEFT:  2.00D  GRAD.:     1.950 HEAT:  17.66642
 CYCLE:   592 TIME:   0.082 TIME LEFT:  2.00D  GRAD.:     1.302 HEAT:  17.66506
 CYCLE:   593 TIME:   0.090 TIME LEFT:  2.00D  GRAD.:     1.278 HEAT:  17.66324
 CYCLE:   594 TIME:   0.094 TIME LEFT:  2.00D  GRAD.:     1.719 HEAT:  17.66192
 CYCLE:   595 TIME:   0.090 TIME LEFT:  2.00D  GRAD.:     1.363 HEAT:  17.66027
 CYCLE:   596 TIME:   0.109 TIME LEFT:  2.00D  GRAD.:     2.331 HEAT:  17.65844
 CYCLE:   597 TIME:   0.078 TIME LEFT:  2.00D  GRAD.:     2.996 HEAT:  17.65716
 CYCLE:   598 TIME:   0.066 TIME LEFT:  2.00D  GRAD.:     1.315 HEAT:  17.65586
 CYCLE:   599 TIME:   0.070 TIME LEFT:  2.00D  GRAD.:     1.108 HEAT:  17.65489
 CYCLE:   600 TIME:   0.094 TIME LEFT:  2.00D  GRAD.:     1.290 HEAT:  17.65394
 CYCLE:   601 TIME:   0.109 TIME LEFT:  2.00D  GRAD.:     2.661 HEAT:  17.65293
 CYCLE:   602 TIME:   0.105 TIME LEFT:  2.00D  GRAD.:     1.301 HEAT:  17.65164
 CYCLE:   603 TIME:   0.105 TIME LEFT:  2.00D  GRAD.:     1.027 HEAT:  17.65088
 CYCLE:   604 TIME:   0.078 TIME LEFT:  2.00D  GRAD.:     1.063 HEAT:  17.65008
 CYCLE:   605 TIME:   0.105 TIME LEFT:  2.00D  GRAD.:     1.349 HEAT:  17.64842
 CYCLE:   606 TIME:   0.113 TIME LEFT:  2.00D  GRAD.:     2.549 HEAT:  17.64747
 CYCLE:   607 TIME:   0.098 TIME LEFT:  2.00D  GRAD.:     1.086 HEAT:  17.64591
 CYCLE:   608 TIME:   0.109 TIME LEFT:  2.00D  GRAD.:     1.112 HEAT:  17.64506
 CYCLE:   609 TIME:   0.082 TIME LEFT:  2.00D  GRAD.:     1.550 HEAT:  17.64349
 CYCLE:   610 TIME:   0.086 TIME LEFT:  2.00D  GRAD.:     2.931 HEAT:  17.64249
 CYCLE:   611 TIME:   0.070 TIME LEFT:  2.00D  GRAD.:     1.222 HEAT:  17.64081
 CYCLE:   612 TIME:   0.070 TIME LEFT:  2.00D  GRAD.:     0.904 HEAT:  17.64010
 CYCLE:   613 TIME:   0.078 TIME LEFT:  2.00D  GRAD.:     1.254 HEAT:  17.63948
 CYCLE:   614 TIME:   0.098 TIME LEFT:  2.00D  GRAD.:     1.344 HEAT:  17.63869
 CYCLE:   615 TIME:   0.070 TIME LEFT:  2.00D  GRAD.:     1.218 HEAT:  17.63769
 CYCLE:   616 TIME:   0.074 TIME LEFT:  2.00D  GRAD.:     2.230 HEAT:  17.63662
 CYCLE:   617 TIME:   0.074 TIME LEFT:  2.00D  GRAD.:     1.258 HEAT:  17.63545
 CYCLE:   618 TIME:   0.090 TIME LEFT:  2.00D  GRAD.:     1.182 HEAT:  17.63462
 CYCLE:   619 TIME:   0.102 TIME LEFT:  2.00D  GRAD.:     1.551 HEAT:  17.63283
 CYCLE:   620 TIME:   0.094 TIME LEFT:  2.00D  GRAD.:     2.428 HEAT:  17.63169
 CYCLE:   621 TIME:   0.070 TIME LEFT:  2.00D  GRAD.:     1.288 HEAT:  17.63009
 CYCLE:   622 TIME:   0.102 TIME LEFT:  2.00D  GRAD.:     1.472 HEAT:  17.62866
 CYCLE:   623 TIME:   0.070 TIME LEFT:  2.00D  GRAD.:     1.750 HEAT:  17.62738
 CYCLE:   624 TIME:   0.074 TIME LEFT:  2.00D  GRAD.:     1.565 HEAT:  17.62549
 CYCLE:   625 TIME:   0.074 TIME LEFT:  2.00D  GRAD.:     1.497 HEAT:  17.62305
 CYCLE:   626 TIME:   0.086 TIME LEFT:  2.00D  GRAD.:     2.997 HEAT:  17.62105
 CYCLE:   627 TIME:   0.070 TIME LEFT:  2.00D  GRAD.:     1.693 HEAT:  17.61900
 CYCLE:   628 TIME:   0.078 TIME LEFT:  2.00D  GRAD.:     1.688 HEAT:  17.61738
 CYCLE:   629 TIME:   0.074 TIME LEFT:  2.00D  GRAD.:     2.095 HEAT:  17.61478
 CYCLE:   630 TIME:   0.078 TIME LEFT:  2.00D  GRAD.:     4.550 HEAT:  17.61411
 CYCLE:   631 TIME:   0.066 TIME LEFT:  2.00D  GRAD.:     1.780 HEAT:  17.61178
 CYCLE:   632 TIME:   0.078 TIME LEFT:  2.00D  GRAD.:     1.288 HEAT:  17.61109
 CYCLE:   633 TIME:   0.086 TIME LEFT:  2.00D  GRAD.:     1.515 HEAT:  17.60996
 CYCLE:   634 TIME:   0.098 TIME LEFT:  2.00D  GRAD.:     1.951 HEAT:  17.60898
 CYCLE:   635 TIME:   0.102 TIME LEFT:  2.00D  GRAD.:     1.033 HEAT:  17.60778
 CYCLE:   636 TIME:   0.086 TIME LEFT:  2.00D  GRAD.:     0.948 HEAT:  17.60713
 CYCLE:   637 TIME:   0.074 TIME LEFT:  2.00D  GRAD.:     1.403 HEAT:  17.60565
 CYCLE:   638 TIME:   0.074 TIME LEFT:  2.00D  GRAD.:     2.662 HEAT:  17.60536
 CYCLE:   639 TIME:   0.102 TIME LEFT:  2.00D  GRAD.:     0.890 HEAT:  17.60403
 CYCLE:   640 TIME:   0.074 TIME LEFT:  2.00D  GRAD.:     0.823 HEAT:  17.60352
 CYCLE:   641 TIME:   0.109 TIME LEFT:  2.00D  GRAD.:     0.914 HEAT:  17.60284
 CYCLE:   642 TIME:   0.078 TIME LEFT:  2.00D  GRAD.:     1.225 HEAT:  17.60155
 CYCLE:   643 TIME:   0.098 TIME LEFT:  2.00D  GRAD.:     2.226 HEAT:  17.60081
 CYCLE:   644 TIME:   0.105 TIME LEFT:  2.00D  GRAD.:     0.812 HEAT:  17.59960
 CYCLE:   645 TIME:   0.086 TIME LEFT:  2.00D  GRAD.:     0.924 HEAT:  17.59906
 CYCLE:   646 TIME:   0.086 TIME LEFT:  2.00D  GRAD.:     1.368 HEAT:  17.59832
 CYCLE:   647 TIME:   0.109 TIME LEFT:  2.00D  GRAD.:     1.792 HEAT:  17.59762
 CYCLE:   648 TIME:   0.102 TIME LEFT:  2.00D  GRAD.:     0.948 HEAT:  17.59691
 CYCLE:   649 TIME:   0.105 TIME LEFT:  2.00D  GRAD.:     0.943 HEAT:  17.59648
 CYCLE:   650 TIME:   0.105 TIME LEFT:  2.00D  GRAD.:     0.924 HEAT:  17.59572
 CYCLE:   651 TIME:   0.109 TIME LEFT:  2.00D  GRAD.:     2.486 HEAT:  17.59515
 CYCLE:   652 TIME:   0.109 TIME LEFT:  2.00D  GRAD.:     0.900 HEAT:  17.59386
 CYCLE:   653 TIME:   0.082 TIME LEFT:  2.00D  GRAD.:     0.768 HEAT:  17.59347
 CYCLE:   654 TIME:   0.109 TIME LEFT:  2.00D  GRAD.:     0.919 HEAT:  17.59270
 CYCLE:   655 TIME:   0.109 TIME LEFT:  2.00D  GRAD.:     1.820 HEAT:  17.59201
 CYCLE:   656 TIME:   0.094 TIME LEFT:  2.00D  GRAD.:     0.983 HEAT:  17.59113
 CYCLE:   657 TIME:   0.105 TIME LEFT:  2.00D  GRAD.:     0.922 HEAT:  17.59029
 CYCLE:   658 TIME:   0.098 TIME LEFT:  2.00D  GRAD.:     1.007 HEAT:  17.58961
 CYCLE:   659 TIME:   0.074 TIME LEFT:  2.00D  GRAD.:     1.172 HEAT:  17.58869
 CYCLE:   660 TIME:   0.074 TIME LEFT:  2.00D  GRAD.:     1.002 HEAT:  17.58792
 CYCLE:   661 TIME:   0.082 TIME LEFT:  2.00D  GRAD.:     1.353 HEAT:  17.58734
 CYCLE:   662 TIME:   0.074 TIME LEFT:  2.00D  GRAD.:     0.873 HEAT:  17.58663
 CYCLE:   663 TIME:   0.090 TIME LEFT:  2.00D  GRAD.:     0.908 HEAT:  17.58603
 CYCLE:   664 TIME:   0.105 TIME LEFT:  2.00D  GRAD.:     2.138 HEAT:  17.58565
 CYCLE:   665 TIME:   0.074 TIME LEFT:  2.00D  GRAD.:     1.022 HEAT:  17.58495
 CYCLE:   666 TIME:   0.074 TIME LEFT:  2.00D  GRAD.:     0.685 HEAT:  17.58461
 CYCLE:   667 TIME:   0.102 TIME LEFT:  2.00D  GRAD.:     0.710 HEAT:  17.58427
 CYCLE:   668 TIME:   0.086 TIME LEFT:  2.00D  GRAD.:     1.421 HEAT:  17.58357
 CYCLE:   669 TIME:   0.082 TIME LEFT:  2.00D  GRAD.:     0.841 HEAT:  17.58309
 CYCLE:   670 TIME:   0.066 TIME LEFT:  2.00D  GRAD.:     0.620 HEAT:  17.58283
 CYCLE:   671 TIME:   0.082 TIME LEFT:  2.00D  GRAD.:     0.614 HEAT:  17.58239
 CYCLE:   672 TIME:   0.070 TIME LEFT:  2.00D  GRAD.:     1.311 HEAT:  17.58206
 CYCLE:   673 TIME:   0.074 TIME LEFT:  2.00D  GRAD.:     0.628 HEAT:  17.58161
 CYCLE:   674 TIME:   0.074 TIME LEFT:  2.00D  GRAD.:     0.607 HEAT:  17.58122
 CYCLE:   675 TIME:   0.078 TIME LEFT:  2.00D  GRAD.:     0.716 HEAT:  17.58080
 CYCLE:   676 TIME:   0.082 TIME LEFT:  2.00D  GRAD.:     1.146 HEAT:  17.58028
 CYCLE:   677 TIME:   0.094 TIME LEFT:  2.00D  GRAD.:     0.959 HEAT:  17.57967
 CYCLE:   678 TIME:   0.070 TIME LEFT:  2.00D  GRAD.:     0.847 HEAT:  17.57933
 CYCLE:   679 TIME:   0.070 TIME LEFT:  2.00D  GRAD.:     0.785 HEAT:  17.57904
 CYCLE:   680 TIME:   0.082 TIME LEFT:  2.00D  GRAD.:     0.553 HEAT:  17.57884
 CYCLE:   681 TIME:   0.074 TIME LEFT:  2.00D  GRAD.:     0.499 HEAT:  17.57867
 CYCLE:   682 TIME:   0.078 TIME LEFT:  2.00D  GRAD.:     0.843 HEAT:  17.57835
 CYCLE:   683 TIME:   0.070 TIME LEFT:  2.00D  GRAD.:     0.773 HEAT:  17.57808
 CYCLE:   684 TIME:   0.074 TIME LEFT:  2.00D  GRAD.:     0.553 HEAT:  17.57790
 CYCLE:   685 TIME:   0.086 TIME LEFT:  2.00D  GRAD.:     0.675 HEAT:  17.57762
 CYCLE:   686 TIME:   0.082 TIME LEFT:  2.00D  GRAD.:     0.891 HEAT:  17.57746
 CYCLE:   687 TIME:   0.098 TIME LEFT:  2.00D  GRAD.:     0.551 HEAT:  17.57731
 CYCLE:   688 TIME:   0.094 TIME LEFT:  2.00D  GRAD.:     0.597 HEAT:  17.57706
 CYCLE:   689 TIME:   0.074 TIME LEFT:  2.00D  GRAD.:     0.558 HEAT:  17.57689
 CYCLE:   690 TIME:   0.102 TIME LEFT:  2.00D  GRAD.:     1.007 HEAT:  17.57657
 CYCLE:   691 TIME:   0.078 TIME LEFT:  2.00D  GRAD.:     0.680 HEAT:  17.57625
 CYCLE:   692 TIME:   0.074 TIME LEFT:  2.00D  GRAD.:     0.502 HEAT:  17.57604
 CYCLE:   693 TIME:   0.074 TIME LEFT:  2.00D  GRAD.:     0.395 HEAT:  17.57567
 CYCLE:   694 TIME:   0.070 TIME LEFT:  2.00D  GRAD.:     1.400 HEAT:  17.57556
 CYCLE:   695 TIME:   0.086 TIME LEFT:  2.00D  GRAD.:     0.562 HEAT:  17.57533
 CYCLE:   696 TIME:   0.070 TIME LEFT:  2.00D  GRAD.:     0.367 HEAT:  17.57524
 CYCLE:   697 TIME:   0.094 TIME LEFT:  2.00D  GRAD.:     0.413 HEAT:  17.57514
 CYCLE:   698 TIME:   0.078 TIME LEFT:  2.00D  GRAD.:     0.515 HEAT:  17.57496
 CYCLE:   699 TIME:   0.070 TIME LEFT:  2.00D  GRAD.:     0.864 HEAT:  17.57470
 CYCLE:   700 TIME:   0.070 TIME LEFT:  2.00D  GRAD.:     0.724 HEAT:  17.57440
 CYCLE:   701 TIME:   0.094 TIME LEFT:  2.00D  GRAD.:     0.621 HEAT:  17.57415
 CYCLE:   702 TIME:   0.090 TIME LEFT:  2.00D  GRAD.:     1.047 HEAT:  17.57385
 CYCLE:   703 TIME:   0.074 TIME LEFT:  2.00D  GRAD.:     0.736 HEAT:  17.57358
 CYCLE:   704 TIME:   0.074 TIME LEFT:  2.00D  GRAD.:     0.736 HEAT:  17.57334
 CYCLE:   705 TIME:   0.090 TIME LEFT:  2.00D  GRAD.:     0.632 HEAT:  17.57301
 CYCLE:   706 TIME:   0.102 TIME LEFT:  2.00D  GRAD.:     0.633 HEAT:  17.57273
 CYCLE:   707 TIME:   0.102 TIME LEFT:  2.00D  GRAD.:     0.714 HEAT:  17.57245
 CYCLE:   708 TIME:   0.090 TIME LEFT:  2.00D  GRAD.:     0.527 HEAT:  17.57218
 CYCLE:   709 TIME:   0.074 TIME LEFT:  2.00D  GRAD.:     0.603 HEAT:  17.57183
 CYCLE:   710 TIME:   0.074 TIME LEFT:  2.00D  GRAD.:     1.007 HEAT:  17.57156
 CYCLE:   711 TIME:   0.102 TIME LEFT:  2.00D  GRAD.:     0.715 HEAT:  17.57125
 CYCLE:   712 TIME:   0.082 TIME LEFT:  2.00D  GRAD.:     0.552 HEAT:  17.57101
 CYCLE:   713 TIME:   0.094 TIME LEFT:  2.00D  GRAD.:     0.606 HEAT:  17.57080
 CYCLE:   714 TIME:   0.102 TIME LEFT:  2.00D  GRAD.:     0.590 HEAT:  17.57055
 CYCLE:   715 TIME:   0.105 TIME LEFT:  2.00D  GRAD.:     0.754 HEAT:  17.57019
 CYCLE:   716 TIME:   0.082 TIME LEFT:  2.00D  GRAD.:     0.737 HEAT:  17.56990
 CYCLE:   717 TIME:   0.066 TIME LEFT:  2.00D  GRAD.:     0.780 HEAT:  17.56967
 CYCLE:   718 TIME:   0.086 TIME LEFT:  2.00D  GRAD.:     0.608 HEAT:  17.56938
 CYCLE:   719 TIME:   0.074 TIME LEFT:  2.00D  GRAD.:     0.528 HEAT:  17.56913
 CYCLE:   720 TIME:   0.074 TIME LEFT:  2.00D  GRAD.:     0.506 HEAT:  17.56880
 CYCLE:   721 TIME:   0.086 TIME LEFT:  2.00D  GRAD.:     0.751 HEAT:  17.56855
 CYCLE:   722 TIME:   0.090 TIME LEFT:  2.00D  GRAD.:     0.544 HEAT:  17.56829
 CYCLE:   723 TIME:   0.094 TIME LEFT:  2.00D  GRAD.:     0.490 HEAT:  17.56803
 CYCLE:   724 TIME:   0.074 TIME LEFT:  2.00D  GRAD.:     0.630 HEAT:  17.56780
 CYCLE:   725 TIME:   0.105 TIME LEFT:  2.00D  GRAD.:     0.720 HEAT:  17.56761
 CYCLE:   726 TIME:   0.109 TIME LEFT:  2.00D  GRAD.:     0.452 HEAT:  17.56747
 CYCLE:   727 TIME:   0.105 TIME LEFT:  2.00D  GRAD.:     0.402 HEAT:  17.56737
 CYCLE:   728 TIME:   0.105 TIME LEFT:  2.00D  GRAD.:     0.458 HEAT:  17.56717
 CYCLE:   729 TIME:   0.105 TIME LEFT:  2.00D  GRAD.:     1.144 HEAT:  17.56706
 CYCLE:   730 TIME:   0.070 TIME LEFT:  2.00D  GRAD.:     0.441 HEAT:  17.56680
 CYCLE:   731 TIME:   0.070 TIME LEFT:  2.00D  GRAD.:     0.343 HEAT:  17.56668
 CYCLE:   732 TIME:   0.074 TIME LEFT:  2.00D  GRAD.:     0.477 HEAT:  17.56654
 CYCLE:   733 TIME:   0.082 TIME LEFT:  2.00D  GRAD.:     1.369 HEAT:  17.56649
 CYCLE:   734 TIME:   0.074 TIME LEFT:  2.00D  GRAD.:     0.499 HEAT:  17.56628
 CYCLE:   735 TIME:   0.070 TIME LEFT:  2.00D  GRAD.:     0.373 HEAT:  17.56618
 CYCLE:   736 TIME:   0.066 TIME LEFT:  2.00D  GRAD.:     0.494 HEAT:  17.56606
 CYCLE:   737 TIME:   0.105 TIME LEFT:  2.00D  GRAD.:     0.586 HEAT:  17.56585
 CYCLE:   738 TIME:   0.090 TIME LEFT:  2.00D  GRAD.:     2.036 HEAT:  17.56607
 CYCLE:   739 TIME:   0.070 TIME LEFT:  2.00D  GRAD.:     0.670 HEAT:  17.56545
 CYCLE:   740 TIME:   0.078 TIME LEFT:  2.00D  GRAD.:     0.382 HEAT:  17.56533
 CYCLE:   741 TIME:   0.078 TIME LEFT:  2.00D  GRAD.:     0.462 HEAT:  17.56522
 CYCLE:   742 TIME:   0.086 TIME LEFT:  2.00D  GRAD.:     0.599 HEAT:  17.56505
 CYCLE:   743 TIME:   0.078 TIME LEFT:  2.00D  GRAD.:     0.689 HEAT:  17.56483
 CYCLE:   744 TIME:   0.082 TIME LEFT:  2.00D  GRAD.:     0.529 HEAT:  17.56459
 CYCLE:   745 TIME:   0.094 TIME LEFT:  2.00D  GRAD.:     0.636 HEAT:  17.56438
 CYCLE:   746 TIME:   0.094 TIME LEFT:  2.00D  GRAD.:     0.553 HEAT:  17.56416
 CYCLE:   747 TIME:   0.074 TIME LEFT:  2.00D  GRAD.:     0.497 HEAT:  17.56398
 CYCLE:   748 TIME:   0.070 TIME LEFT:  2.00D  GRAD.:     0.594 HEAT:  17.56384
 CYCLE:   749 TIME:   0.074 TIME LEFT:  2.00D  GRAD.:     0.519 HEAT:  17.56362
 CYCLE:   750 TIME:   0.078 TIME LEFT:  2.00D  GRAD.:     0.756 HEAT:  17.56334
 CYCLE:   751 TIME:   0.078 TIME LEFT:  2.00D  GRAD.:     0.602 HEAT:  17.56316
 CYCLE:   752 TIME:   0.078 TIME LEFT:  2.00D  GRAD.:     0.477 HEAT:  17.56303
 CYCLE:   753 TIME:   0.074 TIME LEFT:  2.00D  GRAD.:     0.532 HEAT:  17.56273
 CYCLE:   754 TIME:   0.070 TIME LEFT:  2.00D  GRAD.:     0.800 HEAT:  17.56254
 CYCLE:   755 TIME:   0.078 TIME LEFT:  2.00D  GRAD.:     0.527 HEAT:  17.56232
 CYCLE:   756 TIME:   0.090 TIME LEFT:  2.00D  GRAD.:     0.757 HEAT:  17.56210
 CYCLE:   757 TIME:   0.070 TIME LEFT:  2.00D  GRAD.:     0.587 HEAT:  17.56194
 CYCLE:   758 TIME:   0.074 TIME LEFT:  2.00D  GRAD.:     0.546 HEAT:  17.56181
 CYCLE:   759 TIME:   0.070 TIME LEFT:  2.00D  GRAD.:     0.917 HEAT:  17.56154
 CYCLE:   760 TIME:   0.102 TIME LEFT:  2.00D  GRAD.:     0.797 HEAT:  17.56138
 CYCLE:   761 TIME:   0.094 TIME LEFT:  2.00D  GRAD.:     0.408 HEAT:  17.56126
 CYCLE:   762 TIME:   0.078 TIME LEFT:  2.00D  GRAD.:     0.335 HEAT:  17.56113
 CYCLE:   763 TIME:   0.086 TIME LEFT:  2.00D  GRAD.:     0.444 HEAT:  17.56096
 CYCLE:   764 TIME:   0.086 TIME LEFT:  2.00D  GRAD.:     0.716 HEAT:  17.56074
 CYCLE:   765 TIME:   0.078 TIME LEFT:  2.00D  GRAD.:     1.372 HEAT:  17.56071
 CYCLE:   766 TIME:   0.078 TIME LEFT:  2.00D  GRAD.:     0.347 HEAT:  17.56045
 CYCLE:   767 TIME:   0.086 TIME LEFT:  2.00D  GRAD.:     0.325 HEAT:  17.56038
 CYCLE:   768 TIME:   0.094 TIME LEFT:  2.00D  GRAD.:     0.380 HEAT:  17.56026
 CYCLE:   769 TIME:   0.070 TIME LEFT:  2.00D  GRAD.:     0.676 HEAT:  17.56003
 CYCLE:   770 TIME:   0.094 TIME LEFT:  2.00D  GRAD.:     1.438 HEAT:  17.56001
 CYCLE:   771 TIME:   0.082 TIME LEFT:  2.00D  GRAD.:     0.467 HEAT:  17.55964
 CYCLE:   772 TIME:   0.090 TIME LEFT:  2.00D  GRAD.:     0.359 HEAT:  17.55949
 CYCLE:   773 TIME:   0.082 TIME LEFT:  2.00D  GRAD.:     0.644 HEAT:  17.55935
 CYCLE:   774 TIME:   0.074 TIME LEFT:  2.00D  GRAD.:     0.542 HEAT:  17.55918
 CYCLE:   775 TIME:   0.074 TIME LEFT:  2.00D  GRAD.:     0.371 HEAT:  17.55903
 CYCLE:   776 TIME:   0.074 TIME LEFT:  2.00D  GRAD.:     0.345 HEAT:  17.55882
 CYCLE:   777 TIME:   0.078 TIME LEFT:  2.00D  GRAD.:     0.853 HEAT:  17.55870
 CYCLE:   778 TIME:   0.098 TIME LEFT:  2.00D  GRAD.:     0.435 HEAT:  17.55852
 CYCLE:   779 TIME:   0.070 TIME LEFT:  2.00D  GRAD.:     0.408 HEAT:  17.55835
 CYCLE:   780 TIME:   0.094 TIME LEFT:  2.00D  GRAD.:     0.625 HEAT:  17.55812
 CYCLE:   781 TIME:   0.078 TIME LEFT:  2.00D  GRAD.:     1.015 HEAT:  17.55783
 CYCLE:   782 TIME:   0.082 TIME LEFT:  2.00D  GRAD.:     0.778 HEAT:  17.55741
 CYCLE:   783 TIME:   0.070 TIME LEFT:  2.00D  GRAD.:     0.522 HEAT:  17.55713
 CYCLE:   784 TIME:   0.082 TIME LEFT:  2.00D  GRAD.:     0.537 HEAT:  17.55693
 CYCLE:   785 TIME:   0.086 TIME LEFT:  2.00D  GRAD.:     0.606 HEAT:  17.55666
 CYCLE:   786 TIME:   0.070 TIME LEFT:  2.00D  GRAD.:     0.848 HEAT:  17.55627
 CYCLE:   787 TIME:   0.078 TIME LEFT:  2.00D  GRAD.:     1.445 HEAT:  17.55604
 CYCLE:   788 TIME:   0.070 TIME LEFT:  2.00D  GRAD.:     0.609 HEAT:  17.55576
 CYCLE:   789 TIME:   0.070 TIME LEFT:  2.00D  GRAD.:     0.565 HEAT:  17.55559
 CYCLE:   790 TIME:   0.070 TIME LEFT:  2.00D  GRAD.:     0.644 HEAT:  17.55531
 CYCLE:   791 TIME:   0.078 TIME LEFT:  2.00D  GRAD.:     0.987 HEAT:  17.55489
 CYCLE:   792 TIME:   0.082 TIME LEFT:  2.00D  GRAD.:     1.404 HEAT:  17.55459
 CYCLE:   793 TIME:   0.070 TIME LEFT:  2.00D  GRAD.:     0.600 HEAT:  17.55411
 CYCLE:   794 TIME:   0.078 TIME LEFT:  2.00D  GRAD.:     0.550 HEAT:  17.55381
 CYCLE:   795 TIME:   0.090 TIME LEFT:  2.00D  GRAD.:     0.620 HEAT:  17.55347
 CYCLE:   796 TIME:   0.078 TIME LEFT:  2.00D  GRAD.:     1.180 HEAT:  17.55313
 CYCLE:   797 TIME:   0.078 TIME LEFT:  2.00D  GRAD.:     0.910 HEAT:  17.55281
 CYCLE:   798 TIME:   0.086 TIME LEFT:  2.00D  GRAD.:     0.556 HEAT:  17.55258
 CYCLE:   799 TIME:   0.070 TIME LEFT:  2.00D  GRAD.:     0.757 HEAT:  17.55227
 CYCLE:   800 TIME:   0.074 TIME LEFT:  2.00D  GRAD.:     0.740 HEAT:  17.55200
 CYCLE:   801 TIME:   0.082 TIME LEFT:  2.00D  GRAD.:     1.018 HEAT:  17.55167
 CYCLE:   802 TIME:   0.078 TIME LEFT:  2.00D  GRAD.:     0.658 HEAT:  17.55139
 CYCLE:   803 TIME:   0.070 TIME LEFT:  2.00D  GRAD.:     0.553 HEAT:  17.55119
 CYCLE:   804 TIME:   0.074 TIME LEFT:  2.00D  GRAD.:     0.628 HEAT:  17.55091
 CYCLE:   805 TIME:   0.086 TIME LEFT:  2.00D  GRAD.:     1.388 HEAT:  17.55046
 CYCLE:   806 TIME:   0.082 TIME LEFT:  2.00D  GRAD.:     0.645 HEAT:  17.55002
 CYCLE:   807 TIME:   0.082 TIME LEFT:  2.00D  GRAD.:     0.475 HEAT:  17.54979
 CYCLE:   808 TIME:   0.070 TIME LEFT:  2.00D  GRAD.:     0.617 HEAT:  17.54952
 CYCLE:   809 TIME:   0.078 TIME LEFT:  2.00D  GRAD.:     0.793 HEAT:  17.54918
 CYCLE:   810 TIME:   0.102 TIME LEFT:  2.00D  GRAD.:     1.108 HEAT:  17.54878
 CYCLE:   811 TIME:   0.102 TIME LEFT:  2.00D  GRAD.:     0.609 HEAT:  17.54835
 CYCLE:   812 TIME:   0.090 TIME LEFT:  2.00D  GRAD.:     0.576 HEAT:  17.54806
 CYCLE:   813 TIME:   0.082 TIME LEFT:  2.00D  GRAD.:     1.739 HEAT:  17.54790
 CYCLE:   814 TIME:   0.102 TIME LEFT:  2.00D  GRAD.:     0.737 HEAT:  17.54758
 CYCLE:   815 TIME:   0.078 TIME LEFT:  2.00D  GRAD.:     0.528 HEAT:  17.54732
 CYCLE:   816 TIME:   0.094 TIME LEFT:  2.00D  GRAD.:     0.787 HEAT:  17.54705
 CYCLE:   817 TIME:   0.094 TIME LEFT:  2.00D  GRAD.:     0.779 HEAT:  17.54669
 CYCLE:   818 TIME:   0.078 TIME LEFT:  2.00D  GRAD.:     1.385 HEAT:  17.54635
 CYCLE:   819 TIME:   0.105 TIME LEFT:  2.00D  GRAD.:     1.209 HEAT:  17.54578
 CYCLE:   820 TIME:   0.094 TIME LEFT:  2.00D  GRAD.:     0.999 HEAT:  17.54553
 CYCLE:   821 TIME:   0.098 TIME LEFT:  2.00D  GRAD.:     0.524 HEAT:  17.54531
 CYCLE:   822 TIME:   0.090 TIME LEFT:  2.00D  GRAD.:     0.510 HEAT:  17.54514
 CYCLE:   823 TIME:   0.090 TIME LEFT:  2.00D  GRAD.:     0.643 HEAT:  17.54482
 CYCLE:   824 TIME:   0.094 TIME LEFT:  2.00D  GRAD.:     0.910 HEAT:  17.54434
 CYCLE:   825 TIME:   0.105 TIME LEFT:  2.00D  GRAD.:     1.183 HEAT:  17.54399
 CYCLE:   826 TIME:   0.094 TIME LEFT:  2.00D  GRAD.:     0.482 HEAT:  17.54361
 CYCLE:   827 TIME:   0.102 TIME LEFT:  2.00D  GRAD.:     0.383 HEAT:  17.54344
 CYCLE:   828 TIME:   0.102 TIME LEFT:  2.00D  GRAD.:     0.487 HEAT:  17.54324
 CYCLE:   829 TIME:   0.105 TIME LEFT:  2.00D  GRAD.:     1.522 HEAT:  17.54315
 CYCLE:   830 TIME:   0.102 TIME LEFT:  2.00D  GRAD.:     0.457 HEAT:  17.54286
 CYCLE:   831 TIME:   0.090 TIME LEFT:  2.00D  GRAD.:     0.402 HEAT:  17.54276
 CYCLE:   832 TIME:   0.074 TIME LEFT:  2.00D  GRAD.:     0.429 HEAT:  17.54265
 CYCLE:   833 TIME:   0.074 TIME LEFT:  2.00D  GRAD.:     0.731 HEAT:  17.54249
 CYCLE:   834 TIME:   0.082 TIME LEFT:  2.00D  GRAD.:     0.822 HEAT:  17.54236
 CYCLE:   835 TIME:   0.066 TIME LEFT:  2.00D  GRAD.:     0.390 HEAT:  17.54225
 CYCLE:   836 TIME:   0.070 TIME LEFT:  2.00D  GRAD.:     0.392 HEAT:  17.54217
 CYCLE:   837 TIME:   0.070 TIME LEFT:  2.00D  GRAD.:     0.480 HEAT:  17.54206
 CYCLE:   838 TIME:   0.070 TIME LEFT:  2.00D  GRAD.:     0.567 HEAT:  17.54184
 CYCLE:   839 TIME:   0.070 TIME LEFT:  2.00D  GRAD.:     0.868 HEAT:  17.54173
 CYCLE:   840 TIME:   0.070 TIME LEFT:  2.00D  GRAD.:     0.334 HEAT:  17.54160
 CYCLE:   841 TIME:   0.066 TIME LEFT:  2.00D  GRAD.:     0.328 HEAT:  17.54155
 CYCLE:   842 TIME:   0.070 TIME LEFT:  2.00D  GRAD.:     0.394 HEAT:  17.54146
 CYCLE:   843 TIME:   0.074 TIME LEFT:  2.00D  GRAD.:     0.418 HEAT:  17.54135
 CYCLE:   844 TIME:   0.074 TIME LEFT:  2.00D  GRAD.:     1.065 HEAT:  17.54136
 CYCLE:   845 TIME:   0.074 TIME LEFT:  2.00D  GRAD.:     0.292 HEAT:  17.54118
 CYCLE:   846 TIME:   0.074 TIME LEFT:  2.00D  GRAD.:     0.235 HEAT:  17.54114
 CYCLE:   847 TIME:   0.070 TIME LEFT:  2.00D  GRAD.:     0.359 HEAT:  17.54107
 CYCLE:   848 TIME:   0.070 TIME LEFT:  2.00D  GRAD.:     0.495 HEAT:  17.54097
 CYCLE:   849 TIME:   0.078 TIME LEFT:  2.00D  GRAD.:     1.034 HEAT:  17.54091
 CYCLE:   850 TIME:   0.090 TIME LEFT:  2.00D  GRAD.:     0.313 HEAT:  17.54077
 CYCLE:   851 TIME:   0.066 TIME LEFT:  2.00D  GRAD.:     0.276 HEAT:  17.54073
 CYCLE:   852 TIME:   0.070 TIME LEFT:  2.00D  GRAD.:     0.360 HEAT:  17.54061
 CYCLE:   853 TIME:   0.094 TIME LEFT:  2.00D  GRAD.:     0.938 HEAT:  17.54062
 CYCLE:   854 TIME:   0.070 TIME LEFT:  2.00D  GRAD.:     0.277 HEAT:  17.54049
 CYCLE:   855 TIME:   0.070 TIME LEFT:  2.00D  GRAD.:     0.179 HEAT:  17.54046
 CYCLE:   856 TIME:   0.102 TIME LEFT:  2.00D  GRAD.:     0.212 HEAT:  17.54042
[...]
   4.12099   4.14165   4.20129   4.22513   4.25826   4.28413   4.34619   4.34866
   4.43742   4.44912   4.48379   4.53169   4.55892   4.62912   4.66289   4.67748
   4.70010   4.71206   4.71720   4.73783   4.78413   4.79150   4.82752   4.84956
   4.88871   4.91178   4.97843   4.99789   5.03677   5.07045   5.10699   5.13586
   5.16885   5.17157   5.19061   5.20658   5.28383   5.29659   5.30931   5.40242
   5.41093   5.48428   5.50394   5.52940   5.60438   5.63115   5.65044   5.67128
   5.72875   5.73281   5.75136   5.99716   6.04972   6.06928   6.15299   6.17409
   6.26941   6.50735   6.56109   6.70336


              NET ATOMIC CHARGES AND DIPOLE CONTRIBUTIONS

  ATOM NO.   TYPE          CHARGE      No. of ELECS.   s-Pop       p-Pop       
    1          N          -0.147581        5.1476     1.84839     3.29919
    2          C           0.049147        3.9509     1.19529     2.75557
    3          C          -0.170020        4.1700     1.14116     3.02886
    4          C           0.157633        3.8424     1.17093     2.67143
    5          C          -0.450209        4.4502     1.21914     3.23106
    6          C          -0.019776        4.0198     1.18507     2.83470
    7          C          -0.140345        4.1403     1.18213     2.95822
    8          C          -0.282793        4.2828     1.22069     3.06211
    9          S           0.586835        5.4132     1.88192     3.53124
   10          C          -0.023585        4.0236     1.14930     2.87429
   11          C          -0.061516        4.0615     1.17788     2.88364
   12          C          -0.152870        4.1529     1.18266     2.97021
   13          C           0.155847        3.8442     1.14178     2.70237
   14          C          -0.147579        4.1476     1.18238     2.96520
   15          C          -0.069161        4.0692     1.17810     2.89107
   16          N          -0.265304        5.2653     1.47898     3.78633
   17          C           0.119024        3.8810     1.14983     2.73115
   18          C          -0.171693        4.1717     1.17178     2.99991
   19          C          -0.059114        4.0591     1.17560     2.88351
   20          C          -0.091710        4.0917     1.17911     2.91260
   21          C          -0.045625        4.0456     1.17029     2.87533
   22          C          -0.086469        4.0865     1.15926     2.92721
   23          C          -0.090851        4.0909     1.15949     2.93136
   24          C           0.119465        3.8805     1.14992     2.73062
   25          C          -0.168884        4.1689     1.17178     2.99710
   26          C          -0.060033        4.0600     1.17754     2.88250
   27          C          -0.092059        4.0921     1.17924     2.91282
   28          C          -0.042272        4.0423     1.16870     2.87357
   29          C           0.063559        3.9364     1.16581     2.77063
   30          C          -0.188423        4.1884     1.16091     3.02751
   31          C          -0.186566        4.1866     1.16139     3.02517
   32          C          -0.186431        4.1864     1.16133     3.02510
   33          C           0.063498        3.9365     1.16590     2.77060
   34          C          -0.187899        4.1879     1.16080     3.02710
   35          C          -0.186416        4.1864     1.16151     3.02491
   36          C          -0.186441        4.1864     1.16145     3.02500
   37          C           0.406929        3.5931     1.17928     2.41379
   38          O          -0.380523        6.3805     1.91042     4.47010
   39          O          -0.311983        6.3120     1.83995     4.47203
   40          H           0.131379        0.8686     0.86862
   41          H           0.126149        0.8739     0.87385
   42          H           0.136467        0.8635     0.86353
   43          H           0.115131        0.8849     0.88487
   44          H           0.132485        0.8675     0.86752
   45          H           0.133940        0.8661     0.86606
   46          H           0.117662        0.8823     0.88234
   47          H           0.120689        0.8793     0.87931
   48          H           0.107112        0.8929     0.89289
   49          H           0.112526        0.8875     0.88747
   50          H           0.122346        0.8777     0.87765
   51          H           0.106961        0.8930     0.89304
   52          H           0.113714        0.8863     0.88629
   53          H           0.062575        0.9374     0.93742
   54          H           0.062013        0.9380     0.93799
   55          H           0.061606        0.9384     0.93839
   56          H           0.064744        0.9353     0.93526
   57          H           0.059606        0.9404     0.94039
   58          H           0.060514        0.9395     0.93949
   59          H           0.059453        0.9405     0.94055
   60          H           0.064642        0.9354     0.93536
   61          H           0.060807        0.9392     0.93919
   62          H           0.062219        0.9378     0.93778
   63          H           0.061957        0.9380     0.93804
   64          H           0.061572        0.9384     0.93843
   65          H           0.060543        0.9395     0.93946
   66          H           0.059274        0.9407     0.94073
   67          H           0.064458        0.9355     0.93554
   68          H           0.064876        0.9351     0.93512
   69          H           0.059259        0.9407     0.94074
   70          H           0.060589        0.9394     0.93941
   71          H           0.244925        0.7551     0.75507
 DIPOLE           X         Y         Z       TOTAL
 POINT-CHG.    -0.762    -2.754     1.207     3.102
 HYBRID         2.394    -0.076    -0.561     2.460
 SUM            1.632    -2.830     0.646     3.330


          ATOMIC ORBITAL ELECTRON POPULATIONS

     Atom    s        px        py        pz   
    1  N   1.84839   1.10913   1.08563   1.10443
    2  C   1.19529   0.91267   0.92275   0.92014
    3  C   1.14116   0.89427   0.95005   1.18454
    4  C   1.17093   0.98819   0.87773   0.80552
    5  C   1.21914   1.04128   0.99556   1.19422
    6  C   1.18507   0.97924   0.91300   0.94246
    7  C   1.18213   0.93783   0.98836   1.03202
    8  C   1.22069   0.99180   1.01173   1.05858
    9  S   1.88192   1.00861   0.92654   1.59609
   10  C   1.14930   0.93085   0.94807   0.99537
   11  C   1.17788   0.98967   0.93524   0.95873
   12  C   1.18266   0.94836   1.00532   1.01652
   13  C   1.14178   0.89255   0.87571   0.93411
   14  C   1.18238   1.01452   0.97118   0.97950
   15  C   1.17810   0.93006   0.97712   0.98389
   16  N   1.47898   1.14087   1.06110   1.58436
   17  C   1.14983   0.95193   0.79653   0.98269
   18  C   1.17178   0.97974   0.95619   1.06398
   19  C   1.17560   0.97662   0.93301   0.97388
   20  C   1.17911   0.94625   0.94929   1.01707
   21  C   1.17029   0.97122   0.92710   0.97702
   22  C   1.15926   0.93926   0.93637   1.05158
   23  C   1.15949   0.95402   0.92087   1.05647
   24  C   1.14992   0.82011   0.94898   0.96153
   25  C   1.17178   0.96332   0.96901   1.06477
   26  C   1.17754   0.94755   0.96867   0.96627
   27  C   1.17924   0.95981   0.93257   1.02044
   28  C   1.16870   0.92534   0.97834   0.96989
   29  C   1.16581   0.90524   0.93681   0.92857
   30  C   1.16091   1.02672   0.97395   1.02684
   31  C   1.16139   1.00043   1.02126   1.00348
   32  C   1.16133   1.03203   1.01128   0.98180
   33  C   1.16590   0.93628   0.90081   0.93351
   34  C   1.16080   0.98139   1.02115   1.02456
   35  C   1.16151   1.03293   1.02777   0.96421
   36  C   1.16145   0.99140   1.01726   1.01634
   37  C   1.17928   0.83527   0.84773   0.73080
   38  O   1.91042   1.19784   1.80689   1.46537
   39  O   1.83995   1.40973   1.23248   1.82983
   40  H   0.86862
   41  H   0.87385
   42  H   0.86353
   43  H   0.88487
   44  H   0.86752
   45  H   0.86606
   46  H   0.88234
   47  H   0.87931
   48  H   0.89289
   49  H   0.88747
   50  H   0.87765
   51  H   0.89304
   52  H   0.88629
   53  H   0.93742
   54  H   0.93799
   55  H   0.93839
   56  H   0.93526
   57  H   0.94039
   58  H   0.93949
   59  H   0.94055
   60  H   0.93536
   61  H   0.93919
   62  H   0.93778
   63  H   0.93804
   64  H   0.93843
   65  H   0.93946
   66  H   0.94073
   67  H   0.93554
   68  H   0.93512
   69  H   0.94074
   70  H   0.93941
   71  H   0.75507
 ******************** TDHF POLARIZABILITIES ********************



          MOLECULAR WEIGHT =  532.70



          ROTATIONAL CONSTANTS IN CM(-1)

          A =    0.00464017   B =    0.00103906   C =    0.00086479



           PRINCIPAL MOMENTS OF INERTIA IN UNITS OF 10**(-40)*GRAM-CM**2

          A =     6032.7091   B =    26940.3508   C =    32369.4171


 ROTATION MATRIX FOR ORIENTATION OF MOLECULE:

         0.428235   -0.833192    0.349866
         0.848618    0.503850    0.161193
        -0.310584    0.227874    0.922828


          CARTESIAN COORDINATES 

    NO.       ATOM         X         Y         Z

     1         N        6.6647    2.3564   -0.7617
     2         C        7.2546    1.4099   -0.4542
     3         C        8.0066    0.2683   -0.0860
     4         C        7.4577   -0.9314    0.2002
     5         C        6.0603   -1.2384    0.1927
     6         C        5.5845   -2.5285    0.3047
     7         C        4.1638   -2.5799    0.2766
     8         C        3.6155   -1.3279    0.1502
     9         S        4.7925   -0.1114    0.0663
    10         C        2.2015   -1.0379    0.1073
    11         C        1.3354   -1.7270    0.9563
    12         C       -0.0253   -1.4598    0.9343
    13         C       -0.5210   -0.5037    0.0419
    14         C        0.3397    0.1835   -0.8207
    15         C        1.6995   -0.0833   -0.7776
    16         N       -1.9047   -0.2274    0.0109
    17         C       -2.9417   -1.1831   -0.0384
    18         C       -2.8798   -2.5670   -0.1225
    19         C       -4.0823   -3.2608   -0.1721
    20         C       -5.3220   -2.6117   -0.1483
    21         C       -5.3710   -1.2195   -0.0875
    22         C       -4.1888   -0.5037   -0.0362
    23         C       -3.9048    0.9104    0.0164
    24         C       -2.4944    1.0543    0.0477
    25         C       -1.9029    2.3087    0.1404
    26         C       -2.7473    3.4075    0.1683
    27         C       -4.1455    3.2875    0.1154
    28         C       -4.7260    2.0266    0.0465
    29         C       -4.9615    4.5537    0.1462
    30         C       -6.4675    4.3015    0.0509
    31         C       -4.5582    5.4356   -1.0391
    32         C       -4.6882    5.2864    1.4627
    33         C       -6.6285   -3.3614   -0.1929
    34         C       -6.4568   -4.8805   -0.2454
    35         C       -7.4352   -3.0243    1.0648
    36         C       -7.4023   -2.9323   -1.4428
    37         C        9.4658    0.4216   -0.0279
    38         O       10.2797   -0.4446    0.2612
    39         O        9.8982    1.6619   -0.3324
    40         H        8.1203   -1.7735    0.4638
    41         H        6.2073   -3.4165    0.3983
    42         H        3.5994   -3.5073    0.3364
    43         H        1.7274   -2.4702    1.6581
    44         H       -0.6956   -1.9828    1.6245
    45         H       -0.0507    0.9136   -1.5377
    46         H        2.3738    0.4514   -1.4549
    47         H       -1.9260   -3.0969   -0.1649
    48         H       -4.0138   -4.3506   -0.2352
    49         H       -6.3149   -0.6679   -0.0808
    50         H       -0.8198    2.4305    0.2050
    51         H       -2.2817    4.3964    0.2377
    52         H       -5.8055    1.8637    0.0173
    53         H       -6.7503    3.7902   -0.8803
    54         H       -6.8497    3.7038    0.8907
    55         H       -7.0408    5.2412    0.0660
    56         H       -4.6820    4.9109   -1.9972
    57         H       -5.1640    6.3519   -1.0961
    58         H       -3.5123    5.7692   -0.9958
    59         H       -5.2932    6.1999    1.5586
    60         H       -4.9192    4.6575    2.3343
    61         H       -3.6421    5.6037    1.5728
    62         H       -5.9139   -5.2134   -1.1416
    63         H       -5.9277   -5.2756    0.6336
    64         H       -7.4268   -5.4004   -0.2717
    65         H       -7.7095   -1.9626    1.1323
    66         H       -8.3812   -3.5836    1.1101
    67         H       -6.8782   -3.2642    1.9817
    68         H       -6.8239   -3.1103   -2.3606
    69         H       -8.3491   -3.4818   -1.5502
    70         H       -7.6702   -1.8668   -1.4420
    71         H       10.8636    1.7157   -0.2816


 ENERGY OF "REORIENTED" SYSTEM WITHOUT FIELD:       17.5389472125


  NFREQ=  3  IWFLB=  0  IBET=  1  IGAM=  1
  ATOL= 0.10000D-02  BTOL= 0.10000D-02    MAXITU=  500    MAXITA=  150


 *****************************************************************
 CALCULATION OF STATIC FIELD QUANTITIES
 *****************************************************************

 +++++ ALPHA AT       0.00000 EV.

                           COMPONENTS OF ALPHA

                     *X           *Y           *Z
           *=X:     583.0971      18.5640      -1.2093
           *=Y:      18.5807     426.0070     -31.1536
           *=Z:      -1.2293     -31.1545     135.6433

  ISOTROPIC AVERAGE ALPHA =     381.58245 A.U. =     56.54468 ANG.**3

 +++++ BETA (SECOND HARMONIC GENERATION) AT       0.00000 EV.

                              COMPONENTS OF BETA
            *XX         *XY         *YY         *XZ         *YZ         *ZZ
   *=X -7781.54271    62.16487   702.26307     0.06734     7.93298    11.87969
   *=Y    61.89044   702.34184  -263.84741     7.94214   -22.69748    72.61280
   *=Z     0.73121     8.04809   -22.76820    11.90067    72.61968     5.11333


 AVERAGE BETAX(SHG) VALUE AT   0.00000 EV =      -4240.4001 a.u. = -0.366346E-28 ESU
 AVERAGE BETAY(SHG) VALUE AT   0.00000 EV =        -77.4940 a.u. = -0.669503E-30 ESU
 AVERAGE BETAZ(SHG) VALUE AT   0.00000 EV =        -10.3915 a.u. = -0.897761E-31 ESU



 AVERAGE BETA (SHG) VALUE AT   0.00000 EV =       4241.1209 a.u. =  0.366408E-28 ESU
   (1 a.u. = 8.639418X10-33 esu)



 +++++ ALPHA AT       0.00000 EV.

                           COMPONENTS OF ALPHA

                     *X           *Y           *Z
           *=X:     583.0971      18.5640      -1.2093
           *=Y:      18.5807     426.0070     -31.1536
           *=Z:      -1.2293     -31.1545     135.6433

  ISOTROPIC AVERAGE ALPHA =     381.58245 A.U. =     56.54468 ANG.**3


 GAMMA (THIRD HARMONIC GENERATION) AT    0.00000 EV.


 GAMMA(X,X,X,X) =       2117283.76446
 GAMMA(Y,Y,Y,Y) =        126667.84357
 GAMMA(Z,Z,Z,Z) =          3992.70282
 GAMMA(X,X,Y,Y) =         46532.78369
 GAMMA(X,X,Z,Z) =         -3597.22215
 GAMMA(Y,Y,X,X) =         46532.49186
 GAMMA(Y,Y,Z,Z) =          4907.27145
 GAMMA(Z,Z,X,X) =         -3597.56596
 GAMMA(Z,Z,Y,Y) =          4907.33166


 AVERAGE GAMMA VALUE AT    0.00000 =        468725.88028 a.u. =       236083.28505 ESU (X10-39)




 **********************************************************************
 CALCULATION FOR A FREQUENCY OF    0.25000 EV  =       0.00919 A.U. 
                  WAVELENGTH OF    4959.37 NM  =    2016.38525 CM(-1)
 **********************************************************************

 +++++ ALPHA AT       0.25000 EV.

                           COMPONENTS OF ALPHA

                     *X           *Y           *Z
           *=X:     585.4134      18.7762      -1.2595
           *=Y:      18.7908     426.8697     -31.1849
           *=Z:      -1.2763     -31.1857     135.7727

  ISOTROPIC AVERAGE ALPHA =     382.68525 A.U. =     56.70810 ANG.**3

 +++++ BETA (SECOND HARMONIC GENERATION) AT       0.25000 EV.

                              COMPONENTS OF BETA
            *XX         *XY         *YY         *XZ         *YZ         *ZZ
   *=X -8142.44573    59.98134   722.80997    -0.14331     8.08195    13.59311
   *=Y    55.20159   713.30893  -272.11322     9.41169   -22.93182    73.20393
   *=Z     6.75694    10.23064   -23.31387    12.10003    73.06524     5.14773


 AVERAGE BETAX(SHG) VALUE AT   0.25000 EV =      -4448.0232 a.u. = -0.384283E-28 ESU
 AVERAGE BETAY(SHG) VALUE AT   0.25000 EV =        -84.3682 a.u. = -0.728892E-30 ESU
 AVERAGE BETAZ(SHG) VALUE AT   0.25000 EV =         -9.4528 a.u. = -0.816667E-31 ESU



 AVERAGE BETA (SHG) VALUE AT   0.25000 EV =       4448.8333 a.u. =  0.384353E-28 ESU
   (1 a.u. = 8.639418X10-33 esu)



 +++++ ALPHA AT       0.75000 EV.

                           COMPONENTS OF ALPHA

                     *X           *Y           *Z
           *=X:     605.1395      20.5810      -1.6679
           *=Y:      20.5955     433.9813     -31.4383
           *=Z:      -1.6854     -31.4393     136.8194

  ISOTROPIC AVERAGE ALPHA =     391.98007 A.U. =     58.08545 ANG.**3


 GAMMA (THIRD HARMONIC GENERATION) AT    0.25000 EV.


 GAMMA(X,X,X,X) =       2357827.00007
 GAMMA(Y,Y,Y,Y) =        132823.49107
 GAMMA(Z,Z,Z,Z) =          4063.81573
 GAMMA(X,X,Y,Y) =         49434.61179
 GAMMA(X,X,Z,Z) =         -4420.22938
 GAMMA(Y,Y,X,X) =         50081.08364
 GAMMA(Y,Y,Z,Z) =          5098.45301
 GAMMA(Z,Z,X,X) =         -3797.51435
 GAMMA(Z,Z,Y,Y) =          5004.89247


 AVERAGE GAMMA VALUE AT    0.25000 =        519223.12081 a.u. =       261517.24321 ESU (X10-39)




 **********************************************************************
 CALCULATION FOR A FREQUENCY OF    0.50000 EV  =       0.01837 A.U. 
                  WAVELENGTH OF    2479.68 NM  =    4032.77050 CM(-1)
 **********************************************************************

 +++++ ALPHA AT       0.50000 EV.

                           COMPONENTS OF ALPHA

                     *X           *Y           *Z
           *=X:     592.5334      19.4275      -1.4044
           *=Y:      19.4401     429.4913     -31.2787
           *=Z:      -1.4221     -31.2797     136.1618

  ISOTROPIC AVERAGE ALPHA =     386.06215 A.U. =     57.20851 ANG.**3

 +++++ BETA (SECOND HARMONIC GENERATION) AT       0.50000 EV.

                              COMPONENTS OF BETA
            *XX         *XY         *YY         *XZ         *YZ         *ZZ
   *=X -9410.46111    50.89488   792.94539    -1.47356     8.29179    19.66097
   *=Y    27.41675   747.65778  -298.93591    14.25584   -23.63349    75.12095
   *=Z    29.49463    17.73976   -25.19238    12.68711    74.46730     5.23848


 AVERAGE BETAX(SHG) VALUE AT   0.50000 EV =      -5179.6174 a.u. = -0.447489E-28 ESU
 AVERAGE BETAY(SHG) VALUE AT   0.50000 EV =       -108.7091 a.u. = -0.939184E-30 ESU
 AVERAGE BETAZ(SHG) VALUE AT   0.50000 EV =         -6.0393 a.u. = -0.521759E-31 ESU



 AVERAGE BETA (SHG) VALUE AT   0.50000 EV =       5180.7616 a.u. =  0.447588E-28 ESU
   (1 a.u. = 8.639418X10-33 esu)



 +++++ ALPHA AT       1.50000 EV.

                           COMPONENTS OF ALPHA

                     *X           *Y           *Z
           *=X:     696.1722      29.0565      -3.7301
           *=Y:      29.0813     461.3522     -32.3853
           *=Z:      -3.7574     -32.3870     140.5887

  ISOTROPIC AVERAGE ALPHA =     432.70436 A.U. =     64.12017 ANG.**3


 GAMMA (THIRD HARMONIC GENERATION) AT    0.50000 EV.


 GAMMA(X,X,X,X) =       3436703.04408
 GAMMA(Y,Y,Y,Y) =        154374.64448
 GAMMA(Z,Z,Z,Z) =          4297.56803
 GAMMA(X,X,Y,Y) =         60670.67640
 GAMMA(X,X,Z,Z) =         -8316.70734
 GAMMA(Y,Y,X,X) =         63591.51265
 GAMMA(Y,Y,Z,Z) =          5775.69745
 GAMMA(Z,Z,X,X) =         -4454.68284
 GAMMA(Z,Z,Y,Y) =          5333.81165


 AVERAGE GAMMA VALUE AT    0.50000 =        743595.11291 a.u. =       374526.74236 ESU (X10-39)



 **********************
 *                    *
 * JOB ENDED NORMALLY *
 *                    *
 **********************



 TOTAL JOB TIME:           127.05 SECONDS

 == MOPAC DONE ==
