 *******************************************************************************
 ** Site#: 4824         For non-commercial use only    Version 21.013L 64BITS **
 *******************************************************************************
 ** Cite this program as: MOPAC2016, Version: 21.013L, James J. P. Stewart,   **
 ** Stewart Computational Chemistry, web: HTTP://OpenMOPAC.net. Days left:  89**
 *******************************************************************************
 **                                                                           **
 **                                MOPAC2016                                  **
 **                                                                           **
 *******************************************************************************

                              RM1 CALCULATION RESULTS

 *******************************************************************************
 *  CALCULATION DONE:                                Sat Oct 16 16:29:23 2021  *
 *  RM1        - The RM1 Hamiltonian to be used
 *  POLAR      - CALCULATE FIRST, SECOND AND THIRD-ORDER POLARIZABILITIES
 *  PRECISE    - TIGHTER CRITERIA TO BE USED
 *  T=         - A TIME OF 172800.0 SECONDS REQUESTED
 *  DUMP=N     - RESTART FILE WRITTEN EVERY 7200.0 SECONDS REQUESTED
 *  GNORM      - EXIT WHEN GRADIENT NORM DROPS BELOW 0.100
 *******************************************************************************
RM1 PRECISE POLAR GNORM=0.1


  ATOM    CHEMICAL      BOND LENGTH      BOND ANGLE     TWIST ANGLE 
 NUMBER    SYMBOL       (ANGSTROMS)      (DEGREES)       (DEGREES) 
   (I)                     NA:I           NB:NA:I       NC:NB:NA:I       NA    NB    NC 
     1       C          0.00000000       0.0000000       0.0000000        0     0     0
     2       C          1.54810000  *    0.0000000       0.0000000        1     0     0
     3       C          1.55100000  *  111.4095000  *    0.0000000        2     1     0
     4       C          1.55290000  *  111.7829000  * -179.6345000  *     3     2     1
     5       C          1.55000000  *  110.3464000  * -177.3163000  *     4     3     2
     6       C          1.55340000  *  112.6813000  * -179.6563000  *     5     4     3
     7       C          1.55170000  *  109.3432000  * -174.6335000  *     6     5     4
     8       C          1.54780000  *  113.6383000  * -179.0339000  *     7     6     5
     9       N          1.46270000  *  115.7562000  *  175.0471000  *     8     7     6
    10       C          1.43060000  *  130.6449000  *    0.6178000  *     9     8     7
    11       C          1.34330000  *  133.3303000  *   16.5254000  *    10     9     8
    12       C          1.47530000  *  119.0204000  *  178.5728000  *    11    10     9
    13       C          1.35110000  *  121.6115000  *   -0.7772000  *    12    11    10
    14       C          1.48030000  *  119.0910000  *   -0.9893000  *    13    12    11
    15       C          1.34160000  *  118.2598000  *    0.8602000  *    14    13    12
    16       C          1.45540000  *  130.8841000  * -176.3687000  *    15    14    13
    17       C          1.34510000  *  108.2424000  *  178.6650000  *    16    15    14
    18       C          1.46560000  *  119.6759000  * -175.9788000  *    17    16    15
    19       C          1.34760000  *  118.9766000  *    1.0518000  *    18    17    16
    20       C          1.48360000  *  121.0890000  *   -0.7904000  *    19    18    17
    21       C          1.34990000  *  119.5076000  *    0.5245000  *    20    19    18
    22       C          1.47660000  *  121.7267000  *  175.6010000  *    20    19    18
    23       C          1.34960000  *  125.2461000  * -137.0916000  *    22    20    21
    24       C          1.47560000  *  120.3200000  *  179.5459000  *    23    22    20
    25       O          1.23240000  *  120.2951000  *  178.8549000  *    24    23    22
    26       O          1.35650000  *  120.7309000  *   -1.4779000  *    24    23    22
    27       C          1.42980000  *  121.4189000  *    1.6544000  *    23    22    20
    28       N          1.15810000  *  179.5111000  * -179.0329000  *    27    23    22
    29       C          1.47800000  *  120.0667000  * -178.5842000  *    13    12    11
    30       C          1.47330000  *  120.5806000  *  -40.6261000  *    29    13    12
    31       C          1.34450000  *  120.7719000  *  176.3008000  *    30    29    13
    32       C          1.48120000  *  121.2462000  *    0.5209000  *    31    30    29
    33       C          1.35120000  *  117.3366000  *    1.4413000  *    32    31    30
    34       C          1.34700000  *  121.1286000  *  137.5522000  *    29    13    12
    35       C          1.53700000  *  119.5403000  * -178.5909000  *    32    31    30
    36       C          1.56130000  *  109.4459000  * -118.7399000  *    35    32    33
    37       C          1.56190000  *  113.2231000  *    1.1560000  *    35    32    33
    38       C          1.56030000  *  109.5465000  *  121.2170000  *    35    32    33
    39       H          1.05460000  *  116.6001000  *   40.9685000  *    22    20    21
    40       H          1.09160000  *  110.0641000  *   60.8742000  *     1     2     3
    41       H          1.09140000  *  109.4672000  * -179.3986000  *     1     2     3
    42       H          1.09130000  *  110.1116000  *  -59.6334000  *     1     2     3
    43       H          1.09240000  *  108.8354000  *  -58.7314000  *     2     1    41
    44       H          1.09200000  *  108.9268000  *  179.5425000  *     2     1    42
    45       H          1.09270000  *  109.1868000  * -179.2109000  *     3     2    43
    46       H          1.09260000  *  108.9237000  * -179.7788000  *     3     2    44
    47       H          1.09230000  *  109.3514000  * -177.9109000  *     4     3    45
    48       H          1.09210000  *  109.3993000  * -177.2282000  *     4     3    46
    49       H          1.09250000  *  109.1146000  * -178.9428000  *     5     4    47
    50       H          1.09300000  *  108.6130000  * -179.9449000  *     5     4    48
    51       H          1.09250000  *  109.7193000  * -175.9023000  *     6     5    49
    52       H          1.09240000  *  109.5362000  *  -56.1573000  *     6     5    49
    53       H          1.09150000  *  108.4801000  * -177.9625000  *     7     6    51
    54       H          1.09150000  *  107.6715000  * -178.8975000  *     7     6    52
    55       H          1.09390000  *  108.4859000  *  175.7325000  *     8     7    53
    56       H          1.09340000  *  108.1571000  *  173.4509000  *     8     7    54
    57       H          1.04560000  *  122.2050000  *   -0.4803000  *    11    10     9
    58       H          1.05210000  *  118.0704000  * -179.3647000  *    12    11    10
    59       H          1.04960000  *  121.0546000  * -177.6717000  *    14    13    12
    60       H          1.05030000  *  120.7220000  * -179.9169000  *    18    17    16
    61       H          1.05170000  *  119.0673000  *  178.2005000  *    19    18    17
    62       H          1.05200000  *  120.9543000  *    3.0006000  *    21    20    22
    63       H          0.94140000  *  121.2002000  *   -0.7000000  *    26    24    25
    64       H          1.05150000  *  119.9891000  *  177.5643000  *    30    29    34
    65       H          1.05120000  *  118.5859000  *  179.9025000  *    31    30    29
    66       H          1.04800000  *  121.0930000  *  179.5176000  *    33    32    31
    67       H          1.05150000  *  120.3927000  *  178.8855000  *    34    29    30
    68       H          1.09070000  *  110.7729000  *  -61.1694000  *    36    35    32
    69       H          1.09170000  *  109.9987000  *   59.0445000  *    36    35    32
    70       H          1.09170000  *  110.1840000  *  178.9330000  *    36    35    32
    71       H          1.09190000  *  110.3564000  *   60.0685000  *    37    35    32
    72       H          1.09200000  *  110.2544000  *  179.7027000  *    37    35    32
    73       H          1.09190000  *  110.3771000  *  -60.7961000  *    37    35    32
    74       H          1.09120000  *  109.9917000  *  -51.1819000  *    38    35    32
    75       H          1.09080000  *  110.7347000  *   69.1186000  *    38    35    32
    76       H          1.09170000  *  110.2936000  * -171.0898000  *    38    35    32
 


          CARTESIAN COORDINATES 

    NO.       ATOM           X           Y           Z

     1         C          0.0000      0.0000      0.0000
     2         C          1.5481      0.0000      0.0000
     3         C          2.1143      1.4440      0.0000
     4         C          3.6671      1.4541     -0.0092
     5         C          4.1970      2.9091      0.0591
     6         C          5.7485      2.9829      0.0444
     7         C          6.1951      4.4544      0.2517
     8         C          7.7309      4.6458      0.2302
     9         N          8.2002      6.0290      0.3083
    10         C          7.4717      7.2556      0.4144
    11         C          6.2055      7.5493      0.7536
    12         C          5.7837      8.9626      0.7894
    13         C          6.6430      9.9656      0.5047
    14         C          8.0471      9.6372      0.1702
    15         C          8.4088      8.3455      0.1457
    16         C          9.7060      7.7235     -0.0751
    17         C          9.5567      6.3906      0.0272
    18         C         10.7319      5.5197     -0.0649
    19         C         11.9471      6.0783     -0.2299
    20         C         12.1060      7.5495     -0.3360
    21         C         11.0171      8.3434     -0.2556
    22         C         13.4373      8.1827     -0.4210
    23         C         14.4336      7.7936     -1.2440
    24         C         15.7218      8.5133     -1.2463
    25         O         16.6386      8.1447     -1.9828
    26         O         15.9147      9.5917     -0.4464
    27         C         14.2617      6.7118     -2.1630
    28         N         14.1318      5.8367     -2.9103
    29         C          6.1922     11.3711      0.5814
    30         C          4.8582     11.7582      0.0903
    31         C          4.4151     13.0204      0.2252
    32         C          5.2524     14.0650      0.8589
    33         C          6.4889     13.7054      1.2681
    34         C          6.9701     12.3228      1.1323
    35         C          4.6943     15.4877      1.0223
    36         C          3.4240     15.4468      1.9291
    37         C          5.7094     16.4757      1.6803
    38         C          4.3160     16.0641     -0.3775
    39         H         13.6006      9.0232      0.1946
    40         H         -0.3745      0.4991     -0.8957
    41         H         -0.3637     -1.0290      0.0108
    42         H         -0.3752      0.5180      0.8842
    43         H          1.9008     -0.5273      0.8893
    44         H          1.9023     -0.5293     -0.8870
    45         H          1.7484      1.9731     -0.8832
    46         H          1.7581      1.9642      0.8924
    47         H          4.0378      0.8942      0.8523
    48         H          4.0275      0.9786     -0.9239
    49         H          3.8092      3.4714     -0.7936
    50         H          3.8295      3.3714      0.9788
    51         H          6.1546      2.3652      0.8489
    52         H          6.1228      2.6140     -0.9133
    53         H          5.7526      5.0647     -0.5377
    54         H          5.8209      4.7805      1.2238
    55         H          8.1611      4.0928      1.0703
    56         H          8.1156      4.2108     -0.6962
    57         H          5.5110      6.8103      1.0078
    58         H          4.7916      9.1762      1.0669
    59         H          8.7494     10.3935     -0.0205
    60         H         10.6341      4.4768      0.0115
    61         H         12.7944      5.4564     -0.2676
    62         H         11.1065      9.3906     -0.3002
    63         H         16.7355     10.0526     -0.4388
    64         H          4.2438     11.0456     -0.3791
    65         H          3.4584     13.2592     -0.1390
    66         H          7.1335     14.3992      1.7170
    67         H          7.9211     12.0801      1.5096
    68         H          2.6454     14.8315      1.4767
    69         H          3.6761     15.0302      2.9062
    70         H          3.0283     16.4546      2.0688
    71         H          6.6121     16.5545      1.0711
    72         H          5.2665     17.4700      1.7681
    73         H          5.9793     16.1328      2.6812
    74         H          5.1553     15.9528     -1.0659
    75         H          3.4516     15.5417     -0.7894
    76         H          4.0679     17.1241     -0.2960

  H: (RM1): G.B. ROCHA, R.O. FREIRE, A.M.SIMAS, J.J.P. STEWART, J. COMP. CHEM. 27, 1101 (2006)
  C: (RM1): G.B. ROCHA, R.O. FREIRE, A.M.SIMAS, J.J.P. STEWART, J. COMP. CHEM. 27, 1101 (2006)
  N: (RM1): G.B. ROCHA, R.O. FREIRE, A.M.SIMAS, J.J.P. STEWART, J. COMP. CHEM. 27, 1101 (2006)
  O: (RM1): G.B. ROCHA, R.O. FREIRE, A.M.SIMAS, J.J.P. STEWART, J. COMP. CHEM. 27, 1101 (2006)

           Empirical Formula: C34 H38 N2 O2  =    76 atoms



      MOLECULAR POINT GROUP   :   C1  


      RHF CALCULATION, NO. OF DOUBLY OCCUPIED LEVELS = 98


          Geometry optimization using L-BFGS
 CYCLE:     1 TIME:   0.266 TIME LEFT:  2.00D  GRAD.:   500.196 HEAT:  20.27973
 CYCLE:     2 TIME:   0.121 TIME LEFT:  2.00D  GRAD.:   370.173 HEAT:  18.18796
 CYCLE:     3 TIME:   0.125 TIME LEFT:  2.00D  GRAD.:   365.295 HEAT:  13.72146
 CYCLE:     4 TIME:   0.129 TIME LEFT:  2.00D  GRAD.:   370.682 HEAT:  18.18781
 CYCLE:     5 TIME:   0.172 TIME LEFT:  2.00D  GRAD.:   366.648 HEAT:  13.72227
 CYCLE:     6 TIME:   0.195 TIME LEFT:  2.00D  GRAD.:   308.613 HEAT:  10.96069
 CYCLE:     7 TIME:   0.230 TIME LEFT:  2.00D  GRAD.:   373.345 HEAT:  5.775887
 CYCLE:     8 TIME:   0.250 TIME LEFT:  2.00D  GRAD.:   508.796 HEAT: -9.858949
 CYCLE:     9 TIME:   0.125 TIME LEFT:  2.00D  GRAD.:   274.446 HEAT: -20.20012
 CYCLE:    10 TIME:   0.203 TIME LEFT:  2.00D  GRAD.:   182.248 HEAT: -22.11215
 CYCLE:    11 TIME:   0.184 TIME LEFT:  2.00D  GRAD.:    80.686 HEAT: -22.60883
 CYCLE:    12 TIME:   0.180 TIME LEFT:  2.00D  GRAD.:   101.280 HEAT: -22.93235
 CYCLE:    13 TIME:   0.230 TIME LEFT:  2.00D  GRAD.:   127.844 HEAT: -23.28421
 CYCLE:    14 TIME:   0.133 TIME LEFT:  2.00D  GRAD.:   127.019 HEAT: -23.99499
 CYCLE:    15 TIME:   0.164 TIME LEFT:  2.00D  GRAD.:    89.248 HEAT: -24.97239
 CYCLE:    16 TIME:   0.176 TIME LEFT:  2.00D  GRAD.:    61.054 HEAT: -25.92209
 CYCLE:    17 TIME:   0.207 TIME LEFT:  2.00D  GRAD.:   120.716 HEAT: -26.35203
 CYCLE:    18 TIME:   0.199 TIME LEFT:  2.00D  GRAD.:    95.119 HEAT: -26.67582
 CYCLE:    19 TIME:   0.230 TIME LEFT:  2.00D  GRAD.:    54.171 HEAT: -27.20083
 CYCLE:    20 TIME:   0.219 TIME LEFT:  2.00D  GRAD.:    56.384 HEAT: -27.63439
 CYCLE:    21 TIME:   0.148 TIME LEFT:  2.00D  GRAD.:    62.560 HEAT: -27.93831
 CYCLE:    22 TIME:   0.227 TIME LEFT:  2.00D  GRAD.:    30.956 HEAT: -28.27125
 CYCLE:    23 TIME:   0.133 TIME LEFT:  2.00D  GRAD.:    51.640 HEAT: -28.40578
 CYCLE:    24 TIME:   0.129 TIME LEFT:  2.00D  GRAD.:    44.118 HEAT: -28.45068
 CYCLE:    25 TIME:   0.160 TIME LEFT:  2.00D  GRAD.:    20.871 HEAT: -28.50418
 CYCLE:    26 TIME:   0.102 TIME LEFT:  2.00D  GRAD.:    28.287 HEAT: -28.55119
 CYCLE:    27 TIME:   0.113 TIME LEFT:  2.00D  GRAD.:    29.339 HEAT: -28.60821
 CYCLE:    28 TIME:   0.113 TIME LEFT:  2.00D  GRAD.:    24.757 HEAT: -28.69875
 CYCLE:    29 TIME:   0.148 TIME LEFT:  2.00D  GRAD.:    70.592 HEAT: -28.67631
 CYCLE:    30 TIME:   0.180 TIME LEFT:  2.00D  GRAD.:    24.993 HEAT: -28.77235
 CYCLE:    31 TIME:   0.113 TIME LEFT:  2.00D  GRAD.:    15.186 HEAT: -28.78724
 CYCLE:    32 TIME:   0.121 TIME LEFT:  2.00D  GRAD.:    11.186 HEAT: -28.79862
 CYCLE:    33 TIME:   0.219 TIME LEFT:  2.00D  GRAD.:    12.165 HEAT: -28.83970
 CYCLE:    34 TIME:   0.250 TIME LEFT:  2.00D  GRAD.:    13.193 HEAT: -28.87596
 CYCLE:    35 TIME:   0.133 TIME LEFT:  2.00D  GRAD.:    17.367 HEAT: -28.93893
 CYCLE:    36 TIME:   0.215 TIME LEFT:  2.00D  GRAD.:    32.941 HEAT: -28.99883
 CYCLE:    37 TIME:   0.250 TIME LEFT:  2.00D  GRAD.:    70.405 HEAT: -28.98961
 CYCLE:    38 TIME:   0.137 TIME LEFT:  2.00D  GRAD.:    14.118 HEAT: -29.05881
 CYCLE:    39 TIME:   0.137 TIME LEFT:  2.00D  GRAD.:    12.036 HEAT: -29.06866
 CYCLE:    40 TIME:   0.129 TIME LEFT:  2.00D  GRAD.:    14.801 HEAT: -29.08026
 CYCLE:    41 TIME:   0.121 TIME LEFT:  2.00D  GRAD.:    19.625 HEAT: -29.10900
 CYCLE:    42 TIME:   0.141 TIME LEFT:  2.00D  GRAD.:    18.386 HEAT: -29.16048
 CYCLE:    43 TIME:   0.145 TIME LEFT:  2.00D  GRAD.:    62.152 HEAT: -29.13096
 CYCLE:    44 TIME:   0.172 TIME LEFT:  2.00D  GRAD.:    56.846 HEAT: -29.15899
 CYCLE:    45 TIME:   0.223 TIME LEFT:  2.00D  GRAD.:    10.181 HEAT: -29.22637
 CYCLE:    46 TIME:   0.156 TIME LEFT:  2.00D  GRAD.:     9.391 HEAT: -29.23462
 CYCLE:    47 TIME:   0.230 TIME LEFT:  2.00D  GRAD.:    16.998 HEAT: -29.24319
 CYCLE:    48 TIME:   0.266 TIME LEFT:  2.00D  GRAD.:    11.301 HEAT: -29.26054
 CYCLE:    49 TIME:   0.141 TIME LEFT:  2.00D  GRAD.:    12.125 HEAT: -29.27247
 CYCLE:    50 TIME:   0.113 TIME LEFT:  2.00D  GRAD.:    17.421 HEAT: -29.29225
 CYCLE:    51 TIME:   0.133 TIME LEFT:  2.00D  GRAD.:    54.700 HEAT: -29.28327
 CYCLE:    52 TIME:   0.113 TIME LEFT:  2.00D  GRAD.:    10.825 HEAT: -29.31162
 CYCLE:    53 TIME:   0.176 TIME LEFT:  2.00D  GRAD.:     8.686 HEAT: -29.31614
 CYCLE:    54 TIME:   0.184 TIME LEFT:  2.00D  GRAD.:    10.586 HEAT: -29.32881
 CYCLE:    55 TIME:   0.219 TIME LEFT:  2.00D  GRAD.:    11.929 HEAT: -29.34530
 CYCLE:    56 TIME:   0.152 TIME LEFT:  2.00D  GRAD.:    36.133 HEAT: -29.34167
 CYCLE:    57 TIME:   0.156 TIME LEFT:  2.00D  GRAD.:    10.234 HEAT: -29.37691
 CYCLE:    58 TIME:   0.117 TIME LEFT:  2.00D  GRAD.:     9.181 HEAT: -29.38495
 CYCLE:    59 TIME:   0.121 TIME LEFT:  2.00D  GRAD.:    21.876 HEAT: -29.39673
 CYCLE:    60 TIME:   0.145 TIME LEFT:  2.00D  GRAD.:    14.057 HEAT: -29.41478
 CYCLE:    61 TIME:   0.195 TIME LEFT:  2.00D  GRAD.:     9.062 HEAT: -29.43990
 CYCLE:    62 TIME:   0.148 TIME LEFT:  2.00D  GRAD.:    15.490 HEAT: -29.46674
 CYCLE:    63 TIME:   0.152 TIME LEFT:  2.00D  GRAD.:    13.981 HEAT: -29.48804
 CYCLE:    64 TIME:   0.168 TIME LEFT:  2.00D  GRAD.:    12.323 HEAT: -29.50456
 CYCLE:    65 TIME:   0.199 TIME LEFT:  2.00D  GRAD.:    28.219 HEAT: -29.52615
 CYCLE:    66 TIME:   0.219 TIME LEFT:  2.00D  GRAD.:    12.603 HEAT: -29.54338
 CYCLE:    67 TIME:   0.125 TIME LEFT:  2.00D  GRAD.:    15.448 HEAT: -29.55323
 CYCLE:    68 TIME:   0.113 TIME LEFT:  2.00D  GRAD.:    21.213 HEAT: -29.57882
 CYCLE:    69 TIME:   0.121 TIME LEFT:  2.00D  GRAD.:    23.760 HEAT: -29.60560
 CYCLE:    70 TIME:   0.230 TIME LEFT:  2.00D  GRAD.:    23.361 HEAT: -29.63959
 CYCLE:    71 TIME:   0.160 TIME LEFT:  2.00D  GRAD.:    18.361 HEAT: -29.67344
 CYCLE:    72 TIME:   0.176 TIME LEFT:  2.00D  GRAD.:    24.444 HEAT: -29.70735
 CYCLE:    73 TIME:   0.141 TIME LEFT:  2.00D  GRAD.:    46.229 HEAT: -29.77690
 CYCLE:    74 TIME:   0.160 TIME LEFT:  2.00D  GRAD.:    57.861 HEAT: -29.83145
 CYCLE:    75 TIME:   0.211 TIME LEFT:  2.00D  GRAD.:    26.326 HEAT: -29.91397
 CYCLE:    76 TIME:   0.137 TIME LEFT:  2.00D  GRAD.:    18.536 HEAT: -29.89199
 CYCLE:    77 TIME:   0.125 TIME LEFT:  2.00D  GRAD.:    23.530 HEAT: -29.95671
 CYCLE:    78 TIME:   0.125 TIME LEFT:  2.00D  GRAD.:   144.745 HEAT: -29.89155
 CYCLE:    79 TIME:   0.266 TIME LEFT:  2.00D  GRAD.:    62.673 HEAT: -30.28323
 CYCLE:    80 TIME:   0.172 TIME LEFT:  2.00D  GRAD.:    59.260 HEAT: -30.22452
 CYCLE:    81 TIME:   0.145 TIME LEFT:  2.00D  GRAD.:   384.366 HEAT: -26.12634
 CYCLE:    82 TIME:   0.133 TIME LEFT:  2.00D  GRAD.:   698.502 HEAT: -10.05458
 CYCLE:    83 TIME:   0.176 TIME LEFT:  2.00D  GRAD.:   263.691 HEAT: -28.51995
 CYCLE:    84 TIME:   0.160 TIME LEFT:  2.00D  GRAD.:   157.217 HEAT: -29.69799
 CYCLE:    85 TIME:   0.125 TIME LEFT:  2.00D  GRAD.:    45.803 HEAT: -30.28927
 CYCLE:    86 TIME:   0.176 TIME LEFT:  2.00D  GRAD.:   162.081 HEAT: -29.93463
 CYCLE:    87 TIME:   0.434 TIME LEFT:  2.00D  GRAD.:    99.006 HEAT: -30.39468
 CYCLE:    88 TIME:   0.191 TIME LEFT:  2.00D  GRAD.:    65.853 HEAT: -30.65901
 CYCLE:    89 TIME:   0.203 TIME LEFT:  2.00D  GRAD.:    19.549 HEAT: -30.55213
 CYCLE:    90 TIME:   0.254 TIME LEFT:  2.00D  GRAD.:    19.723 HEAT: -30.80152
 CYCLE:    91 TIME:   0.125 TIME LEFT:  2.00D  GRAD.:   433.785 HEAT: -28.53510
 CYCLE:    92 TIME:   0.152 TIME LEFT:  2.00D  GRAD.:    16.791 HEAT: -30.86766
 CYCLE:    93 TIME:   0.164 TIME LEFT:  2.00D  GRAD.:    17.544 HEAT: -30.90027
 CYCLE:    94 TIME:   0.113 TIME LEFT:  2.00D  GRAD.:    30.777 HEAT: -30.98695
 CYCLE:    95 TIME:   0.211 TIME LEFT:  2.00D  GRAD.:    75.283 HEAT: -31.00326
 CYCLE:    96 TIME:   0.203 TIME LEFT:  2.00D  GRAD.:    20.973 HEAT: -31.05223
 CYCLE:    97 TIME:   0.223 TIME LEFT:  2.00D  GRAD.:    14.807 HEAT: -31.06625
 CYCLE:    98 TIME:   0.141 TIME LEFT:  2.00D  GRAD.:    33.993 HEAT: -31.10459
 CYCLE:    99 TIME:   0.152 TIME LEFT:  2.00D  GRAD.:    41.920 HEAT: -31.14083
 CYCLE:   100 TIME:   0.137 TIME LEFT:  2.00D  GRAD.:    52.966 HEAT: -31.24941
 CYCLE:   101 TIME:   0.176 TIME LEFT:  2.00D  GRAD.:    45.689 HEAT: -31.42092
 CYCLE:   102 TIME:   0.141 TIME LEFT:  2.00D  GRAD.:   175.120 HEAT: -31.06122
 CYCLE:   103 TIME:   0.133 TIME LEFT:  2.00D  GRAD.:    18.296 HEAT: -31.55989
 CYCLE:   104 TIME:   0.148 TIME LEFT:  2.00D  GRAD.:    14.820 HEAT: -31.58685
 CYCLE:   105 TIME:   0.133 TIME LEFT:  2.00D  GRAD.:    25.090 HEAT: -31.63401
 CYCLE:   106 TIME:   0.125 TIME LEFT:  2.00D  GRAD.:    27.630 HEAT: -31.66232
 CYCLE:   107 TIME:   0.160 TIME LEFT:  2.00D  GRAD.:    33.384 HEAT: -31.69430
 CYCLE:   108 TIME:   0.227 TIME LEFT:  2.00D  GRAD.:    12.263 HEAT: -31.73673
 CYCLE:   109 TIME:   0.121 TIME LEFT:  2.00D  GRAD.:    18.747 HEAT: -31.76488
 CYCLE:   110 TIME:   0.125 TIME LEFT:  2.00D  GRAD.:    21.441 HEAT: -31.78543
 CYCLE:   111 TIME:   0.121 TIME LEFT:  2.00D  GRAD.:    65.985 HEAT: -31.79643
 CYCLE:   112 TIME:   0.234 TIME LEFT:  2.00D  GRAD.:    20.273 HEAT: -31.85983
 CYCLE:   113 TIME:   0.125 TIME LEFT:  2.00D  GRAD.:    15.931 HEAT: -31.88758
 CYCLE:   114 TIME:   0.164 TIME LEFT:  2.00D  GRAD.:    17.523 HEAT: -31.94798
 CYCLE:   115 TIME:   0.117 TIME LEFT:  2.00D  GRAD.:    17.076 HEAT: -32.02985
 CYCLE:   116 TIME:   0.129 TIME LEFT:  2.00D  GRAD.:    66.859 HEAT: -32.04293
 CYCLE:   117 TIME:   0.180 TIME LEFT:  2.00D  GRAD.:    15.603 HEAT: -32.10777
 CYCLE:   118 TIME:   0.145 TIME LEFT:  2.00D  GRAD.:    14.416 HEAT: -32.12074
 CYCLE:   119 TIME:   0.168 TIME LEFT:  2.00D  GRAD.:    20.979 HEAT: -32.14544
 CYCLE:   120 TIME:   0.184 TIME LEFT:  2.00D  GRAD.:    24.264 HEAT: -32.18898
 CYCLE:   121 TIME:   0.160 TIME LEFT:  2.00D  GRAD.:    63.065 HEAT: -32.21117
 CYCLE:   122 TIME:   0.168 TIME LEFT:  2.00D  GRAD.:    15.318 HEAT: -32.27246
 CYCLE:   123 TIME:   0.199 TIME LEFT:  2.00D  GRAD.:    15.549 HEAT: -32.29418
 CYCLE:   124 TIME:   0.148 TIME LEFT:  2.00D  GRAD.:    20.455 HEAT: -32.31217
 CYCLE:   125 TIME:   0.168 TIME LEFT:  2.00D  GRAD.:    18.879 HEAT: -32.33654
 CYCLE:   126 TIME:   0.223 TIME LEFT:  2.00D  GRAD.:   138.662 HEAT: -32.11214
 CYCLE:   127 TIME:   0.215 TIME LEFT:  2.00D  GRAD.:    12.450 HEAT: -32.37901
 CYCLE:   128 TIME:   0.188 TIME LEFT:  2.00D  GRAD.:    10.434 HEAT: -32.38527
 CYCLE:   129 TIME:   0.109 TIME LEFT:  2.00D  GRAD.:     8.759 HEAT: -32.40109
 CYCLE:   130 TIME:   0.180 TIME LEFT:  2.00D  GRAD.:    11.073 HEAT: -32.41927
 CYCLE:   131 TIME:   0.117 TIME LEFT:  2.00D  GRAD.:    24.144 HEAT: -32.43695
 CYCLE:   132 TIME:   0.148 TIME LEFT:  2.00D  GRAD.:    14.818 HEAT: -32.46108
 CYCLE:   133 TIME:   0.219 TIME LEFT:  2.00D  GRAD.:    11.737 HEAT: -32.47274
 CYCLE:   134 TIME:   0.129 TIME LEFT:  2.00D  GRAD.:     9.019 HEAT: -32.49425
 CYCLE:   135 TIME:   0.117 TIME LEFT:  2.00D  GRAD.:    20.000 HEAT: -32.50988
 CYCLE:   136 TIME:   0.113 TIME LEFT:  2.00D  GRAD.:    11.542 HEAT: -32.52179
 CYCLE:   137 TIME:   0.137 TIME LEFT:  2.00D  GRAD.:     7.166 HEAT: -32.52983
 CYCLE:   138 TIME:   0.152 TIME LEFT:  2.00D  GRAD.:     6.824 HEAT: -32.53816
 CYCLE:   139 TIME:   0.180 TIME LEFT:  2.00D  GRAD.:     6.855 HEAT: -32.55119
 CYCLE:   140 TIME:   0.129 TIME LEFT:  2.00D  GRAD.:    21.444 HEAT: -32.56943
 CYCLE:   141 TIME:   0.215 TIME LEFT:  2.00D  GRAD.:    18.147 HEAT: -32.58192
 CYCLE:   142 TIME:   0.137 TIME LEFT:  2.00D  GRAD.:     7.040 HEAT: -32.59237
 CYCLE:   143 TIME:   0.211 TIME LEFT:  2.00D  GRAD.:     8.023 HEAT: -32.60006
 CYCLE:   144 TIME:   0.137 TIME LEFT:  2.00D  GRAD.:     8.037 HEAT: -32.60759
 CYCLE:   145 TIME:   0.168 TIME LEFT:  2.00D  GRAD.:    14.445 HEAT: -32.62004
 CYCLE:   146 TIME:   0.148 TIME LEFT:  2.00D  GRAD.:    11.877 HEAT: -32.63266
 CYCLE:   147 TIME:   0.113 TIME LEFT:  2.00D  GRAD.:     6.268 HEAT: -32.64096
 CYCLE:   148 TIME:   0.113 TIME LEFT:  2.00D  GRAD.:     7.794 HEAT: -32.64890
 CYCLE:   149 TIME:   0.113 TIME LEFT:  2.00D  GRAD.:     7.994 HEAT: -32.65629
 CYCLE:   150 TIME:   0.117 TIME LEFT:  2.00D  GRAD.:    56.724 HEAT: -32.64011
 CYCLE:   151 TIME:   0.117 TIME LEFT:  2.00D  GRAD.:     6.508 HEAT: -32.67285
 CYCLE:   152 TIME:   0.148 TIME LEFT:  2.00D  GRAD.:     7.062 HEAT: -32.67641
 CYCLE:   153 TIME:   0.145 TIME LEFT:  2.00D  GRAD.:    10.233 HEAT: -32.68218
 CYCLE:   154 TIME:   0.180 TIME LEFT:  2.00D  GRAD.:     8.397 HEAT: -32.68958
 CYCLE:   155 TIME:   0.250 TIME LEFT:  2.00D  GRAD.:    14.224 HEAT: -32.69890
 CYCLE:   156 TIME:   0.176 TIME LEFT:  2.00D  GRAD.:     6.595 HEAT: -32.70450
 CYCLE:   157 TIME:   0.180 TIME LEFT:  2.00D  GRAD.:     6.561 HEAT: -32.70685
 CYCLE:   158 TIME:   0.117 TIME LEFT:  2.00D  GRAD.:     7.728 HEAT: -32.71288
 CYCLE:   159 TIME:   0.164 TIME LEFT:  2.00D  GRAD.:     6.047 HEAT: -32.72208
 CYCLE:   160 TIME:   0.227 TIME LEFT:  2.00D  GRAD.:    40.377 HEAT: -32.70628
 CYCLE:   161 TIME:   0.176 TIME LEFT:  2.00D  GRAD.:     4.720 HEAT: -32.72968
 CYCLE:   162 TIME:   0.172 TIME LEFT:  2.00D  GRAD.:     4.526 HEAT: -32.73171
 CYCLE:   163 TIME:   0.137 TIME LEFT:  2.00D  GRAD.:     4.129 HEAT: -32.73744
 CYCLE:   164 TIME:   0.176 TIME LEFT:  2.00D  GRAD.:    31.271 HEAT: -32.73722
 CYCLE:   165 TIME:   0.117 TIME LEFT:  2.00D  GRAD.:     8.741 HEAT: -32.74764
 CYCLE:   166 TIME:   0.113 TIME LEFT:  2.00D  GRAD.:     4.394 HEAT: -32.75070
 CYCLE:   167 TIME:   0.176 TIME LEFT:  2.00D  GRAD.:     5.783 HEAT: -32.75413
 CYCLE:   168 TIME:   0.246 TIME LEFT:  2.00D  GRAD.:     5.638 HEAT: -32.75746
 CYCLE:   169 TIME:   0.113 TIME LEFT:  2.00D  GRAD.:    15.760 HEAT: -32.76190
 CYCLE:   170 TIME:   0.113 TIME LEFT:  2.00D  GRAD.:    18.597 HEAT: -32.76194
 CYCLE:   171 TIME:   0.148 TIME LEFT:  2.00D  GRAD.:     4.111 HEAT: -32.76707
 CYCLE:   172 TIME:   0.113 TIME LEFT:  2.00D  GRAD.:     3.440 HEAT: -32.76799
 CYCLE:   173 TIME:   0.113 TIME LEFT:  2.00D  GRAD.:     4.226 HEAT: -32.77103
 CYCLE:   174 TIME:   0.199 TIME LEFT:  2.00D  GRAD.:     7.831 HEAT: -32.77464
 CYCLE:   175 TIME:   0.164 TIME LEFT:  2.00D  GRAD.:    10.584 HEAT: -32.77806
 CYCLE:   176 TIME:   0.125 TIME LEFT:  2.00D  GRAD.:     5.329 HEAT: -32.78194
 CYCLE:   177 TIME:   0.195 TIME LEFT:  2.00D  GRAD.:     4.582 HEAT: -32.78545
 CYCLE:   178 TIME:   0.230 TIME LEFT:  2.00D  GRAD.:     8.199 HEAT: -32.78868
 CYCLE:   179 TIME:   0.230 TIME LEFT:  2.00D  GRAD.:     6.722 HEAT: -32.79145
 CYCLE:   180 TIME:   0.133 TIME LEFT:  2.00D  GRAD.:     4.395 HEAT: -32.79381
 CYCLE:   181 TIME:   0.164 TIME LEFT:  2.00D  GRAD.:     4.414 HEAT: -32.79646
 CYCLE:   182 TIME:   0.145 TIME LEFT:  2.00D  GRAD.:     5.464 HEAT: -32.80074
 CYCLE:   183 TIME:   0.188 TIME LEFT:  2.00D  GRAD.:    24.415 HEAT: -32.79954
 CYCLE:   184 TIME:   0.121 TIME LEFT:  2.00D  GRAD.:    11.925 HEAT: -32.80932
 CYCLE:   185 TIME:   0.227 TIME LEFT:  2.00D  GRAD.:     4.302 HEAT: -32.81161
 CYCLE:   186 TIME:   0.145 TIME LEFT:  2.00D  GRAD.:     3.944 HEAT: -32.81280
 CYCLE:   187 TIME:   0.109 TIME LEFT:  2.00D  GRAD.:     4.339 HEAT: -32.81372
 CYCLE:   188 TIME:   0.113 TIME LEFT:  2.00D  GRAD.:     8.015 HEAT: -32.81859
 CYCLE:   189 TIME:   0.156 TIME LEFT:  2.00D  GRAD.:    11.524 HEAT: -32.81954
 CYCLE:   190 TIME:   0.133 TIME LEFT:  2.00D  GRAD.:     7.075 HEAT: -32.82387
 CYCLE:   191 TIME:   0.133 TIME LEFT:  2.00D  GRAD.:     3.099 HEAT: -32.82630
 CYCLE:   192 TIME:   0.164 TIME LEFT:  2.00D  GRAD.:     3.498 HEAT: -32.82804
 CYCLE:   193 TIME:   0.199 TIME LEFT:  2.00D  GRAD.:     4.743 HEAT: -32.83006
 CYCLE:   194 TIME:   0.223 TIME LEFT:  2.00D  GRAD.:    13.767 HEAT: -32.83050
 CYCLE:   195 TIME:   0.152 TIME LEFT:  2.00D  GRAD.:     3.752 HEAT: -32.83446
 CYCLE:   196 TIME:   0.219 TIME LEFT:  2.00D  GRAD.:     3.339 HEAT: -32.83559
 CYCLE:   197 TIME:   0.152 TIME LEFT:  2.00D  GRAD.:     8.119 HEAT: -32.83714
 CYCLE:   198 TIME:   0.266 TIME LEFT:  2.00D  GRAD.:     3.664 HEAT: -32.83858
 CYCLE:   199 TIME:   0.188 TIME LEFT:  2.00D  GRAD.:     4.215 HEAT: -32.83958
 CYCLE:   200 TIME:   0.246 TIME LEFT:  2.00D  GRAD.:     2.761 HEAT: -32.84048
 CYCLE:   201 TIME:   0.211 TIME LEFT:  2.00D  GRAD.:     4.252 HEAT: -32.84152
 CYCLE:   202 TIME:   0.113 TIME LEFT:  2.00D  GRAD.:     4.429 HEAT: -32.84272
 CYCLE:   203 TIME:   0.113 TIME LEFT:  2.00D  GRAD.:     7.803 HEAT: -32.84469
 CYCLE:   204 TIME:   0.102 TIME LEFT:  2.00D  GRAD.:     4.995 HEAT: -32.84558
 CYCLE:   205 TIME:   0.109 TIME LEFT:  2.00D  GRAD.:     2.562 HEAT: -32.84664
 CYCLE:   206 TIME:   0.109 TIME LEFT:  2.00D  GRAD.:     2.218 HEAT: -32.84752
 CYCLE:   207 TIME:   0.199 TIME LEFT:  2.00D  GRAD.:     2.882 HEAT: -32.84885
 CYCLE:   208 TIME:   0.199 TIME LEFT:  2.00D  GRAD.:     2.832 HEAT: -32.85086
 CYCLE:   209 TIME:   0.137 TIME LEFT:  2.00D  GRAD.:    13.791 HEAT: -32.85004
 CYCLE:   210 TIME:   0.109 TIME LEFT:  2.00D  GRAD.:     2.194 HEAT: -32.85272
 CYCLE:   211 TIME:   0.137 TIME LEFT:  2.00D  GRAD.:     1.867 HEAT: -32.85297
 CYCLE:   212 TIME:   0.207 TIME LEFT:  2.00D  GRAD.:    16.305 HEAT: -32.85167
 CYCLE:   213 TIME:   0.203 TIME LEFT:  2.00D  GRAD.:     3.164 HEAT: -32.85372
 CYCLE:   214 TIME:   0.148 TIME LEFT:  2.00D  GRAD.:     2.037 HEAT: -32.85398
 CYCLE:   215 TIME:   0.113 TIME LEFT:  2.00D  GRAD.:     2.663 HEAT: -32.85460
 CYCLE:   216 TIME:   0.164 TIME LEFT:  2.00D  GRAD.:     2.008 HEAT: -32.85494
 CYCLE:   217 TIME:   0.117 TIME LEFT:  2.00D  GRAD.:     1.712 HEAT: -32.85584
 CYCLE:   218 TIME:   0.203 TIME LEFT:  2.00D  GRAD.:     9.755 HEAT: -32.85485
 CYCLE:   219 TIME:   0.152 TIME LEFT:  2.00D  GRAD.:     2.062 HEAT: -32.85624
 CYCLE:   220 TIME:   0.156 TIME LEFT:  2.00D  GRAD.:     1.423 HEAT: -32.85639
 CYCLE:   221 TIME:   0.133 TIME LEFT:  2.00D  GRAD.:     3.110 HEAT: -32.85696
 CYCLE:   222 TIME:   0.141 TIME LEFT:  2.00D  GRAD.:     3.220 HEAT: -32.85738
 CYCLE:   223 TIME:   0.172 TIME LEFT:  2.00D  GRAD.:     8.985 HEAT: -32.85748
 CYCLE:   224 TIME:   0.152 TIME LEFT:  2.00D  GRAD.:     2.260 HEAT: -32.85860
 CYCLE:   225 TIME:   0.219 TIME LEFT:  2.00D  GRAD.:     1.368 HEAT: -32.85891
 CYCLE:   226 TIME:   0.184 TIME LEFT:  2.00D  GRAD.:     1.324 HEAT: -32.85928
 CYCLE:   227 TIME:   0.172 TIME LEFT:  2.00D  GRAD.:     8.419 HEAT: -32.85891
 CYCLE:   228 TIME:   0.203 TIME LEFT:  2.00D  GRAD.:     1.301 HEAT: -32.86000
 CYCLE:   229 TIME:   0.141 TIME LEFT:  2.00D  GRAD.:     1.033 HEAT: -32.86017
 CYCLE:   230 TIME:   0.125 TIME LEFT:  2.00D  GRAD.:     1.328 HEAT: -32.86054
 CYCLE:   231 TIME:   0.109 TIME LEFT:  2.00D  GRAD.:     1.308 HEAT: -32.86083
 CYCLE:   232 TIME:   0.137 TIME LEFT:  2.00D  GRAD.:     2.560 HEAT: -32.86119
 CYCLE:   233 TIME:   0.129 TIME LEFT:  2.00D  GRAD.:     2.071 HEAT: -32.86160
 CYCLE:   234 TIME:   0.129 TIME LEFT:  2.00D  GRAD.:     2.880 HEAT: -32.86203
 CYCLE:   235 TIME:   0.113 TIME LEFT:  2.00D  GRAD.:     2.365 HEAT: -32.86247
 CYCLE:   236 TIME:   0.141 TIME LEFT:  2.00D  GRAD.:     1.995 HEAT: -32.86287
 CYCLE:   237 TIME:   0.109 TIME LEFT:  2.00D  GRAD.:     7.023 HEAT: -32.86327
 CYCLE:   238 TIME:   0.113 TIME LEFT:  2.00D  GRAD.:     2.437 HEAT: -32.86373
 CYCLE:   239 TIME:   0.145 TIME LEFT:  2.00D  GRAD.:     1.853 HEAT: -32.86391
 CYCLE:   240 TIME:   0.117 TIME LEFT:  2.00D  GRAD.:     3.545 HEAT: -32.86411
 CYCLE:   241 TIME:   0.148 TIME LEFT:  2.00D  GRAD.:     2.853 HEAT: -32.86439
 CYCLE:   242 TIME:   0.148 TIME LEFT:  2.00D  GRAD.:     2.961 HEAT: -32.86475
 CYCLE:   243 TIME:   0.211 TIME LEFT:  2.00D  GRAD.:     1.904 HEAT: -32.86497
 CYCLE:   244 TIME:   0.113 TIME LEFT:  2.00D  GRAD.:     1.825 HEAT: -32.86527
 CYCLE:   245 TIME:   0.137 TIME LEFT:  2.00D  GRAD.:     1.699 HEAT: -32.86570
 CYCLE:   246 TIME:   0.219 TIME LEFT:  2.00D  GRAD.:     2.415 HEAT: -32.86638
 CYCLE:   247 TIME:   0.188 TIME LEFT:  2.00D  GRAD.:     4.517 HEAT: -32.86647
 CYCLE:   248 TIME:   0.117 TIME LEFT:  2.00D  GRAD.:     1.769 HEAT: -32.86725
 CYCLE:   249 TIME:   0.125 TIME LEFT:  2.00D  GRAD.:     1.625 HEAT: -32.86747
 CYCLE:   250 TIME:   0.113 TIME LEFT:  2.00D  GRAD.:     2.285 HEAT: -32.86797
 CYCLE:   251 TIME:   0.168 TIME LEFT:  2.00D  GRAD.:     8.836 HEAT: -32.86755
 CYCLE:   252 TIME:   0.117 TIME LEFT:  2.00D  GRAD.:     1.421 HEAT: -32.86854
 CYCLE:   253 TIME:   0.211 TIME LEFT:  2.00D  GRAD.:     1.224 HEAT: -32.86864
 CYCLE:   254 TIME:   0.145 TIME LEFT:  2.00D  GRAD.:     2.337 HEAT: -32.86886
 CYCLE:   255 TIME:   0.152 TIME LEFT:  2.00D  GRAD.:     1.481 HEAT: -32.86900
 CYCLE:   256 TIME:   0.141 TIME LEFT:  2.00D  GRAD.:     1.521 HEAT: -32.86921
 CYCLE:   257 TIME:   0.133 TIME LEFT:  2.00D  GRAD.:     2.708 HEAT: -32.86968
 CYCLE:   258 TIME:   0.113 TIME LEFT:  2.00D  GRAD.:     2.284 HEAT: -32.87000
 CYCLE:   259 TIME:   0.113 TIME LEFT:  2.00D  GRAD.:     1.331 HEAT: -32.87020
 CYCLE:   260 TIME:   0.141 TIME LEFT:  2.00D  GRAD.:     1.147 HEAT: -32.87041
 CYCLE:   261 TIME:   0.176 TIME LEFT:  2.00D  GRAD.:     1.128 HEAT: -32.87070
 CYCLE:   262 TIME:   0.246 TIME LEFT:  2.00D  GRAD.:     7.474 HEAT: -32.87007
 CYCLE:   263 TIME:   0.211 TIME LEFT:  2.00D  GRAD.:     0.776 HEAT: -32.87108
 CYCLE:   264 TIME:   0.242 TIME LEFT:  2.00D  GRAD.:     0.893 HEAT: -32.87116
 CYCLE:   265 TIME:   0.113 TIME LEFT:  2.00D  GRAD.:     0.974 HEAT: -32.87135
 CYCLE:   266 TIME:   0.121 TIME LEFT:  2.00D  GRAD.:     3.482 HEAT: -32.87175
 CYCLE:   267 TIME:   0.242 TIME LEFT:  2.00D  GRAD.:     2.361 HEAT: -32.87198
 CYCLE:   268 TIME:   0.105 TIME LEFT:  2.00D  GRAD.:     0.968 HEAT: -32.87206
 CYCLE:   269 TIME:   0.113 TIME LEFT:  2.00D  GRAD.:     0.918 HEAT: -32.87210
 CYCLE:   270 TIME:   0.109 TIME LEFT:  2.00D  GRAD.:     1.015 HEAT: -32.87217
 CYCLE:   271 TIME:   0.176 TIME LEFT:  2.00D  GRAD.:     1.766 HEAT: -32.87235
 CYCLE:   272 TIME:   0.113 TIME LEFT:  2.00D  GRAD.:     6.486 HEAT: -32.87194
 CYCLE:   273 TIME:   0.227 TIME LEFT:  2.00D  GRAD.:     0.775 HEAT: -32.87257
 CYCLE:   274 TIME:   0.180 TIME LEFT:  2.00D  GRAD.:     0.728 HEAT: -32.87262
 CYCLE:   275 TIME:   0.219 TIME LEFT:  2.00D  GRAD.:     1.281 HEAT: -32.87266
 CYCLE:   276 TIME:   0.258 TIME LEFT:  2.00D  GRAD.:     1.414 HEAT: -32.87285
 CYCLE:   277 TIME:   0.184 TIME LEFT:  2.00D  GRAD.:     1.242 HEAT: -32.87297
 CYCLE:   278 TIME:   0.141 TIME LEFT:  2.00D  GRAD.:     0.672 HEAT: -32.87307
 CYCLE:   279 TIME:   0.113 TIME LEFT:  2.00D  GRAD.:     0.751 HEAT: -32.87313
 CYCLE:   280 TIME:   0.109 TIME LEFT:  2.00D  GRAD.:     2.074 HEAT: -32.87327
 CYCLE:   281 TIME:   0.125 TIME LEFT:  2.00D  GRAD.:     1.461 HEAT: -32.87339
 CYCLE:   282 TIME:   0.172 TIME LEFT:  2.00D  GRAD.:     0.768 HEAT: -32.87347
 CYCLE:   283 TIME:   0.137 TIME LEFT:  2.00D  GRAD.:     0.796 HEAT: -32.87353
 CYCLE:   284 TIME:   0.164 TIME LEFT:  2.00D  GRAD.:     1.329 HEAT: -32.87361
 CYCLE:   285 TIME:   0.156 TIME LEFT:  2.00D  GRAD.:     2.298 HEAT: -32.87374
 CYCLE:   286 TIME:   0.129 TIME LEFT:  2.00D  GRAD.:     1.114 HEAT: -32.87385
 CYCLE:   287 TIME:   0.121 TIME LEFT:  2.00D  GRAD.:     0.650 HEAT: -32.87393
 CYCLE:   288 TIME:   0.145 TIME LEFT:  2.00D  GRAD.:     0.596 HEAT: -32.87396
 CYCLE:   289 TIME:   0.180 TIME LEFT:  2.00D  GRAD.:     4.573 HEAT: -32.87386
 CYCLE:   290 TIME:   0.211 TIME LEFT:  2.00D  GRAD.:     0.915 HEAT: -32.87413
 CYCLE:   291 TIME:   0.168 TIME LEFT:  2.00D  GRAD.:     0.491 HEAT: -32.87416
 CYCLE:   292 TIME:   0.180 TIME LEFT:  2.00D  GRAD.:     0.572 HEAT: -32.87420
 CYCLE:   293 TIME:   0.129 TIME LEFT:  2.00D  GRAD.:     1.105 HEAT: -32.87425
 CYCLE:   294 TIME:   0.188 TIME LEFT:  2.00D  GRAD.:     0.591 HEAT: -32.87428
 CYCLE:   295 TIME:   0.234 TIME LEFT:  2.00D  GRAD.:     0.897 HEAT: -32.87429
 CYCLE:   296 TIME:   0.152 TIME LEFT:  2.00D  GRAD.:     0.808 HEAT: -32.87434
 CYCLE:   297 TIME:   0.113 TIME LEFT:  2.00D  GRAD.:     0.814 HEAT: -32.87442
 CYCLE:   298 TIME:   0.125 TIME LEFT:  2.00D  GRAD.:     0.435 HEAT: -32.87448
 CYCLE:   299 TIME:   0.129 TIME LEFT:  2.00D  GRAD.:     0.553 HEAT: -32.87452
 CYCLE:   300 TIME:   0.109 TIME LEFT:  2.00D  GRAD.:     1.972 HEAT: -32.87451
 CYCLE:   301 TIME:   0.109 TIME LEFT:  2.00D  GRAD.:     0.555 HEAT: -32.87457
 CYCLE:   302 TIME:   0.113 TIME LEFT:  2.00D  GRAD.:     0.418 HEAT: -32.87459
 CYCLE:   303 TIME:   0.121 TIME LEFT:  2.00D  GRAD.:     0.554 HEAT: -32.87465
 CYCLE:   304 TIME:   0.113 TIME LEFT:  2.00D  GRAD.:     1.393 HEAT: -32.87471
 CYCLE:   305 TIME:   0.125 TIME LEFT:  2.00D  GRAD.:     0.869 HEAT: -32.87476
 CYCLE:   306 TIME:   0.133 TIME LEFT:  2.00D  GRAD.:     0.447 HEAT: -32.87479
 CYCLE:   307 TIME:   0.125 TIME LEFT:  2.00D  GRAD.:     0.744 HEAT: -32.87480
 CYCLE:   308 TIME:   0.109 TIME LEFT:  2.00D  GRAD.:     0.486 HEAT: -32.87482
 CYCLE:   309 TIME:   0.164 TIME LEFT:  2.00D  GRAD.:     0.489 HEAT: -32.87486
 CYCLE:   310 TIME:   0.109 TIME LEFT:  2.00D  GRAD.:     0.800 HEAT: -32.87492
 CYCLE:   311 TIME:   0.113 TIME LEFT:  2.00D  GRAD.:     0.502 HEAT: -32.87498
 CYCLE:   312 TIME:   0.145 TIME LEFT:  2.00D  GRAD.:     0.668 HEAT: -32.87503
 CYCLE:   313 TIME:   0.133 TIME LEFT:  2.00D  GRAD.:     0.814 HEAT: -32.87511
 CYCLE:   314 TIME:   0.113 TIME LEFT:  2.00D  GRAD.:     0.787 HEAT: -32.87514
 CYCLE:   315 TIME:   0.184 TIME LEFT:  2.00D  GRAD.:     0.641 HEAT: -32.87517
 CYCLE:   316 TIME:   0.113 TIME LEFT:  2.00D  GRAD.:     0.479 HEAT: -32.87523
 CYCLE:   317 TIME:   0.117 TIME LEFT:  2.00D  GRAD.:     0.450 HEAT: -32.87530
 CYCLE:   318 TIME:   0.113 TIME LEFT:  2.00D  GRAD.:     0.633 HEAT: -32.87539
 CYCLE:   319 TIME:   0.129 TIME LEFT:  2.00D  GRAD.:     1.444 HEAT: -32.87543
 CYCLE:   320 TIME:   0.148 TIME LEFT:  2.00D  GRAD.:     2.803 HEAT: -32.87543
 CYCLE:   321 TIME:   0.164 TIME LEFT:  2.00D  GRAD.:     0.613 HEAT: -32.87553
 CYCLE:   322 TIME:   0.141 TIME LEFT:  2.00D  GRAD.:     0.435 HEAT: -32.87555
 CYCLE:   323 TIME:   0.223 TIME LEFT:  2.00D  GRAD.:     0.732 HEAT: -32.87557
 CYCLE:   324 TIME:   0.164 TIME LEFT:  2.00D  GRAD.:     0.783 HEAT: -32.87560
 CYCLE:   325 TIME:   0.223 TIME LEFT:  2.00D  GRAD.:     0.508 HEAT: -32.87564
 CYCLE:   326 TIME:   0.133 TIME LEFT:  2.00D  GRAD.:     0.734 HEAT: -32.87567
 CYCLE:   327 TIME:   0.109 TIME LEFT:  2.00D  GRAD.:     1.029 HEAT: -32.87568
 CYCLE:   328 TIME:   0.109 TIME LEFT:  2.00D  GRAD.:     0.475 HEAT: -32.87571
 CYCLE:   329 TIME:   0.109 TIME LEFT:  2.00D  GRAD.:     0.443 HEAT: -32.87573
 CYCLE:   330 TIME:   0.219 TIME LEFT:  2.00D  GRAD.:     0.607 HEAT: -32.87575
 CYCLE:   331 TIME:   0.133 TIME LEFT:  2.00D  GRAD.:     1.155 HEAT: -32.87576
 CYCLE:   332 TIME:   0.176 TIME LEFT:  2.00D  GRAD.:     0.458 HEAT: -32.87579
 CYCLE:   333 TIME:   0.176 TIME LEFT:  2.00D  GRAD.:     0.679 HEAT: -32.87582
 CYCLE:   334 TIME:   0.215 TIME LEFT:  2.00D  GRAD.:     0.513 HEAT: -32.87583
 CYCLE:   335 TIME:   0.215 TIME LEFT:  2.00D  GRAD.:     0.569 HEAT: -32.87586
 CYCLE:   336 TIME:   0.133 TIME LEFT:  2.00D  GRAD.:     1.348 HEAT: -32.87587
 CYCLE:   337 TIME:   0.105 TIME LEFT:  2.00D  GRAD.:     0.552 HEAT: -32.87589
 CYCLE:   338 TIME:   0.207 TIME LEFT:  2.00D  GRAD.:     0.811 HEAT: -32.87591
 CYCLE:   339 TIME:   0.223 TIME LEFT:  2.00D  GRAD.:     0.738 HEAT: -32.87592
 CYCLE:   340 TIME:   0.215 TIME LEFT:  2.00D  GRAD.:     0.866 HEAT: -32.87596
 CYCLE:   341 TIME:   0.145 TIME LEFT:  2.00D  GRAD.:     1.738 HEAT: -32.87594
 CYCLE:   342 TIME:   0.109 TIME LEFT:  2.00D  GRAD.:     1.508 HEAT: -32.87595
 CYCLE:   343 TIME:   0.184 TIME LEFT:  2.00D  GRAD.:     0.371 HEAT: -32.87601
 CYCLE:   344 TIME:   0.109 TIME LEFT:  2.00D  GRAD.:     0.407 HEAT: -32.87601
 CYCLE:   345 TIME:   0.148 TIME LEFT:  2.00D  GRAD.:     0.299 HEAT: -32.87605
 CYCLE:   346 TIME:   0.113 TIME LEFT:  2.00D  GRAD.:     0.915 HEAT: -32.87607
 CYCLE:   347 TIME:   0.211 TIME LEFT:  2.00D  GRAD.:     0.856 HEAT: -32.87613
 CYCLE:   348 TIME:   0.125 TIME LEFT:  2.00D  GRAD.:     0.828 HEAT: -32.87614
 CYCLE:   349 TIME:   0.211 TIME LEFT:  2.00D  GRAD.:     0.333 HEAT: -32.87616
 CYCLE:   350 TIME:   0.145 TIME LEFT:  2.00D  GRAD.:     0.315 HEAT: -32.87618
 CYCLE:   351 TIME:   0.117 TIME LEFT:  2.00D  GRAD.:     0.322 HEAT: -32.87619
 CYCLE:   352 TIME:   0.113 TIME LEFT:  2.00D  GRAD.:     0.462 HEAT: -32.87626
 CYCLE:   353 TIME:   0.125 TIME LEFT:  2.00D  GRAD.:     6.646 HEAT: -32.87599
 CYCLE:   354 TIME:   0.191 TIME LEFT:  2.00D  GRAD.:     6.853 HEAT: -32.87589
 CYCLE:   355 TIME:   0.148 TIME LEFT:  2.00D  GRAD.:     0.846 HEAT: -32.87629
 CYCLE:   356 TIME:   0.113 TIME LEFT:  2.00D  GRAD.:     1.897 HEAT: -32.87624
 CYCLE:   357 TIME:   0.137 TIME LEFT:  2.00D  GRAD.:     0.551 HEAT: -32.87630
 CYCLE:   358 TIME:   0.156 TIME LEFT:  2.00D  GRAD.:     2.863 HEAT: -32.87620
 CYCLE:   359 TIME:   0.152 TIME LEFT:  2.00D  GRAD.:     2.258 HEAT: -32.87626
 CYCLE:   360 TIME:   0.148 TIME LEFT:  2.00D  GRAD.:     0.655 HEAT: -32.87631
 CYCLE:   361 TIME:   0.152 TIME LEFT:  2.00D  GRAD.:     0.339 HEAT: -32.87633
 CYCLE:   362 TIME:   0.113 TIME LEFT:  2.00D  GRAD.:     0.450 HEAT: -32.87635
 CYCLE:   363 TIME:   0.113 TIME LEFT:  2.00D  GRAD.:     0.681 HEAT: -32.87640
 CYCLE:   364 TIME:   0.230 TIME LEFT:  2.00D  GRAD.:     1.523 HEAT: -32.87643
 CYCLE:   365 TIME:   0.113 TIME LEFT:  2.00D  GRAD.:     0.498 HEAT: -32.87649
 CYCLE:   366 TIME:   0.113 TIME LEFT:  2.00D  GRAD.:     0.840 HEAT: -32.87649
 CYCLE:   367 TIME:   0.125 TIME LEFT:  2.00D  GRAD.:     0.517 HEAT: -32.87652
 CYCLE:   368 TIME:   0.113 TIME LEFT:  2.00D  GRAD.:     0.567 HEAT: -32.87653
 CYCLE:   369 TIME:   0.109 TIME LEFT:  2.00D  GRAD.:     0.365 HEAT: -32.87655
 CYCLE:   370 TIME:   0.133 TIME LEFT:  2.00D  GRAD.:     0.955 HEAT: -32.87654
 CYCLE:   371 TIME:   0.113 TIME LEFT:  2.00D  GRAD.:     0.316 HEAT: -32.87659
 CYCLE:   372 TIME:   0.109 TIME LEFT:  2.00D  GRAD.:     0.258 HEAT: -32.87660
 CYCLE:   373 TIME:   0.164 TIME LEFT:  2.00D  GRAD.:     0.602 HEAT: -32.87663
 CYCLE:   374 TIME:   0.141 TIME LEFT:  2.00D  GRAD.:     0.968 HEAT: -32.87665
 CYCLE:   375 TIME:   0.176 TIME LEFT:  2.00D  GRAD.:     0.889 HEAT: -32.87667
 CYCLE:   376 TIME:   0.117 TIME LEFT:  2.00D  GRAD.:     0.768 HEAT: -32.87671
 CYCLE:   377 TIME:   0.250 TIME LEFT:  2.00D  GRAD.:     1.023 HEAT: -32.87674
 CYCLE:   378 TIME:   0.145 TIME LEFT:  2.00D  GRAD.:     0.760 HEAT: -32.87678
 CYCLE:   379 TIME:   0.117 TIME LEFT:  2.00D  GRAD.:     0.465 HEAT: -32.87680
 CYCLE:   380 TIME:   0.141 TIME LEFT:  2.00D  GRAD.:     1.111 HEAT: -32.87682
 CYCLE:   381 TIME:   0.211 TIME LEFT:  2.00D  GRAD.:     0.777 HEAT: -32.87685
 CYCLE:   382 TIME:   0.137 TIME LEFT:  2.00D  GRAD.:     0.395 HEAT: -32.87689
 CYCLE:   383 TIME:   0.188 TIME LEFT:  2.00D  GRAD.:     0.529 HEAT: -32.87691
 CYCLE:   384 TIME:   0.211 TIME LEFT:  2.00D  GRAD.:     0.635 HEAT: -32.87695
 CYCLE:   385 TIME:   0.137 TIME LEFT:  2.00D  GRAD.:     1.361 HEAT: -32.87698
 CYCLE:   386 TIME:   0.191 TIME LEFT:  2.00D  GRAD.:     0.699 HEAT: -32.87705
 CYCLE:   387 TIME:   0.113 TIME LEFT:  2.00D  GRAD.:     0.681 HEAT: -32.87707
 CYCLE:   388 TIME:   0.109 TIME LEFT:  2.00D  GRAD.:     0.484 HEAT: -32.87712
 CYCLE:   389 TIME:   0.148 TIME LEFT:  2.00D  GRAD.:     1.004 HEAT: -32.87719
 CYCLE:   390 TIME:   0.223 TIME LEFT:  2.00D  GRAD.:     2.138 HEAT: -32.87721
 CYCLE:   391 TIME:   0.117 TIME LEFT:  2.00D  GRAD.:     0.629 HEAT: -32.87727
 CYCLE:   392 TIME:   0.117 TIME LEFT:  2.00D  GRAD.:     0.495 HEAT: -32.87729
 CYCLE:   393 TIME:   0.113 TIME LEFT:  2.00D  GRAD.:     1.104 HEAT: -32.87731
 CYCLE:   394 TIME:   0.117 TIME LEFT:  2.00D  GRAD.:     1.829 HEAT: -32.87731
 CYCLE:   395 TIME:   0.113 TIME LEFT:  2.00D  GRAD.:     1.634 HEAT: -32.87739
 CYCLE:   396 TIME:   0.164 TIME LEFT:  2.00D  GRAD.:     0.825 HEAT: -32.87743
 CYCLE:   397 TIME:   0.145 TIME LEFT:  2.00D  GRAD.:     1.109 HEAT: -32.87745
 CYCLE:   398 TIME:   0.137 TIME LEFT:  2.00D  GRAD.:     1.008 HEAT: -32.87748
 CYCLE:   399 TIME:   0.125 TIME LEFT:  2.00D  GRAD.:     0.623 HEAT: -32.87751
 CYCLE:   400 TIME:   0.184 TIME LEFT:  2.00D  GRAD.:     0.713 HEAT: -32.87752
 CYCLE:   401 TIME:   0.133 TIME LEFT:  2.00D  GRAD.:     0.846 HEAT: -32.87755
 CYCLE:   402 TIME:   0.180 TIME LEFT:  2.00D  GRAD.:     1.636 HEAT: -32.87757
 CYCLE:   403 TIME:   0.117 TIME LEFT:  2.00D  GRAD.:     1.200 HEAT: -32.87764
 CYCLE:   404 TIME:   0.121 TIME LEFT:  2.00D  GRAD.:     1.408 HEAT: -32.87764
 CYCLE:   405 TIME:   0.168 TIME LEFT:  2.00D  GRAD.:     0.818 HEAT: -32.87772
 CYCLE:   406 TIME:   0.180 TIME LEFT:  2.00D  GRAD.:     0.488 HEAT: -32.87774
 CYCLE:   407 TIME:   0.117 TIME LEFT:  2.00D  GRAD.:     0.631 HEAT: -32.87777
 CYCLE:   408 TIME:   0.133 TIME LEFT:  2.00D  GRAD.:     1.742 HEAT: -32.87772
 CYCLE:   409 TIME:   0.160 TIME LEFT:  2.00D  GRAD.:     1.791 HEAT: -32.87780
 CYCLE:   410 TIME:   0.117 TIME LEFT:  2.00D  GRAD.:     0.400 HEAT: -32.87783
 CYCLE:   411 TIME:   0.125 TIME LEFT:  2.00D  GRAD.:     1.609 HEAT: -32.87781
 CYCLE:   412 TIME:   0.191 TIME LEFT:  2.00D  GRAD.:     0.586 HEAT: -32.87785
 CYCLE:   413 TIME:   0.168 TIME LEFT:  2.00D  GRAD.:     2.209 HEAT: -32.87781
 CYCLE:   414 TIME:   0.117 TIME LEFT:  2.00D  GRAD.:     0.442 HEAT: -32.87787
 CYCLE:   415 TIME:   0.195 TIME LEFT:  2.00D  GRAD.:     0.630 HEAT: -32.87787
 CYCLE:   416 TIME:   0.203 TIME LEFT:  2.00D  GRAD.:     0.357 HEAT: -32.87791
 CYCLE:   417 TIME:   0.223 TIME LEFT:  2.00D  GRAD.:     3.011 HEAT: -32.87777
 CYCLE:   418 TIME:   0.121 TIME LEFT:  2.00D  GRAD.:     1.581 HEAT: -32.87795
 CYCLE:   419 TIME:   0.152 TIME LEFT:  2.00D  GRAD.:     2.269 HEAT: -32.87785
 CYCLE:   420 TIME:   0.113 TIME LEFT:  2.00D  GRAD.:     0.276 HEAT: -32.87796
 CYCLE:   421 TIME:   0.117 TIME LEFT:  2.00D  GRAD.:     1.504 HEAT: -32.87796
 CYCLE:   422 TIME:   0.168 TIME LEFT:  2.00D  GRAD.:     0.923 HEAT: -32.87799
 CYCLE:   423 TIME:   0.160 TIME LEFT:  2.00D  GRAD.:     1.708 HEAT: -32.87792
 CYCLE:   424 TIME:   0.117 TIME LEFT:  2.00D  GRAD.:     0.247 HEAT: -32.87800
 CYCLE:   425 TIME:   0.145 TIME LEFT:  2.00D  GRAD.:     0.691 HEAT: -32.87802
 CYCLE:   426 TIME:   0.219 TIME LEFT:  2.00D  GRAD.:     1.008 HEAT: -32.87804
 CYCLE:   427 TIME:   0.223 TIME LEFT:  2.00D  GRAD.:     0.497 HEAT: -32.87805
 CYCLE:   428 TIME:   0.195 TIME LEFT:  2.00D  GRAD.:     0.758 HEAT: -32.87809
 CYCLE:   429 TIME:   0.129 TIME LEFT:  2.00D  GRAD.:     0.433 HEAT: -32.87816
 CYCLE:   430 TIME:   0.148 TIME LEFT:  2.00D  GRAD.:     0.456 HEAT: -32.87820
 CYCLE:   431 TIME:   0.121 TIME LEFT:  2.00D  GRAD.:     0.748 HEAT: -32.87823
 CYCLE:   432 TIME:   0.203 TIME LEFT:  2.00D  GRAD.:     1.013 HEAT: -32.87825
 CYCLE:   433 TIME:   0.172 TIME LEFT:  2.00D  GRAD.:     1.189 HEAT: -32.87828
 CYCLE:   434 TIME:   0.125 TIME LEFT:  2.00D  GRAD.:     3.974 HEAT: -32.87822
 CYCLE:   435 TIME:   0.109 TIME LEFT:  2.00D  GRAD.:     6.049 HEAT: -32.87811
 CYCLE:   436 TIME:   0.215 TIME LEFT:  2.00D  GRAD.:     9.834 HEAT: -32.87720
 CYCLE:   437 TIME:   0.125 TIME LEFT:  2.00D  GRAD.:     3.818 HEAT: -32.87847
 CYCLE:   438 TIME:   0.172 TIME LEFT:  2.00D  GRAD.:     3.800 HEAT: -32.87852
 CYCLE:   439 TIME:   0.109 TIME LEFT:  2.00D  GRAD.:     8.925 HEAT: -32.87784
 CYCLE:   440 TIME:   0.117 TIME LEFT:  2.00D  GRAD.:     5.564 HEAT: -32.87833
 CYCLE:   441 TIME:   0.117 TIME LEFT:  2.00D  GRAD.:     8.463 HEAT: -32.87798
 CYCLE:   442 TIME:   0.137 TIME LEFT:  2.00D  GRAD.:     6.522 HEAT: -32.87818
 CYCLE:   443 TIME:   0.219 TIME LEFT:  2.00D  GRAD.:    11.997 HEAT: -32.87659
 CYCLE:   444 TIME:   0.117 TIME LEFT:  2.00D  GRAD.:     4.205 HEAT: -32.87859
 CYCLE:   445 TIME:   0.113 TIME LEFT:  2.00D  GRAD.:    16.863 HEAT: -32.87586
 CYCLE:   446 TIME:   0.113 TIME LEFT:  2.00D  GRAD.:     1.548 HEAT: -32.87899
 CYCLE:   447 TIME:   0.191 TIME LEFT:  2.00D  GRAD.:     3.545 HEAT: -32.87884
 CYCLE:   448 TIME:   0.145 TIME LEFT:  2.00D  GRAD.:     1.342 HEAT: -32.87914
 CYCLE:   449 TIME:   0.133 TIME LEFT:  2.00D  GRAD.:     5.878 HEAT: -32.87832
 CYCLE:   450 TIME:   0.168 TIME LEFT:  2.00D  GRAD.:     0.837 HEAT: -32.87916
 CYCLE:   451 TIME:   0.211 TIME LEFT:  2.00D  GRAD.:     4.041 HEAT: -32.87880
 CYCLE:   452 TIME:   0.164 TIME LEFT:  2.00D  GRAD.:     1.551 HEAT: -32.87923
 CYCLE:   453 TIME:   0.141 TIME LEFT:  2.00D  GRAD.:     6.231 HEAT: -32.87798
 CYCLE:   454 TIME:   0.211 TIME LEFT:  2.00D  GRAD.:     0.984 HEAT: -32.87927
 CYCLE:   455 TIME:   0.184 TIME LEFT:  2.00D  GRAD.:     6.047 HEAT: -32.87814
 CYCLE:   456 TIME:   0.148 TIME LEFT:  2.00D  GRAD.:     1.197 HEAT: -32.87939
 CYCLE:   457 TIME:   0.148 TIME LEFT:  2.00D  GRAD.:     3.723 HEAT: -32.87886
 CYCLE:   458 TIME:   0.129 TIME LEFT:  2.00D  GRAD.:     1.178 HEAT: -32.87934
 CYCLE:   459 TIME:   0.258 TIME LEFT:  2.00D  GRAD.:     1.836 HEAT: -32.87942
 CYCLE:   460 TIME:   0.113 TIME LEFT:  2.00D  GRAD.:     8.316 HEAT: -32.87913
 CYCLE:   461 TIME:   0.133 TIME LEFT:  2.00D  GRAD.:     2.966 HEAT: -32.87950
 CYCLE:   462 TIME:   0.121 TIME LEFT:  2.00D  GRAD.:     2.745 HEAT: -32.87925
 CYCLE:   463 TIME:   0.152 TIME LEFT:  2.00D  GRAD.:     1.143 HEAT: -32.87944
 CYCLE:   464 TIME:   0.137 TIME LEFT:  2.00D  GRAD.:     2.542 HEAT: -32.87957
 CYCLE:   465 TIME:   0.113 TIME LEFT:  2.00D  GRAD.:     2.587 HEAT: -32.87964
 CYCLE:   466 TIME:   0.113 TIME LEFT:  2.00D  GRAD.:     1.917 HEAT: -32.87977
 CYCLE:   467 TIME:   0.195 TIME LEFT:  2.00D  GRAD.:     2.211 HEAT: -32.88009
 CYCLE:   468 TIME:   0.121 TIME LEFT:  2.00D  GRAD.:     1.929 HEAT: -32.88065
 CYCLE:   469 TIME:   0.125 TIME LEFT:  2.00D  GRAD.:     1.923 HEAT: -32.88070
 CYCLE:   470 TIME:   0.168 TIME LEFT:  2.00D  GRAD.:     1.055 HEAT: -32.88116
 CYCLE:   471 TIME:   0.262 TIME LEFT:  2.00D  GRAD.:     2.739 HEAT: -32.88126
 CYCLE:   472 TIME:   0.203 TIME LEFT:  2.00D  GRAD.:     1.196 HEAT: -32.88158
 CYCLE:   473 TIME:   0.176 TIME LEFT:  2.00D  GRAD.:     3.022 HEAT: -32.88233
 CYCLE:   474 TIME:   0.164 TIME LEFT:  2.00D  GRAD.:     3.036 HEAT: -32.88270
 CYCLE:   475 TIME:   0.168 TIME LEFT:  2.00D  GRAD.:     5.067 HEAT: -32.88286
 CYCLE:   476 TIME:   0.152 TIME LEFT:  2.00D  GRAD.:     4.307 HEAT: -32.88313
 CYCLE:   477 TIME:   0.129 TIME LEFT:  2.00D  GRAD.:     1.807 HEAT: -32.88328
 CYCLE:   478 TIME:   0.152 TIME LEFT:  2.00D  GRAD.:     1.359 HEAT: -32.88293
 CYCLE:   479 TIME:   0.152 TIME LEFT:  2.00D  GRAD.:     2.767 HEAT: -32.88341
 CYCLE:   480 TIME:   0.121 TIME LEFT:  2.00D  GRAD.:     2.991 HEAT: -32.88343
 CYCLE:   481 TIME:   0.133 TIME LEFT:  2.00D  GRAD.:     2.044 HEAT: -32.88359
 CYCLE:   482 TIME:   0.121 TIME LEFT:  2.00D  GRAD.:     2.622 HEAT: -32.88382
 CYCLE:   483 TIME:   0.172 TIME LEFT:  2.00D  GRAD.:     1.880 HEAT: -32.88405
 CYCLE:   484 TIME:   0.141 TIME LEFT:  2.00D  GRAD.:     1.404 HEAT: -32.88425
 CYCLE:   485 TIME:   0.125 TIME LEFT:  2.00D  GRAD.:     2.035 HEAT: -32.88462
 CYCLE:   486 TIME:   0.113 TIME LEFT:  2.00D  GRAD.:     1.265 HEAT: -32.88490
 CYCLE:   487 TIME:   0.121 TIME LEFT:  2.00D  GRAD.:     0.957 HEAT: -32.88501
 CYCLE:   488 TIME:   0.230 TIME LEFT:  2.00D  GRAD.:     1.958 HEAT: -32.88542
 CYCLE:   489 TIME:   0.117 TIME LEFT:  2.00D  GRAD.:     3.312 HEAT: -32.88529
 CYCLE:   490 TIME:   0.137 TIME LEFT:  2.00D  GRAD.:     2.551 HEAT: -32.88569
 CYCLE:   491 TIME:   0.117 TIME LEFT:  2.00D  GRAD.:     3.657 HEAT: -32.88550
 CYCLE:   492 TIME:   0.113 TIME LEFT:  2.00D  GRAD.:     1.033 HEAT: -32.88580
 CYCLE:   493 TIME:   0.152 TIME LEFT:  2.00D  GRAD.:     3.721 HEAT: -32.88604
 CYCLE:   494 TIME:   0.145 TIME LEFT:  2.00D  GRAD.:     2.133 HEAT: -32.88626
 CYCLE:   495 TIME:   0.125 TIME LEFT:  2.00D  GRAD.:     1.722 HEAT: -32.88648
 CYCLE:   496 TIME:   0.113 TIME LEFT:  2.00D  GRAD.:     1.752 HEAT: -32.88663
 CYCLE:   497 TIME:   0.121 TIME LEFT:  2.00D  GRAD.:     3.873 HEAT: -32.88675
 CYCLE:   498 TIME:   0.137 TIME LEFT:  2.00D  GRAD.:     2.369 HEAT: -32.88714
 CYCLE:   499 TIME:   0.160 TIME LEFT:  2.00D  GRAD.:     1.059 HEAT: -32.88729
 CYCLE:   500 TIME:   0.117 TIME LEFT:  2.00D  GRAD.:     0.625 HEAT: -32.88734
 CYCLE:   501 TIME:   0.121 TIME LEFT:  2.00D  GRAD.:     7.752 HEAT: -32.88662
 CYCLE:   502 TIME:   0.188 TIME LEFT:  2.00D  GRAD.:     0.742 HEAT: -32.88740
 CYCLE:   503 TIME:   0.238 TIME LEFT:  2.00D  GRAD.:     7.353 HEAT: -32.88633
 CYCLE:   504 TIME:   0.211 TIME LEFT:  2.00D  GRAD.:     2.164 HEAT: -32.88740
 CYCLE:   505 TIME:   0.117 TIME LEFT:  2.00D  GRAD.:     6.670 HEAT: -32.88669
 CYCLE:   506 TIME:   0.117 TIME LEFT:  2.00D  GRAD.:     4.668 HEAT: -32.88716
 CYCLE:   507 TIME:   0.113 TIME LEFT:  2.00D  GRAD.:     2.621 HEAT: -32.88752
 CYCLE:   508 TIME:   0.125 TIME LEFT:  2.00D  GRAD.:     5.076 HEAT: -32.88717
 CYCLE:   509 TIME:   0.133 TIME LEFT:  2.00D  GRAD.:     1.630 HEAT: -32.88757
 CYCLE:   510 TIME:   0.172 TIME LEFT:  2.00D  GRAD.:     0.729 HEAT: -32.88765
 CYCLE:   511 TIME:   0.141 TIME LEFT:  2.00D  GRAD.:     6.054 HEAT: -32.88725
 CYCLE:   512 TIME:   0.199 TIME LEFT:  2.00D  GRAD.:     0.886 HEAT: -32.88771
 CYCLE:   513 TIME:   0.113 TIME LEFT:  2.00D  GRAD.:     1.097 HEAT: -32.88773
 CYCLE:   514 TIME:   0.113 TIME LEFT:  2.00D  GRAD.:     0.712 HEAT: -32.88777
 CYCLE:   515 TIME:   0.148 TIME LEFT:  2.00D  GRAD.:     1.684 HEAT: -32.88788
 CYCLE:   516 TIME:   0.121 TIME LEFT:  2.00D  GRAD.:     1.508 HEAT: -32.88798
 CYCLE:   517 TIME:   0.148 TIME LEFT:  2.00D  GRAD.:     2.847 HEAT: -32.88810
 CYCLE:   518 TIME:   0.172 TIME LEFT:  2.00D  GRAD.:     0.708 HEAT: -32.88819
 CYCLE:   519 TIME:   0.211 TIME LEFT:  2.00D  GRAD.:     0.704 HEAT: -32.88822
 CYCLE:   520 TIME:   0.215 TIME LEFT:  2.00D  GRAD.:     0.566 HEAT: -32.88834
 CYCLE:   521 TIME:   0.164 TIME LEFT:  2.00D  GRAD.:     2.743 HEAT: -32.88850
 CYCLE:   522 TIME:   0.121 TIME LEFT:  2.00D  GRAD.:     2.525 HEAT: -32.88853
 CYCLE:   523 TIME:   0.133 TIME LEFT:  2.00D  GRAD.:     0.942 HEAT: -32.88867
 CYCLE:   524 TIME:   0.176 TIME LEFT:  2.00D  GRAD.:     0.723 HEAT: -32.88874
 CYCLE:   525 TIME:   0.223 TIME LEFT:  2.00D  GRAD.:     0.998 HEAT: -32.88890
 CYCLE:   526 TIME:   0.121 TIME LEFT:  2.00D  GRAD.:     0.915 HEAT: -32.88903
 CYCLE:   527 TIME:   0.160 TIME LEFT:  2.00D  GRAD.:     1.428 HEAT: -32.88931
 CYCLE:   528 TIME:   0.164 TIME LEFT:  2.00D  GRAD.:     1.119 HEAT: -32.88946
 CYCLE:   529 TIME:   0.148 TIME LEFT:  2.00D  GRAD.:     0.760 HEAT: -32.88953
 CYCLE:   530 TIME:   0.113 TIME LEFT:  2.00D  GRAD.:     1.083 HEAT: -32.88962
 CYCLE:   531 TIME:   0.156 TIME LEFT:  2.00D  GRAD.:     2.901 HEAT: -32.88962
 CYCLE:   532 TIME:   0.309 TIME LEFT:  2.00D  GRAD.:     1.020 HEAT: -32.88971
 CYCLE:   533 TIME:   0.176 TIME LEFT:  2.00D  GRAD.:     0.567 HEAT: -32.88975
 CYCLE:   534 TIME:   0.215 TIME LEFT:  2.00D  GRAD.:     0.712 HEAT: -32.88982
 CYCLE:   535 TIME:   0.156 TIME LEFT:  2.00D  GRAD.:     1.938 HEAT: -32.88990
 CYCLE:   536 TIME:   0.148 TIME LEFT:  2.00D  GRAD.:     1.761 HEAT: -32.88998
 CYCLE:   537 TIME:   0.227 TIME LEFT:  2.00D  GRAD.:     0.693 HEAT: -32.89004
 CYCLE:   538 TIME:   0.129 TIME LEFT:  2.00D  GRAD.:     0.744 HEAT: -32.89009
 CYCLE:   539 TIME:   0.113 TIME LEFT:  2.00D  GRAD.:     1.942 HEAT: -32.89021
 CYCLE:   540 TIME:   0.129 TIME LEFT:  2.00D  GRAD.:     1.453 HEAT: -32.89029
 CYCLE:   541 TIME:   0.207 TIME LEFT:  2.00D  GRAD.:     1.274 HEAT: -32.89047
 CYCLE:   542 TIME:   0.113 TIME LEFT:  2.00D  GRAD.:     1.350 HEAT: -32.89054
 CYCLE:   543 TIME:   0.113 TIME LEFT:  2.00D  GRAD.:     3.341 HEAT: -32.89060
 CYCLE:   544 TIME:   0.109 TIME LEFT:  2.00D  GRAD.:     1.195 HEAT: -32.89076
 CYCLE:   545 TIME:   0.168 TIME LEFT:  2.00D  GRAD.:     1.071 HEAT: -32.89086
 CYCLE:   546 TIME:   0.113 TIME LEFT:  2.00D  GRAD.:     1.495 HEAT: -32.89092
 CYCLE:   547 TIME:   0.137 TIME LEFT:  2.00D  GRAD.:     1.700 HEAT: -32.89103
 CYCLE:   548 TIME:   0.125 TIME LEFT:  2.00D  GRAD.:     7.366 HEAT: -32.89067
 CYCLE:   549 TIME:   0.109 TIME LEFT:  2.00D  GRAD.:     1.799 HEAT: -32.89108
 CYCLE:   550 TIME:   0.113 TIME LEFT:  2.00D  GRAD.:     0.976 HEAT: -32.89120
 CYCLE:   551 TIME:   0.152 TIME LEFT:  2.00D  GRAD.:     1.128 HEAT: -32.89125
 CYCLE:   552 TIME:   0.133 TIME LEFT:  2.00D  GRAD.:     0.880 HEAT: -32.89134
 CYCLE:   553 TIME:   0.207 TIME LEFT:  2.00D  GRAD.:     1.594 HEAT: -32.89147
 CYCLE:   554 TIME:   0.148 TIME LEFT:  2.00D  GRAD.:     1.130 HEAT: -32.89154
 CYCLE:   555 TIME:   0.152 TIME LEFT:  2.00D  GRAD.:     1.074 HEAT: -32.89164
 CYCLE:   556 TIME:   0.113 TIME LEFT:  2.00D  GRAD.:     1.203 HEAT: -32.89186
 CYCLE:   557 TIME:   0.148 TIME LEFT:  2.00D  GRAD.:     0.883 HEAT: -32.89196
 CYCLE:   558 TIME:   0.109 TIME LEFT:  2.00D  GRAD.:     1.089 HEAT: -32.89213
 CYCLE:   559 TIME:   0.203 TIME LEFT:  2.00D  GRAD.:     1.611 HEAT: -32.89233
 CYCLE:   560 TIME:   0.137 TIME LEFT:  2.00D  GRAD.:     1.429 HEAT: -32.89252
 CYCLE:   561 TIME:   0.184 TIME LEFT:  2.00D  GRAD.:     1.383 HEAT: -32.89271
 CYCLE:   562 TIME:   0.129 TIME LEFT:  2.00D  GRAD.:     2.184 HEAT: -32.89307
 CYCLE:   563 TIME:   0.211 TIME LEFT:  2.00D  GRAD.:     0.931 HEAT: -32.89340
 CYCLE:   564 TIME:   0.141 TIME LEFT:  2.00D  GRAD.:     1.810 HEAT: -32.89349
 CYCLE:   565 TIME:   0.141 TIME LEFT:  2.00D  GRAD.:     0.846 HEAT: -32.89357
 CYCLE:   566 TIME:   0.117 TIME LEFT:  2.00D  GRAD.:     0.843 HEAT: -32.89364
 CYCLE:   567 TIME:   0.176 TIME LEFT:  2.00D  GRAD.:     1.317 HEAT: -32.89377
 CYCLE:   568 TIME:   0.160 TIME LEFT:  2.00D  GRAD.:     6.461 HEAT: -32.89341
 CYCLE:   569 TIME:   0.121 TIME LEFT:  2.00D  GRAD.:     1.566 HEAT: -32.89399
 CYCLE:   570 TIME:   0.117 TIME LEFT:  2.00D  GRAD.:     0.979 HEAT: -32.89402
 CYCLE:   571 TIME:   0.191 TIME LEFT:  2.00D  GRAD.:     0.563 HEAT: -32.89413
 CYCLE:   572 TIME:   0.121 TIME LEFT:  2.00D  GRAD.:     0.725 HEAT: -32.89425
 CYCLE:   573 TIME:   0.137 TIME LEFT:  2.00D  GRAD.:     5.496 HEAT: -32.89411
 CYCLE:   574 TIME:   0.195 TIME LEFT:  2.00D  GRAD.:     1.196 HEAT: -32.89441
 CYCLE:   575 TIME:   0.246 TIME LEFT:  2.00D  GRAD.:     0.678 HEAT: -32.89446
 CYCLE:   576 TIME:   0.168 TIME LEFT:  2.00D  GRAD.:     0.690 HEAT: -32.89456
 CYCLE:   577 TIME:   0.172 TIME LEFT:  2.00D  GRAD.:     0.873 HEAT: -32.89468
 CYCLE:   578 TIME:   0.207 TIME LEFT:  2.00D  GRAD.:     1.990 HEAT: -32.89467
 CYCLE:   579 TIME:   0.172 TIME LEFT:  2.00D  GRAD.:     0.742 HEAT: -32.89477
 CYCLE:   580 TIME:   0.199 TIME LEFT:  2.00D  GRAD.:     0.547 HEAT: -32.89486
 CYCLE:   581 TIME:   0.203 TIME LEFT:  2.00D  GRAD.:     0.940 HEAT: -32.89500
 CYCLE:   582 TIME:   0.219 TIME LEFT:  2.00D  GRAD.:     2.605 HEAT: -32.89505
 CYCLE:   583 TIME:   0.223 TIME LEFT:  2.00D  GRAD.:     0.966 HEAT: -32.89515
 CYCLE:   584 TIME:   0.215 TIME LEFT:  2.00D  GRAD.:     0.832 HEAT: -32.89518
 CYCLE:   585 TIME:   0.215 TIME LEFT:  2.00D  GRAD.:     0.573 HEAT: -32.89522
 CYCLE:   586 TIME:   0.207 TIME LEFT:  2.00D  GRAD.:     0.808 HEAT: -32.89528
 CYCLE:   587 TIME:   0.125 TIME LEFT:  2.00D  GRAD.:     0.738 HEAT: -32.89533
 CYCLE:   588 TIME:   0.121 TIME LEFT:  2.00D  GRAD.:     1.070 HEAT: -32.89538
 CYCLE:   589 TIME:   0.129 TIME LEFT:  2.00D  GRAD.:     0.949 HEAT: -32.89544
 CYCLE:   590 TIME:   0.125 TIME LEFT:  2.00D  GRAD.:     1.105 HEAT: -32.89549
 CYCLE:   591 TIME:   0.113 TIME LEFT:  2.00D  GRAD.:     1.561 HEAT: -32.89561
 CYCLE:   592 TIME:   0.133 TIME LEFT:  2.00D  GRAD.:     0.964 HEAT: -32.89570
 CYCLE:   593 TIME:   0.195 TIME LEFT:  2.00D  GRAD.:     0.552 HEAT: -32.89575
 CYCLE:   594 TIME:   0.145 TIME LEFT:  2.00D  GRAD.:     0.865 HEAT: -32.89582
 CYCLE:   595 TIME:   0.223 TIME LEFT:  2.00D  GRAD.:     0.769 HEAT: -32.89588
 CYCLE:   596 TIME:   0.145 TIME LEFT:  2.00D  GRAD.:     1.363 HEAT: -32.89595
 CYCLE:   597 TIME:   0.180 TIME LEFT:  2.00D  GRAD.:     1.353 HEAT: -32.89601
 CYCLE:   598 TIME:   0.156 TIME LEFT:  2.00D  GRAD.:     3.882 HEAT: -32.89598
 CYCLE:   599 TIME:   0.109 TIME LEFT:  2.00D  GRAD.:     1.539 HEAT: -32.89610
 CYCLE:   600 TIME:   0.164 TIME LEFT:  2.00D  GRAD.:     0.999 HEAT: -32.89620
 CYCLE:   601 TIME:   0.121 TIME LEFT:  2.00D  GRAD.:     0.610 HEAT: -32.89628
 CYCLE:   602 TIME:   0.230 TIME LEFT:  2.00D  GRAD.:     1.420 HEAT: -32.89642
 CYCLE:   603 TIME:   0.203 TIME LEFT:  2.00D  GRAD.:     1.975 HEAT: -32.89641
 CYCLE:   604 TIME:   0.121 TIME LEFT:  2.00D  GRAD.:     2.307 HEAT: -32.89651
 CYCLE:   605 TIME:   0.113 TIME LEFT:  2.00D  GRAD.:     0.933 HEAT: -32.89664
 CYCLE:   606 TIME:   0.156 TIME LEFT:  2.00D  GRAD.:     0.592 HEAT: -32.89669
 CYCLE:   607 TIME:   0.117 TIME LEFT:  2.00D  GRAD.:     1.002 HEAT: -32.89678
 CYCLE:   608 TIME:   0.113 TIME LEFT:  2.00D  GRAD.:     1.046 HEAT: -32.89686
 CYCLE:   609 TIME:   0.160 TIME LEFT:  2.00D  GRAD.:     1.299 HEAT: -32.89693
 CYCLE:   610 TIME:   0.109 TIME LEFT:  2.00D  GRAD.:     0.627 HEAT: -32.89699
 CYCLE:   611 TIME:   0.121 TIME LEFT:  2.00D  GRAD.:     0.802 HEAT: -32.89705
 CYCLE:   612 TIME:   0.164 TIME LEFT:  2.00D  GRAD.:     0.958 HEAT: -32.89710
 CYCLE:   613 TIME:   0.176 TIME LEFT:  2.00D  GRAD.:     9.158 HEAT: -32.89668
 CYCLE:   614 TIME:   0.109 TIME LEFT:  2.00D  GRAD.:     1.616 HEAT: -32.89721
 CYCLE:   615 TIME:   0.215 TIME LEFT:  2.00D  GRAD.:     0.907 HEAT: -32.89723
 CYCLE:   616 TIME:   0.184 TIME LEFT:  2.00D  GRAD.:     0.977 HEAT: -32.89726
 CYCLE:   617 TIME:   0.242 TIME LEFT:  2.00D  GRAD.:     1.000 HEAT: -32.89732
 CYCLE:   618 TIME:   0.145 TIME LEFT:  2.00D  GRAD.:     3.053 HEAT: -32.89727
 CYCLE:   619 TIME:   0.203 TIME LEFT:  2.00D  GRAD.:     2.948 HEAT: -32.89728
 CYCLE:   620 TIME:   0.125 TIME LEFT:  2.00D  GRAD.:     0.679 HEAT: -32.89745
 CYCLE:   621 TIME:   0.168 TIME LEFT:  2.00D  GRAD.:     0.700 HEAT: -32.89748
 CYCLE:   622 TIME:   0.141 TIME LEFT:  2.00D  GRAD.:     1.006 HEAT: -32.89764
 CYCLE:   623 TIME:   0.160 TIME LEFT:  2.00D  GRAD.:     1.603 HEAT: -32.89779
 CYCLE:   624 TIME:   0.117 TIME LEFT:  2.00D  GRAD.:     1.206 HEAT: -32.89787
 CYCLE:   625 TIME:   0.211 TIME LEFT:  2.00D  GRAD.:     0.609 HEAT: -32.89791
 CYCLE:   626 TIME:   0.152 TIME LEFT:  2.00D  GRAD.:     1.058 HEAT: -32.89796
 CYCLE:   627 TIME:   0.164 TIME LEFT:  2.00D  GRAD.:     0.966 HEAT: -32.89802
 CYCLE:   628 TIME:   0.227 TIME LEFT:  2.00D  GRAD.:     1.081 HEAT: -32.89813
 CYCLE:   629 TIME:   0.137 TIME LEFT:  2.00D  GRAD.:    18.423 HEAT: -32.89558
 CYCLE:   630 TIME:   0.164 TIME LEFT:  2.00D  GRAD.:     0.934 HEAT: -32.89822
 CYCLE:   631 TIME:   0.125 TIME LEFT:  2.00D  GRAD.:     0.777 HEAT: -32.89824
 CYCLE:   632 TIME:   0.121 TIME LEFT:  2.00D  GRAD.:     0.914 HEAT: -32.89832
 CYCLE:   633 TIME:   0.180 TIME LEFT:  2.00D  GRAD.:     0.592 HEAT: -32.89836
 CYCLE:   634 TIME:   0.172 TIME LEFT:  2.00D  GRAD.:     1.930 HEAT: -32.89842
 CYCLE:   635 TIME:   0.227 TIME LEFT:  2.00D  GRAD.:     1.252 HEAT: -32.89851
 CYCLE:   636 TIME:   0.156 TIME LEFT:  2.00D  GRAD.:     0.729 HEAT: -32.89862
 CYCLE:   637 TIME:   0.195 TIME LEFT:  2.00D  GRAD.:     0.754 HEAT: -32.89868
 CYCLE:   638 TIME:   0.113 TIME LEFT:  2.00D  GRAD.:     1.233 HEAT: -32.89891
 CYCLE:   639 TIME:   0.117 TIME LEFT:  2.00D  GRAD.:     1.016 HEAT: -32.89904
 CYCLE:   640 TIME:   0.160 TIME LEFT:  2.00D  GRAD.:     0.604 HEAT: -32.89916
 CYCLE:   641 TIME:   0.121 TIME LEFT:  2.00D  GRAD.:     0.630 HEAT: -32.89923
 CYCLE:   642 TIME:   0.137 TIME LEFT:  2.00D  GRAD.:     0.658 HEAT: -32.89931
 CYCLE:   643 TIME:   0.117 TIME LEFT:  2.00D  GRAD.:     1.834 HEAT: -32.89934
 CYCLE:   644 TIME:   0.109 TIME LEFT:  2.00D  GRAD.:     0.741 HEAT: -32.89939
 CYCLE:   645 TIME:   0.152 TIME LEFT:  2.00D  GRAD.:     0.485 HEAT: -32.89942
 CYCLE:   646 TIME:   0.109 TIME LEFT:  2.00D  GRAD.:     0.674 HEAT: -32.89946
 CYCLE:   647 TIME:   0.156 TIME LEFT:  2.00D  GRAD.:     2.272 HEAT: -32.89950
 CYCLE:   648 TIME:   0.211 TIME LEFT:  2.00D  GRAD.:     1.021 HEAT: -32.89958
 CYCLE:   649 TIME:   0.168 TIME LEFT:  2.00D  GRAD.:     0.654 HEAT: -32.89964
 CYCLE:   650 TIME:   0.121 TIME LEFT:  2.00D  GRAD.:     1.047 HEAT: -32.89969
 CYCLE:   651 TIME:   0.121 TIME LEFT:  2.00D  GRAD.:     0.800 HEAT: -32.89976
 CYCLE:   652 TIME:   0.117 TIME LEFT:  2.00D  GRAD.:     0.680 HEAT: -32.89986
 CYCLE:   653 TIME:   0.121 TIME LEFT:  2.00D  GRAD.:     0.575 HEAT: -32.89994
 CYCLE:   654 TIME:   0.184 TIME LEFT:  2.00D  GRAD.:     1.108 HEAT: -32.90003
 CYCLE:   655 TIME:   0.133 TIME LEFT:  2.00D  GRAD.:     0.878 HEAT: -32.90010
 CYCLE:   656 TIME:   0.113 TIME LEFT:  2.00D  GRAD.:     0.561 HEAT: -32.90015
 CYCLE:   657 TIME:   0.113 TIME LEFT:  2.00D  GRAD.:     2.216 HEAT: -32.90021
 CYCLE:   658 TIME:   0.160 TIME LEFT:  2.00D  GRAD.:     0.865 HEAT: -32.90026
 CYCLE:   659 TIME:   0.133 TIME LEFT:  2.00D  GRAD.:     0.442 HEAT: -32.90029
 CYCLE:   660 TIME:   0.125 TIME LEFT:  2.00D  GRAD.:     0.655 HEAT: -32.90032
 CYCLE:   661 TIME:   0.109 TIME LEFT:  2.00D  GRAD.:     0.750 HEAT: -32.90035
 CYCLE:   662 TIME:   0.152 TIME LEFT:  2.00D  GRAD.:     3.354 HEAT: -32.90025
 CYCLE:   663 TIME:   0.109 TIME LEFT:  2.00D  GRAD.:     0.864 HEAT: -32.90041
 CYCLE:   664 TIME:   0.223 TIME LEFT:  2.00D  GRAD.:     0.451 HEAT: -32.90043
 CYCLE:   665 TIME:   0.215 TIME LEFT:  2.00D  GRAD.:     0.623 HEAT: -32.90048
 CYCLE:   666 TIME:   0.195 TIME LEFT:  2.00D  GRAD.:     1.012 HEAT: -32.90056
 CYCLE:   667 TIME:   0.191 TIME LEFT:  2.00D  GRAD.:     1.065 HEAT: -32.90066
 CYCLE:   668 TIME:   0.117 TIME LEFT:  2.00D  GRAD.:     0.815 HEAT: -32.90073
 CYCLE:   669 TIME:   0.160 TIME LEFT:  2.00D  GRAD.:     0.660 HEAT: -32.90081
 CYCLE:   670 TIME:   0.141 TIME LEFT:  2.00D  GRAD.:     0.831 HEAT: -32.90089
 CYCLE:   671 TIME:   0.145 TIME LEFT:  2.00D  GRAD.:     1.358 HEAT: -32.90100
 CYCLE:   672 TIME:   0.125 TIME LEFT:  2.00D  GRAD.:     1.399 HEAT: -32.90114
 CYCLE:   673 TIME:   0.125 TIME LEFT:  2.00D  GRAD.:     2.211 HEAT: -32.90126
 CYCLE:   674 TIME:   0.117 TIME LEFT:  2.00D  GRAD.:     1.234 HEAT: -32.90133
 CYCLE:   675 TIME:   0.148 TIME LEFT:  2.00D  GRAD.:     0.741 HEAT: -32.90139
 CYCLE:   676 TIME:   0.145 TIME LEFT:  2.00D  GRAD.:     0.807 HEAT: -32.90144
 CYCLE:   677 TIME:   0.164 TIME LEFT:  2.00D  GRAD.:     1.382 HEAT: -32.90155
 CYCLE:   678 TIME:   0.141 TIME LEFT:  2.00D  GRAD.:     0.947 HEAT: -32.90169
 CYCLE:   679 TIME:   0.121 TIME LEFT:  2.00D  GRAD.:     1.802 HEAT: -32.90180
 CYCLE:   680 TIME:   0.117 TIME LEFT:  2.00D  GRAD.:     0.913 HEAT: -32.90198
 CYCLE:   681 TIME:   0.164 TIME LEFT:  2.00D  GRAD.:     1.266 HEAT: -32.90211
 CYCLE:   682 TIME:   0.191 TIME LEFT:  2.00D  GRAD.:     1.409 HEAT: -32.90229
 CYCLE:   683 TIME:   0.141 TIME LEFT:  2.00D  GRAD.:     1.941 HEAT: -32.90251
 CYCLE:   684 TIME:   0.238 TIME LEFT:  2.00D  GRAD.:     2.132 HEAT: -32.90261
 CYCLE:   685 TIME:   0.133 TIME LEFT:  2.00D  GRAD.:     0.731 HEAT: -32.90270
 CYCLE:   686 TIME:   0.145 TIME LEFT:  2.00D  GRAD.:     0.770 HEAT: -32.90274
 CYCLE:   687 TIME:   0.121 TIME LEFT:  2.00D  GRAD.:     1.879 HEAT: -32.90285
 CYCLE:   688 TIME:   0.141 TIME LEFT:  2.00D  GRAD.:     1.113 HEAT: -32.90298
 CYCLE:   689 TIME:   0.141 TIME LEFT:  2.00D  GRAD.:     2.057 HEAT: -32.90303
 CYCLE:   690 TIME:   0.121 TIME LEFT:  2.00D  GRAD.:     0.745 HEAT: -32.90310
 CYCLE:   691 TIME:   0.113 TIME LEFT:  2.00D  GRAD.:     0.978 HEAT: -32.90314
 CYCLE:   692 TIME:   0.113 TIME LEFT:  2.00D  GRAD.:     1.043 HEAT: -32.90319
 CYCLE:   693 TIME:   0.145 TIME LEFT:  2.00D  GRAD.:     0.789 HEAT: -32.90335
 CYCLE:   694 TIME:   0.152 TIME LEFT:  2.00D  GRAD.:     1.366 HEAT: -32.90349
 CYCLE:   695 TIME:   0.133 TIME LEFT:  2.00D  GRAD.:     1.725 HEAT: -32.90362
 CYCLE:   696 TIME:   0.117 TIME LEFT:  2.00D  GRAD.:     1.007 HEAT: -32.90369
 CYCLE:   697 TIME:   0.156 TIME LEFT:  2.00D  GRAD.:     0.783 HEAT: -32.90376
 CYCLE:   698 TIME:   0.117 TIME LEFT:  2.00D  GRAD.:     0.817 HEAT: -32.90382
 CYCLE:   699 TIME:   0.109 TIME LEFT:  2.00D  GRAD.:     1.425 HEAT: -32.90397
 CYCLE:   700 TIME:   0.227 TIME LEFT:  2.00D  GRAD.:     1.572 HEAT: -32.90420
 CYCLE:   701 TIME:   0.164 TIME LEFT:  2.00D  GRAD.:     5.391 HEAT: -32.90410
 CYCLE:   702 TIME:   0.121 TIME LEFT:  2.00D  GRAD.:     1.399 HEAT: -32.90428
 CYCLE:   703 TIME:   0.113 TIME LEFT:  2.00D  GRAD.:     0.860 HEAT: -32.90440
 CYCLE:   704 TIME:   0.145 TIME LEFT:  2.00D  GRAD.:     0.840 HEAT: -32.90447
 CYCLE:   705 TIME:   0.184 TIME LEFT:  2.00D  GRAD.:     1.760 HEAT: -32.90457
 CYCLE:   706 TIME:   0.227 TIME LEFT:  2.00D  GRAD.:     1.079 HEAT: -32.90469
 CYCLE:   707 TIME:   0.137 TIME LEFT:  2.00D  GRAD.:     1.219 HEAT: -32.90477
 CYCLE:   708 TIME:   0.117 TIME LEFT:  2.00D  GRAD.:     0.933 HEAT: -32.90492
 CYCLE:   709 TIME:   0.113 TIME LEFT:  2.00D  GRAD.:     1.342 HEAT: -32.90500
 CYCLE:   710 TIME:   0.215 TIME LEFT:  2.00D  GRAD.:     0.885 HEAT: -32.90508
 CYCLE:   711 TIME:   0.227 TIME LEFT:  2.00D  GRAD.:     1.533 HEAT: -32.90516
 CYCLE:   712 TIME:   0.164 TIME LEFT:  2.00D  GRAD.:     0.981 HEAT: -32.90524
 CYCLE:   713 TIME:   0.168 TIME LEFT:  2.00D  GRAD.:     0.725 HEAT: -32.90534
 CYCLE:   714 TIME:   0.145 TIME LEFT:  2.00D  GRAD.:     1.012 HEAT: -32.90550
 CYCLE:   715 TIME:   0.117 TIME LEFT:  2.00D  GRAD.:     1.096 HEAT: -32.90568
 CYCLE:   716 TIME:   0.211 TIME LEFT:  2.00D  GRAD.:     5.902 HEAT: -32.90538
 CYCLE:   717 TIME:   0.145 TIME LEFT:  2.00D  GRAD.:     1.256 HEAT: -32.90584
 CYCLE:   718 TIME:   0.215 TIME LEFT:  2.00D  GRAD.:     0.845 HEAT: -32.90590
 CYCLE:   719 TIME:   0.129 TIME LEFT:  2.00D  GRAD.:     2.747 HEAT: -32.90608
 CYCLE:   720 TIME:   0.207 TIME LEFT:  2.00D  GRAD.:     1.688 HEAT: -32.90620
 CYCLE:   721 TIME:   0.160 TIME LEFT:  2.00D  GRAD.:     0.900 HEAT: -32.90634
 CYCLE:   722 TIME:   0.156 TIME LEFT:  2.00D  GRAD.:     1.045 HEAT: -32.90641
 CYCLE:   723 TIME:   0.121 TIME LEFT:  2.00D  GRAD.:     1.628 HEAT: -32.90654
 CYCLE:   724 TIME:   0.129 TIME LEFT:  2.00D  GRAD.:     6.211 HEAT: -32.90651
 CYCLE:   725 TIME:   0.152 TIME LEFT:  2.00D  GRAD.:     1.507 HEAT: -32.90679
 CYCLE:   726 TIME:   0.207 TIME LEFT:  2.00D  GRAD.:     0.907 HEAT: -32.90687
 CYCLE:   727 TIME:   0.121 TIME LEFT:  2.00D  GRAD.:     1.358 HEAT: -32.90693
 CYCLE:   728 TIME:   0.145 TIME LEFT:  2.00D  GRAD.:     1.323 HEAT: -32.90702
 CYCLE:   729 TIME:   0.145 TIME LEFT:  2.00D  GRAD.:     1.276 HEAT: -32.90722
 CYCLE:   730 TIME:   0.121 TIME LEFT:  2.00D  GRAD.:     3.914 HEAT: -32.90714
 CYCLE:   731 TIME:   0.113 TIME LEFT:  2.00D  GRAD.:     1.206 HEAT: -32.90759
 CYCLE:   732 TIME:   0.113 TIME LEFT:  2.00D  GRAD.:     0.744 HEAT: -32.90770
 CYCLE:   733 TIME:   0.191 TIME LEFT:  2.00D  GRAD.:     0.975 HEAT: -32.90780
 CYCLE:   734 TIME:   0.238 TIME LEFT:  2.00D  GRAD.:     1.132 HEAT: -32.90798
 CYCLE:   735 TIME:   0.105 TIME LEFT:  2.00D  GRAD.:     3.250 HEAT: -32.90798
 CYCLE:   736 TIME:   0.121 TIME LEFT:  2.00D  GRAD.:     1.002 HEAT: -32.90825
 CYCLE:   737 TIME:   0.133 TIME LEFT:  2.00D  GRAD.:     0.831 HEAT: -32.90833
 CYCLE:   738 TIME:   0.160 TIME LEFT:  2.00D  GRAD.:     1.807 HEAT: -32.90844
 CYCLE:   739 TIME:   0.195 TIME LEFT:  2.00D  GRAD.:     3.599 HEAT: -32.90847
 CYCLE:   740 TIME:   0.137 TIME LEFT:  2.00D  GRAD.:     1.231 HEAT: -32.90858
 CYCLE:   741 TIME:   0.145 TIME LEFT:  2.00D  GRAD.:     1.143 HEAT: -32.90867
 CYCLE:   742 TIME:   0.238 TIME LEFT:  2.00D  GRAD.:     1.021 HEAT: -32.90873
 CYCLE:   743 TIME:   0.148 TIME LEFT:  2.00D  GRAD.:     0.712 HEAT: -32.90888
 CYCLE:   744 TIME:   0.250 TIME LEFT:  2.00D  GRAD.:     0.768 HEAT: -32.90908
 CYCLE:   745 TIME:   0.164 TIME LEFT:  2.00D  GRAD.:     1.394 HEAT: -32.90932
 CYCLE:   746 TIME:   0.250 TIME LEFT:  2.00D  GRAD.:     2.835 HEAT: -32.90934
 CYCLE:   747 TIME:   0.207 TIME LEFT:  2.00D  GRAD.:     0.961 HEAT: -32.90957
 CYCLE:   748 TIME:   0.203 TIME LEFT:  2.00D  GRAD.:     0.715 HEAT: -32.90964
 CYCLE:   749 TIME:   0.176 TIME LEFT:  2.00D  GRAD.:     0.878 HEAT: -32.90975
 CYCLE:   750 TIME:   0.195 TIME LEFT:  2.00D  GRAD.:     0.739 HEAT: -32.90991
 CYCLE:   751 TIME:   0.113 TIME LEFT:  2.00D  GRAD.:     0.842 HEAT: -32.91019
 CYCLE:   752 TIME:   0.121 TIME LEFT:  2.00D  GRAD.:     8.513 HEAT: -32.90887
 CYCLE:   753 TIME:   0.180 TIME LEFT:  2.00D  GRAD.:     2.335 HEAT: -32.91039
 CYCLE:   754 TIME:   0.125 TIME LEFT:  2.00D  GRAD.:     2.007 HEAT: -32.91044
 CYCLE:   755 TIME:   0.168 TIME LEFT:  2.00D  GRAD.:     0.862 HEAT: -32.91050
 CYCLE:   756 TIME:   0.203 TIME LEFT:  2.00D  GRAD.:     1.881 HEAT: -32.91058
 CYCLE:   757 TIME:   0.160 TIME LEFT:  2.00D  GRAD.:     1.288 HEAT: -32.91065
 CYCLE:   758 TIME:   0.203 TIME LEFT:  2.00D  GRAD.:     0.711 HEAT: -32.91076
 CYCLE:   759 TIME:   0.129 TIME LEFT:  2.00D  GRAD.:     1.140 HEAT: -32.91089
 CYCLE:   760 TIME:   0.160 TIME LEFT:  2.00D  GRAD.:     1.540 HEAT: -32.91102
 CYCLE:   761 TIME:   0.117 TIME LEFT:  2.00D  GRAD.:     1.837 HEAT: -32.91131
 CYCLE:   762 TIME:   0.152 TIME LEFT:  2.00D  GRAD.:     2.886 HEAT: -32.91148
 CYCLE:   763 TIME:   0.109 TIME LEFT:  2.00D  GRAD.:     0.956 HEAT: -32.91176
 CYCLE:   764 TIME:   0.109 TIME LEFT:  2.00D  GRAD.:     0.572 HEAT: -32.91183
 CYCLE:   765 TIME:   0.180 TIME LEFT:  2.00D  GRAD.:     0.711 HEAT: -32.91192
 CYCLE:   766 TIME:   0.305 TIME LEFT:  2.00D  GRAD.:     1.424 HEAT: -32.91200
 CYCLE:   767 TIME:   0.137 TIME LEFT:  2.00D  GRAD.:     1.037 HEAT: -32.91212
 CYCLE:   768 TIME:   0.215 TIME LEFT:  2.00D  GRAD.:     2.980 HEAT: -32.91220
 CYCLE:   769 TIME:   0.223 TIME LEFT:  2.00D  GRAD.:     1.145 HEAT: -32.91227
 CYCLE:   770 TIME:   0.230 TIME LEFT:  2.00D  GRAD.:     0.532 HEAT: -32.91228
 CYCLE:   771 TIME:   0.145 TIME LEFT:  2.00D  GRAD.:     0.635 HEAT: -32.91231
 CYCLE:   772 TIME:   0.203 TIME LEFT:  2.00D  GRAD.:     0.715 HEAT: -32.91236
 CYCLE:   773 TIME:   0.113 TIME LEFT:  2.00D  GRAD.:     0.745 HEAT: -32.91243
 CYCLE:   774 TIME:   0.117 TIME LEFT:  2.00D  GRAD.:     0.785 HEAT: -32.91252
 CYCLE:   775 TIME:   0.141 TIME LEFT:  2.00D  GRAD.:     1.211 HEAT: -32.91261
 CYCLE:   776 TIME:   0.109 TIME LEFT:  2.00D  GRAD.:     1.120 HEAT: -32.91270
 CYCLE:   777 TIME:   0.113 TIME LEFT:  2.00D  GRAD.:     0.525 HEAT: -32.91276
 CYCLE:   778 TIME:   0.137 TIME LEFT:  2.00D  GRAD.:     0.620 HEAT: -32.91280
 CYCLE:   779 TIME:   0.113 TIME LEFT:  2.00D  GRAD.:     0.864 HEAT: -32.91286
 CYCLE:   780 TIME:   0.211 TIME LEFT:  2.00D  GRAD.:     4.994 HEAT: -32.91262
 CYCLE:   781 TIME:   0.137 TIME LEFT:  2.00D  GRAD.:     1.696 HEAT: -32.91310
 CYCLE:   782 TIME:   0.168 TIME LEFT:  2.00D  GRAD.:     1.127 HEAT: -32.91316
 CYCLE:   783 TIME:   0.219 TIME LEFT:  2.00D  GRAD.:     0.688 HEAT: -32.91321
 CYCLE:   784 TIME:   0.133 TIME LEFT:  2.00D  GRAD.:     0.625 HEAT: -32.91325
 CYCLE:   785 TIME:   0.160 TIME LEFT:  2.00D  GRAD.:     1.482 HEAT: -32.91337
 CYCLE:   786 TIME:   0.121 TIME LEFT:  2.00D  GRAD.:     2.217 HEAT: -32.91339
 CYCLE:   787 TIME:   0.113 TIME LEFT:  2.00D  GRAD.:     0.702 HEAT: -32.91350
 CYCLE:   788 TIME:   0.117 TIME LEFT:  2.00D  GRAD.:     0.590 HEAT: -32.91352
 CYCLE:   789 TIME:   0.223 TIME LEFT:  2.00D  GRAD.:     0.540 HEAT: -32.91362
 CYCLE:   790 TIME:   0.246 TIME LEFT:  2.00D  GRAD.:     0.638 HEAT: -32.91372
 CYCLE:   791 TIME:   0.238 TIME LEFT:  2.00D  GRAD.:     2.582 HEAT: -32.91377
 CYCLE:   792 TIME:   0.109 TIME LEFT:  2.00D  GRAD.:     0.548 HEAT: -32.91393
 CYCLE:   793 TIME:   0.188 TIME LEFT:  2.00D  GRAD.:     0.454 HEAT: -32.91396
 CYCLE:   794 TIME:   0.133 TIME LEFT:  2.00D  GRAD.:     0.886 HEAT: -32.91402
 CYCLE:   795 TIME:   0.129 TIME LEFT:  2.00D  GRAD.:     1.049 HEAT: -32.91409
 CYCLE:   796 TIME:   0.121 TIME LEFT:  2.00D  GRAD.:     0.611 HEAT: -32.91414
 CYCLE:   797 TIME:   0.137 TIME LEFT:  2.00D  GRAD.:     0.614 HEAT: -32.91417
 CYCLE:   798 TIME:   0.168 TIME LEFT:  2.00D  GRAD.:     1.822 HEAT: -32.91414
 CYCLE:   799 TIME:   0.113 TIME LEFT:  2.00D  GRAD.:     0.592 HEAT: -32.91427
 CYCLE:   800 TIME:   0.113 TIME LEFT:  2.00D  GRAD.:     0.718 HEAT: -32.91431
 CYCLE:   801 TIME:   0.234 TIME LEFT:  2.00D  GRAD.:     9.296 HEAT: -32.91362
 CYCLE:   802 TIME:   0.148 TIME LEFT:  2.00D  GRAD.:     0.559 HEAT: -32.91437
 CYCLE:   803 TIME:   0.203 TIME LEFT:  2.00D  GRAD.:     0.711 HEAT: -32.91434
 CYCLE:   804 TIME:   0.137 TIME LEFT:  2.00D  GRAD.:     0.878 HEAT: -32.91449
 CYCLE:   805 TIME:   0.238 TIME LEFT:  2.00D  GRAD.:     0.570 HEAT: -32.91455
 CYCLE:   806 TIME:   0.164 TIME LEFT:  2.00D  GRAD.:     0.527 HEAT: -32.91460
 CYCLE:   807 TIME:   0.117 TIME LEFT:  2.00D  GRAD.:     1.137 HEAT: -32.91470
 CYCLE:   808 TIME:   0.156 TIME LEFT:  2.00D  GRAD.:     3.899 HEAT: -32.91450
 CYCLE:   809 TIME:   0.195 TIME LEFT:  2.00D  GRAD.:     0.659 HEAT: -32.91477
 CYCLE:   810 TIME:   0.129 TIME LEFT:  2.00D  GRAD.:     0.481 HEAT: -32.91479
 CYCLE:   811 TIME:   0.137 TIME LEFT:  2.00D  GRAD.:     0.713 HEAT: -32.91483
 CYCLE:   812 TIME:   0.113 TIME LEFT:  2.00D  GRAD.:     1.032 HEAT: -32.91489
 CYCLE:   813 TIME:   0.156 TIME LEFT:  2.00D  GRAD.:     0.677 HEAT: -32.91495
 CYCLE:   814 TIME:   0.109 TIME LEFT:  2.00D  GRAD.:     0.527 HEAT: -32.91501
 CYCLE:   815 TIME:   0.238 TIME LEFT:  2.00D  GRAD.:     0.901 HEAT: -32.91506
 CYCLE:   816 TIME:   0.184 TIME LEFT:  2.00D  GRAD.:     1.516 HEAT: -32.91509
 CYCLE:   817 TIME:   0.164 TIME LEFT:  2.00D  GRAD.:     0.531 HEAT: -32.91512
 CYCLE:   818 TIME:   0.215 TIME LEFT:  2.00D  GRAD.:     0.556 HEAT: -32.91514
 CYCLE:   819 TIME:   0.160 TIME LEFT:  2.00D  GRAD.:     0.490 HEAT: -32.91517
 CYCLE:   820 TIME:   0.188 TIME LEFT:  2.00D  GRAD.:     0.771 HEAT: -32.91520
 CYCLE:   821 TIME:   0.133 TIME LEFT:  2.00D  GRAD.:     1.288 HEAT: -32.91525
 CYCLE:   822 TIME:   0.117 TIME LEFT:  2.00D  GRAD.:     0.721 HEAT: -32.91531
 CYCLE:   823 TIME:   0.121 TIME LEFT:  2.00D  GRAD.:     0.577 HEAT: -32.91535
 CYCLE:   824 TIME:   0.109 TIME LEFT:  2.00D  GRAD.:     0.776 HEAT: -32.91538
 CYCLE:   825 TIME:   0.180 TIME LEFT:  2.00D  GRAD.:     6.506 HEAT: -32.91495
 CYCLE:   826 TIME:   0.188 TIME LEFT:  2.00D  GRAD.:     0.905 HEAT: -32.91543
 CYCLE:   827 TIME:   0.188 TIME LEFT:  2.00D  GRAD.:     0.486 HEAT: -32.91544
 CYCLE:   828 TIME:   0.230 TIME LEFT:  2.00D  GRAD.:     1.988 HEAT: -32.91547
 CYCLE:   829 TIME:   0.148 TIME LEFT:  2.00D  GRAD.:     1.093 HEAT: -32.91551
 CYCLE:   830 TIME:   0.129 TIME LEFT:  2.00D  GRAD.:     0.351 HEAT: -32.91555
 CYCLE:   831 TIME:   0.121 TIME LEFT:  2.00D  GRAD.:     0.424 HEAT: -32.91556
 CYCLE:   832 TIME:   0.117 TIME LEFT:  2.00D  GRAD.:     0.766 HEAT: -32.91557
[...]


              NET ATOMIC CHARGES AND DIPOLE CONTRIBUTIONS

  ATOM NO.   TYPE          CHARGE      No. of ELECS.   s-Pop       p-Pop       
   25          O          -0.352176        6.3522     1.90967     4.44250
   24          C           0.399295        3.6007     1.18131     2.41940
   26          O          -0.333088        6.3331     1.83999     4.49310
   63          H           0.244903        0.7551     0.75510
   27          C           0.044284        3.9557     1.19697     2.75875
   28          N          -0.143848        5.1438     1.84797     3.29588
    1          C          -0.177517        4.1775     1.15573     3.02179
    2          C          -0.111949        4.1119     1.16675     2.94520
    3          C          -0.123361        4.1234     1.17076     2.95260
    4          C          -0.123152        4.1232     1.17068     2.95247
    5          C          -0.124095        4.1241     1.17074     2.95335
    6          C          -0.118230        4.1182     1.16952     2.94871
    7          C          -0.169422        4.1694     1.17986     2.98956
    8          C           0.062285        3.9377     1.15855     2.77916
    9          N          -0.284736        5.2847     1.51476     3.76998
   10          C           0.111901        3.8881     1.15301     2.73509
   11          C          -0.163007        4.1630     1.17061     2.99239
   12          C          -0.051736        4.0517     1.17693     2.87480
   13          C          -0.067342        4.0673     1.16114     2.90620
   14          C          -0.036160        4.0362     1.16942     2.86674
   15          C          -0.087472        4.0875     1.15816     2.92931
   16          C          -0.108530        4.1085     1.15916     2.94937
   17          C           0.145487        3.8545     1.15392     2.70060
   18          C          -0.180401        4.1804     1.17179     3.00861
   19          C          -0.011037        4.0110     1.17538     2.83566
   20          C          -0.174872        4.1749     1.16261     3.01226
   21          C           0.008877        3.9911     1.16754     2.82359
   22          C           0.104194        3.8958     1.18333     2.71248
   23          C          -0.138162        4.1382     1.14261     2.99555
   29          C          -0.022741        4.0227     1.15928     2.86346
   30          C          -0.102742        4.1027     1.17830     2.92444
   31          C          -0.109716        4.1097     1.17928     2.93044
   32          C          -0.041346        4.0413     1.17986     2.86149
   33          C          -0.107586        4.1076     1.17784     2.92974
   34          C          -0.104074        4.1041     1.17881     2.92526
   35          C           0.053892        3.9461     1.16695     2.77916
   36          C          -0.185239        4.1852     1.16113     3.02411
   37          C          -0.187157        4.1872     1.16063     3.02653
   38          C          -0.185397        4.1854     1.16113     3.02426
   39          H           0.128436        0.8716     0.87156
   40          H           0.058805        0.9412     0.94119
   41          H           0.056027        0.9440     0.94397
   42          H           0.057827        0.9422     0.94217
   43          H           0.059005        0.9410     0.94100
   44          H           0.059843        0.9402     0.94016
   45          H           0.064529        0.9355     0.93547
   46          H           0.062819        0.9372     0.93718
   47          H           0.061054        0.9389     0.93895
   48          H           0.062233        0.9378     0.93777
   49          H           0.067751        0.9322     0.93225
   50          H           0.064968        0.9350     0.93503
   51          H           0.061808        0.9382     0.93819
   52          H           0.062974        0.9370     0.93703
   53          H           0.084201        0.9158     0.91580
   54          H           0.081981        0.9180     0.91802
   55          H           0.080380        0.9196     0.91962
   56          H           0.078272        0.9217     0.92173
   57          H           0.119274        0.8807     0.88073
   58          H           0.110944        0.8891     0.88906
   59          H           0.115499        0.8845     0.88450
   60          H           0.127359        0.8726     0.87264
   61          H           0.114658        0.8853     0.88534
   62          H           0.113109        0.8869     0.88689
   64          H           0.109253        0.8907     0.89075
   65          H           0.108775        0.8912     0.89123
   66          H           0.110179        0.8898     0.88982
   67          H           0.108887        0.8911     0.89111
   68          H           0.061292        0.9387     0.93871
   69          H           0.064549        0.9355     0.93545
   70          H           0.060253        0.9397     0.93975
   71          H           0.062778        0.9372     0.93722
   72          H           0.061939        0.9381     0.93806
   73          H           0.062920        0.9371     0.93708
   74          H           0.064738        0.9353     0.93526
   75          H           0.061596        0.9384     0.93840
   76          H           0.060259        0.9397     0.93974
 DIPOLE           X         Y         Z       TOTAL
 POINT-CHG.     2.673    -1.743     4.558     5.564
 HYBRID         0.302     0.499    -0.319     0.665
 SUM            2.975    -1.244     4.239     5.326


          ATOMIC ORBITAL ELECTRON POPULATIONS

     Atom    s        px        py        pz   
    1  C   1.15573   0.96402   1.02812   1.02965
    2  C   1.16675   0.95348   0.96617   1.02555
    3  C   1.17076   0.95037   0.97105   1.03118
    4  C   1.17068   0.96011   0.96411   1.02825
    5  C   1.17074   0.94450   0.97455   1.03430
    6  C   1.16952   0.96705   0.95331   1.02835
    7  C   1.17986   0.94502   0.98813   1.05642
    8  C   1.15855   0.93713   0.80319   1.03884
    9  N   1.51476   1.59834   1.10641   1.06523
   10  C   1.15301   0.98382   0.88654   0.86473
   11  C   1.17061   1.07435   1.00051   0.91753
   12  C   1.17693   0.96551   0.92410   0.98519
   13  C   1.16114   1.03606   0.93746   0.93268
   14  C   1.16942   0.96969   0.97789   0.91916
   15  C   1.15816   1.07298   0.93345   0.92288
   16  C   1.15916   1.08374   0.93353   0.93210
   17  C   1.15392   0.94831   0.87791   0.87438
   18  C   1.17179   1.08576   1.00400   0.91885
   19  C   1.17538   0.93655   0.91195   0.98716
   20  C   1.16261   1.11817   0.94821   0.94588
   21  C   1.16754   0.93808   0.97293   0.91257
   22  C   1.18333   0.93504   0.91312   0.86432
   23  C   1.14261   0.96294   1.00316   1.02945
   24  C   1.18131   0.76088   0.81086   0.84766
   25  O   1.90967   1.45950   1.76920   1.21381
   26  O   1.83999   1.63430   1.34383   1.51497
   27  C   1.19697   0.91637   0.92006   0.92232
   28  N   1.84797   1.10532   1.10143   1.08913
   29  C   1.15928   0.96037   0.95909   0.94400
   30  C   1.17830   0.99099   0.98734   0.94611
   31  C   1.17928   0.97522   0.96526   0.98996
   32  C   1.17986   0.95086   0.96159   0.94903
   33  C   1.17784   0.99517   0.98785   0.94672
   34  C   1.17881   0.97207   0.96346   0.98973
   35  C   1.16695   0.93624   0.92029   0.92262
   36  C   1.16113   1.03367   1.01658   0.97386
   37  C   1.16063   0.98493   1.00834   1.03326
   38  C   1.16113   0.98585   1.00526   1.03315
   39  H   0.87156
   40  H   0.94119
   41  H   0.94397
   42  H   0.94217
   43  H   0.94100
   44  H   0.94016
   45  H   0.93547
   46  H   0.93718
   47  H   0.93895
   48  H   0.93777
   49  H   0.93225
   50  H   0.93503
   51  H   0.93819
   52  H   0.93703
   53  H   0.91580
   54  H   0.91802
   55  H   0.91962
   56  H   0.92173
   57  H   0.88073
   58  H   0.88906
   59  H   0.88450
   60  H   0.87264
   61  H   0.88534
   62  H   0.88689
   63  H   0.75510
   64  H   0.89075
   65  H   0.89123
   66  H   0.88982
   67  H   0.89111
   68  H   0.93871
   69  H   0.93545
   70  H   0.93975
   71  H   0.93722
   72  H   0.93806
   73  H   0.93708
   74  H   0.93526
   75  H   0.93840
   76  H   0.93974
 ******************** TDHF POLARIZABILITIES ********************



          MOLECULAR WEIGHT =  506.69



          ROTATIONAL CONSTANTS IN CM(-1)

          A =    0.00236186   B =    0.00136043   C =    0.00092575



           PRINCIPAL MOMENTS OF INERTIA IN UNITS OF 10**(-40)*GRAM-CM**2

          A =    11851.9886   B =    20576.3705   C =    30237.8048


 ROTATION MATRIX FOR ORIENTATION OF MOLECULE:

         0.470514    0.268169   -0.840656
         0.597587    0.604125    0.527184
         0.649235   -0.750412    0.123995


          CARTESIAN COORDINATES 

    NO.       ATOM         X         Y         Z

     1         C       -8.5946   -6.2982    2.2976
     2         C       -7.8795   -5.8906    1.0199
     3         C       -6.7719   -4.8830    1.3179
     4         C       -6.0520   -4.4737    0.0351
     5         C       -4.9454   -3.4652    0.3358
     6         C       -4.2269   -3.0541   -0.9475
     7         C       -3.1195   -2.0496   -0.6421
     8         C       -2.4108   -1.6393   -1.9412
     9         N       -1.3440   -0.6726   -1.6923
    10         C       -0.0157   -0.9946   -1.3342
    11         C        0.6584   -2.2095   -1.4228
    12         C        1.9931   -2.2266   -1.0503
    13         C        2.6446   -1.0688   -0.6034
    14         C        1.9733    0.1451   -0.5125
    15         C        0.6372    0.1806   -0.8740
    16         C       -0.3397    1.2399   -0.8873
    17         C       -1.5594    0.6747   -1.3581
    18         C       -2.7158    1.4441   -1.4787
    19         C       -2.6369    2.7775   -1.1156
    20         C       -1.4396    3.3373   -0.6460
    21         C       -0.2763    2.5762   -0.5441
    22         C       -1.3862    4.7404   -0.2726
    23         C       -2.3143    5.3235    0.5052
    24         C       -2.2938    6.7515    0.8539
    25         O       -3.2287    7.4344    1.2369
    26         O       -1.0749    7.3216    0.7157
    27         C       -3.3970    4.6037    1.0754
    28         N       -4.2823    4.0278    1.5461
    29         C        4.0532   -1.1415   -0.2268
    30         C        4.4949   -2.1294    0.6493
    31         C        5.8343   -2.1914    1.0049
    32         C        6.7563   -1.2749    0.4951
    33         C        6.3041   -0.2920   -0.3803
    34         C        4.9623   -0.2234   -0.7391
    35         C        8.1969   -1.3956    0.9185
    36         C        8.7221   -2.7705    0.4959
    37         C        9.1007   -0.3326    0.2919
    38         C        8.2787   -1.2472    2.4403
    39         H       -0.5297    5.3100   -0.6604
    40         H       -9.0599   -5.4417    2.8066
    41         H       -9.3981   -7.0233    2.1033
    42         H       -7.9158   -6.7678    3.0241
    43         H       -7.4646   -6.7866    0.5114
    44         H       -8.6056   -5.4675    0.2938
    45         H       -7.1921   -3.9905    1.8279
    46         H       -6.0511   -5.3096    2.0473
    47         H       -5.6326   -5.3673   -0.4736
    48         H       -6.7745   -4.0486   -0.6934
    49         H       -5.3649   -2.5722    0.8460
    50         H       -4.2224   -3.8909    1.0635
    51         H       -3.8095   -3.9473   -1.4591
    52         H       -4.9502   -2.6250   -1.6732
    53         H       -3.5313   -1.1544   -0.1288
    54         H       -2.3900   -2.4763    0.0782
    55         H       -1.9832   -2.5256   -2.4638
    56         H       -3.1314   -1.1936   -2.6666
    57         H        0.1653   -3.1189   -1.7707
    58         H        2.5533   -3.1653   -1.1163
    59         H        2.4740    1.0495   -0.1570
    60         H       -3.6538    1.0174   -1.8398
    61         H       -3.5271    3.4075   -1.2198
    62         H        0.6620    3.0121   -0.1896
    63         H       -1.0997    8.2584    0.9576
    64         H        3.7857   -2.8503    1.0672
    65         H        6.1478   -2.9784    1.6978
    66         H        6.9782    0.4516   -0.8133
    67         H        4.6263    0.5508   -1.4358
    68         H        8.1989   -3.6031    0.9858
    69         H        8.6223   -2.9292   -0.5873
    70         H        9.7871   -2.8968    0.7403
    71         H        8.8046    0.6891    0.5696
    72         H       10.1465   -0.4424    0.6174
    73         H        9.1195   -0.3891   -0.8059
    74         H        7.8528   -0.2923    2.7798
    75         H        7.7453   -2.0403    2.9821
    76         H        9.3171   -1.2800    2.8015


 ENERGY OF "REORIENTED" SYSTEM WITHOUT FIELD:      -32.9174249051


  NFREQ=  3  IWFLB=  0  IBET=  1  IGAM=  1
  ATOL= 0.10000D-02  BTOL= 0.10000D-02    MAXITU=  500    MAXITA=  150


 *****************************************************************
 CALCULATION OF STATIC FIELD QUANTITIES
 *****************************************************************

 +++++ ALPHA AT       0.00000 EV.

                           COMPONENTS OF ALPHA

                     *X           *Y           *Z
           *=X:     451.6980     -56.6366      18.1124
           *=Y:     -56.6388     382.9289      27.6099
           *=Z:      18.1103      27.6186     186.4981

  ISOTROPIC AVERAGE ALPHA =     340.37500 A.U. =     50.43837 ANG.**3

 +++++ BETA (SECOND HARMONIC GENERATION) AT       0.00000 EV.

                              COMPONENTS OF BETA
            *XX         *XY         *YY         *XZ         *YZ         *ZZ
   *=X  -977.43088   191.44630   879.75013  -131.44701   312.17865    61.20519
   *=Y   191.63788   879.49102 -2802.78821   312.15852  -775.36012  -162.14622
   *=Z  -131.20735   312.14750  -775.56786    61.27000  -162.21757    35.29130


 AVERAGE BETAX(SHG) VALUE AT   0.00000 EV =        -21.9631 a.u. = -0.189748E-30 ESU
 AVERAGE BETAY(SHG) VALUE AT   0.00000 EV =      -1664.0831 a.u. = -0.143767E-28 ESU
 AVERAGE BETAZ(SHG) VALUE AT   0.00000 EV =       -522.9031 a.u. = -0.451758E-29 ESU



 AVERAGE BETA (SHG) VALUE AT   0.00000 EV =       1744.4434 a.u. =  0.150710E-28 ESU
   (1 a.u. = 8.639418X10-33 esu)



 +++++ ALPHA AT       0.00000 EV.

                           COMPONENTS OF ALPHA

                     *X           *Y           *Z
           *=X:     451.6980     -56.6366      18.1124
           *=Y:     -56.6388     382.9289      27.6099
           *=Z:      18.1103      27.6186     186.4981

  ISOTROPIC AVERAGE ALPHA =     340.37500 A.U. =     50.43837 ANG.**3


 GAMMA (THIRD HARMONIC GENERATION) AT    0.00000 EV.


 GAMMA(X,X,X,X) =        351639.64339
 GAMMA(Y,Y,Y,Y) =        387439.26851
 GAMMA(Z,Z,Z,Z) =          7228.42533
 GAMMA(X,X,Y,Y) =         73090.07009
 GAMMA(X,X,Z,Z) =         18622.19826
 GAMMA(Y,Y,X,X) =         73090.21433
 GAMMA(Y,Y,Z,Z) =         32684.70566
 GAMMA(Z,Z,X,X) =         18622.11447
 GAMMA(Z,Z,Y,Y) =         32684.80341


 AVERAGE GAMMA VALUE AT    0.00000 =        199020.28869 a.u. =       100240.60015 ESU (X10-39)




 **********************************************************************
 CALCULATION FOR A FREQUENCY OF    0.25000 EV  =       0.00919 A.U. 
                  WAVELENGTH OF    4959.37 NM  =    2016.38525 CM(-1)
 **********************************************************************

 +++++ ALPHA AT       0.25000 EV.

                           COMPONENTS OF ALPHA

                     *X           *Y           *Z
           *=X:     452.7531     -57.0427      18.1382
           *=Y:     -57.0446     383.8030      27.7746
           *=Z:      18.1362      27.7818     186.7474

  ISOTROPIC AVERAGE ALPHA =     341.10115 A.U. =     50.54597 ANG.**3

 +++++ BETA (SECOND HARMONIC GENERATION) AT       0.25000 EV.

                              COMPONENTS OF BETA
            *XX         *XY         *YY         *XZ         *YZ         *ZZ
   *=X -1001.54109   186.15213   925.10363  -138.15735   327.46917    64.89180
   *=Y   196.21911   910.91981 -2893.26378   324.75548  -801.44309  -168.03074
   *=Z  -134.36762   323.76036  -804.54975    64.80128  -169.91304    33.86502


 AVERAGE BETAX(SHG) VALUE AT   0.25000 EV =        -12.6371 a.u. = -0.109177E-30 ESU
 AVERAGE BETAY(SHG) VALUE AT   0.25000 EV =      -1723.8250 a.u. = -0.148928E-28 ESU
 AVERAGE BETAZ(SHG) VALUE AT   0.25000 EV =       -543.3046 a.u. = -0.469384E-29 ESU



 AVERAGE BETA (SHG) VALUE AT   0.25000 EV =       1807.4601 a.u. =  0.156154E-28 ESU
   (1 a.u. = 8.639418X10-33 esu)



 +++++ ALPHA AT       0.75000 EV.

                           COMPONENTS OF ALPHA

                     *X           *Y           *Z
           *=X:     461.5045     -60.4709      18.3387
           *=Y:     -60.4725     391.0752      29.1521
           *=Z:      18.3353      29.1597     188.7859

  ISOTROPIC AVERAGE ALPHA =     347.12189 A.U. =     51.43816 ANG.**3


 GAMMA (THIRD HARMONIC GENERATION) AT    0.25000 EV.


 GAMMA(X,X,X,X) =        373748.89172
 GAMMA(Y,Y,Y,Y) =        420322.81286
 GAMMA(Z,Z,Z,Z) =          7586.75525
 GAMMA(X,X,Y,Y) =         79551.57784
 GAMMA(X,X,Z,Z) =         19882.63132
 GAMMA(Y,Y,X,X) =         78681.20045
 GAMMA(Y,Y,Z,Z) =         35462.01967
 GAMMA(Z,Z,X,X) =         19601.20805
 GAMMA(Z,Z,Y,Y) =         35814.59750


 AVERAGE GAMMA VALUE AT    0.25000 =        214130.33893 a.u. =       107851.08305 ESU (X10-39)




 **********************************************************************
 CALCULATION FOR A FREQUENCY OF    0.50000 EV  =       0.01837 A.U. 
                  WAVELENGTH OF    2479.68 NM  =    4032.77050 CM(-1)
 **********************************************************************

 +++++ ALPHA AT       0.50000 EV.

                           COMPONENTS OF ALPHA

                     *X           *Y           *Z
           *=X:     455.9672     -58.2869      18.2154
           *=Y:     -58.2905     386.4678      28.2750
           *=Z:      18.2126      28.2824     187.5004

  ISOTROPIC AVERAGE ALPHA =     343.31180 A.U. =     50.87356 ANG.**3

 +++++ BETA (SECOND HARMONIC GENERATION) AT       0.50000 EV.

                              COMPONENTS OF BETA
            *XX         *XY         *YY         *XZ         *YZ         *ZZ
   *=X -1080.76589   165.56653  1082.12671  -161.57241   380.09946    77.54986
   *=Y   212.08202  1016.76291 -3197.26668   367.58714  -889.19653  -187.80953
   *=Z  -144.38425   362.84084  -902.29525    76.91398  -196.06080    28.88338


 AVERAGE BETAX(SHG) VALUE AT   0.50000 EV =         20.9465 a.u. =  0.180966E-30 ESU
 AVERAGE BETAY(SHG) VALUE AT   0.50000 EV =      -1925.7032 a.u. = -0.166370E-28 ESU
 AVERAGE BETAZ(SHG) VALUE AT   0.50000 EV =       -612.3135 a.u. = -0.529003E-29 ESU



 AVERAGE BETA (SHG) VALUE AT   0.50000 EV =       2020.8165 a.u. =  0.174587E-28 ESU
   (1 a.u. = 8.639418X10-33 esu)



 +++++ ALPHA AT       1.50000 EV.

                           COMPONENTS OF ALPHA

                     *X           *Y           *Z
           *=X:     496.3538     -75.2827      18.8135
           *=Y:     -75.2844     420.4074      35.0607
           *=Z:      18.8050      35.0709     196.5033

  ISOTROPIC AVERAGE ALPHA =     371.08816 A.U. =     54.98959 ANG.**3


 GAMMA (THIRD HARMONIC GENERATION) AT    0.50000 EV.


 GAMMA(X,X,X,X) =        457608.07937
 GAMMA(Y,Y,Y,Y) =        552450.09257
 GAMMA(Z,Z,Z,Z) =          8978.09636
 GAMMA(X,X,Y,Y) =        106144.24506
 GAMMA(X,X,Z,Z) =         24930.44689
 GAMMA(Y,Y,X,X) =        100650.30788
 GAMMA(Y,Y,Z,Z) =         46668.21370
 GAMMA(Z,Z,X,X) =         23177.74795
 GAMMA(Z,Z,Y,Y) =         48538.88395


 AVERAGE GAMMA VALUE AT    0.50000 =        273829.22274 a.u. =       137919.63526 ESU (X10-39)



 **********************
 *                    *
 * JOB ENDED NORMALLY *
 *                    *
 **********************



 TOTAL JOB TIME:           240.24 SECONDS

 == MOPAC DONE ==
