 *******************************************************************************
 ** Site#: 4824         For non-commercial use only    Version 21.013L 64BITS **
 *******************************************************************************
 ** Cite this program as: MOPAC2016, Version: 21.013L, James J. P. Stewart,   **
 ** Stewart Computational Chemistry, web: HTTP://OpenMOPAC.net. Days left:  87**
 *******************************************************************************
 **                                                                           **
 **                                MOPAC2016                                  **
 **                                                                           **
 *******************************************************************************

                              RM1 CALCULATION RESULTS

 *******************************************************************************
 *  CALCULATION DONE:                                Mon Oct 18 10:56:59 2021  *
 *  RM1        - The RM1 Hamiltonian to be used
 *  POLAR      - CALCULATE FIRST, SECOND AND THIRD-ORDER POLARIZABILITIES
 *  PRECISE    - TIGHTER CRITERIA TO BE USED
 *  XYZ        - CARTESIAN COORDINATE SYSTEM TO BE USED
 *  T=         - A TIME OF 172800.0 SECONDS REQUESTED
 *  DUMP=N     - RESTART FILE WRITTEN EVERY 7200.0 SECONDS REQUESTED
 *  GNORM      - EXIT WHEN GRADIENT NORM DROPS BELOW 0.100
 *******************************************************************************
RM1 PRECISE POLAR XYZ GNORM=0.1


   ATOM   CHEMICAL          X               Y               Z
  NUMBER   SYMBOL      (ANGSTROMS)     (ANGSTROMS)     (ANGSTROMS)
 
     1       C          0.18110234  *  -0.02749241  *  -0.00378955  *
     2       C          1.70029301  *   0.00612289  *   0.02710404  *
     3       C          2.20218141  *   1.44652434  *   0.04253670  *
     4       C          3.73699559  *   1.47123651  *   0.06832018  *
     5       N          4.25746558  *   2.83690060  *   0.09881185  *
     6       C          4.27683650  *   3.65298213  *   1.25176518  *
     7       C          4.21364012  *   3.28658434  *   2.59270300  *
     8       C          4.33276028  *   4.30474605  *   3.53365106  *
     9       C          4.50728357  *   5.64469649  *   3.15487267  *
    10       C          4.56560358  *   6.00327669  *   1.81761693  *
    11       C          4.44511729  *   5.00920136  *   0.86033095  *
    12       C          4.44705915  *   5.03712003  *  -0.57935008  *
    13       C          4.28056416  *   3.69628067  *  -1.02153722  *
    14       C          4.21708120  *   3.37656561  *  -2.37458125  *
    15       C          4.33405223  *   4.43869110  *  -3.26850208  *
    16       C          4.50884838  *   5.76776751  *  -2.84773763  *
    17       C          4.56776434  *   6.06880470  *  -1.49598567  *
    18       N          4.26950346  *   4.15849586  *  -4.66325556  *
    19       C          5.37053546  *   3.87990506  *  -5.49506223  *
    20       C          6.70478428  *   3.67766764  *  -5.15446564  *
    21       C          7.58200523  *   3.39909849  *  -6.19050977  *
    22       C          7.14971961  *   3.32199755  *  -7.51908881  *
    23       C          5.81951907  *   3.52479830  *  -7.85525714  *
    24       C          4.91903594  *   3.80783307  *  -6.84087545  *
    25       C          3.50294015  *   4.07556304  *  -6.82926489  *
    26       C          3.13093360  *   4.30794801  *  -5.47707933  *
    27       C          1.82000046  *   4.60395488  *  -5.11516483  *
    28       C          0.88359515  *   4.65925355  *  -6.13530592  *
    29       C          1.23625776  *   4.42851042  *  -7.46940588  *
    30       C          2.54391622  *   4.13560096  *  -7.82735470  *
    31       C          4.27100788  *   3.96229306  *   4.93788477  *
    32       C          3.40766033  *   3.05042980  *   5.49373002  *
    33       C          3.60717225  *   2.92967879  *   6.89560524  *
    34       C          4.61378703  *   3.75792475  *   7.35006942  *
    35       S          5.30269719  *   4.65891727  *   6.08448946  *
    36       C          4.99955727  *   3.81024820  *   8.72647092  *
    37       C          5.89528365  *   4.66343327  *   9.26731802  *
    38       C          6.18372430  *   4.58492935  *  10.70478436  *
    39       O          5.69028177  *   3.80463308  *  11.50717706  *
    40       O          7.09124308  *   5.48716023  *  11.12966857  *
    41       C          6.58725027  *   5.65256330  *   8.52792910  *
    42       N          7.16486436  *   6.47099443  *   7.94920113  *
    43       H          4.50049642  *   3.07494846  *   9.38053571  *
    44       H         -0.22884753  *   0.46650117  *  -0.89658244  *
    45       H         -0.20433873  *  -1.05740768  *  -0.00839522  *
    46       H         -0.26509601  *   0.47269177  *   0.86786862  *
    47       H          2.07739585  *  -0.54894985  *   0.91227984  *
    48       H          2.11289997  *  -0.54228042  *  -0.84628039  *
    49       H          1.82251400  *   2.00219429  *  -0.84117779  *
    50       H          1.79168329  *   1.99419744  *   0.91723677  *
    51       H          4.13416170  *   0.91740965  *   0.95022466  *
    52       H          4.16230484  *   0.94654761  *  -0.81866216  *
    53       H          4.08846894  *   2.24604653  *   2.89846804  *
    54       H          4.58977390  *   6.42006003  *   3.92243007  *
    55       H          4.70256350  *   7.04520952  *   1.51625708  *
    56       H          4.08142978  *   2.35030097  *  -2.72389707  *
    57       H          4.60003225  *   6.56780462  *  -3.58904930  *
    58       H          4.70632306  *   7.09759617  *  -1.15294287  *
    59       H          7.04125534  *   3.73804835  *  -4.11776870  *
    60       H          8.64067167  *   3.23647687  *  -5.96496944  *
    61       H          7.87712290  *   3.09837692  *  -8.30430977  *
    62       H          5.47965051  *   3.46700299  *  -8.89213758  *
    63       H          1.54570617  *   4.78486134  *  -4.07437072  *
    64       H         -0.15861341  *   4.88922509  *  -5.89214257  *
    65       H          0.46401728  *   4.48161799  *  -8.24162737  *
    66       H          2.82181284  *   3.95465436  *  -8.86851711  *
    67       H          2.65075117  *   2.49270627  *   4.94792621  *
    68       H          3.02164061  *   2.25919587  *   7.52215733  *
    69       H          7.25271983  *   5.39737980  *  12.08002494  *
 


          CARTESIAN COORDINATES 

    NO.       ATOM           X           Y           Z

     1         C          0.1811     -0.0275     -0.0038
     2         C          1.7003      0.0061      0.0271
     3         C          2.2022      1.4465      0.0425
     4         C          3.7370      1.4712      0.0683
     5         N          4.2575      2.8369      0.0988
     6         C          4.2768      3.6530      1.2518
     7         C          4.2136      3.2866      2.5927
     8         C          4.3328      4.3047      3.5337
     9         C          4.5073      5.6447      3.1549
    10         C          4.5656      6.0033      1.8176
    11         C          4.4451      5.0092      0.8603
    12         C          4.4471      5.0371     -0.5794
    13         C          4.2806      3.6963     -1.0215
    14         C          4.2171      3.3766     -2.3746
    15         C          4.3341      4.4387     -3.2685
    16         C          4.5088      5.7678     -2.8477
    17         C          4.5678      6.0688     -1.4960
    18         N          4.2695      4.1585     -4.6633
    19         C          5.3705      3.8799     -5.4951
    20         C          6.7048      3.6777     -5.1545
    21         C          7.5820      3.3991     -6.1905
    22         C          7.1497      3.3220     -7.5191
    23         C          5.8195      3.5248     -7.8553
    24         C          4.9190      3.8078     -6.8409
    25         C          3.5029      4.0756     -6.8293
    26         C          3.1309      4.3079     -5.4771
    27         C          1.8200      4.6040     -5.1152
    28         C          0.8836      4.6593     -6.1353
    29         C          1.2363      4.4285     -7.4694
    30         C          2.5439      4.1356     -7.8274
    31         C          4.2710      3.9623      4.9379
    32         C          3.4077      3.0504      5.4937
    33         C          3.6072      2.9297      6.8956
    34         C          4.6138      3.7579      7.3501
    35         S          5.3027      4.6589      6.0845
    36         C          4.9996      3.8102      8.7265
    37         C          5.8953      4.6634      9.2673
    38         C          6.1837      4.5849     10.7048
    39         O          5.6903      3.8046     11.5072
    40         O          7.0912      5.4872     11.1297
    41         C          6.5873      5.6526      8.5279
    42         N          7.1649      6.4710      7.9492
    43         H          4.5005      3.0749      9.3805
    44         H         -0.2288      0.4665     -0.8966
    45         H         -0.2043     -1.0574     -0.0084
    46         H         -0.2651      0.4727      0.8679
    47         H          2.0774     -0.5489      0.9123
    48         H          2.1129     -0.5423     -0.8463
    49         H          1.8225      2.0022     -0.8412
    50         H          1.7917      1.9942      0.9172
    51         H          4.1342      0.9174      0.9502
    52         H          4.1623      0.9465     -0.8187
    53         H          4.0885      2.2460      2.8985
    54         H          4.5898      6.4201      3.9224
    55         H          4.7026      7.0452      1.5163
    56         H          4.0814      2.3503     -2.7239
    57         H          4.6000      6.5678     -3.5890
    58         H          4.7063      7.0976     -1.1529
    59         H          7.0413      3.7380     -4.1178
    60         H          8.6407      3.2365     -5.9650
    61         H          7.8771      3.0984     -8.3043
    62         H          5.4797      3.4670     -8.8921
    63         H          1.5457      4.7849     -4.0744
    64         H         -0.1586      4.8892     -5.8921
    65         H          0.4640      4.4816     -8.2416
    66         H          2.8218      3.9547     -8.8685
    67         H          2.6508      2.4927      4.9479
    68         H          3.0216      2.2592      7.5222
    69         H          7.2527      5.3974     12.0800

  H: (RM1): G.B. ROCHA, R.O. FREIRE, A.M.SIMAS, J.J.P. STEWART, J. COMP. CHEM. 27, 1101 (2006)
  C: (RM1): G.B. ROCHA, R.O. FREIRE, A.M.SIMAS, J.J.P. STEWART, J. COMP. CHEM. 27, 1101 (2006)
  N: (RM1): G.B. ROCHA, R.O. FREIRE, A.M.SIMAS, J.J.P. STEWART, J. COMP. CHEM. 27, 1101 (2006)
  O: (RM1): G.B. ROCHA, R.O. FREIRE, A.M.SIMAS, J.J.P. STEWART, J. COMP. CHEM. 27, 1101 (2006)
  S: (RM1): G.B. ROCHA, R.O. FREIRE, A.M.SIMAS, J.J.P. STEWART, J. COMP. CHEM. 27, 1101 (2006)

           Empirical Formula: C36 H27 N3 O2 S  =    69 atoms



      MOLECULAR POINT GROUP   :   C1  


      RHF CALCULATION, NO. OF DOUBLY OCCUPIED LEVELS = 102


          Geometry optimization using L-BFGS
 CYCLE:     1 TIME:   0.414 TIME LEFT:  2.00D  GRAD.:     0.465 HEAT:  81.33251
 CYCLE:     2 TIME:   0.125 TIME LEFT:  2.00D  GRAD.:     0.459 HEAT:  81.33250
 CYCLE:     3 TIME:   0.129 TIME LEFT:  2.00D  GRAD.:     1.086 HEAT:  81.33242
 CYCLE:     4 TIME:   0.129 TIME LEFT:  2.00D  GRAD.:     0.467 HEAT:  81.33250
 CYCLE:     5 TIME:   0.141 TIME LEFT:  2.00D  GRAD.:     1.107 HEAT:  81.33242
 CYCLE:     6 TIME:   0.141 TIME LEFT:  2.00D  GRAD.:     0.576 HEAT:  81.33229
 CYCLE:     7 TIME:   0.125 TIME LEFT:  2.00D  GRAD.:     0.527 HEAT:  81.33214
 CYCLE:     8 TIME:   0.125 TIME LEFT:  2.00D  GRAD.:     0.525 HEAT:  81.33202
 CYCLE:     9 TIME:   0.117 TIME LEFT:  2.00D  GRAD.:     0.633 HEAT:  81.33187
 CYCLE:    10 TIME:   0.145 TIME LEFT:  2.00D  GRAD.:     1.406 HEAT:  81.33182
 CYCLE:    11 TIME:   0.137 TIME LEFT:  2.00D  GRAD.:     0.443 HEAT:  81.33158
 CYCLE:    12 TIME:   0.129 TIME LEFT:  2.00D  GRAD.:     0.385 HEAT:  81.33149
 CYCLE:    13 TIME:   0.125 TIME LEFT:  2.00D  GRAD.:     0.485 HEAT:  81.33136
 CYCLE:    14 TIME:   0.148 TIME LEFT:  2.00D  GRAD.:     0.568 HEAT:  81.33112
 CYCLE:    15 TIME:   0.137 TIME LEFT:  2.00D  GRAD.:     0.956 HEAT:  81.33094
 CYCLE:    16 TIME:   0.156 TIME LEFT:  2.00D  GRAD.:     0.527 HEAT:  81.33064
 CYCLE:    17 TIME:   0.148 TIME LEFT:  2.00D  GRAD.:     0.446 HEAT:  81.33043
 CYCLE:    18 TIME:   0.137 TIME LEFT:  2.00D  GRAD.:     0.498 HEAT:  81.33028
 CYCLE:    19 TIME:   0.125 TIME LEFT:  2.00D  GRAD.:     0.468 HEAT:  81.33012
 CYCLE:    20 TIME:   0.133 TIME LEFT:  2.00D  GRAD.:     0.488 HEAT:  81.32993
 CYCLE:    21 TIME:   0.129 TIME LEFT:  2.00D  GRAD.:     0.989 HEAT:  81.32971
 CYCLE:    22 TIME:   0.133 TIME LEFT:  2.00D  GRAD.:     1.009 HEAT:  81.32946
 CYCLE:    23 TIME:   0.121 TIME LEFT:  2.00D  GRAD.:     0.546 HEAT:  81.32927
 CYCLE:    24 TIME:   0.121 TIME LEFT:  2.00D  GRAD.:     0.540 HEAT:  81.32908
 CYCLE:    25 TIME:   0.137 TIME LEFT:  2.00D  GRAD.:     0.544 HEAT:  81.32890
 CYCLE:    26 TIME:   0.145 TIME LEFT:  2.00D  GRAD.:     0.795 HEAT:  81.32852
 CYCLE:    27 TIME:   0.145 TIME LEFT:  2.00D  GRAD.:     0.889 HEAT:  81.32820
 CYCLE:    28 TIME:   0.160 TIME LEFT:  2.00D  GRAD.:     0.913 HEAT:  81.32787
 CYCLE:    29 TIME:   0.129 TIME LEFT:  2.00D  GRAD.:     0.572 HEAT:  81.32762
 CYCLE:    30 TIME:   0.133 TIME LEFT:  2.00D  GRAD.:     0.599 HEAT:  81.32733
 CYCLE:    31 TIME:   0.129 TIME LEFT:  2.00D  GRAD.:     0.554 HEAT:  81.32705
 CYCLE:    32 TIME:   0.145 TIME LEFT:  2.00D  GRAD.:     0.822 HEAT:  81.32671
 CYCLE:    33 TIME:   0.148 TIME LEFT:  2.00D  GRAD.:     0.671 HEAT:  81.32635
 CYCLE:    34 TIME:   0.137 TIME LEFT:  2.00D  GRAD.:     0.599 HEAT:  81.32609
 CYCLE:    35 TIME:   0.137 TIME LEFT:  2.00D  GRAD.:     0.571 HEAT:  81.32589
 CYCLE:    36 TIME:   0.148 TIME LEFT:  2.00D  GRAD.:     0.909 HEAT:  81.32575
 CYCLE:    37 TIME:   0.133 TIME LEFT:  2.00D  GRAD.:     0.386 HEAT:  81.32561
 CYCLE:    38 TIME:   0.148 TIME LEFT:  2.00D  GRAD.:     0.442 HEAT:  81.32549
 CYCLE:    39 TIME:   0.129 TIME LEFT:  2.00D  GRAD.:     0.474 HEAT:  81.32532
 CYCLE:    40 TIME:   0.145 TIME LEFT:  2.00D  GRAD.:     1.240 HEAT:  81.32511
 CYCLE:    41 TIME:   0.113 TIME LEFT:  2.00D  GRAD.:     0.626 HEAT:  81.32477
 CYCLE:    42 TIME:   0.137 TIME LEFT:  2.00D  GRAD.:     0.423 HEAT:  81.32458
 CYCLE:    43 TIME:   0.148 TIME LEFT:  2.00D  GRAD.:     0.475 HEAT:  81.32440
 CYCLE:    44 TIME:   0.145 TIME LEFT:  2.00D  GRAD.:     0.977 HEAT:  81.32415
 CYCLE:    45 TIME:   0.148 TIME LEFT:  2.00D  GRAD.:     0.527 HEAT:  81.32391
 CYCLE:    46 TIME:   0.133 TIME LEFT:  2.00D  GRAD.:     0.407 HEAT:  81.32370
 CYCLE:    47 TIME:   0.133 TIME LEFT:  2.00D  GRAD.:     0.411 HEAT:  81.32353
 CYCLE:    48 TIME:   0.137 TIME LEFT:  2.00D  GRAD.:     1.125 HEAT:  81.32336
 CYCLE:    49 TIME:   0.133 TIME LEFT:  2.00D  GRAD.:     0.440 HEAT:  81.32308
 CYCLE:    50 TIME:   0.129 TIME LEFT:  2.00D  GRAD.:     0.456 HEAT:  81.32292
 CYCLE:    51 TIME:   0.129 TIME LEFT:  2.00D  GRAD.:     0.797 HEAT:  81.32261
 CYCLE:    52 TIME:   0.137 TIME LEFT:  2.00D  GRAD.:     2.263 HEAT:  81.32262
 CYCLE:    53 TIME:   0.109 TIME LEFT:  2.00D  GRAD.:     0.626 HEAT:  81.32219
 CYCLE:    54 TIME:   0.117 TIME LEFT:  2.00D  GRAD.:     0.568 HEAT:  81.32198
 CYCLE:    55 TIME:   0.129 TIME LEFT:  2.00D  GRAD.:     0.453 HEAT:  81.32166
 CYCLE:    56 TIME:   0.137 TIME LEFT:  2.00D  GRAD.:     0.915 HEAT:  81.32125
 CYCLE:    57 TIME:   0.133 TIME LEFT:  2.00D  GRAD.:     1.368 HEAT:  81.32103
 CYCLE:    58 TIME:   0.121 TIME LEFT:  2.00D  GRAD.:     0.600 HEAT:  81.32073
 CYCLE:    59 TIME:   0.125 TIME LEFT:  2.00D  GRAD.:     0.706 HEAT:  81.32042
 CYCLE:    60 TIME:   0.133 TIME LEFT:  2.00D  GRAD.:     0.680 HEAT:  81.32017
 CYCLE:    61 TIME:   0.137 TIME LEFT:  2.00D  GRAD.:     1.547 HEAT:  81.31969
 CYCLE:    62 TIME:   0.145 TIME LEFT:  2.00D  GRAD.:     0.706 HEAT:  81.31911
 CYCLE:    63 TIME:   0.145 TIME LEFT:  2.00D  GRAD.:     0.803 HEAT:  81.31865
 CYCLE:    64 TIME:   0.141 TIME LEFT:  2.00D  GRAD.:     1.063 HEAT:  81.31804
 CYCLE:    65 TIME:   0.113 TIME LEFT:  2.00D  GRAD.:     1.334 HEAT:  81.31709
 CYCLE:    66 TIME:   0.148 TIME LEFT:  2.00D  GRAD.:     1.252 HEAT:  81.31613
 CYCLE:    67 TIME:   0.129 TIME LEFT:  2.00D  GRAD.:     1.490 HEAT:  81.31522
 CYCLE:    68 TIME:   0.145 TIME LEFT:  2.00D  GRAD.:     1.309 HEAT:  81.31444
 CYCLE:    69 TIME:   0.145 TIME LEFT:  2.00D  GRAD.:     1.356 HEAT:  81.31376
 CYCLE:    70 TIME:   0.129 TIME LEFT:  2.00D  GRAD.:     2.188 HEAT:  81.31294
 CYCLE:    71 TIME:   0.137 TIME LEFT:  2.00D  GRAD.:     7.704 HEAT:  81.31757
 CYCLE:    72 TIME:   0.121 TIME LEFT:  2.00D  GRAD.:     4.125 HEAT:  81.31421
 CYCLE:    73 TIME:   0.145 TIME LEFT:  2.00D  GRAD.:     2.746 HEAT:  81.31164
 CYCLE:    74 TIME:   0.152 TIME LEFT:  2.00D  GRAD.:     3.049 HEAT:  81.31007
 CYCLE:    75 TIME:   0.148 TIME LEFT:  2.00D  GRAD.:     7.123 HEAT:  81.31449
 CYCLE:    76 TIME:   0.117 TIME LEFT:  2.00D  GRAD.:     3.682 HEAT:  81.31050
 CYCLE:    77 TIME:   0.113 TIME LEFT:  2.00D  GRAD.:     1.792 HEAT:  81.30867
 CYCLE:    78 TIME:   0.125 TIME LEFT:  2.00D  GRAD.:     3.539 HEAT:  81.30896
 CYCLE:    79 TIME:   0.102 TIME LEFT:  2.00D  GRAD.:     1.980 HEAT:  81.30788
 CYCLE:    80 TIME:   0.148 TIME LEFT:  2.00D  GRAD.:     2.129 HEAT:  81.30752
 CYCLE:    81 TIME:   0.172 TIME LEFT:  2.00D  GRAD.:     1.499 HEAT:  81.30713
 CYCLE:    82 TIME:   0.168 TIME LEFT:  2.00D  GRAD.:     2.942 HEAT:  81.30707
 CYCLE:    83 TIME:   0.137 TIME LEFT:  2.00D  GRAD.:     0.813 HEAT:  81.30612
 CYCLE:    84 TIME:   0.145 TIME LEFT:  2.00D  GRAD.:     0.833 HEAT:  81.30554
 CYCLE:    85 TIME:   0.156 TIME LEFT:  2.00D  GRAD.:     1.816 HEAT:  81.30440
 CYCLE:    86 TIME:   0.160 TIME LEFT:  2.00D  GRAD.:     1.628 HEAT:  81.30321
 CYCLE:    87 TIME:   0.148 TIME LEFT:  2.00D  GRAD.:     1.643 HEAT:  81.30160
 CYCLE:    88 TIME:   0.148 TIME LEFT:  2.00D  GRAD.:     1.154 HEAT:  81.30012
 CYCLE:    89 TIME:   0.156 TIME LEFT:  2.00D  GRAD.:     1.637 HEAT:  81.29862
 CYCLE:    90 TIME:   0.148 TIME LEFT:  2.00D  GRAD.:     1.378 HEAT:  81.29692
 CYCLE:    91 TIME:   0.152 TIME LEFT:  2.00D  GRAD.:     2.041 HEAT:  81.29493
 CYCLE:    92 TIME:   0.152 TIME LEFT:  2.00D  GRAD.:     1.410 HEAT:  81.29239
 CYCLE:    93 TIME:   0.145 TIME LEFT:  2.00D  GRAD.:     1.685 HEAT:  81.29044
 CYCLE:    94 TIME:   0.148 TIME LEFT:  2.00D  GRAD.:     1.913 HEAT:  81.28760
 CYCLE:    95 TIME:   0.168 TIME LEFT:  2.00D  GRAD.:     7.856 HEAT:  81.28951
 CYCLE:    96 TIME:   0.133 TIME LEFT:  2.00D  GRAD.:    11.139 HEAT:  81.29935
 CYCLE:    97 TIME:   0.141 TIME LEFT:  2.00D  GRAD.:     3.440 HEAT:  81.28357
 CYCLE:    98 TIME:   0.125 TIME LEFT:  2.00D  GRAD.:     2.809 HEAT:  81.28203
 CYCLE:    99 TIME:   0.227 TIME LEFT:  2.00D  GRAD.:     2.212 HEAT:  81.27862
 CYCLE:   100 TIME:   0.293 TIME LEFT:  2.00D  GRAD.:     2.148 HEAT:  81.27458
 CYCLE:   101 TIME:   0.445 TIME LEFT:  2.00D  GRAD.:     3.195 HEAT:  81.26993
 CYCLE:   102 TIME:   0.688 TIME LEFT:  2.00D  GRAD.:     2.170 HEAT:  81.26684
 CYCLE:   103 TIME:   0.480 TIME LEFT:  2.00D  GRAD.:     1.827 HEAT:  81.26522
 CYCLE:   104 TIME:   0.145 TIME LEFT:  2.00D  GRAD.:     5.016 HEAT:  81.26171
 CYCLE:   105 TIME:   0.137 TIME LEFT:  2.00D  GRAD.:     2.474 HEAT:  81.25709
 CYCLE:   106 TIME:   0.145 TIME LEFT:  2.00D  GRAD.:     1.716 HEAT:  81.25485
 CYCLE:   107 TIME:   0.172 TIME LEFT:  2.00D  GRAD.:     3.135 HEAT:  81.25023
 CYCLE:   108 TIME:   0.156 TIME LEFT:  2.00D  GRAD.:     3.173 HEAT:  81.24606
 CYCLE:   109 TIME:   0.156 TIME LEFT:  2.00D  GRAD.:     6.013 HEAT:  81.23838
 CYCLE:   110 TIME:   0.145 TIME LEFT:  2.00D  GRAD.:     2.652 HEAT:  81.22813
 CYCLE:   111 TIME:   0.164 TIME LEFT:  2.00D  GRAD.:     2.769 HEAT:  81.21984
 CYCLE:   112 TIME:   0.160 TIME LEFT:  2.00D  GRAD.:     3.666 HEAT:  81.21355
 CYCLE:   113 TIME:   0.145 TIME LEFT:  2.00D  GRAD.:     8.560 HEAT:  81.20813
 CYCLE:   114 TIME:   0.141 TIME LEFT:  2.00D  GRAD.:     5.936 HEAT:  81.19242
 CYCLE:   115 TIME:   0.148 TIME LEFT:  2.00D  GRAD.:     7.483 HEAT:  81.19935
 CYCLE:   116 TIME:   0.160 TIME LEFT:  2.00D  GRAD.:     9.152 HEAT:  81.18085
 CYCLE:   117 TIME:   0.172 TIME LEFT:  2.00D  GRAD.:    11.134 HEAT:  81.17005
 CYCLE:   118 TIME:   0.145 TIME LEFT:  2.00D  GRAD.:     2.377 HEAT:  81.15715
 CYCLE:   119 TIME:   0.172 TIME LEFT:  2.00D  GRAD.:     8.168 HEAT:  81.15778
 CYCLE:   120 TIME:   0.141 TIME LEFT:  2.00D  GRAD.:     3.001 HEAT:  81.14790
 CYCLE:   121 TIME:   0.109 TIME LEFT:  2.00D  GRAD.:     3.486 HEAT:  81.14106
 CYCLE:   122 TIME:   0.152 TIME LEFT:  2.00D  GRAD.:     5.105 HEAT:  81.12677
 CYCLE:   123 TIME:   0.148 TIME LEFT:  2.00D  GRAD.:     6.232 HEAT:  81.10760
 CYCLE:   124 TIME:   0.152 TIME LEFT:  2.00D  GRAD.:     7.664 HEAT:  81.08965
 CYCLE:   125 TIME:   0.117 TIME LEFT:  2.00D  GRAD.:     3.923 HEAT:  81.07660
 CYCLE:   126 TIME:   0.113 TIME LEFT:  2.00D  GRAD.:     4.607 HEAT:  81.06627
 CYCLE:   127 TIME:   0.125 TIME LEFT:  2.00D  GRAD.:     6.586 HEAT:  81.05232
 CYCLE:   128 TIME:   0.121 TIME LEFT:  2.00D  GRAD.:     9.504 HEAT:  81.02717
 CYCLE:   129 TIME:   0.148 TIME LEFT:  2.00D  GRAD.:     7.967 HEAT:  80.97684
 CYCLE:   130 TIME:   0.141 TIME LEFT:  2.00D  GRAD.:     7.327 HEAT:  80.93899
 CYCLE:   131 TIME:   0.133 TIME LEFT:  2.00D  GRAD.:    12.166 HEAT:  80.90074
 CYCLE:   132 TIME:   0.121 TIME LEFT:  2.00D  GRAD.:    15.006 HEAT:  80.88229
 CYCLE:   133 TIME:   0.137 TIME LEFT:  2.00D  GRAD.:    10.757 HEAT:  80.83418
 CYCLE:   134 TIME:   0.141 TIME LEFT:  2.00D  GRAD.:    15.328 HEAT:  80.84489
 CYCLE:   135 TIME:   0.133 TIME LEFT:  2.00D  GRAD.:     4.950 HEAT:  80.78814
 CYCLE:   136 TIME:   0.129 TIME LEFT:  2.00D  GRAD.:     4.940 HEAT:  80.77251
 CYCLE:   137 TIME:   0.133 TIME LEFT:  2.00D  GRAD.:     7.438 HEAT:  80.74451
 CYCLE:   138 TIME:   0.113 TIME LEFT:  2.00D  GRAD.:     4.982 HEAT:  80.71609
 CYCLE:   139 TIME:   0.105 TIME LEFT:  2.00D  GRAD.:     7.232 HEAT:  80.69704
 CYCLE:   140 TIME:   0.129 TIME LEFT:  2.00D  GRAD.:     7.715 HEAT:  80.68544
 CYCLE:   141 TIME:   0.145 TIME LEFT:  2.00D  GRAD.:     4.813 HEAT:  80.67167
 CYCLE:   142 TIME:   0.133 TIME LEFT:  2.00D  GRAD.:     3.381 HEAT:  80.65790
 CYCLE:   143 TIME:   0.141 TIME LEFT:  2.00D  GRAD.:     3.828 HEAT:  80.64392
 CYCLE:   144 TIME:   0.145 TIME LEFT:  2.00D  GRAD.:     7.024 HEAT:  80.62948
 CYCLE:   145 TIME:   0.137 TIME LEFT:  2.00D  GRAD.:     3.882 HEAT:  80.61229
 CYCLE:   146 TIME:   0.137 TIME LEFT:  2.00D  GRAD.:     3.424 HEAT:  80.59996
 CYCLE:   147 TIME:   0.133 TIME LEFT:  2.00D  GRAD.:     4.846 HEAT:  80.58403
 CYCLE:   148 TIME:   0.141 TIME LEFT:  2.00D  GRAD.:     7.618 HEAT:  80.56841
 CYCLE:   149 TIME:   0.156 TIME LEFT:  2.00D  GRAD.:     5.241 HEAT:  80.55012
 CYCLE:   150 TIME:   0.145 TIME LEFT:  2.00D  GRAD.:     5.618 HEAT:  80.53106
 CYCLE:   151 TIME:   0.133 TIME LEFT:  2.00D  GRAD.:     4.969 HEAT:  80.51985
 CYCLE:   152 TIME:   0.145 TIME LEFT:  2.00D  GRAD.:     4.364 HEAT:  80.50609
 CYCLE:   153 TIME:   0.145 TIME LEFT:  2.00D  GRAD.:     7.072 HEAT:  80.48345
 CYCLE:   154 TIME:   0.129 TIME LEFT:  2.00D  GRAD.:     8.159 HEAT:  80.46290
 CYCLE:   155 TIME:   0.137 TIME LEFT:  2.00D  GRAD.:     5.707 HEAT:  80.44368
 CYCLE:   156 TIME:   0.129 TIME LEFT:  2.00D  GRAD.:     6.162 HEAT:  80.41528
 CYCLE:   157 TIME:   0.113 TIME LEFT:  2.00D  GRAD.:     7.324 HEAT:  80.39065
 CYCLE:   158 TIME:   0.113 TIME LEFT:  2.00D  GRAD.:     5.561 HEAT:  80.36441
 CYCLE:   159 TIME:   0.125 TIME LEFT:  2.00D  GRAD.:     7.886 HEAT:  80.34323
 CYCLE:   160 TIME:   0.145 TIME LEFT:  2.00D  GRAD.:     4.175 HEAT:  80.32481
 CYCLE:   161 TIME:   0.145 TIME LEFT:  2.00D  GRAD.:     3.996 HEAT:  80.31366
 CYCLE:   162 TIME:   0.148 TIME LEFT:  2.00D  GRAD.:     7.044 HEAT:  80.29087
 CYCLE:   163 TIME:   0.141 TIME LEFT:  2.00D  GRAD.:     8.349 HEAT:  80.27775
 CYCLE:   164 TIME:   0.141 TIME LEFT:  2.00D  GRAD.:     4.311 HEAT:  80.26302
 CYCLE:   165 TIME:   0.137 TIME LEFT:  2.00D  GRAD.:     3.428 HEAT:  80.24885
 CYCLE:   166 TIME:   0.137 TIME LEFT:  2.00D  GRAD.:     4.848 HEAT:  80.23511
 CYCLE:   167 TIME:   0.148 TIME LEFT:  2.00D  GRAD.:    11.700 HEAT:  80.22401
 CYCLE:   168 TIME:   0.137 TIME LEFT:  2.00D  GRAD.:     4.677 HEAT:  80.20222
 CYCLE:   169 TIME:   0.129 TIME LEFT:  2.00D  GRAD.:     3.796 HEAT:  80.19101
 CYCLE:   170 TIME:   0.141 TIME LEFT:  2.00D  GRAD.:     4.328 HEAT:  80.17889
 CYCLE:   171 TIME:   0.148 TIME LEFT:  2.00D  GRAD.:    13.111 HEAT:  80.16914
 CYCLE:   172 TIME:   0.125 TIME LEFT:  2.00D  GRAD.:     5.310 HEAT:  80.14886
 CYCLE:   173 TIME:   0.137 TIME LEFT:  2.00D  GRAD.:     3.979 HEAT:  80.13506
 CYCLE:   174 TIME:   0.148 TIME LEFT:  2.00D  GRAD.:     5.354 HEAT:  80.12071
 CYCLE:   175 TIME:   0.109 TIME LEFT:  2.00D  GRAD.:     5.951 HEAT:  80.09899
 CYCLE:   176 TIME:   0.133 TIME LEFT:  2.00D  GRAD.:    14.384 HEAT:  80.09503
 CYCLE:   177 TIME:   0.125 TIME LEFT:  2.00D  GRAD.:     4.516 HEAT:  80.06437
 CYCLE:   178 TIME:   0.133 TIME LEFT:  2.00D  GRAD.:     3.386 HEAT:  80.05439
 CYCLE:   179 TIME:   0.105 TIME LEFT:  2.00D  GRAD.:     4.452 HEAT:  80.03915
 CYCLE:   180 TIME:   0.102 TIME LEFT:  2.00D  GRAD.:     5.211 HEAT:  80.02385
 CYCLE:   181 TIME:   0.141 TIME LEFT:  2.00D  GRAD.:    10.172 HEAT:  80.02224
 CYCLE:   182 TIME:   0.148 TIME LEFT:  2.00D  GRAD.:     3.040 HEAT:  80.00391
 CYCLE:   183 TIME:   0.133 TIME LEFT:  2.00D  GRAD.:     2.683 HEAT:  79.99847
 CYCLE:   184 TIME:   0.133 TIME LEFT:  2.00D  GRAD.:     4.221 HEAT:  79.98874
 CYCLE:   185 TIME:   0.145 TIME LEFT:  2.00D  GRAD.:     5.546 HEAT:  79.97711
 CYCLE:   186 TIME:   0.137 TIME LEFT:  2.00D  GRAD.:    11.973 HEAT:  79.97731
 CYCLE:   187 TIME:   0.133 TIME LEFT:  2.00D  GRAD.:     3.233 HEAT:  79.96023
 CYCLE:   188 TIME:   0.129 TIME LEFT:  2.00D  GRAD.:     2.852 HEAT:  79.95555
 CYCLE:   189 TIME:   0.125 TIME LEFT:  2.00D  GRAD.:     3.637 HEAT:  79.94783
 CYCLE:   190 TIME:   0.125 TIME LEFT:  2.00D  GRAD.:     5.479 HEAT:  79.93396
 CYCLE:   191 TIME:   0.121 TIME LEFT:  2.00D  GRAD.:     7.980 HEAT:  79.92716
 CYCLE:   192 TIME:   0.109 TIME LEFT:  2.00D  GRAD.:     2.712 HEAT:  79.91414
 CYCLE:   193 TIME:   0.137 TIME LEFT:  2.00D  GRAD.:     2.583 HEAT:  79.90978
 CYCLE:   194 TIME:   0.133 TIME LEFT:  2.00D  GRAD.:     2.988 HEAT:  79.90355
 CYCLE:   195 TIME:   0.145 TIME LEFT:  2.00D  GRAD.:     3.832 HEAT:  79.89300
 CYCLE:   196 TIME:   0.148 TIME LEFT:  2.00D  GRAD.:     6.022 HEAT:  79.88769
 CYCLE:   197 TIME:   0.137 TIME LEFT:  2.00D  GRAD.:     2.601 HEAT:  79.87945
 CYCLE:   198 TIME:   0.141 TIME LEFT:  2.00D  GRAD.:     2.509 HEAT:  79.87395
 CYCLE:   199 TIME:   0.137 TIME LEFT:  2.00D  GRAD.:     3.006 HEAT:  79.86839
 CYCLE:   200 TIME:   0.145 TIME LEFT:  2.00D  GRAD.:     6.275 HEAT:  79.85996
 CYCLE:   201 TIME:   0.145 TIME LEFT:  2.00D  GRAD.:     4.264 HEAT:  79.85242
 CYCLE:   202 TIME:   0.145 TIME LEFT:  2.00D  GRAD.:     2.238 HEAT:  79.84843
 CYCLE:   203 TIME:   0.133 TIME LEFT:  2.00D  GRAD.:     2.299 HEAT:  79.84615
 CYCLE:   204 TIME:   0.137 TIME LEFT:  2.00D  GRAD.:     2.578 HEAT:  79.84201
 CYCLE:   205 TIME:   0.137 TIME LEFT:  2.00D  GRAD.:     5.011 HEAT:  79.83756
 CYCLE:   206 TIME:   0.129 TIME LEFT:  2.00D  GRAD.:     2.031 HEAT:  79.83133
 CYCLE:   207 TIME:   0.141 TIME LEFT:  2.00D  GRAD.:     1.876 HEAT:  79.82868
 CYCLE:   208 TIME:   0.145 TIME LEFT:  2.00D  GRAD.:     2.151 HEAT:  79.82218
 CYCLE:   209 TIME:   0.137 TIME LEFT:  2.00D  GRAD.:     7.076 HEAT:  79.82168
 CYCLE:   210 TIME:   0.133 TIME LEFT:  2.00D  GRAD.:     2.274 HEAT:  79.81354
 CYCLE:   211 TIME:   0.102 TIME LEFT:  2.00D  GRAD.:     1.809 HEAT:  79.81083
 CYCLE:   212 TIME:   0.133 TIME LEFT:  2.00D  GRAD.:     3.359 HEAT:  79.80506
 CYCLE:   213 TIME:   0.137 TIME LEFT:  2.00D  GRAD.:     4.318 HEAT:  79.79996
 CYCLE:   214 TIME:   0.137 TIME LEFT:  2.00D  GRAD.:     3.031 HEAT:  79.79426
 CYCLE:   215 TIME:   0.105 TIME LEFT:  2.00D  GRAD.:     2.975 HEAT:  79.78737
 CYCLE:   216 TIME:   0.105 TIME LEFT:  2.00D  GRAD.:     4.377 HEAT:  79.78483
 CYCLE:   217 TIME:   0.117 TIME LEFT:  2.00D  GRAD.:     2.631 HEAT:  79.78179
 CYCLE:   218 TIME:   0.145 TIME LEFT:  2.00D  GRAD.:     2.223 HEAT:  79.77656
 CYCLE:   219 TIME:   0.145 TIME LEFT:  2.00D  GRAD.:     2.474 HEAT:  79.77325
 CYCLE:   220 TIME:   0.152 TIME LEFT:  2.00D  GRAD.:     3.689 HEAT:  79.76674
 CYCLE:   221 TIME:   0.152 TIME LEFT:  2.00D  GRAD.:     4.932 HEAT:  79.76287
 CYCLE:   222 TIME:   0.160 TIME LEFT:  2.00D  GRAD.:     1.870 HEAT:  79.75738
 CYCLE:   223 TIME:   0.168 TIME LEFT:  2.00D  GRAD.:     1.894 HEAT:  79.75456
 CYCLE:   224 TIME:   0.156 TIME LEFT:  2.00D  GRAD.:     2.661 HEAT:  79.74962
 CYCLE:   225 TIME:   0.152 TIME LEFT:  2.00D  GRAD.:     4.015 HEAT:  79.74194
 CYCLE:   226 TIME:   0.148 TIME LEFT:  2.00D  GRAD.:     5.749 HEAT:  79.73572
 CYCLE:   227 TIME:   0.168 TIME LEFT:  2.00D  GRAD.:     3.184 HEAT:  79.72910
 CYCLE:   228 TIME:   0.156 TIME LEFT:  2.00D  GRAD.:     2.880 HEAT:  79.72443
 CYCLE:   229 TIME:   0.168 TIME LEFT:  2.00D  GRAD.:     2.941 HEAT:  79.71913
 CYCLE:   230 TIME:   0.148 TIME LEFT:  2.00D  GRAD.:     3.946 HEAT:  79.71210
 CYCLE:   231 TIME:   0.145 TIME LEFT:  2.00D  GRAD.:     4.430 HEAT:  79.70714
 CYCLE:   232 TIME:   0.141 TIME LEFT:  2.00D  GRAD.:     2.362 HEAT:  79.70371
 CYCLE:   233 TIME:   0.141 TIME LEFT:  2.00D  GRAD.:     2.135 HEAT:  79.70204
 CYCLE:   234 TIME:   0.148 TIME LEFT:  2.00D  GRAD.:     2.081 HEAT:  79.69820
 CYCLE:   235 TIME:   0.160 TIME LEFT:  2.00D  GRAD.:     6.602 HEAT:  79.69690
 CYCLE:   236 TIME:   0.121 TIME LEFT:  2.00D  GRAD.:     1.971 HEAT:  79.69006
 CYCLE:   237 TIME:   0.117 TIME LEFT:  2.00D  GRAD.:     1.353 HEAT:  79.68821
 CYCLE:   238 TIME:   0.141 TIME LEFT:  2.00D  GRAD.:     1.595 HEAT:  79.68584
 CYCLE:   239 TIME:   0.160 TIME LEFT:  2.00D  GRAD.:     2.634 HEAT:  79.68263
 CYCLE:   240 TIME:   0.145 TIME LEFT:  2.00D  GRAD.:     2.351 HEAT:  79.67912
 CYCLE:   241 TIME:   0.145 TIME LEFT:  2.00D  GRAD.:     2.343 HEAT:  79.67648
 CYCLE:   242 TIME:   0.137 TIME LEFT:  2.00D  GRAD.:     2.071 HEAT:  79.67385
 CYCLE:   243 TIME:   0.145 TIME LEFT:  2.00D  GRAD.:     2.303 HEAT:  79.67087
 CYCLE:   244 TIME:   0.145 TIME LEFT:  2.00D  GRAD.:     2.673 HEAT:  79.66708
 CYCLE:   245 TIME:   0.145 TIME LEFT:  2.00D  GRAD.:     1.667 HEAT:  79.66391
 CYCLE:   246 TIME:   0.152 TIME LEFT:  2.00D  GRAD.:     2.308 HEAT:  79.66123
 CYCLE:   247 TIME:   0.141 TIME LEFT:  2.00D  GRAD.:     3.994 HEAT:  79.65996
 CYCLE:   248 TIME:   0.133 TIME LEFT:  2.00D  GRAD.:     2.007 HEAT:  79.65802
 CYCLE:   249 TIME:   0.145 TIME LEFT:  2.00D  GRAD.:     1.392 HEAT:  79.65589
 CYCLE:   250 TIME:   0.145 TIME LEFT:  2.00D  GRAD.:     1.557 HEAT:  79.65474
 CYCLE:   251 TIME:   0.148 TIME LEFT:  2.00D  GRAD.:     2.177 HEAT:  79.65141
 CYCLE:   252 TIME:   0.148 TIME LEFT:  2.00D  GRAD.:     3.277 HEAT:  79.64934
 CYCLE:   253 TIME:   0.141 TIME LEFT:  2.00D  GRAD.:     1.412 HEAT:  79.64637
 CYCLE:   254 TIME:   0.145 TIME LEFT:  2.00D  GRAD.:     1.365 HEAT:  79.64498
 CYCLE:   255 TIME:   0.145 TIME LEFT:  2.00D  GRAD.:     1.738 HEAT:  79.64291
 CYCLE:   256 TIME:   0.152 TIME LEFT:  2.00D  GRAD.:     4.577 HEAT:  79.64253
 CYCLE:   257 TIME:   0.129 TIME LEFT:  2.00D  GRAD.:     1.458 HEAT:  79.63992
 CYCLE:   258 TIME:   0.145 TIME LEFT:  2.00D  GRAD.:     1.147 HEAT:  79.63894
 CYCLE:   259 TIME:   0.145 TIME LEFT:  2.00D  GRAD.:     1.488 HEAT:  79.63778
 CYCLE:   260 TIME:   0.129 TIME LEFT:  2.00D  GRAD.:     1.618 HEAT:  79.63580
 CYCLE:   261 TIME:   0.184 TIME LEFT:  2.00D  GRAD.:     5.939 HEAT:  79.63626
 CYCLE:   262 TIME:   0.152 TIME LEFT:  2.00D  GRAD.:     1.563 HEAT:  79.63163
 CYCLE:   263 TIME:   0.152 TIME LEFT:  2.00D  GRAD.:     1.019 HEAT:  79.63072
 CYCLE:   264 TIME:   0.125 TIME LEFT:  2.00D  GRAD.:     1.741 HEAT:  79.62921
 CYCLE:   265 TIME:   0.113 TIME LEFT:  2.00D  GRAD.:     1.533 HEAT:  79.62745
 CYCLE:   266 TIME:   0.145 TIME LEFT:  2.00D  GRAD.:     1.413 HEAT:  79.62546
 CYCLE:   267 TIME:   0.109 TIME LEFT:  2.00D  GRAD.:     3.677 HEAT:  79.62368
 CYCLE:   268 TIME:   0.133 TIME LEFT:  2.00D  GRAD.:     1.378 HEAT:  79.62083
 CYCLE:   269 TIME:   0.105 TIME LEFT:  2.00D  GRAD.:     1.130 HEAT:  79.61937
 CYCLE:   270 TIME:   0.152 TIME LEFT:  2.00D  GRAD.:     1.442 HEAT:  79.61764
 CYCLE:   271 TIME:   0.137 TIME LEFT:  2.00D  GRAD.:     2.775 HEAT:  79.61505
 CYCLE:   272 TIME:   0.152 TIME LEFT:  2.00D  GRAD.:     2.216 HEAT:  79.61164
 CYCLE:   273 TIME:   0.172 TIME LEFT:  2.00D  GRAD.:     2.165 HEAT:  79.60837
 CYCLE:   274 TIME:   0.160 TIME LEFT:  2.00D  GRAD.:     2.196 HEAT:  79.60562
 CYCLE:   275 TIME:   0.141 TIME LEFT:  2.00D  GRAD.:     1.623 HEAT:  79.60357
 CYCLE:   276 TIME:   0.152 TIME LEFT:  2.00D  GRAD.:     1.685 HEAT:  79.60044
 CYCLE:   277 TIME:   0.156 TIME LEFT:  2.00D  GRAD.:     2.908 HEAT:  79.59759
 CYCLE:   278 TIME:   0.148 TIME LEFT:  2.00D  GRAD.:     2.503 HEAT:  79.59522
 CYCLE:   279 TIME:   0.148 TIME LEFT:  2.00D  GRAD.:     1.690 HEAT:  79.59314
 CYCLE:   280 TIME:   0.152 TIME LEFT:  2.00D  GRAD.:     1.629 HEAT:  79.59093
 CYCLE:   281 TIME:   0.160 TIME LEFT:  2.00D  GRAD.:     2.534 HEAT:  79.58800
 CYCLE:   282 TIME:   0.145 TIME LEFT:  2.00D  GRAD.:     1.855 HEAT:  79.58530
 CYCLE:   283 TIME:   0.145 TIME LEFT:  2.00D  GRAD.:     1.465 HEAT:  79.58339
 CYCLE:   284 TIME:   0.160 TIME LEFT:  2.00D  GRAD.:     1.878 HEAT:  79.58060
 CYCLE:   285 TIME:   0.152 TIME LEFT:  2.00D  GRAD.:     2.554 HEAT:  79.57863
 CYCLE:   286 TIME:   0.141 TIME LEFT:  2.00D  GRAD.:     1.480 HEAT:  79.57674
 CYCLE:   287 TIME:   0.133 TIME LEFT:  2.00D  GRAD.:     1.209 HEAT:  79.57500
 CYCLE:   288 TIME:   0.109 TIME LEFT:  2.00D  GRAD.:     1.363 HEAT:  79.57403
 CYCLE:   289 TIME:   0.117 TIME LEFT:  2.00D  GRAD.:     1.365 HEAT:  79.57264
 CYCLE:   290 TIME:   0.117 TIME LEFT:  2.00D  GRAD.:     1.668 HEAT:  79.57149
 CYCLE:   291 TIME:   0.125 TIME LEFT:  2.00D  GRAD.:     1.061 HEAT:  79.57045
 CYCLE:   292 TIME:   0.133 TIME LEFT:  2.00D  GRAD.:     1.113 HEAT:  79.56946
 CYCLE:   293 TIME:   0.199 TIME LEFT:  2.00D  GRAD.:     2.677 HEAT:  79.56860
 CYCLE:   294 TIME:   0.113 TIME LEFT:  2.00D  GRAD.:     1.331 HEAT:  79.56745
 CYCLE:   295 TIME:   0.145 TIME LEFT:  2.00D  GRAD.:     1.152 HEAT:  79.56668
 CYCLE:   296 TIME:   0.129 TIME LEFT:  2.00D  GRAD.:     1.293 HEAT:  79.56548
 CYCLE:   297 TIME:   0.152 TIME LEFT:  2.00D  GRAD.:     1.987 HEAT:  79.56403
 CYCLE:   298 TIME:   0.133 TIME LEFT:  2.00D  GRAD.:     1.508 HEAT:  79.56238
 CYCLE:   299 TIME:   0.117 TIME LEFT:  2.00D  GRAD.:     2.015 HEAT:  79.56093
 CYCLE:   300 TIME:   0.137 TIME LEFT:  2.00D  GRAD.:     1.572 HEAT:  79.55951
 CYCLE:   301 TIME:   0.129 TIME LEFT:  2.00D  GRAD.:     0.922 HEAT:  79.55807
 CYCLE:   302 TIME:   0.137 TIME LEFT:  2.00D  GRAD.:     1.139 HEAT:  79.55718
 CYCLE:   303 TIME:   0.180 TIME LEFT:  2.00D  GRAD.:     1.319 HEAT:  79.55611
 CYCLE:   304 TIME:   0.230 TIME LEFT:  2.00D  GRAD.:     1.090 HEAT:  79.55498
 CYCLE:   305 TIME:   0.219 TIME LEFT:  2.00D  GRAD.:     1.126 HEAT:  79.55392
 CYCLE:   306 TIME:   0.434 TIME LEFT:  2.00D  GRAD.:     1.143 HEAT:  79.55313
 CYCLE:   307 TIME:   0.457 TIME LEFT:  2.00D  GRAD.:     0.964 HEAT:  79.55234
 CYCLE:   308 TIME:   0.348 TIME LEFT:  2.00D  GRAD.:     2.598 HEAT:  79.55159
 CYCLE:   309 TIME:   0.113 TIME LEFT:  2.00D  GRAD.:     1.055 HEAT:  79.55076
 CYCLE:   310 TIME:   0.113 TIME LEFT:  2.00D  GRAD.:     1.022 HEAT:  79.55034
 CYCLE:   311 TIME:   0.109 TIME LEFT:  2.00D  GRAD.:     1.609 HEAT:  79.54905
 CYCLE:   312 TIME:   0.133 TIME LEFT:  2.00D  GRAD.:     1.545 HEAT:  79.54777
 CYCLE:   313 TIME:   0.133 TIME LEFT:  2.00D  GRAD.:     3.983 HEAT:  79.54756
 CYCLE:   314 TIME:   0.094 TIME LEFT:  2.00D  GRAD.:     1.275 HEAT:  79.54519
 CYCLE:   315 TIME:   0.098 TIME LEFT:  2.00D  GRAD.:     0.819 HEAT:  79.54433
 CYCLE:   316 TIME:   0.129 TIME LEFT:  2.00D  GRAD.:     1.169 HEAT:  79.54312
 CYCLE:   317 TIME:   0.145 TIME LEFT:  2.00D  GRAD.:     2.604 HEAT:  79.54281
 CYCLE:   318 TIME:   0.125 TIME LEFT:  2.00D  GRAD.:     0.945 HEAT:  79.54195
 CYCLE:   319 TIME:   0.125 TIME LEFT:  2.00D  GRAD.:     0.603 HEAT:  79.54158
 CYCLE:   320 TIME:   0.125 TIME LEFT:  2.00D  GRAD.:     0.981 HEAT:  79.54111
 CYCLE:   321 TIME:   0.121 TIME LEFT:  2.00D  GRAD.:     0.996 HEAT:  79.54054
 CYCLE:   322 TIME:   0.125 TIME LEFT:  2.00D  GRAD.:     2.846 HEAT:  79.54013
 CYCLE:   323 TIME:   0.105 TIME LEFT:  2.00D  GRAD.:     1.240 HEAT:  79.53880
 CYCLE:   324 TIME:   0.098 TIME LEFT:  2.00D  GRAD.:     0.739 HEAT:  79.53843
 CYCLE:   325 TIME:   0.105 TIME LEFT:  2.00D  GRAD.:     0.870 HEAT:  79.53802
 CYCLE:   326 TIME:   0.109 TIME LEFT:  2.00D  GRAD.:     1.214 HEAT:  79.53712
 CYCLE:   327 TIME:   0.133 TIME LEFT:  2.00D  GRAD.:     2.461 HEAT:  79.53661
 CYCLE:   328 TIME:   0.109 TIME LEFT:  2.00D  GRAD.:     1.028 HEAT:  79.53542
 CYCLE:   329 TIME:   0.105 TIME LEFT:  2.00D  GRAD.:     0.780 HEAT:  79.53476
 CYCLE:   330 TIME:   0.102 TIME LEFT:  2.00D  GRAD.:     1.044 HEAT:  79.53382
 CYCLE:   331 TIME:   0.125 TIME LEFT:  2.00D  GRAD.:     1.697 HEAT:  79.53241
 CYCLE:   332 TIME:   0.109 TIME LEFT:  2.00D  GRAD.:     1.635 HEAT:  79.53103
 CYCLE:   333 TIME:   0.109 TIME LEFT:  2.00D  GRAD.:     1.720 HEAT:  79.52971
 CYCLE:   334 TIME:   0.137 TIME LEFT:  2.00D  GRAD.:     1.303 HEAT:  79.52833
 CYCLE:   335 TIME:   0.133 TIME LEFT:  2.00D  GRAD.:     1.532 HEAT:  79.52674
 CYCLE:   336 TIME:   0.109 TIME LEFT:  2.00D  GRAD.:     2.006 HEAT:  79.52427
 CYCLE:   337 TIME:   0.141 TIME LEFT:  2.00D  GRAD.:     2.003 HEAT:  79.52201
 CYCLE:   338 TIME:   0.117 TIME LEFT:  2.00D  GRAD.:     1.935 HEAT:  79.51977
 CYCLE:   339 TIME:   0.145 TIME LEFT:  2.00D  GRAD.:     4.820 HEAT:  79.51985
 CYCLE:   340 TIME:   0.133 TIME LEFT:  2.00D  GRAD.:     1.913 HEAT:  79.51727
 CYCLE:   341 TIME:   0.125 TIME LEFT:  2.00D  GRAD.:     1.162 HEAT:  79.51633
 CYCLE:   342 TIME:   0.133 TIME LEFT:  2.00D  GRAD.:     1.865 HEAT:  79.51491
 CYCLE:   343 TIME:   0.121 TIME LEFT:  2.00D  GRAD.:     2.001 HEAT:  79.51334
 CYCLE:   344 TIME:   0.141 TIME LEFT:  2.00D  GRAD.:     1.592 HEAT:  79.51097
 CYCLE:   345 TIME:   0.117 TIME LEFT:  2.00D  GRAD.:     4.247 HEAT:  79.51085
 CYCLE:   346 TIME:   0.102 TIME LEFT:  2.00D  GRAD.:     1.545 HEAT:  79.50820
 CYCLE:   347 TIME:   0.102 TIME LEFT:  2.00D  GRAD.:     1.275 HEAT:  79.50724
 CYCLE:   348 TIME:   0.141 TIME LEFT:  2.00D  GRAD.:     1.680 HEAT:  79.50563
 CYCLE:   349 TIME:   0.145 TIME LEFT:  2.00D  GRAD.:     1.918 HEAT:  79.50329
 CYCLE:   350 TIME:   0.148 TIME LEFT:  2.00D  GRAD.:     2.467 HEAT:  79.50030
 CYCLE:   351 TIME:   0.137 TIME LEFT:  2.00D  GRAD.:     1.990 HEAT:  79.49745
 CYCLE:   352 TIME:   0.152 TIME LEFT:  2.00D  GRAD.:     2.052 HEAT:  79.49481
 CYCLE:   353 TIME:   0.121 TIME LEFT:  2.00D  GRAD.:     3.492 HEAT:  79.49224
 CYCLE:   354 TIME:   0.121 TIME LEFT:  2.00D  GRAD.:     1.716 HEAT:  79.48928
 CYCLE:   355 TIME:   0.145 TIME LEFT:  2.00D  GRAD.:     1.277 HEAT:  79.48821
 CYCLE:   356 TIME:   0.113 TIME LEFT:  2.00D  GRAD.:     1.547 HEAT:  79.48622
 CYCLE:   357 TIME:   0.125 TIME LEFT:  2.00D  GRAD.:     3.516 HEAT:  79.48595
 CYCLE:   358 TIME:   0.098 TIME LEFT:  2.00D  GRAD.:     1.352 HEAT:  79.48495
 CYCLE:   359 TIME:   0.117 TIME LEFT:  2.00D  GRAD.:     0.929 HEAT:  79.48441
 CYCLE:   360 TIME:   0.145 TIME LEFT:  2.00D  GRAD.:     1.382 HEAT:  79.48376
 CYCLE:   361 TIME:   0.152 TIME LEFT:  2.00D  GRAD.:     1.360 HEAT:  79.48299
 CYCLE:   362 TIME:   0.145 TIME LEFT:  2.00D  GRAD.:     1.887 HEAT:  79.48222
 CYCLE:   363 TIME:   0.141 TIME LEFT:  2.00D  GRAD.:     0.924 HEAT:  79.48119
 CYCLE:   364 TIME:   0.145 TIME LEFT:  2.00D  GRAD.:     1.076 HEAT:  79.48049
 CYCLE:   365 TIME:   0.133 TIME LEFT:  2.00D  GRAD.:     1.131 HEAT:  79.47973
 CYCLE:   366 TIME:   0.145 TIME LEFT:  2.00D  GRAD.:     2.633 HEAT:  79.47917
 CYCLE:   367 TIME:   0.129 TIME LEFT:  2.00D  GRAD.:     0.933 HEAT:  79.47787
 CYCLE:   368 TIME:   0.137 TIME LEFT:  2.00D  GRAD.:     0.788 HEAT:  79.47732
 CYCLE:   369 TIME:   0.137 TIME LEFT:  2.00D  GRAD.:     0.925 HEAT:  79.47671
 CYCLE:   370 TIME:   0.137 TIME LEFT:  2.00D  GRAD.:     1.654 HEAT:  79.47603
 CYCLE:   371 TIME:   0.137 TIME LEFT:  2.00D  GRAD.:     0.814 HEAT:  79.47527
 CYCLE:   372 TIME:   0.137 TIME LEFT:  2.00D  GRAD.:     0.714 HEAT:  79.47487
 CYCLE:   373 TIME:   0.105 TIME LEFT:  2.00D  GRAD.:     1.449 HEAT:  79.47461
 CYCLE:   374 TIME:   0.113 TIME LEFT:  2.00D  GRAD.:     0.771 HEAT:  79.47432
 CYCLE:   375 TIME:   0.098 TIME LEFT:  2.00D  GRAD.:     0.774 HEAT:  79.47394
 CYCLE:   376 TIME:   0.117 TIME LEFT:  2.00D  GRAD.:     0.921 HEAT:  79.47363
 CYCLE:   377 TIME:   0.098 TIME LEFT:  2.00D  GRAD.:     0.861 HEAT:  79.47317
 CYCLE:   378 TIME:   0.133 TIME LEFT:  2.00D  GRAD.:     1.907 HEAT:  79.47295
 CYCLE:   379 TIME:   0.129 TIME LEFT:  2.00D  GRAD.:     0.610 HEAT:  79.47237
 CYCLE:   380 TIME:   0.102 TIME LEFT:  2.00D  GRAD.:     0.682 HEAT:  79.47214
 CYCLE:   381 TIME:   0.109 TIME LEFT:  2.00D  GRAD.:     0.952 HEAT:  79.47160
 CYCLE:   382 TIME:   0.121 TIME LEFT:  2.00D  GRAD.:     1.844 HEAT:  79.47121
 CYCLE:   383 TIME:   0.125 TIME LEFT:  2.00D  GRAD.:     0.917 HEAT:  79.47056
 CYCLE:   384 TIME:   0.137 TIME LEFT:  2.00D  GRAD.:     0.563 HEAT:  79.47009
 CYCLE:   385 TIME:   0.102 TIME LEFT:  2.00D  GRAD.:     0.624 HEAT:  79.46982
 CYCLE:   386 TIME:   0.102 TIME LEFT:  2.00D  GRAD.:     0.733 HEAT:  79.46934
 CYCLE:   387 TIME:   0.109 TIME LEFT:  2.00D  GRAD.:     2.490 HEAT:  79.46965
 CYCLE:   388 TIME:   0.102 TIME LEFT:  2.00D  GRAD.:     0.602 HEAT:  79.46871
 CYCLE:   389 TIME:   0.129 TIME LEFT:  2.00D  GRAD.:     0.469 HEAT:  79.46853
 CYCLE:   390 TIME:   0.102 TIME LEFT:  2.00D  GRAD.:     0.862 HEAT:  79.46812
 CYCLE:   391 TIME:   0.105 TIME LEFT:  2.00D  GRAD.:     1.430 HEAT:  79.46793
 CYCLE:   392 TIME:   0.133 TIME LEFT:  2.00D  GRAD.:     0.740 HEAT:  79.46760
 CYCLE:   393 TIME:   0.113 TIME LEFT:  2.00D  GRAD.:     0.627 HEAT:  79.46726
 CYCLE:   394 TIME:   0.133 TIME LEFT:  2.00D  GRAD.:     0.620 HEAT:  79.46702
 CYCLE:   395 TIME:   0.148 TIME LEFT:  2.00D  GRAD.:     0.765 HEAT:  79.46646
 CYCLE:   396 TIME:   0.117 TIME LEFT:  2.00D  GRAD.:     1.771 HEAT:  79.46636
 CYCLE:   397 TIME:   0.125 TIME LEFT:  2.00D  GRAD.:     0.665 HEAT:  79.46575
 CYCLE:   398 TIME:   0.133 TIME LEFT:  2.00D  GRAD.:     0.501 HEAT:  79.46553
 CYCLE:   399 TIME:   0.148 TIME LEFT:  2.00D  GRAD.:     0.774 HEAT:  79.46522
 CYCLE:   400 TIME:   0.145 TIME LEFT:  2.00D  GRAD.:     1.276 HEAT:  79.46506
 CYCLE:   401 TIME:   0.125 TIME LEFT:  2.00D  GRAD.:     0.520 HEAT:  79.46485
 CYCLE:   402 TIME:   0.133 TIME LEFT:  2.00D  GRAD.:     0.349 HEAT:  79.46473
 CYCLE:   403 TIME:   0.133 TIME LEFT:  2.00D  GRAD.:     0.416 HEAT:  79.46463
 CYCLE:   404 TIME:   0.137 TIME LEFT:  2.00D  GRAD.:     0.544 HEAT:  79.46441
 CYCLE:   405 TIME:   0.129 TIME LEFT:  2.00D  GRAD.:     2.585 HEAT:  79.46485
 CYCLE:   406 TIME:   0.125 TIME LEFT:  2.00D  GRAD.:     0.361 HEAT:  79.46424
 CYCLE:   407 TIME:   0.105 TIME LEFT:  2.00D  GRAD.:     0.270 HEAT:  79.46420
 CYCLE:   408 TIME:   0.121 TIME LEFT:  2.00D  GRAD.:     0.296 HEAT:  79.46413
 CYCLE:   409 TIME:   0.098 TIME LEFT:  2.00D  GRAD.:     0.343 HEAT:  79.46404
 CYCLE:   410 TIME:   0.105 TIME LEFT:  2.00D  GRAD.:     1.071 HEAT:  79.46404
 CYCLE:   411 TIME:   0.094 TIME LEFT:  2.00D  GRAD.:     0.285 HEAT:  79.46387
 CYCLE:   412 TIME:   0.090 TIME LEFT:  2.00D  GRAD.:     0.205 HEAT:  79.46383
 CYCLE:   413 TIME:   0.090 TIME LEFT:  2.00D  GRAD.:     0.287 HEAT:  79.46376
 CYCLE:   414 TIME:   0.094 TIME LEFT:  2.00D  GRAD.:     0.731 HEAT:  79.46372
 CYCLE:   415 TIME:   0.094 TIME LEFT:  2.00D  GRAD.:     0.376 HEAT:  79.46364
 CYCLE:   416 TIME:   0.105 TIME LEFT:  2.00D  GRAD.:     0.280 HEAT:  79.46355
 CYCLE:   417 TIME:   0.105 TIME LEFT:  2.00D  GRAD.:     0.345 HEAT:  79.46349
 CYCLE:   418 TIME:   0.164 TIME LEFT:  2.00D  GRAD.:     0.447 HEAT:  79.46335
 CYCLE:   419 TIME:   0.152 TIME LEFT:  2.00D  GRAD.:     1.063 HEAT:  79.46335
 CYCLE:   420 TIME:   0.234 TIME LEFT:  2.00D  GRAD.:     0.372 HEAT:  79.46319
 CYCLE:   421 TIME:   0.340 TIME LEFT:  2.00D  GRAD.:     0.221 HEAT:  79.46315
 CYCLE:   422 TIME:   0.273 TIME LEFT:  2.00D  GRAD.:     0.283 HEAT:  79.46310
 CYCLE:   423 TIME:   0.215 TIME LEFT:  2.00D  GRAD.:     0.369 HEAT:  79.46302
 CYCLE:   424 TIME:   0.137 TIME LEFT:  2.00D  GRAD.:     0.599 HEAT:  79.46294
 CYCLE:   425 TIME:   0.121 TIME LEFT:  2.00D  GRAD.:     0.334 HEAT:  79.46284
 CYCLE:   426 TIME:   0.102 TIME LEFT:  2.00D  GRAD.:     0.287 HEAT:  79.46278
 CYCLE:   427 TIME:   0.125 TIME LEFT:  2.00D  GRAD.:     0.356 HEAT:  79.46268
 CYCLE:   428 TIME:   0.121 TIME LEFT:  2.00D  GRAD.:     0.432 HEAT:  79.46259
 CYCLE:   429 TIME:   0.113 TIME LEFT:  2.00D  GRAD.:     0.352 HEAT:  79.46248
 CYCLE:   430 TIME:   0.113 TIME LEFT:  2.00D  GRAD.:     0.348 HEAT:  79.46237
 CYCLE:   431 TIME:   0.117 TIME LEFT:  2.00D  GRAD.:     0.401 HEAT:  79.46227
 CYCLE:   432 TIME:   0.113 TIME LEFT:  2.00D  GRAD.:     0.491 HEAT:  79.46219
 CYCLE:   433 TIME:   0.102 TIME LEFT:  2.00D  GRAD.:     0.311 HEAT:  79.46211
 CYCLE:   434 TIME:   0.113 TIME LEFT:  2.00D  GRAD.:     0.268 HEAT:  79.46204
 CYCLE:   435 TIME:   0.102 TIME LEFT:  2.00D  GRAD.:     0.494 HEAT:  79.46196
 CYCLE:   436 TIME:   0.102 TIME LEFT:  2.00D  GRAD.:     0.384 HEAT:  79.46186
 CYCLE:   437 TIME:   0.105 TIME LEFT:  2.00D  GRAD.:     0.549 HEAT:  79.46172
 CYCLE:   438 TIME:   0.113 TIME LEFT:  2.00D  GRAD.:     0.461 HEAT:  79.46159
 CYCLE:   439 TIME:   0.105 TIME LEFT:  2.00D  GRAD.:     0.329 HEAT:  79.46150
 CYCLE:   440 TIME:   0.109 TIME LEFT:  2.00D  GRAD.:     0.285 HEAT:  79.46139
 CYCLE:   441 TIME:   0.113 TIME LEFT:  2.00D  GRAD.:     0.659 HEAT:  79.46131
 CYCLE:   442 TIME:   0.113 TIME LEFT:  2.00D  GRAD.:     0.357 HEAT:  79.46121
 CYCLE:   443 TIME:   0.133 TIME LEFT:  2.00D  GRAD.:     0.283 HEAT:  79.46112
 CYCLE:   444 TIME:   0.121 TIME LEFT:  2.00D  GRAD.:     0.322 HEAT:  79.46104
 CYCLE:   445 TIME:   0.117 TIME LEFT:  2.00D  GRAD.:     0.733 HEAT:  79.46096
 CYCLE:   446 TIME:   0.121 TIME LEFT:  2.00D  GRAD.:     0.320 HEAT:  79.46085
 CYCLE:   447 TIME:   0.113 TIME LEFT:  2.00D  GRAD.:     0.276 HEAT:  79.46078
 CYCLE:   448 TIME:   0.117 TIME LEFT:  2.00D  GRAD.:     0.391 HEAT:  79.46071
 CYCLE:   449 TIME:   0.121 TIME LEFT:  2.00D  GRAD.:     0.452 HEAT:  79.46064
 CYCLE:   450 TIME:   0.137 TIME LEFT:  2.00D  GRAD.:     0.296 HEAT:  79.46058
 CYCLE:   451 TIME:   0.137 TIME LEFT:  2.00D  GRAD.:     0.283 HEAT:  79.46050
 CYCLE:   452 TIME:   0.141 TIME LEFT:  2.00D  GRAD.:     0.469 HEAT:  79.46045
 CYCLE:   453 TIME:   0.137 TIME LEFT:  2.00D  GRAD.:     0.310 HEAT:  79.46037
 CYCLE:   454 TIME:   0.145 TIME LEFT:  2.00D  GRAD.:     0.305 HEAT:  79.46026
 CYCLE:   455 TIME:   0.117 TIME LEFT:  2.00D  GRAD.:     0.378 HEAT:  79.46017
 CYCLE:   456 TIME:   0.117 TIME LEFT:  2.00D  GRAD.:     0.630 HEAT:  79.46009
 CYCLE:   457 TIME:   0.113 TIME LEFT:  2.00D  GRAD.:     0.365 HEAT:  79.45997
 CYCLE:   458 TIME:   0.117 TIME LEFT:  2.00D  GRAD.:     0.293 HEAT:  79.45990
 CYCLE:   459 TIME:   0.113 TIME LEFT:  2.00D  GRAD.:     0.316 HEAT:  79.45981
 CYCLE:   460 TIME:   0.113 TIME LEFT:  2.00D  GRAD.:     0.729 HEAT:  79.45977
 CYCLE:   461 TIME:   0.113 TIME LEFT:  2.00D  GRAD.:     0.247 HEAT:  79.45966
 CYCLE:   462 TIME:   0.109 TIME LEFT:  2.00D  GRAD.:     0.246 HEAT:  79.45960
 CYCLE:   463 TIME:   0.152 TIME LEFT:  2.00D  GRAD.:     0.303 HEAT:  79.45952
 CYCLE:   464 TIME:   0.152 TIME LEFT:  2.00D  GRAD.:     1.129 HEAT:  79.45953
 CYCLE:   465 TIME:   0.129 TIME LEFT:  2.00D  GRAD.:     0.304 HEAT:  79.45939
 CYCLE:   466 TIME:   0.121 TIME LEFT:  2.00D  GRAD.:     0.214 HEAT:  79.45935
 CYCLE:   467 TIME:   0.102 TIME LEFT:  2.00D  GRAD.:     0.250 HEAT:  79.45930
 CYCLE:   468 TIME:   0.113 TIME LEFT:  2.00D  GRAD.:     0.328 HEAT:  79.45922
 CYCLE:   469 TIME:   0.105 TIME LEFT:  2.00D  GRAD.:     0.942 HEAT:  79.45923
 CYCLE:   470 TIME:   0.145 TIME LEFT:  2.00D  GRAD.:     0.254 HEAT:  79.45910
 CYCLE:   471 TIME:   0.113 TIME LEFT:  2.00D  GRAD.:     0.206 HEAT:  79.45907
 CYCLE:   472 TIME:   0.105 TIME LEFT:  2.00D  GRAD.:     0.328 HEAT:  79.45901
 CYCLE:   473 TIME:   0.105 TIME LEFT:  2.00D  GRAD.:     0.708 HEAT:  79.45896
 CYCLE:   474 TIME:   0.109 TIME LEFT:  2.00D  GRAD.:     0.358 HEAT:  79.45887
 CYCLE:   475 TIME:   0.105 TIME LEFT:  2.00D  GRAD.:     0.287 HEAT:  79.45881
 CYCLE:   476 TIME:   0.105 TIME LEFT:  2.00D  GRAD.:     0.297 HEAT:  79.45875
 CYCLE:   477 TIME:   0.121 TIME LEFT:  2.00D  GRAD.:     0.324 HEAT:  79.45866
 CYCLE:   478 TIME:   0.113 TIME LEFT:  2.00D  GRAD.:     0.716 HEAT:  79.45865
 CYCLE:   479 TIME:   0.113 TIME LEFT:  2.00D  GRAD.:     0.226 HEAT:  79.45856
 CYCLE:   480 TIME:   0.121 TIME LEFT:  2.00D  GRAD.:     0.204 HEAT:  79.45852
 CYCLE:   481 TIME:   0.098 TIME LEFT:  2.00D  GRAD.:     0.508 HEAT:  79.45847
 CYCLE:   482 TIME:   0.109 TIME LEFT:  2.00D  GRAD.:     0.262 HEAT:  79.45842
 CYCLE:   483 TIME:   0.121 TIME LEFT:  2.00D  GRAD.:     0.252 HEAT:  79.45838
 CYCLE:   484 TIME:   0.113 TIME LEFT:  2.00D  GRAD.:     0.851 HEAT:  79.45844
 CYCLE:   485 TIME:   0.113 TIME LEFT:  2.00D  GRAD.:     0.188 HEAT:  79.45830
 CYCLE:   486 TIME:   0.121 TIME LEFT:  2.00D  GRAD.:     0.146 HEAT:  79.45828
 CYCLE:   487 TIME:   0.145 TIME LEFT:  2.00D  GRAD.:     0.294 HEAT:  79.45823
 CYCLE:   488 TIME:   0.145 TIME LEFT:  2.00D  GRAD.:     0.282 HEAT:  79.45818
 CYCLE:   489 TIME:   0.148 TIME LEFT:  2.00D  GRAD.:     0.234 HEAT:  79.45816
 CYCLE:   490 TIME:   0.113 TIME LEFT:  2.00D  GRAD.:     0.180 HEAT:  79.45814
 CYCLE:   491 TIME:   0.109 TIME LEFT:  2.00D  GRAD.:     0.344 HEAT:  79.45811
 CYCLE:   492 TIME:   0.105 TIME LEFT:  2.00D  GRAD.:     0.268 HEAT:  79.45808
 CYCLE:   493 TIME:   0.098 TIME LEFT:  2.00D  GRAD.:     0.153 HEAT:  79.45807
 CYCLE:   494 TIME:   0.109 TIME LEFT:  2.00D  GRAD.:     0.146 HEAT:  79.45804
 CYCLE:   495 TIME:   0.117 TIME LEFT:  2.00D  GRAD.:     0.236 HEAT:  79.45801
 CYCLE:   496 TIME:   0.109 TIME LEFT:  2.00D  GRAD.:     0.310 HEAT:  79.45798
 CYCLE:   497 TIME:   0.113 TIME LEFT:  2.00D  GRAD.:     0.167 HEAT:  79.45795
 CYCLE:   498 TIME:   0.121 TIME LEFT:  2.00D  GRAD.:     0.195 HEAT:  79.45793
 CYCLE:   499 TIME:   0.117 TIME LEFT:  2.00D  GRAD.:     0.209 HEAT:  79.45791
 CYCLE:   500 TIME:   0.109 TIME LEFT:  2.00D  GRAD.:     0.300 HEAT:  79.45788
 CYCLE:   501 TIME:   0.109 TIME LEFT:  2.00D  GRAD.:     0.185 HEAT:  79.45785
 CYCLE:   502 TIME:   0.125 TIME LEFT:  2.00D  GRAD.:     0.133 HEAT:  79.45783
 CYCLE:   503 TIME:   0.133 TIME LEFT:  2.00D  GRAD.:     0.185 HEAT:  79.45779
 CYCLE:   504 TIME:   0.109 TIME LEFT:  2.00D  GRAD.:     0.262 HEAT:  79.45777
 CYCLE:   505 TIME:   0.102 TIME LEFT:  2.00D  GRAD.:     0.273 HEAT:  79.45775
 CYCLE:   506 TIME:   0.105 TIME LEFT:  2.00D  GRAD.:     0.170 HEAT:  79.45772
 CYCLE:   507 TIME:   0.109 TIME LEFT:  2.00D  GRAD.:     0.189 HEAT:  79.45769
 CYCLE:   508 TIME:   0.102 TIME LEFT:  2.00D  GRAD.:     0.329 HEAT:  79.45768
 CYCLE:   509 TIME:   0.102 TIME LEFT:  2.00D  GRAD.:     0.231 HEAT:  79.45765
 CYCLE:   510 TIME:   0.109 TIME LEFT:  2.00D  GRAD.:     0.137 HEAT:  79.45763
 CYCLE:   511 TIME:   0.105 TIME LEFT:  2.00D  GRAD.:     0.273 HEAT:  79.45761
 CYCLE:   512 TIME:   0.129 TIME LEFT:  2.00D  GRAD.:     0.189 HEAT:  79.45760
 CYCLE:   513 TIME:   0.109 TIME LEFT:  2.00D  GRAD.:     0.218 HEAT:  79.45758
 CYCLE:   514 TIME:   0.113 TIME LEFT:  2.00D  GRAD.:     0.161 HEAT:  79.45756
 CYCLE:   515 TIME:   0.105 TIME LEFT:  2.00D  GRAD.:     0.259 HEAT:  79.45755
 CYCLE:   516 TIME:   0.137 TIME LEFT:  2.00D  GRAD.:     0.164 HEAT:  79.45753
 CYCLE:   517 TIME:   0.133 TIME LEFT:  2.00D  GRAD.:     0.131 HEAT:  79.45752
 CYCLE:   518 TIME:   0.137 TIME LEFT:  2.00D  GRAD.:     0.149 HEAT:  79.45751
 CYCLE:   519 TIME:   0.145 TIME LEFT:  2.00D  GRAD.:     0.134 HEAT:  79.45749
 CYCLE:   520 TIME:   0.137 TIME LEFT:  2.00D  GRAD.:     0.186 HEAT:  79.45746
 CYCLE:   521 TIME:   0.113 TIME LEFT:  2.00D  GRAD.:     0.217 HEAT:  79.45745
 CYCLE:   522 TIME:   0.117 TIME LEFT:  2.00D  GRAD.:     0.168 HEAT:  79.45743
 CYCLE:   523 TIME:   0.121 TIME LEFT:  2.00D  GRAD.:     0.160 HEAT:  79.45741
 CYCLE:   524 TIME:   0.125 TIME LEFT:  2.00D  GRAD.:     0.175 HEAT:  79.45740
 CYCLE:   525 TIME:   0.148 TIME LEFT:  2.00D  GRAD.:     0.162 HEAT:  79.45738
 CYCLE:   526 TIME:   0.125 TIME LEFT:  2.00D  GRAD.:     0.166 HEAT:  79.45736
 CYCLE:   527 TIME:   0.121 TIME LEFT:  2.00D  GRAD.:     0.261 HEAT:  79.45736
 CYCLE:   528 TIME:   0.125 TIME LEFT:  2.00D  GRAD.:     0.525 HEAT:  79.45736
 CYCLE:   529 TIME:   0.102 TIME LEFT:  2.00D  GRAD.:     0.131 HEAT:  79.45732
 CYCLE:   530 TIME:   0.152 TIME LEFT:  2.00D  GRAD.:     0.133 HEAT:  79.45732
 CYCLE:   531 TIME:   0.121 TIME LEFT:  2.00D  GRAD.:     0.418 HEAT:  79.45731
 CYCLE:   532 TIME:   0.105 TIME LEFT:  2.00D  GRAD.:     0.181 HEAT:  79.45729
 CYCLE:   533 TIME:   0.109 TIME LEFT:  2.00D  GRAD.:     0.119 HEAT:  79.45728
 CYCLE:   534 TIME:   0.109 TIME LEFT:  2.00D  GRAD.:     0.183 HEAT:  79.45726
 CYCLE:   535 TIME:   0.109 TIME LEFT:  2.00D  GRAD.:     0.191 HEAT:  79.45724
 CYCLE:   536 TIME:   0.125 TIME LEFT:  2.00D  GRAD.:     0.431 HEAT:  79.45723
 CYCLE:   537 TIME:   0.121 TIME LEFT:  2.00D  GRAD.:     0.127 HEAT:  79.45720
 CYCLE:   538 TIME:   0.125 TIME LEFT:  2.00D  GRAD.:     0.100 HEAT:  79.45719

 -------------------------------------------------------------------------------
 RM1 PRECISE POLAR XYZ GNORM=0.1




     HERBERTS TEST WAS SATISFIED IN BFGS                      
     SCF FIELD WAS ACHIEVED                                   


                              RM1 CALCULATION
                                                       MOPAC2016 (Version: 21.013L)
                                                       Mon Oct 18 10:58:13 2021
                                                       No. of days remaining =  87




          FINAL HEAT OF FORMATION =         79.45719 KCAL/MOL =     332.44890 KJ/MOL


          TOTAL ENERGY            =      -6337.97272 EV
          ELECTRONIC ENERGY       =     -59126.13103 EV  POINT GROUP:     C1  
          CORE-CORE REPULSION     =      52788.15831 EV
          COSMO AREA              =        566.30 SQUARE ANGSTROMS
          COSMO VOLUME            =        660.47 CUBIC ANGSTROMS

          GRADIENT NORM           =          0.09962 = 0.01199 PER ATOM
          IONIZATION POTENTIAL    =          8.005601 EV
          HOMO LUMO ENERGIES (EV) =         -8.006 -1.409
          NO. OF FILLED LEVELS    =        102
          MOLECULAR WEIGHT        =        565.6882

          MOLECULAR DIMENSIONS (Angstroms)

            Atom       Atom       Distance
            H    69    H    65    21.54758
            H    45    H    55     9.35699
            H    46    H    61     7.89100


          SCF CALCULATIONS        =        539
 
          WALL-CLOCK TIME         =  1 MINUTE AND 13.852 SECONDS
          COMPUTATION TIME        = 24 MINUTES AND 19.292 SECONDS




   ATOM   CHEMICAL          X               Y               Z
  NUMBER   SYMBOL      (ANGSTROMS)     (ANGSTROMS)     (ANGSTROMS)
 
     1       C          1.00862343  *  -0.70976027  *  -0.22378088  *
     2       C          2.48043488  *  -0.34282447  *  -0.12812643  *
     3       C          2.65111814  *   1.17176072  *  -0.06340056  *
     4       C          4.14092996  *   1.53015090  *   0.03390889  *
     5       N          4.34935824  *   2.97453001  *   0.09540107  *
     6       C          4.25006775  *   3.75776617  *   1.26609250  *
     7       C          4.27288196  *   3.36136158  *   2.59909971  *
     8       C          4.22934811  *   4.36757824  *   3.55971770  *
     9       C          4.16306287  *   5.72373555  *   3.20749172  *
    10       C          4.13370898  *   6.11149622  *   1.87699778  *
    11       C          4.17199760  *   5.13002979  *   0.90039419  *
    12       C          4.14759351  *   5.18381476  *  -0.53790795  *
    13       C          4.21266176  *   3.84295841  *  -1.00625352  *
    14       C          4.17905428  *   3.53830808  *  -2.36358142  *
    15       C          4.10864098  *   4.62093700  *  -3.24016954  *
    16       C          4.06297086  *   5.95457200  *  -2.79367663  *
    17       C          4.07616442  *   6.23521992  *  -1.43713086  *
    18       N          4.08044279  *   4.36789570  *  -4.63197450  *
    19       C          4.96289301  *   3.52317635  *  -5.33675501  *
    20       C          6.05629646  *   2.79714561  *  -4.87450941  *
    21       C          6.76083798  *   2.05374202  *  -5.80943949  *
    22       C          6.39936881  *   2.03715211  *  -7.16000898  *
    23       C          5.32117517  *   2.77754995  *  -7.62270367  *
    24       C          4.59858336  *   3.52857399  *  -6.71052293  *
    25       C          3.46072971  *   4.40275619  *  -6.84726418  *
    26       C          3.15863887  *   4.90706134  *  -5.55330230  *
    27       C          2.08071057  *   5.75978505  *  -5.33575189  *
    28       C          1.32874228  *   6.12143948  *  -6.44335885  *
    29       C          1.62869236  *   5.64569065  *  -7.72352012  *
    30       C          2.69164404  *   4.77984612  *  -7.93569972  *
    31       C          4.24631959  *   3.99009650  *   4.95618826  *
    32       C          3.53654729  *   2.94789213  *   5.50008305  *
    33       C          3.77693021  *   2.82441133  *   6.89512106  *
    34       C          4.65952879  *   3.78050859  *   7.35659800  *
    35       S          5.18528608  *   4.80361412  *   6.10507354  *
    36       C          5.05924685  *   3.85433375  *   8.72788382  *
    37       C          5.82228330  *   4.82100799  *   9.28151886  *
    38       C          6.14715954  *   4.74650671  *  10.71132965  *
    39       O          5.79236176  *   3.87805419  *  11.49649351  *
    40       O          6.91714878  *   5.76223890  *  11.15135008  *
    41       C          6.33583094  *   5.92709278  *   8.56273622  *
    42       N          6.76549121  *   6.84229103  *   8.00033731  *
    43       H          4.69285980  *   3.03268863  *   9.36696252  *
    44       H          0.53031604  *  -0.28558791  *  -1.11847947  *
    45       H          0.86205790  *  -1.79847096  *  -0.27449566  *
    46       H          0.43256325  *  -0.35421604  *   0.64272597  *
    47       H          2.93812270  *  -0.82634304  *   0.76103301  *
    48       H          3.03585682  *  -0.76193138  *  -0.99401471  *
    49       H          2.19532571  *   1.65503827  *  -0.95381799  *
    50       H          2.09418093  *   1.59152972  *   0.80070938  *
    51       H          4.61042043  *   1.05859764  *   0.92785491  *
    52       H          4.70770103  *   1.12655788  *  -0.83766901  *
    53       H          4.33315575  *   2.30984913  *   2.88614753  *
    54       H          4.12413229  *   6.48706966  *   3.99029777  *
    55       H          4.08076713  *   7.16672794  *   1.59643441  *
    56       H          4.18790155  *   2.50689275  *  -2.72316554  *
    57       H          4.03625715  *   6.77603903  *  -3.51645711  *
    58       H          4.03829734  *   7.26650024  *  -1.07546604  *
    59       H          6.36092138  *   2.82243338  *  -3.82635012  *
    60       H          7.62537615  *   1.46729201  *  -5.48256453  *
    61       H          6.98198005  *   1.43404798  *  -7.86180949  *
    62       H          5.04246049  *   2.77685219  *  -8.67934436  *
    63       H          1.82556722  *   6.12023564  *  -4.33724473  *
    64       H          0.47606116  *   6.79520634  *  -6.31204556  *
    65       H          1.01007289  *   5.95965146  *  -8.56875590  *
    66       H          2.92365747  *   4.39786327  *  -8.93289105  *
    67       H          2.86097177  *   2.29795360  *   4.94952538  *
    68       H          3.30686388  *   2.06067878  *   7.51212756  *
    69       H          7.10506886  *   5.67160374  *  12.09682052  *

                             CARTESIAN COORDINATES

   1    C        1.008623432    -0.709760274    -0.223780884
   2    C        2.480434884    -0.342824475    -0.128126429
   3    C        2.651118141     1.171760721    -0.063400558
   4    C        4.140929959     1.530150898     0.033908891
   5    N        4.349358238     2.974530008     0.095401074
   6    C        4.250067747     3.757766173     1.266092495
   7    C        4.272881961     3.361361580     2.599099708
   8    C        4.229348108     4.367578240     3.559717696
   9    C        4.163062870     5.723735547     3.207491715
  10    C        4.133708976     6.111496221     1.876997783
  11    C        4.171997602     5.130029791     0.900394189
  12    C        4.147593513     5.183814764    -0.537907952
  13    C        4.212661764     3.842958410    -1.006253515
  14    C        4.179054277     3.538308085    -2.363581416
  15    C        4.108640982     4.620936996    -3.240169537
  16    C        4.062970856     5.954571997    -2.793676633
  17    C        4.076164418     6.235219919    -1.437130864
  18    N        4.080442789     4.367895701    -4.631974502
  19    C        4.962893010     3.523176354    -5.336755009
  20    C        6.056296465     2.797145608    -4.874509412
  21    C        6.760837975     2.053742017    -5.809439487
  22    C        6.399368812     2.037152111    -7.160008984
  23    C        5.321175168     2.777549949    -7.622703670
  24    C        4.598583362     3.528573990    -6.710522928
  25    C        3.460729711     4.402756195    -6.847264175
  26    C        3.158638872     4.907061338    -5.553302302
  27    C        2.080710575     5.759785050    -5.335751890
  28    C        1.328742278     6.121439481    -6.443358851
  29    C        1.628692355     5.645690652    -7.723520118
  30    C        2.691644040     4.779846118    -7.935699719
  31    C        4.246319585     3.990096503     4.956188263
  32    C        3.536547287     2.947892132     5.500083047
  33    C        3.776930211     2.824411334     6.895121062
  34    C        4.659528785     3.780508590     7.356597996
  35    S        5.185286076     4.803614120     6.105073536
  36    C        5.059246846     3.854333750     8.727883820
  37    C        5.822283299     4.821007986     9.281518861
  38    C        6.147159542     4.746506713    10.711329647
  39    O        5.792361764     3.878054190    11.496493510
  40    O        6.917148777     5.762238896    11.151350081
  41    C        6.335830940     5.927092778     8.562736218
  42    N        6.765491214     6.842291030     8.000337312
  43    H        4.692859796     3.032688635     9.366962517
  44    H        0.530316041    -0.285587908    -1.118479475
  45    H        0.862057895    -1.798470962    -0.274495655
  46    H        0.432563246    -0.354216042     0.642725971
  47    H        2.938122698    -0.826343036     0.761033008
  48    H        3.035856821    -0.761931378    -0.994014712
  49    H        2.195325708     1.655038269    -0.953817989
  50    H        2.094180928     1.591529725     0.800709380
  51    H        4.610420435     1.058597638     0.927854912
  52    H        4.707701028     1.126557885    -0.837669005
  53    H        4.333155753     2.309849128     2.886147526
  54    H        4.124132288     6.487069665     3.990297771
  55    H        4.080767134     7.166727937     1.596434414
  56    H        4.187901550     2.506892750    -2.723165536
  57    H        4.036257153     6.776039034    -3.516457109
  58    H        4.038297338     7.266500235    -1.075466040
  59    H        6.360921377     2.822433380    -3.826350120
  60    H        7.625376149     1.467292006    -5.482564529
  61    H        6.981980049     1.434047983    -7.861809493
  62    H        5.042460491     2.776852190    -8.679344359
  63    H        1.825567225     6.120235641    -4.337244735
  64    H        0.476061161     6.795206336    -6.312045560
  65    H        1.010072895     5.959651464    -8.568755896
  66    H        2.923657466     4.397863274    -8.932891051
  67    H        2.860971773     2.297953603     4.949525384
  68    H        3.306863879     2.060678777     7.512127558
  69    H        7.105068863     5.671603739    12.096820523


           Empirical Formula: C36 H27 N3 O2 S  =    69 atoms



      MOLECULAR POINT GROUP   :   C1  


                  EIGENVALUES  
 -40.14645 -39.65222 -39.13197 -37.01427 -36.85677 -36.39058 -35.93706 -35.86072
 -35.34111 -34.96265 -34.14900 -33.30410 -32.06999 -31.05555 -30.26409 -30.11034
 -29.55048 -29.46234 -28.31205 -27.85032 -27.61626 -27.08150 -25.35750 -24.67690
 -23.81166 -23.61630 -22.88979 -22.71025 -22.41769 -22.03378 -21.95977 -21.67423
 -21.20431 -20.71761 -20.55993 -20.09828 -19.39261 -18.40724 -18.16068 -17.96859
 -17.75080 -17.72247 -17.32581 -17.13842 -16.74448 -16.57039 -16.24984 -16.23854
 -16.12090 -15.90707 -15.71655 -15.56463 -15.46968 -15.40089 -15.08962 -15.00366
 -14.85447 -14.82869 -14.79563 -14.64582 -14.60910 -14.54560 -14.48123 -14.34598
 -14.28834 -14.15712 -13.94679 -13.81832 -13.77498 -13.72037 -13.57065 -13.50589
 -13.23400 -13.06063 -12.96811 -12.87223 -12.65404 -12.62810 -12.56248 -12.42188
 -12.40985 -12.35407 -12.24120 -12.17296 -11.99193 -11.85520 -11.82817 -11.71175
 -11.59682 -11.57133 -11.56404 -11.44366 -10.54094 -10.35740  -9.95440  -9.68536
  -9.62858  -9.56670  -8.74526  -8.54413  -8.49377  -8.00560  -1.40895  -0.45327
   0.01251   0.09533   0.23284   0.41074   0.61386   0.70227   0.92762   1.17566
   1.22869   1.23125   1.30122   1.40015   1.48689   1.59622   1.71484   2.21765
   2.44470   2.58147   2.91972   3.00647   3.01212   3.25533   3.26998   3.53578
   3.68155   3.70949   3.75131   3.76487   3.84767   3.88578   3.90110   3.90611
   4.05645   4.08017   4.11131   4.12323   4.15603   4.23566   4.24532   4.28874
   4.33233   4.34285   4.36773   4.38311   4.44257   4.46724   4.48513   4.49743
   4.53245   4.60382   4.64100   4.67501   4.68755   4.73082   4.76071   4.79000
   4.83569   4.86883   4.88325   4.90752   4.97569   5.01065   5.01960   5.04375
   5.06837   5.08361   5.12122   5.22967   5.27817   5.32051   5.33100   5.37162
   5.40203   5.47406   5.61343   5.66211   5.68536   5.69805   5.82585   5.84820
   5.93484   5.97562   6.02086   6.12479   6.14518   6.20215   6.24686   6.28460
   6.50687   6.58384   6.72476


              NET ATOMIC CHARGES AND DIPOLE CONTRIBUTIONS

  ATOM NO.   TYPE          CHARGE      No. of ELECS.   s-Pop       p-Pop
   39          O          -0.381516        6.3815     1.91043     4.47109
   38          C           0.407348        3.5927     1.17929     2.41336
   40          O          -0.312026        6.3120     1.83997     4.47206
   69          H           0.244663        0.7553     0.75534
   41          C           0.048717        3.9513     1.19526     2.75602
   42          N          -0.147050        5.1471     1.84844     3.29861
    1          C          -0.178828        4.1788     1.15554     3.02329
    2          C          -0.107414        4.1074     1.16548     2.94193
    3          C          -0.168859        4.1689     1.17986     2.98899
    4          C           0.061195        3.9388     1.15829     2.78052
    5          N          -0.286490        5.2865     1.51807     3.76842
    6          C           0.109696        3.8903     1.15269     2.73761
    7          C          -0.153963        4.1540     1.17035     2.98361
    8          C           0.047441        3.9526     1.14700     2.80555
    9          C          -0.151833        4.1518     1.17820     2.97363
   10          C          -0.035579        4.0356     1.16943     2.86615
   11          C          -0.075115        4.0751     1.15907     2.91605
   12          C          -0.117801        4.1178     1.15932     2.95848
   13          C           0.142747        3.8573     1.15044     2.70681
   14          C          -0.217851        4.2179     1.17325     3.04460
   15          C           0.190862        3.8091     1.13986     2.66928
   16          C          -0.201636        4.2016     1.18125     3.02039
   17          C          -0.004171        4.0042     1.16808     2.83609
   18          N          -0.267047        5.2670     1.48109     3.78596
   19          C           0.124977        3.8750     1.15115     2.72388
   20          C          -0.170699        4.1707     1.17217     2.99853
   21          C          -0.054855        4.0549     1.17637     2.87849
   22          C          -0.157996        4.1580     1.17816     2.97984
   23          C          -0.035766        4.0358     1.16948     2.86628
   24          C          -0.090882        4.0909     1.15914     2.93174
   25          C          -0.091385        4.0914     1.15912     2.93227
   26          C           0.125629        3.8744     1.15109     2.72328
   27          C          -0.169238        4.1692     1.17217     2.99707
   28          C          -0.054480        4.0545     1.17645     2.87803
   29          C          -0.157681        4.1577     1.17817     2.97951
   30          C          -0.035935        4.0359     1.16944     2.86649
   31          C          -0.297129        4.2971     1.22370     3.07343
   32          C          -0.138531        4.1385     1.18191     2.95662
   33          C          -0.021259        4.0213     1.18504     2.83622
   34          C          -0.456262        4.4563     1.21977     3.23649
   35          S           0.603306        5.3967     1.88142     3.51527
   36          C           0.159523        3.8405     1.17076     2.66971
   37          C          -0.172167        4.1722     1.14101     3.03115
   43          H           0.130561        0.8694     0.86944
   44          H           0.063131        0.9369     0.93687
   45          H           0.060471        0.9395     0.93953
   46          H           0.060431        0.9396     0.93957
   47          H           0.059734        0.9403     0.94027
   48          H           0.062581        0.9374     0.93742
   49          H           0.083633        0.9164     0.91637
   50          H           0.079968        0.9200     0.92003
   51          H           0.079071        0.9209     0.92093
   52          H           0.080000        0.9200     0.92000
   53          H           0.124746        0.8753     0.87525
   54          H           0.117876        0.8821     0.88212
   55          H           0.113560        0.8864     0.88644
   56          H           0.140571        0.8594     0.85943
   57          H           0.132616        0.8674     0.86738
   58          H           0.111653        0.8883     0.88835
   59          H           0.124416        0.8756     0.87558
   60          H           0.101034        0.8990     0.89897
   61          H           0.108218        0.8918     0.89178
   62          H           0.108001        0.8920     0.89200
   63          H           0.124547        0.8755     0.87545
   64          H           0.101445        0.8986     0.89856
   65          H           0.108269        0.8917     0.89173
   66          H           0.107887        0.8921     0.89211
   67          H           0.135600        0.8644     0.86440
   68          H           0.125320        0.8747     0.87468
 DIPOLE           X         Y         Z       TOTAL
 POINT-CHG.    -1.135    -1.486    -2.489     3.113
 HYBRID        -1.292    -2.027     1.105     2.645
 SUM           -2.427    -3.513    -1.384     4.489


          ATOMIC ORBITAL ELECTRON POPULATIONS

     Atom    s        px        py        pz   
    1  C   1.15554   0.96229   1.02756   1.03343
    2  C   1.16548   0.97141   0.94415   1.02637
    3  C   1.17986   0.95821   0.97625   1.05454
    4  C   1.15829   0.96479   0.77710   1.03863
    5  N   1.51807   1.65529   1.05815   1.05498
    6  C   1.15269   0.98234   0.89287   0.86240
    7  C   1.17035   1.07748   0.99408   0.91206
    8  C   1.14700   0.99311   0.92777   0.88468
    9  C   1.17820   1.05069   0.95095   0.97199
   10  C   1.16943   0.96522   0.97903   0.92189
   11  C   1.15907   1.06540   0.92619   0.92446
   12  C   1.15932   1.10018   0.93058   0.92772
   13  C   1.15044   0.95726   0.88056   0.86900
   14  C   1.17325   1.12712   0.99957   0.91790
   15  C   1.13986   0.96604   0.91824   0.78500
   16  C   1.18125   1.08875   0.95982   0.97182
   17  C   1.16808   0.94265   0.97282   0.92062
   18  N   1.48109   1.29496   1.43154   1.05945
   19  C   1.15115   0.90914   0.91910   0.89564
   20  C   1.17217   0.97281   1.02163   1.00408
   21  C   1.17637   0.97626   0.96973   0.93250
   22  C   1.17816   0.99407   1.02386   0.96191
   23  C   1.16948   0.94203   0.94700   0.97726
   24  C   1.15914   0.98333   1.01942   0.92899
   25  C   1.15912   0.98388   1.01591   0.93248
   26  C   1.15109   0.90268   0.95405   0.86655
   27  C   1.17217   0.97215   1.02611   0.99882
   28  C   1.17645   0.97555   0.97592   0.92656
   29  C   1.17817   0.99617   1.01069   0.97265
   30  C   1.16944   0.94021   0.95826   0.96802
   31  C   1.22370   1.04344   1.02482   1.00516
   32  C   1.18191   1.02121   0.99029   0.94512
   33  C   1.18504   0.93664   0.95111   0.94846
   34  C   1.21977   1.13016   1.09527   1.01106
   35  S   1.88142   1.38043   1.24396   0.89088
   36  C   1.17076   0.83653   0.91983   0.91335
   37  C   1.14101   1.11628   0.98643   0.92845
   38  C   1.17929   0.74996   0.79053   0.87287
   39  O   1.91043   1.53551   1.39283   1.54274
   40  O   1.83997   1.65871   1.49004   1.32331
   41  C   1.19526   0.91934   0.91588   0.92080
   42  N   1.84844   1.09775   1.09900   1.10185
   43  H   0.86944
   44  H   0.93687
   45  H   0.93953
   46  H   0.93957
   47  H   0.94027
   48  H   0.93742
   49  H   0.91637
   50  H   0.92003
   51  H   0.92093
   52  H   0.92000
   53  H   0.87525
   54  H   0.88212
   55  H   0.88644
   56  H   0.85943
   57  H   0.86738
   58  H   0.88835
   59  H   0.87558
   60  H   0.89897
   61  H   0.89178
   62  H   0.89200
   63  H   0.87545
   64  H   0.89856
   65  H   0.89173
   66  H   0.89211
   67  H   0.86440
   68  H   0.87468
   69  H   0.75534
 ******************** TDHF POLARIZABILITIES ********************



          MOLECULAR WEIGHT =  565.69



          ROTATIONAL CONSTANTS IN CM(-1)

          A =    0.00645912   B =    0.00079739   C =    0.00076894



           PRINCIPAL MOMENTS OF INERTIA IN UNITS OF 10**(-40)*GRAM-CM**2

          A =     4333.8348   B =    35105.4655   C =    36404.3947


 ROTATION MATRIX FOR ORIENTATION OF MOLECULE:

         0.114957    0.224725   -0.967618
         0.049263    0.971587    0.231499
         0.992148   -0.074280    0.100620


          CARTESIAN COORDINATES 

    NO.       ATOM         X         Y         Z

     1         C       -1.5792   -5.2782    2.0404
     2         C       -1.2970   -4.5980    0.7108
     3         C       -1.1385   -3.0929    0.9028
     4         C       -0.8531   -2.4172   -0.4460
     5         N       -0.6969   -0.9716   -0.3071
     6         C        0.4917   -0.3198    0.0880
     7         C        1.7974   -0.7989    0.1083
     8         C        2.7950    0.0976    0.4800
     9         C        2.5047    1.4265    0.8227
    10         C        1.2004    1.8955    0.8070
    11         C        0.1875    1.0230    0.4445
    12         C       -1.2396    1.1767    0.3358
    13         C       -1.7629   -0.0767   -0.0847
    14         C       -3.1284   -0.2794   -0.2593
    15         C       -3.9529    0.8217   -0.0287
    16         C       -3.4495    2.0741    0.3691
    17         C       -2.0882    2.2489    0.5578
    18         N       -5.3495    0.6729   -0.2000
    19         C       -5.9889    0.1029   -1.3204
    20         C       -5.4403   -0.3911   -2.4999
    21         C       -6.3236   -0.8856   -3.4478
    22         C       -7.7059   -0.8827   -3.2378
    23         C       -8.2524   -0.3712   -2.0697
    24         C       -7.3935    0.1283   -1.1048
    25         C       -7.6169    0.7321    0.1848
    26         C       -6.3430    1.0581    0.7240
    27         C       -6.2090    1.6282    1.9863
    28         C       -7.3766    1.8928    2.6862
    29         C       -8.6356    1.5931    2.1571
    30         C       -8.7666    1.0065    0.9067
    31         C        4.1639   -0.3691    0.5168
    32         C        4.5705   -1.5816    1.0170
    33         C        5.9762   -1.7511    0.8962
    34         C        6.5826   -0.6581    0.3099
    35         S        5.4517    0.5470   -0.0879
    36         C        7.9927   -0.5984    0.0782
    37         C        8.6773    0.4711   -0.3806
    38         C       10.1296    0.3655   -0.5683
    39         O       10.8250   -0.6163   -0.3471
    40         O       10.7047    1.4928   -1.0340
    41         C        8.0777    1.7146   -0.6938
    42         N        7.6142    2.7421   -0.9543
    43         H        8.5442   -1.5266    0.3068
    44         H       -2.5009   -4.9071    2.5114
    45         H       -1.7000   -6.3651    1.9251
    46         H       -0.7682   -5.1266    2.7673
    47         H       -0.3860   -5.0310    0.2455
    48         H       -2.1129   -4.8161   -0.0108
    49         H       -2.0505   -2.6597    1.3661
    50         H       -0.3246   -2.8744    1.6258
    51         H        0.0646   -2.8362   -0.9195
    52         H       -1.6725   -2.6172   -1.1756
    53         H        2.0373   -1.8283   -0.1645
    54         H        3.3145    2.1013    1.1158
    55         H        0.9679    2.9297    1.0743
    56         H       -3.5350   -1.2528   -0.5428
    57         H       -4.1292    2.9199    0.5124
    58         H       -1.6829    3.2155    0.8696
    59         H       -4.3642   -0.3760   -2.6834
    60         H       -5.9288   -1.2854   -4.3873
    61         H       -8.3649   -1.2856   -4.0118
    62         H       -9.3329   -0.3561   -1.9065
    63         H       -5.2299    1.8469    2.4171
    64         H       -7.3111    2.3461    3.6805
    65         H       -9.5299    1.8219    2.7433
    66         H       -9.7481    0.7616    0.4935
    67         H        3.9146   -2.3240    1.4648
    68         H        6.4967   -2.6446    1.2363
    69         H       11.6599    1.3767   -1.1417


 ENERGY OF "REORIENTED" SYSTEM WITHOUT FIELD:       79.4572021033


  NFREQ=  3  IWFLB=  0  IBET=  1  IGAM=  1
  ATOL= 0.10000D-02  BTOL= 0.10000D-02    MAXITU=  500    MAXITA=  150


 *****************************************************************
 CALCULATION OF STATIC FIELD QUANTITIES
 *****************************************************************

 +++++ ALPHA AT       0.00000 EV.

                           COMPONENTS OF ALPHA

                     *X           *Y           *Z
           *=X:     719.8545       3.0659     -12.7092
           *=Y:       3.0784     317.0507      46.2947
           *=Z:     -12.7234      46.2946     253.3628

  ISOTROPIC AVERAGE ALPHA =     430.08935 A.U. =     63.73267 ANG.**3

 +++++ BETA (SECOND HARMONIC GENERATION) AT       0.00000 EV.

                              COMPONENTS OF BETA
            *XX         *XY         *YY         *XZ         *YZ         *ZZ
   *=X -8204.12990  -494.25279   323.71841   126.07199   144.40393   403.22826
   *=Y  -494.63973   323.71710    10.49194   144.36234    17.13271    86.88798
   *=Z   126.33437   144.37865    17.12757   403.09355    86.89545   124.95846


 AVERAGE BETAX(SHG) VALUE AT   0.00000 EV =      -4486.3643 a.u. = -0.387596E-28 ESU
 AVERAGE BETAY(SHG) VALUE AT   0.00000 EV =       -238.1981 a.u. = -0.205789E-29 ESU
 AVERAGE BETAZ(SHG) VALUE AT   0.00000 EV =        160.9493 a.u. =  0.139051E-29 ESU



 AVERAGE BETA (SHG) VALUE AT   0.00000 EV =       4495.5654 a.u. =  0.388391E-28 ESU
   (1 a.u. = 8.639418X10-33 esu)



 +++++ ALPHA AT       0.00000 EV.

                           COMPONENTS OF ALPHA

                     *X           *Y           *Z
           *=X:     719.8545       3.0659     -12.7092
           *=Y:       3.0784     317.0507      46.2947
           *=Z:     -12.7234      46.2946     253.3628

  ISOTROPIC AVERAGE ALPHA =     430.08935 A.U. =     63.73267 ANG.**3


 GAMMA (THIRD HARMONIC GENERATION) AT    0.00000 EV.


 GAMMA(X,X,X,X) =       2758601.64780
 GAMMA(Y,Y,Y,Y) =         25706.91249
 GAMMA(Z,Z,Z,Z) =         64399.66919
 GAMMA(X,X,Y,Y) =         -2099.61926
 GAMMA(X,X,Z,Z) =         36303.82282
 GAMMA(Y,Y,X,X) =         -2100.28450
 GAMMA(Y,Y,Z,Z) =         13058.30693
 GAMMA(Z,Z,X,X) =         36303.42459
 GAMMA(Z,Z,Y,Y) =         13058.28353


 AVERAGE GAMMA VALUE AT    0.00000 =        588646.43272 a.u. =       296483.70063 ESU (X10-39)




 **********************************************************************
 CALCULATION FOR A FREQUENCY OF    0.25000 EV  =       0.00919 A.U. 
                  WAVELENGTH OF    4959.37 NM  =    2016.38525 CM(-1)
 **********************************************************************

 +++++ ALPHA AT       0.25000 EV.

                           COMPONENTS OF ALPHA

                     *X           *Y           *Z
           *=X:     722.8895       3.1709     -12.8116
           *=Y:       3.1816     317.5414      46.3888
           *=Z:     -12.8237      46.3888     253.8506

  ISOTROPIC AVERAGE ALPHA =     431.42717 A.U. =     63.93091 ANG.**3

 +++++ BETA (SECOND HARMONIC GENERATION) AT       0.25000 EV.

                              COMPONENTS OF BETA
            *XX         *XY         *YY         *XZ         *YZ         *ZZ
   *=X -8575.62574  -500.52183   332.21992   141.53902   148.46324   412.88830
   *=Y  -507.30801   324.82560     8.19330   148.90165    18.15223    87.58156
   *=Z   137.61554   148.28732    17.95255   409.53236    87.84478   128.12136


 AVERAGE BETAX(SHG) VALUE AT   0.25000 EV =      -4702.6106 a.u. = -0.406278E-28 ESU
 AVERAGE BETAY(SHG) VALUE AT   0.25000 EV =       -244.1001 a.u. = -0.210888E-29 ESU
 AVERAGE BETAZ(SHG) VALUE AT   0.25000 EV =        171.8629 a.u. =  0.148480E-29 ESU



 AVERAGE BETA (SHG) VALUE AT   0.25000 EV =       4712.0769 a.u. =  0.407096E-28 ESU
   (1 a.u. = 8.639418X10-33 esu)



 +++++ ALPHA AT       0.75000 EV.

                           COMPONENTS OF ALPHA

                     *X           *Y           *Z
           *=X:     748.7793       4.0677     -13.6768
           *=Y:       4.0849     321.5675      47.1555
           *=Z:     -13.6914      47.1554     257.8619

  ISOTROPIC AVERAGE ALPHA =     442.73622 A.U. =     65.60674 ANG.**3


 GAMMA (THIRD HARMONIC GENERATION) AT    0.25000 EV.


 GAMMA(X,X,X,X) =       3054757.45743
 GAMMA(Y,Y,Y,Y) =         26406.28054
 GAMMA(Z,Z,Z,Z) =         67526.81191
 GAMMA(X,X,Y,Y) =         -4160.23470
 GAMMA(X,X,Z,Z) =         39178.45241
 GAMMA(Y,Y,X,X) =         -1191.55842
 GAMMA(Y,Y,Z,Z) =         13632.36090
 GAMMA(Z,Z,X,X) =         38608.64798
 GAMMA(Z,Z,Y,Y) =         13633.84194


 AVERAGE GAMMA VALUE AT    0.25000 =        649678.41200 a.u. =       327223.69338 ESU (X10-39)




 **********************************************************************
 CALCULATION FOR A FREQUENCY OF    0.50000 EV  =       0.01837 A.U. 
                  WAVELENGTH OF    2479.68 NM  =    4032.77050 CM(-1)
 **********************************************************************

 +++++ ALPHA AT       0.50000 EV.

                           COMPONENTS OF ALPHA

                     *X           *Y           *Z
           *=X:     732.2431       3.4913     -13.1213
           *=Y:       3.5033     319.0289      46.6735
           *=Z:     -13.1347      46.6734     255.3300

  ISOTROPIC AVERAGE ALPHA =     435.53402 A.U. =     64.53948 ANG.**3

 +++++ BETA (SECOND HARMONIC GENERATION) AT       0.50000 EV.

                              COMPONENTS OF BETA
            *XX         *XY         *YY         *XZ         *YZ         *ZZ
   *=X -9879.43829  -517.56052   361.19647   198.17481   162.13205   445.19403
   *=Y  -552.27232   327.35325     0.51580   163.79072    21.54895    89.66381
   *=Z   178.13112   161.06324    20.68621   429.43852    90.82805   138.35749


 AVERAGE BETAX(SHG) VALUE AT   0.50000 EV =      -5463.6682 a.u. = -0.472029E-28 ESU
 AVERAGE BETAY(SHG) VALUE AT   0.50000 EV =       -262.9052 a.u. = -0.227135E-29 ESU
 AVERAGE BETAZ(SHG) VALUE AT   0.50000 EV =        210.6675 a.u. =  0.182004E-29 ESU



 AVERAGE BETA (SHG) VALUE AT   0.50000 EV =       5474.0451 a.u. =  0.472926E-28 ESU
   (1 a.u. = 8.639418X10-33 esu)



 +++++ ALPHA AT       1.50000 EV.

                           COMPONENTS OF ALPHA

                     *X           *Y           *Z
           *=X:     866.9064       8.6166     -17.8583
           *=Y:       8.6536     336.8070      49.9145
           *=Z:     -17.8890      49.9143     273.1830

  ISOTROPIC AVERAGE ALPHA =     492.29883 A.U. =     72.95116 ANG.**3


 GAMMA (THIRD HARMONIC GENERATION) AT    0.50000 EV.


 GAMMA(X,X,X,X) =       4368821.19032
 GAMMA(Y,Y,Y,Y) =         28782.51902
 GAMMA(Z,Z,Z,Z) =         78539.16485
 GAMMA(X,X,Y,Y) =        -15369.89833
 GAMMA(X,X,Z,Z) =         50860.75347
 GAMMA(Y,Y,X,X) =          2250.84526
 GAMMA(Y,Y,Z,Z) =         15641.38956
 GAMMA(Z,Z,X,X) =         47453.70337
 GAMMA(Z,Z,Y,Y) =         15638.12266


 AVERAGE GAMMA VALUE AT    0.50000 =        918523.55804 a.u. =       462632.99744 ESU (X10-39)



 **********************
 *                    *
 * JOB ENDED NORMALLY *
 *                    *
 **********************



 TOTAL JOB TIME:           148.15 SECONDS

 == MOPAC DONE ==
