 *******************************************************************************
 ** Site#: 4824         For non-commercial use only    Version 21.013L 64BITS **
 *******************************************************************************
 ** Cite this program as: MOPAC2016, Version: 21.013L, James J. P. Stewart,   **
 ** Stewart Computational Chemistry, web: HTTP://OpenMOPAC.net. Days left:  89**
 *******************************************************************************
 **                                                                           **
 **                                MOPAC2016                                  **
 **                                                                           **
 *******************************************************************************

                              RM1 CALCULATION RESULTS

 *******************************************************************************
 *  CALCULATION DONE:                                Sat Oct 16 16:35:39 2021  *
 *  RM1        - The RM1 Hamiltonian to be used
 *  POLAR      - CALCULATE FIRST, SECOND AND THIRD-ORDER POLARIZABILITIES
 *  PRECISE    - TIGHTER CRITERIA TO BE USED
 *  T=         - A TIME OF 172800.0 SECONDS REQUESTED
 *  DUMP=N     - RESTART FILE WRITTEN EVERY 7200.0 SECONDS REQUESTED
 *  GNORM      - EXIT WHEN GRADIENT NORM DROPS BELOW 0.100
 *******************************************************************************
RM1 PRECISE POLAR GNORM=0.1


  ATOM    CHEMICAL      BOND LENGTH      BOND ANGLE     TWIST ANGLE 
 NUMBER    SYMBOL       (ANGSTROMS)      (DEGREES)       (DEGREES) 
   (I)                     NA:I           NB:NA:I       NC:NB:NA:I       NA    NB    NC 
     1       C          0.00000000       0.0000000       0.0000000        0     0     0
     2       C          1.54760000  *    0.0000000       0.0000000        1     0     0
     3       C          1.55190000  *  111.4275000  *    0.0000000        2     1     0
     4       C          1.55190000  *  111.5454000  *  179.6189000  *     3     2     1
     5       C          1.55160000  *  111.0910000  * -179.6340000  *     4     3     2
     6       C          1.55170000  *  111.5999000  *  179.2120000  *     5     4     3
     7       C          1.55150000  *  110.5831000  * -179.4974000  *     6     5     4
     8       C          1.54760000  *  111.6282000  *  179.5085000  *     7     6     5
     9       N          1.46080000  *  116.8276000  * -177.5419000  *     8     7     6
    10       C          1.43110000  *  130.6879000  *  -13.5155000  *     9     8     7
    11       C          1.34400000  *  133.4966000  *   16.2999000  *    10     9     8
    12       C          1.47640000  *  118.8306000  *  178.7274000  *    11    10     9
    13       C          1.35180000  *  121.4863000  *   -0.6729000  *    12    11    10
    14       C          1.47790000  *  119.3941000  *    0.0899000  *    13    12    11
    15       C          1.34010000  *  118.1026000  *    0.0730000  *    14    13    12
    16       C          1.45490000  *  130.5404000  * -178.1905000  *    15    14    13
    17       C          1.34420000  *  108.0609000  *  178.5678000  *    16    15    14
    18       C          1.46590000  *  119.5447000  * -177.3267000  *    17    16    15
    19       C          1.34780000  *  118.9834000  *   -0.3183000  *    18    17    16
    20       C          1.48500000  *  121.1933000  *   -0.9141000  *    19    18    17
    21       C          1.34960000  *  119.3189000  *    2.0111000  *    20    19    18
    22       C          1.47650000  *  121.7866000  *  178.4111000  *    20    19    18
    23       C          1.34940000  *  124.9854000  * -135.6168000  *    22    20    21
    24       C          1.47590000  *  120.4471000  *  178.6553000  *    23    22    20
    25       O          1.23250000  *  120.1806000  *  176.6295000  *    24    23    22
    26       O          1.35590000  *  120.8541000  *   -4.3737000  *    24    23    22
    27       C          1.43020000  *  121.5340000  *    0.7053000  *    23    22    20
    28       N          1.15780000  *  179.6696000  *  179.2814000  *    27    23    22
    29       C          1.47610000  *  120.6895000  * -178.9998000  *    13    12    11
    30       C          1.47670000  *  120.2881000  *  -46.3858000  *    29    13    12
    31       C          1.34500000  *  120.4297000  *  179.1005000  *    30    29    13
    32       C          1.46840000  *  120.0863000  *    0.2647000  *    31    30    29
    33       C          1.34430000  *  119.8435000  *    0.0948000  *    32    31    30
    34       C          1.34880000  *  120.6904000  *  133.1881000  *    29    13    12
    35       H          1.05360000  *  116.7790000  *   42.0613000  *    22    20    21
    36       H          1.09100000  *  110.0548000  *   60.2538000  *     1     2     3
    37       H          1.09130000  *  109.5030000  * -179.9985000  *     1     2     3
    38       H          1.09110000  *  110.0997000  *  -60.2614000  *     1     2     3
    39       H          1.09220000  *  108.8698000  * -178.9133000  *     2     1    36
    40       H          1.09250000  *  108.8612000  *  -60.4957000  *     2     1    36
    41       H          1.09230000  *  109.0993000  *  179.7869000  *     3     2    39
    42       H          1.09270000  *  109.0945000  *  -61.4680000  *     3     2    39
    43       H          1.09250000  *  109.2235000  * -179.7995000  *     4     3    41
    44       H          1.09260000  *  109.3052000  *  -60.7744000  *     4     3    41
    45       H          1.09280000  *  109.1549000  *  179.3986000  *     5     4    43
    46       H          1.09280000  *  109.1032000  *  -61.8749000  *     5     4    43
    47       H          1.09240000  *  109.2997000  * -179.7888000  *     6     5    45
    48       H          1.09240000  *  109.3200000  * -179.3528000  *     6     5    46
    49       H          1.09170000  *  108.4853000  *  179.4832000  *     7     6    47
    50       H          1.09190000  *  108.6368000  *  -61.1750000  *     7     6    47
    51       H          1.09380000  *  107.7560000  * -176.3534000  *     8     7    49
    52       H          1.09370000  *  108.2760000  *  -59.6502000  *     8     7    49
    53       H          1.04580000  *  122.3033000  *   -0.2456000  *    11    10     9
    54       H          1.05220000  *  118.4892000  * -179.5742000  *    12    11    10
    55       H          1.04960000  *  121.0741000  * -179.6329000  *    14    13    12
    56       H          1.04950000  *  120.7222000  *  177.9322000  *    18    17    16
    57       H          1.05120000  *  118.9314000  *  177.7053000  *    19    18    17
    58       H          1.05070000  *  120.8912000  *    1.7682000  *    21    20    22
    59       H          0.94080000  *  121.0842000  *   -0.5237000  *    26    24    25
    60       H          1.05130000  *  120.1171000  *  179.1532000  *    30    29    34
    61       H          1.05080000  *  120.0639000  * -179.8781000  *    31    30    29
    62       H          1.05100000  *  119.9871000  * -179.9377000  *    32    31    30
    63       H          1.05100000  *  120.0705000  * -179.8684000  *    33    32    31
    64       H          1.05150000  *  120.5088000  *   -0.3174000  *    34    29    13
 


          CARTESIAN COORDINATES 

    NO.       ATOM           X           Y           Z

     1         C          0.0000      0.0000      0.0000
     2         C          1.5476      0.0000      0.0000
     3         C          2.1145      1.4446      0.0000
     4         C          3.6664      1.4478      0.0096
     5         C          4.2217      2.8966      0.0188
     6         C          5.7730      2.9136      0.0483
     7         C          6.3023      4.3719      0.0697
     8         C          7.8487      4.4169      0.1116
     9         N          8.4678      5.7377      0.1907
    10         C          7.9145      7.0413     -0.0152
    11         C          6.6580      7.5156     -0.0654
    12         C          6.4510      8.9624     -0.2743
    13         C          7.4933      9.8137     -0.4014
    14         C          8.8725      9.2872     -0.3322
    15         C          9.0368      7.9704     -0.1453
    16         C         10.2497      7.1796     -0.0024
    17         C          9.8915      5.8995      0.1973
    18         C         10.9257      4.8878      0.4333
    19         C         12.2196      5.2654      0.4381
    20         C         12.6099      6.6765      0.1898
    21         C         11.6487      7.6037     -0.0042
    22         C         14.0205      7.1112      0.2262
    23         C         15.0392      6.4859     -0.4000
    24         C         16.4105      7.0257     -0.3199
    25         O         17.3472      6.4177     -0.8414
    26         O         16.6592      8.2021      0.3068
    27         C         14.8242      5.3145     -1.1918
    28         N         14.6567      4.3659     -1.8343
    29         C          7.2663     11.2603     -0.5878
    30         C          6.2691     11.7376     -1.5669
    31         C          6.0470     13.0545     -1.7261
    32         C          6.8014     14.0299     -0.9289
    33         C          7.7160     13.6037     -0.0407
    34         C          7.9571     12.1645      0.1363
    35         H         14.2306      7.9976      0.7556
    36         H         -0.3741      0.5085     -0.8898
    37         H         -0.3643     -1.0287      0.0000
    38         H         -0.3750      0.5083      0.8897
    39         H          1.9008     -0.5297      0.8874
    40         H          1.9008     -0.5286     -0.8885
    41         H          1.7608      1.9674     -0.8915
    42         H          1.7503      1.9716      0.8852
    43         H          4.0217      0.9221      0.8990
    44         H          4.0342      0.9285     -0.8785
    45         H          3.8751      3.4192     -0.8762
    46         H          3.8423      3.4195      0.9001
    47         H          6.1230      2.3886      0.9401
    48         H          6.1570      2.4018     -0.8372
    49         H          5.9526      4.8803     -0.8309
    50         H          5.9069      4.8736      0.9552
    51         H          8.1754      3.8462      0.9857
    52         H          8.2308      3.9170     -0.7829
    53         H          5.8224      6.8982      0.0540
    54         H          5.4652      9.3290     -0.3059
    55         H          9.7011      9.9252     -0.4219
    56         H         10.6654      3.8891      0.6233
    57         H         12.9584      4.5464      0.6435
    58         H         11.8960      8.6137     -0.1552
    59         H         17.5311      8.5524      0.3541
    60         H          5.7304     11.0483     -2.1499
    61         H          5.3347     13.3877     -2.4231
    62         H          6.6259     15.0586     -1.0540
    63         H          8.2566     14.2987      0.5332
    64         H          8.6644     11.8504      0.8481

  H: (RM1): G.B. ROCHA, R.O. FREIRE, A.M.SIMAS, J.J.P. STEWART, J. COMP. CHEM. 27, 1101 (2006)
  C: (RM1): G.B. ROCHA, R.O. FREIRE, A.M.SIMAS, J.J.P. STEWART, J. COMP. CHEM. 27, 1101 (2006)
  N: (RM1): G.B. ROCHA, R.O. FREIRE, A.M.SIMAS, J.J.P. STEWART, J. COMP. CHEM. 27, 1101 (2006)
  O: (RM1): G.B. ROCHA, R.O. FREIRE, A.M.SIMAS, J.J.P. STEWART, J. COMP. CHEM. 27, 1101 (2006)

           Empirical Formula: C30 H30 N2 O2  =    64 atoms



      MOLECULAR POINT GROUP   :   C1  


      RHF CALCULATION, NO. OF DOUBLY OCCUPIED LEVELS = 86


          Geometry optimization using L-BFGS
 CYCLE:     1 TIME:   0.160 TIME LEFT:  2.00D  GRAD.:   497.226 HEAT:  43.31372
 CYCLE:     2 TIME:   0.117 TIME LEFT:  2.00D  GRAD.:   365.550 HEAT:  41.25406
 CYCLE:     3 TIME:   0.121 TIME LEFT:  2.00D  GRAD.:   354.511 HEAT:  36.99530
 CYCLE:     4 TIME:   0.125 TIME LEFT:  2.00D  GRAD.:   365.959 HEAT:  41.25393
 CYCLE:     5 TIME:   0.168 TIME LEFT:  2.00D  GRAD.:   355.680 HEAT:  36.99620
 CYCLE:     6 TIME:   0.121 TIME LEFT:  2.00D  GRAD.:   294.632 HEAT:  34.42042
 CYCLE:     7 TIME:   0.102 TIME LEFT:  2.00D  GRAD.:   354.881 HEAT:  29.77186
 CYCLE:     8 TIME:   0.105 TIME LEFT:  2.00D  GRAD.:   499.006 HEAT:  15.38765
 CYCLE:     9 TIME:   0.125 TIME LEFT:  2.00D  GRAD.:   268.759 HEAT:  5.368360
 CYCLE:    10 TIME:   0.102 TIME LEFT:  2.00D  GRAD.:   189.523 HEAT:  3.371287
 CYCLE:    11 TIME:   0.098 TIME LEFT:  2.00D  GRAD.:    74.737 HEAT:  2.860992
 CYCLE:    12 TIME:   0.113 TIME LEFT:  2.00D  GRAD.:    94.443 HEAT:  2.582618
 CYCLE:    13 TIME:   0.109 TIME LEFT:  2.00D  GRAD.:   118.769 HEAT:  2.282940
 CYCLE:    14 TIME:   0.109 TIME LEFT:  2.00D  GRAD.:   112.271 HEAT:  1.687025
 CYCLE:    15 TIME:   0.086 TIME LEFT:  2.00D  GRAD.:    81.985 HEAT: 0.8770770
 CYCLE:    16 TIME:   0.117 TIME LEFT:  2.00D  GRAD.:    59.803 HEAT: 0.3877248E-01
 CYCLE:    17 TIME:   0.109 TIME LEFT:  2.00D  GRAD.:   102.873 HEAT:-0.3644347
 CYCLE:    18 TIME:   0.102 TIME LEFT:  2.00D  GRAD.:    79.190 HEAT:-0.6508848
 CYCLE:    19 TIME:   0.109 TIME LEFT:  2.00D  GRAD.:    50.399 HEAT: -1.066196
 CYCLE:    20 TIME:   0.117 TIME LEFT:  2.00D  GRAD.:    53.068 HEAT: -1.442590
 CYCLE:    21 TIME:   0.109 TIME LEFT:  2.00D  GRAD.:    46.065 HEAT: -1.636972
 CYCLE:    22 TIME:   0.113 TIME LEFT:  2.00D  GRAD.:    23.359 HEAT: -1.860733
 CYCLE:    23 TIME:   0.090 TIME LEFT:  2.00D  GRAD.:    64.773 HEAT: -1.892388
 CYCLE:    24 TIME:   0.090 TIME LEFT:  2.00D  GRAD.:    17.321 HEAT: -1.952722
 CYCLE:    25 TIME:   0.109 TIME LEFT:  2.00D  GRAD.:    12.922 HEAT: -1.976860
 CYCLE:    26 TIME:   0.098 TIME LEFT:  2.00D  GRAD.:    23.892 HEAT: -2.010363
 CYCLE:    27 TIME:   0.086 TIME LEFT:  2.00D  GRAD.:    42.239 HEAT: -2.009580
 CYCLE:    28 TIME:   0.094 TIME LEFT:  2.00D  GRAD.:     9.670 HEAT: -2.046364
 CYCLE:    29 TIME:   0.094 TIME LEFT:  2.00D  GRAD.:     8.481 HEAT: -2.055417
 CYCLE:    30 TIME:   0.105 TIME LEFT:  2.00D  GRAD.:    10.349 HEAT: -2.069263
 CYCLE:    31 TIME:   0.090 TIME LEFT:  2.00D  GRAD.:     9.601 HEAT: -2.088693
 CYCLE:    32 TIME:   0.105 TIME LEFT:  2.00D  GRAD.:    31.952 HEAT: -2.089544
 CYCLE:    33 TIME:   0.098 TIME LEFT:  2.00D  GRAD.:    36.406 HEAT: -2.106077
 CYCLE:    34 TIME:   0.098 TIME LEFT:  2.00D  GRAD.:     4.897 HEAT: -2.123163
 CYCLE:    35 TIME:   0.102 TIME LEFT:  2.00D  GRAD.:     4.993 HEAT: -2.124801
 CYCLE:    36 TIME:   0.090 TIME LEFT:  2.00D  GRAD.:     5.393 HEAT: -2.137581
 CYCLE:    37 TIME:   0.086 TIME LEFT:  2.00D  GRAD.:    36.308 HEAT: -2.129931
 CYCLE:    38 TIME:   0.086 TIME LEFT:  2.00D  GRAD.:    23.192 HEAT: -2.138899
 CYCLE:    39 TIME:   0.090 TIME LEFT:  2.00D  GRAD.:     4.928 HEAT: -2.151353
 CYCLE:    40 TIME:   0.102 TIME LEFT:  2.00D  GRAD.:     4.809 HEAT: -2.152861
 CYCLE:    41 TIME:   0.098 TIME LEFT:  2.00D  GRAD.:    17.239 HEAT: -2.162725
 CYCLE:    42 TIME:   0.094 TIME LEFT:  2.00D  GRAD.:    12.820 HEAT: -2.168916
 CYCLE:    43 TIME:   0.094 TIME LEFT:  2.00D  GRAD.:     8.626 HEAT: -2.175897
 CYCLE:    44 TIME:   0.113 TIME LEFT:  2.00D  GRAD.:     8.502 HEAT: -2.187529
 CYCLE:    45 TIME:   0.102 TIME LEFT:  2.00D  GRAD.:    10.403 HEAT: -2.201685
 CYCLE:    46 TIME:   0.105 TIME LEFT:  2.00D  GRAD.:    21.605 HEAT: -2.211103
 CYCLE:    47 TIME:   0.113 TIME LEFT:  2.00D  GRAD.:    15.888 HEAT: -2.222043
 CYCLE:    48 TIME:   0.098 TIME LEFT:  2.00D  GRAD.:    14.663 HEAT: -2.230523
 CYCLE:    49 TIME:   0.098 TIME LEFT:  2.00D  GRAD.:    13.768 HEAT: -2.240948
 CYCLE:    50 TIME:   0.109 TIME LEFT:  2.00D  GRAD.:    15.481 HEAT: -2.255892
 CYCLE:    51 TIME:   0.109 TIME LEFT:  2.00D  GRAD.:    18.860 HEAT: -2.282386
 CYCLE:    52 TIME:   0.098 TIME LEFT:  2.00D  GRAD.:    19.536 HEAT: -2.313404
 CYCLE:    53 TIME:   0.105 TIME LEFT:  2.00D  GRAD.:    27.708 HEAT: -2.347931
 CYCLE:    54 TIME:   0.105 TIME LEFT:  2.00D  GRAD.:    30.863 HEAT: -2.377197
 CYCLE:    55 TIME:   0.102 TIME LEFT:  2.00D  GRAD.:   112.317 HEAT: -2.234411
 CYCLE:    56 TIME:   0.121 TIME LEFT:  2.00D  GRAD.:   353.027 HEAT: -1.134742
 CYCLE:    57 TIME:   0.113 TIME LEFT:  2.00D  GRAD.:   196.735 HEAT: -1.985521
 CYCLE:    58 TIME:   0.105 TIME LEFT:  2.00D  GRAD.:   157.322 HEAT: -2.191090
 CYCLE:    59 TIME:   0.121 TIME LEFT:  2.00D  GRAD.:    41.911 HEAT: -2.417225
 CYCLE:    60 TIME:   0.133 TIME LEFT:  2.00D  GRAD.:    41.288 HEAT: -2.509031
 CYCLE:    61 TIME:   0.109 TIME LEFT:  2.00D  GRAD.:  1135.440 HEAT:  6.922047
 CYCLE:    62 TIME:   0.105 TIME LEFT:  2.00D  GRAD.:   213.328 HEAT: -1.913099
 CYCLE:    63 TIME:   0.094 TIME LEFT:  2.00D  GRAD.:  1010.876 HEAT:  6.048518
 CYCLE:    64 TIME:   0.117 TIME LEFT:  2.00D  GRAD.:   288.594 HEAT: -1.509052
 CYCLE:    65 TIME:   0.090 TIME LEFT:  2.00D  GRAD.:    35.308 HEAT: -2.543395
 CYCLE:    66 TIME:   0.094 TIME LEFT:  2.00D  GRAD.:    26.362 HEAT: -2.551581
 CYCLE:    67 TIME:   0.082 TIME LEFT:  2.00D  GRAD.:    64.139 HEAT: -2.564741
 CYCLE:    68 TIME:   0.090 TIME LEFT:  2.00D  GRAD.:    28.869 HEAT: -2.589923
 CYCLE:    69 TIME:   0.082 TIME LEFT:  2.00D  GRAD.:    32.203 HEAT: -2.585689
 CYCLE:    70 TIME:   0.082 TIME LEFT:  2.00D  GRAD.:     9.722 HEAT: -2.606776
 CYCLE:    71 TIME:   0.098 TIME LEFT:  2.00D  GRAD.:    15.336 HEAT: -2.618962
 CYCLE:    72 TIME:   0.094 TIME LEFT:  2.00D  GRAD.:    17.764 HEAT: -2.638542
 CYCLE:    73 TIME:   0.098 TIME LEFT:  2.00D  GRAD.:    25.737 HEAT: -2.685954
 CYCLE:    74 TIME:   0.086 TIME LEFT:  2.00D  GRAD.:    59.675 HEAT: -2.686568
 CYCLE:    75 TIME:   0.082 TIME LEFT:  2.00D  GRAD.:    12.584 HEAT: -2.747121
 CYCLE:    76 TIME:   0.090 TIME LEFT:  2.00D  GRAD.:    10.244 HEAT: -2.756301
 CYCLE:    77 TIME:   0.113 TIME LEFT:  2.00D  GRAD.:    15.128 HEAT: -2.773204
 CYCLE:    78 TIME:   0.098 TIME LEFT:  2.00D  GRAD.:    22.163 HEAT: -2.809144
 CYCLE:    79 TIME:   0.109 TIME LEFT:  2.00D  GRAD.:    13.741 HEAT: -2.840216
 CYCLE:    80 TIME:   0.102 TIME LEFT:  2.00D  GRAD.:     8.217 HEAT: -2.863642
 CYCLE:    81 TIME:   0.113 TIME LEFT:  2.00D  GRAD.:    21.048 HEAT: -2.873773
 CYCLE:    82 TIME:   0.113 TIME LEFT:  2.00D  GRAD.:    11.565 HEAT: -2.884810
 CYCLE:    83 TIME:   0.109 TIME LEFT:  2.00D  GRAD.:    24.335 HEAT: -2.898702
 CYCLE:    84 TIME:   0.109 TIME LEFT:  2.00D  GRAD.:    18.770 HEAT: -2.909082
 CYCLE:    85 TIME:   0.113 TIME LEFT:  2.00D  GRAD.:     8.762 HEAT: -2.915000
 CYCLE:    86 TIME:   0.109 TIME LEFT:  2.00D  GRAD.:     6.485 HEAT: -2.918511
 CYCLE:    87 TIME:   0.109 TIME LEFT:  2.00D  GRAD.:     6.359 HEAT: -2.924939
 CYCLE:    88 TIME:   0.113 TIME LEFT:  2.00D  GRAD.:     8.278 HEAT: -2.941188
 CYCLE:    89 TIME:   0.109 TIME LEFT:  2.00D  GRAD.:     7.759 HEAT: -2.954355
 CYCLE:    90 TIME:   0.113 TIME LEFT:  2.00D  GRAD.:    53.812 HEAT: -2.917684
 CYCLE:    91 TIME:   0.109 TIME LEFT:  2.00D  GRAD.:     5.608 HEAT: -2.967539
 CYCLE:    92 TIME:   0.105 TIME LEFT:  2.00D  GRAD.:     5.375 HEAT: -2.969295
 CYCLE:    93 TIME:   0.109 TIME LEFT:  2.00D  GRAD.:     8.078 HEAT: -2.976165
 CYCLE:    94 TIME:   0.105 TIME LEFT:  2.00D  GRAD.:     9.522 HEAT: -2.981762
 CYCLE:    95 TIME:   0.113 TIME LEFT:  2.00D  GRAD.:     9.039 HEAT: -2.988468
 CYCLE:    96 TIME:   0.113 TIME LEFT:  2.00D  GRAD.:    14.409 HEAT: -2.996045
 CYCLE:    97 TIME:   0.094 TIME LEFT:  2.00D  GRAD.:    34.333 HEAT: -2.988999
 CYCLE:    98 TIME:   0.082 TIME LEFT:  2.00D  GRAD.:     5.671 HEAT: -3.001370
 CYCLE:    99 TIME:   0.078 TIME LEFT:  2.00D  GRAD.:     4.964 HEAT: -3.003108
 CYCLE:   100 TIME:   0.105 TIME LEFT:  2.00D  GRAD.:     7.373 HEAT: -3.010325
 CYCLE:   101 TIME:   0.102 TIME LEFT:  2.00D  GRAD.:     7.112 HEAT: -3.016496
 CYCLE:   102 TIME:   0.113 TIME LEFT:  2.00D  GRAD.:    17.042 HEAT: -3.022141
 CYCLE:   103 TIME:   0.082 TIME LEFT:  2.00D  GRAD.:     6.865 HEAT: -3.034172
 CYCLE:   104 TIME:   0.086 TIME LEFT:  2.00D  GRAD.:     5.792 HEAT: -3.040066
 CYCLE:   105 TIME:   0.094 TIME LEFT:  2.00D  GRAD.:    11.846 HEAT: -3.044343
 CYCLE:   106 TIME:   0.078 TIME LEFT:  2.00D  GRAD.:    12.335 HEAT: -3.048373
 CYCLE:   107 TIME:   0.082 TIME LEFT:  2.00D  GRAD.:     5.566 HEAT: -3.053211
 CYCLE:   108 TIME:   0.094 TIME LEFT:  2.00D  GRAD.:     6.049 HEAT: -3.057617
 CYCLE:   109 TIME:   0.105 TIME LEFT:  2.00D  GRAD.:     7.823 HEAT: -3.063183
 CYCLE:   110 TIME:   0.105 TIME LEFT:  2.00D  GRAD.:    23.692 HEAT: -3.069550
 CYCLE:   111 TIME:   0.094 TIME LEFT:  2.00D  GRAD.:    13.916 HEAT: -3.078057
 CYCLE:   112 TIME:   0.105 TIME LEFT:  2.00D  GRAD.:    11.940 HEAT: -3.084693
 CYCLE:   113 TIME:   0.109 TIME LEFT:  2.00D  GRAD.:     8.977 HEAT: -3.104136
 CYCLE:   114 TIME:   0.113 TIME LEFT:  2.00D  GRAD.:    10.635 HEAT: -3.119190
 CYCLE:   115 TIME:   0.113 TIME LEFT:  2.00D  GRAD.:    16.893 HEAT: -3.130150
 CYCLE:   116 TIME:   0.113 TIME LEFT:  2.00D  GRAD.:    21.146 HEAT: -3.143852
 CYCLE:   117 TIME:   0.113 TIME LEFT:  2.00D  GRAD.:    20.502 HEAT: -3.165416
 CYCLE:   118 TIME:   0.113 TIME LEFT:  2.00D  GRAD.:    19.855 HEAT: -3.183692
 CYCLE:   119 TIME:   0.113 TIME LEFT:  2.00D  GRAD.:    18.968 HEAT: -3.193713
 CYCLE:   120 TIME:   0.098 TIME LEFT:  2.00D  GRAD.:    60.016 HEAT: -3.169636
 CYCLE:   121 TIME:   0.082 TIME LEFT:  2.00D  GRAD.:    16.476 HEAT: -3.219785
 CYCLE:   122 TIME:   0.082 TIME LEFT:  2.00D  GRAD.:    28.533 HEAT: -3.213110
 CYCLE:   123 TIME:   0.105 TIME LEFT:  2.00D  GRAD.:    25.386 HEAT: -3.214664
 CYCLE:   124 TIME:   0.082 TIME LEFT:  2.00D  GRAD.:    33.997 HEAT: -3.249974
 CYCLE:   125 TIME:   0.086 TIME LEFT:  2.00D  GRAD.:   109.932 HEAT: -3.021963
 CYCLE:   126 TIME:   0.082 TIME LEFT:  2.00D  GRAD.:    17.969 HEAT: -3.320251
 CYCLE:   127 TIME:   0.086 TIME LEFT:  2.00D  GRAD.:    23.933 HEAT: -3.298389
 CYCLE:   128 TIME:   0.082 TIME LEFT:  2.00D  GRAD.:    22.650 HEAT: -3.347346
 CYCLE:   129 TIME:   0.098 TIME LEFT:  2.00D  GRAD.:   196.029 HEAT: -3.040845
 CYCLE:   130 TIME:   0.133 TIME LEFT:  2.00D  GRAD.:   126.262 HEAT: -3.207028
 CYCLE:   131 TIME:   0.117 TIME LEFT:  2.00D  GRAD.:    47.722 HEAT: -3.361727
 CYCLE:   132 TIME:   0.125 TIME LEFT:  2.00D  GRAD.:    42.963 HEAT: -3.232632
 CYCLE:   133 TIME:   0.125 TIME LEFT:  2.00D  GRAD.:    14.481 HEAT: -3.400431
 CYCLE:   134 TIME:   0.137 TIME LEFT:  2.00D  GRAD.:    18.005 HEAT: -3.414070
 CYCLE:   135 TIME:   0.137 TIME LEFT:  2.00D  GRAD.:    17.401 HEAT: -3.444617
 CYCLE:   136 TIME:   0.141 TIME LEFT:  2.00D  GRAD.:    47.716 HEAT: -3.544906
 CYCLE:   137 TIME:   0.086 TIME LEFT:  2.00D  GRAD.:    34.327 HEAT: -3.631911
 CYCLE:   138 TIME:   0.102 TIME LEFT:  2.00D  GRAD.:    22.439 HEAT: -3.727453
 CYCLE:   139 TIME:   0.109 TIME LEFT:  2.00D  GRAD.:    34.437 HEAT: -3.789408
 CYCLE:   140 TIME:   0.082 TIME LEFT:  2.00D  GRAD.:    35.400 HEAT: -3.854618
 CYCLE:   141 TIME:   0.082 TIME LEFT:  2.00D  GRAD.:    25.580 HEAT: -3.920909
 CYCLE:   142 TIME:   0.098 TIME LEFT:  2.00D  GRAD.:    13.062 HEAT: -3.986653
 CYCLE:   143 TIME:   0.117 TIME LEFT:  2.00D  GRAD.:    17.775 HEAT: -4.052539
 CYCLE:   144 TIME:   0.094 TIME LEFT:  2.00D  GRAD.:    19.955 HEAT: -4.154203
 CYCLE:   145 TIME:   0.094 TIME LEFT:  2.00D  GRAD.:   197.512 HEAT: -4.153036
 CYCLE:   146 TIME:   0.105 TIME LEFT:  2.00D  GRAD.:   109.529 HEAT: -4.278339
 CYCLE:   147 TIME:   0.094 TIME LEFT:  2.00D  GRAD.:   227.750 HEAT: -4.136097
 CYCLE:   148 TIME:   0.102 TIME LEFT:  2.00D  GRAD.:   325.350 HEAT: -3.483231
 CYCLE:   149 TIME:   0.094 TIME LEFT:  2.00D  GRAD.:    37.793 HEAT: -4.630569
 CYCLE:   150 TIME:   0.082 TIME LEFT:  2.00D  GRAD.:    35.879 HEAT: -4.722038
 CYCLE:   151 TIME:   0.078 TIME LEFT:  2.00D  GRAD.:   123.774 HEAT: -4.758740
 CYCLE:   152 TIME:   0.078 TIME LEFT:  2.00D  GRAD.:    51.137 HEAT: -4.931001
 CYCLE:   153 TIME:   0.074 TIME LEFT:  2.00D  GRAD.:    21.748 HEAT: -4.993287
 CYCLE:   154 TIME:   0.102 TIME LEFT:  2.00D  GRAD.:    36.839 HEAT: -5.050852
 CYCLE:   155 TIME:   0.078 TIME LEFT:  2.00D  GRAD.:    43.419 HEAT: -5.104198
 CYCLE:   156 TIME:   0.078 TIME LEFT:  2.00D  GRAD.:    40.777 HEAT: -5.280715
 CYCLE:   157 TIME:   0.078 TIME LEFT:  2.00D  GRAD.:   141.309 HEAT: -4.848466
 CYCLE:   158 TIME:   0.078 TIME LEFT:  2.00D  GRAD.:    20.230 HEAT: -5.395066
 CYCLE:   159 TIME:   0.094 TIME LEFT:  2.00D  GRAD.:    12.995 HEAT: -5.417471
 CYCLE:   160 TIME:   0.078 TIME LEFT:  2.00D  GRAD.:    27.741 HEAT: -5.456611
 CYCLE:   161 TIME:   0.082 TIME LEFT:  2.00D  GRAD.:    24.018 HEAT: -5.486006
 CYCLE:   162 TIME:   0.086 TIME LEFT:  2.00D  GRAD.:    41.912 HEAT: -5.554076
 CYCLE:   163 TIME:   0.082 TIME LEFT:  2.00D  GRAD.:    90.671 HEAT: -5.483328
 CYCLE:   164 TIME:   0.086 TIME LEFT:  2.00D  GRAD.:    16.808 HEAT: -5.616984
 CYCLE:   165 TIME:   0.082 TIME LEFT:  2.00D  GRAD.:    11.325 HEAT: -5.629642
 CYCLE:   166 TIME:   0.074 TIME LEFT:  2.00D  GRAD.:    13.539 HEAT: -5.664785
 CYCLE:   167 TIME:   0.086 TIME LEFT:  2.00D  GRAD.:   189.147 HEAT: -5.392685
 CYCLE:   168 TIME:   0.082 TIME LEFT:  2.00D  GRAD.:    19.406 HEAT: -5.700689
 CYCLE:   169 TIME:   0.078 TIME LEFT:  2.00D  GRAD.:    16.226 HEAT: -5.710329
 CYCLE:   170 TIME:   0.090 TIME LEFT:  2.00D  GRAD.:    25.386 HEAT: -5.768091
 CYCLE:   171 TIME:   0.086 TIME LEFT:  2.00D  GRAD.:    19.382 HEAT: -5.803262
 CYCLE:   172 TIME:   0.078 TIME LEFT:  2.00D  GRAD.:    18.833 HEAT: -5.881538
 CYCLE:   173 TIME:   0.082 TIME LEFT:  2.00D  GRAD.:    27.257 HEAT: -5.913984
 CYCLE:   174 TIME:   0.082 TIME LEFT:  2.00D  GRAD.:    18.461 HEAT: -5.953901
 CYCLE:   175 TIME:   0.074 TIME LEFT:  2.00D  GRAD.:    16.227 HEAT: -5.994205
 CYCLE:   176 TIME:   0.078 TIME LEFT:  2.00D  GRAD.:    17.738 HEAT: -6.046786
 CYCLE:   177 TIME:   0.078 TIME LEFT:  2.00D  GRAD.:    90.685 HEAT: -5.968493
 CYCLE:   178 TIME:   0.129 TIME LEFT:  2.00D  GRAD.:    11.507 HEAT: -6.092147
 CYCLE:   179 TIME:   0.086 TIME LEFT:  2.00D  GRAD.:    10.740 HEAT: -6.104299
 CYCLE:   180 TIME:   0.102 TIME LEFT:  2.00D  GRAD.:    13.320 HEAT: -6.123448
 CYCLE:   181 TIME:   0.090 TIME LEFT:  2.00D  GRAD.:    12.304 HEAT: -6.143916
 CYCLE:   182 TIME:   0.086 TIME LEFT:  2.00D  GRAD.:   126.646 HEAT: -6.045609
 CYCLE:   183 TIME:   0.090 TIME LEFT:  2.00D  GRAD.:    11.830 HEAT: -6.162838
 CYCLE:   184 TIME:   0.086 TIME LEFT:  2.00D  GRAD.:     9.366 HEAT: -6.167147
 CYCLE:   185 TIME:   0.086 TIME LEFT:  2.00D  GRAD.:     9.320 HEAT: -6.179155
 CYCLE:   186 TIME:   0.094 TIME LEFT:  2.00D  GRAD.:    11.999 HEAT: -6.190091
 CYCLE:   187 TIME:   0.082 TIME LEFT:  2.00D  GRAD.:    16.355 HEAT: -6.204119
 CYCLE:   188 TIME:   0.105 TIME LEFT:  2.00D  GRAD.:    10.680 HEAT: -6.216368
 CYCLE:   189 TIME:   0.105 TIME LEFT:  2.00D  GRAD.:     9.184 HEAT: -6.232511
 CYCLE:   190 TIME:   0.109 TIME LEFT:  2.00D  GRAD.:     9.844 HEAT: -6.244462
 CYCLE:   191 TIME:   0.102 TIME LEFT:  2.00D  GRAD.:    19.006 HEAT: -6.265191
 CYCLE:   192 TIME:   0.105 TIME LEFT:  2.00D  GRAD.:    12.527 HEAT: -6.275892
 CYCLE:   193 TIME:   0.094 TIME LEFT:  2.00D  GRAD.:     6.011 HEAT: -6.281913
 CYCLE:   194 TIME:   0.074 TIME LEFT:  2.00D  GRAD.:     5.444 HEAT: -6.285901
 CYCLE:   195 TIME:   0.109 TIME LEFT:  2.00D  GRAD.:     6.198 HEAT: -6.292468
 CYCLE:   196 TIME:   0.109 TIME LEFT:  2.00D  GRAD.:    29.899 HEAT: -6.300953
 CYCLE:   197 TIME:   0.121 TIME LEFT:  2.00D  GRAD.:    22.902 HEAT: -6.309075
 CYCLE:   198 TIME:   0.109 TIME LEFT:  2.00D  GRAD.:     8.261 HEAT: -6.316952
 CYCLE:   199 TIME:   0.109 TIME LEFT:  2.00D  GRAD.:     6.264 HEAT: -6.320621
 CYCLE:   200 TIME:   0.109 TIME LEFT:  2.00D  GRAD.:     8.919 HEAT: -6.326463
 CYCLE:   201 TIME:   0.090 TIME LEFT:  2.00D  GRAD.:    11.004 HEAT: -6.335788
 CYCLE:   202 TIME:   0.094 TIME LEFT:  2.00D  GRAD.:    19.318 HEAT: -6.351293
 CYCLE:   203 TIME:   0.078 TIME LEFT:  2.00D  GRAD.:    12.873 HEAT: -6.367110
 CYCLE:   204 TIME:   0.086 TIME LEFT:  2.00D  GRAD.:     8.838 HEAT: -6.376878
 CYCLE:   205 TIME:   0.113 TIME LEFT:  2.00D  GRAD.:    10.627 HEAT: -6.386823
 CYCLE:   206 TIME:   0.086 TIME LEFT:  2.00D  GRAD.:    20.151 HEAT: -6.395586
 CYCLE:   207 TIME:   0.074 TIME LEFT:  2.00D  GRAD.:    14.832 HEAT: -6.404556
 CYCLE:   208 TIME:   0.094 TIME LEFT:  2.00D  GRAD.:     5.687 HEAT: -6.416959
 CYCLE:   209 TIME:   0.082 TIME LEFT:  2.00D  GRAD.:     6.898 HEAT: -6.420821
 CYCLE:   210 TIME:   0.086 TIME LEFT:  2.00D  GRAD.:    12.421 HEAT: -6.430059
 CYCLE:   211 TIME:   0.090 TIME LEFT:  2.00D  GRAD.:    52.911 HEAT: -6.422867
 CYCLE:   212 TIME:   0.086 TIME LEFT:  2.00D  GRAD.:    13.709 HEAT: -6.444464
 CYCLE:   213 TIME:   0.078 TIME LEFT:  2.00D  GRAD.:     6.918 HEAT: -6.448963
 CYCLE:   214 TIME:   0.078 TIME LEFT:  2.00D  GRAD.:     8.768 HEAT: -6.453633
 CYCLE:   215 TIME:   0.078 TIME LEFT:  2.00D  GRAD.:     9.340 HEAT: -6.459022
 CYCLE:   216 TIME:   0.086 TIME LEFT:  2.00D  GRAD.:    10.534 HEAT: -6.487965
 CYCLE:   217 TIME:   0.090 TIME LEFT:  2.00D  GRAD.:    26.858 HEAT: -6.482349
 CYCLE:   218 TIME:   0.074 TIME LEFT:  2.00D  GRAD.:    18.800 HEAT: -6.499030
 CYCLE:   219 TIME:   0.074 TIME LEFT:  2.00D  GRAD.:     5.373 HEAT: -6.509342
 CYCLE:   220 TIME:   0.086 TIME LEFT:  2.00D  GRAD.:     6.621 HEAT: -6.514289
 CYCLE:   221 TIME:   0.082 TIME LEFT:  2.00D  GRAD.:     9.302 HEAT: -6.523259
 CYCLE:   222 TIME:   0.082 TIME LEFT:  2.00D  GRAD.:    22.956 HEAT: -6.521756
 CYCLE:   223 TIME:   0.102 TIME LEFT:  2.00D  GRAD.:     7.782 HEAT: -6.541254
 CYCLE:   224 TIME:   0.078 TIME LEFT:  2.00D  GRAD.:     6.049 HEAT: -6.546441
 CYCLE:   225 TIME:   0.082 TIME LEFT:  2.00D  GRAD.:    10.724 HEAT: -6.557164
 CYCLE:   226 TIME:   0.074 TIME LEFT:  2.00D  GRAD.:    25.012 HEAT: -6.564795
 CYCLE:   227 TIME:   0.074 TIME LEFT:  2.00D  GRAD.:     8.112 HEAT: -6.574540
 CYCLE:   228 TIME:   0.090 TIME LEFT:  2.00D  GRAD.:     6.149 HEAT: -6.579424
 CYCLE:   229 TIME:   0.074 TIME LEFT:  2.00D  GRAD.:     6.203 HEAT: -6.585601
 CYCLE:   230 TIME:   0.090 TIME LEFT:  2.00D  GRAD.:     5.804 HEAT: -6.598268
 CYCLE:   231 TIME:   0.074 TIME LEFT:  2.00D  GRAD.:    25.052 HEAT: -6.605596
 CYCLE:   232 TIME:   0.082 TIME LEFT:  2.00D  GRAD.:     6.210 HEAT: -6.618686
 CYCLE:   233 TIME:   0.078 TIME LEFT:  2.00D  GRAD.:     4.603 HEAT: -6.622940
 CYCLE:   234 TIME:   0.074 TIME LEFT:  2.00D  GRAD.:     5.428 HEAT: -6.626910
 CYCLE:   235 TIME:   0.074 TIME LEFT:  2.00D  GRAD.:    14.287 HEAT: -6.633722
 CYCLE:   236 TIME:   0.086 TIME LEFT:  2.00D  GRAD.:     7.961 HEAT: -6.642876
 CYCLE:   237 TIME:   0.090 TIME LEFT:  2.00D  GRAD.:     5.247 HEAT: -6.649309
 CYCLE:   238 TIME:   0.098 TIME LEFT:  2.00D  GRAD.:     5.568 HEAT: -6.655137
 CYCLE:   239 TIME:   0.082 TIME LEFT:  2.00D  GRAD.:     8.187 HEAT: -6.659708
 CYCLE:   240 TIME:   0.082 TIME LEFT:  2.00D  GRAD.:    85.751 HEAT: -6.608395
 CYCLE:   241 TIME:   0.090 TIME LEFT:  2.00D  GRAD.:    23.575 HEAT: -6.656663
 CYCLE:   242 TIME:   0.090 TIME LEFT:  2.00D  GRAD.:    31.692 HEAT: -6.657147
 CYCLE:   243 TIME:   0.078 TIME LEFT:  2.00D  GRAD.:     5.752 HEAT: -6.665362
 CYCLE:   244 TIME:   0.078 TIME LEFT:  2.00D  GRAD.:     5.532 HEAT: -6.665983
 CYCLE:   245 TIME:   0.090 TIME LEFT:  2.00D  GRAD.:     5.425 HEAT: -6.667933
 CYCLE:   246 TIME:   0.078 TIME LEFT:  2.00D  GRAD.:    21.835 HEAT: -6.666851
 CYCLE:   247 TIME:   0.094 TIME LEFT:  2.00D  GRAD.:     5.523 HEAT: -6.674009
 CYCLE:   248 TIME:   0.086 TIME LEFT:  2.00D  GRAD.:     3.154 HEAT: -6.675649
 CYCLE:   249 TIME:   0.086 TIME LEFT:  2.00D  GRAD.:     3.658 HEAT: -6.678021
 CYCLE:   250 TIME:   0.082 TIME LEFT:  2.00D  GRAD.:     4.593 HEAT: -6.680969
 CYCLE:   251 TIME:   0.082 TIME LEFT:  2.00D  GRAD.:    13.584 HEAT: -6.683535
 CYCLE:   252 TIME:   0.074 TIME LEFT:  2.00D  GRAD.:     4.159 HEAT: -6.689344
 CYCLE:   253 TIME:   0.074 TIME LEFT:  2.00D  GRAD.:     4.408 HEAT: -6.692056
 CYCLE:   254 TIME:   0.082 TIME LEFT:  2.00D  GRAD.:     5.803 HEAT: -6.696460
 CYCLE:   255 TIME:   0.090 TIME LEFT:  2.00D  GRAD.:     5.484 HEAT: -6.702084
 CYCLE:   256 TIME:   0.078 TIME LEFT:  2.00D  GRAD.:    26.351 HEAT: -6.705299
 CYCLE:   257 TIME:   0.078 TIME LEFT:  2.00D  GRAD.:    11.678 HEAT: -6.710621
 CYCLE:   258 TIME:   0.074 TIME LEFT:  2.00D  GRAD.:     4.541 HEAT: -6.712612
 CYCLE:   259 TIME:   0.074 TIME LEFT:  2.00D  GRAD.:     4.010 HEAT: -6.713655
 CYCLE:   260 TIME:   0.078 TIME LEFT:  2.00D  GRAD.:     6.192 HEAT: -6.716600
 CYCLE:   261 TIME:   0.074 TIME LEFT:  2.00D  GRAD.:     6.712 HEAT: -6.719520
 CYCLE:   262 TIME:   0.082 TIME LEFT:  2.00D  GRAD.:    21.746 HEAT: -6.714098
 CYCLE:   263 TIME:   0.074 TIME LEFT:  2.00D  GRAD.:     4.226 HEAT: -6.724440
 CYCLE:   264 TIME:   0.074 TIME LEFT:  2.00D  GRAD.:     3.087 HEAT: -6.725617
 CYCLE:   265 TIME:   0.074 TIME LEFT:  2.00D  GRAD.:     6.009 HEAT: -6.726772
 CYCLE:   266 TIME:   0.074 TIME LEFT:  2.00D  GRAD.:     6.460 HEAT: -6.728519
 CYCLE:   267 TIME:   0.078 TIME LEFT:  2.00D  GRAD.:     3.979 HEAT: -6.734264
 CYCLE:   268 TIME:   0.082 TIME LEFT:  2.00D  GRAD.:    11.496 HEAT: -6.736409
 CYCLE:   269 TIME:   0.078 TIME LEFT:  2.00D  GRAD.:     3.234 HEAT: -6.740129
 CYCLE:   270 TIME:   0.086 TIME LEFT:  2.00D  GRAD.:     2.812 HEAT: -6.740849
 CYCLE:   271 TIME:   0.086 TIME LEFT:  2.00D  GRAD.:    18.389 HEAT: -6.742217
 CYCLE:   272 TIME:   0.078 TIME LEFT:  2.00D  GRAD.:     3.693 HEAT: -6.745044
 CYCLE:   273 TIME:   0.074 TIME LEFT:  2.00D  GRAD.:     3.265 HEAT: -6.746785
 CYCLE:   274 TIME:   0.102 TIME LEFT:  2.00D  GRAD.:     4.361 HEAT: -6.748968
 CYCLE:   275 TIME:   0.090 TIME LEFT:  2.00D  GRAD.:     9.408 HEAT: -6.747965
 CYCLE:   276 TIME:   0.078 TIME LEFT:  2.00D  GRAD.:    10.145 HEAT: -6.752938
 CYCLE:   277 TIME:   0.086 TIME LEFT:  2.00D  GRAD.:     6.236 HEAT: -6.753731
 CYCLE:   278 TIME:   0.082 TIME LEFT:  2.00D  GRAD.:     2.270 HEAT: -6.755327
 CYCLE:   279 TIME:   0.078 TIME LEFT:  2.00D  GRAD.:     2.161 HEAT: -6.756195
 CYCLE:   280 TIME:   0.090 TIME LEFT:  2.00D  GRAD.:     3.031 HEAT: -6.757975
 CYCLE:   281 TIME:   0.082 TIME LEFT:  2.00D  GRAD.:     3.625 HEAT: -6.760157
 CYCLE:   282 TIME:   0.078 TIME LEFT:  2.00D  GRAD.:     6.059 HEAT: -6.759917
 CYCLE:   283 TIME:   0.090 TIME LEFT:  2.00D  GRAD.:     8.540 HEAT: -6.760804
 CYCLE:   284 TIME:   0.090 TIME LEFT:  2.00D  GRAD.:     1.609 HEAT: -6.762395
 CYCLE:   285 TIME:   0.086 TIME LEFT:  2.00D  GRAD.:     1.635 HEAT: -6.762550
 CYCLE:   286 TIME:   0.094 TIME LEFT:  2.00D  GRAD.:     3.872 HEAT: -6.763228
 CYCLE:   287 TIME:   0.109 TIME LEFT:  2.00D  GRAD.:     9.741 HEAT: -6.763331
 CYCLE:   288 TIME:   0.078 TIME LEFT:  2.00D  GRAD.:     2.250 HEAT: -6.764026
 CYCLE:   289 TIME:   0.109 TIME LEFT:  2.00D  GRAD.:     3.636 HEAT: -6.764039
 CYCLE:   290 TIME:   0.102 TIME LEFT:  2.00D  GRAD.:     1.579 HEAT: -6.764336
 CYCLE:   291 TIME:   0.082 TIME LEFT:  2.00D  GRAD.:     2.992 HEAT: -6.764649
 CYCLE:   292 TIME:   0.098 TIME LEFT:  2.00D  GRAD.:     3.390 HEAT: -6.765005
 CYCLE:   293 TIME:   0.102 TIME LEFT:  2.00D  GRAD.:     3.150 HEAT: -6.766077
 CYCLE:   294 TIME:   0.086 TIME LEFT:  2.00D  GRAD.:     8.327 HEAT: -6.764926
 CYCLE:   295 TIME:   0.094 TIME LEFT:  2.00D  GRAD.:     1.502 HEAT: -6.767071
 CYCLE:   296 TIME:   0.078 TIME LEFT:  2.00D  GRAD.:     1.154 HEAT: -6.767312
 CYCLE:   297 TIME:   0.094 TIME LEFT:  2.00D  GRAD.:     2.350 HEAT: -6.767746
 CYCLE:   298 TIME:   0.078 TIME LEFT:  2.00D  GRAD.:     2.020 HEAT: -6.768084
 CYCLE:   299 TIME:   0.102 TIME LEFT:  2.00D  GRAD.:     1.573 HEAT: -6.768415
 CYCLE:   300 TIME:   0.078 TIME LEFT:  2.00D  GRAD.:     1.662 HEAT: -6.768636
 CYCLE:   301 TIME:   0.078 TIME LEFT:  2.00D  GRAD.:     5.432 HEAT: -6.768819
 CYCLE:   302 TIME:   0.074 TIME LEFT:  2.00D  GRAD.:     2.092 HEAT: -6.769124
 CYCLE:   303 TIME:   0.074 TIME LEFT:  2.00D  GRAD.:     1.439 HEAT: -6.769320
 CYCLE:   304 TIME:   0.109 TIME LEFT:  2.00D  GRAD.:     4.783 HEAT: -6.769501
 CYCLE:   305 TIME:   0.113 TIME LEFT:  2.00D  GRAD.:     2.029 HEAT: -6.769702
 CYCLE:   306 TIME:   0.109 TIME LEFT:  2.00D  GRAD.:     1.556 HEAT: -6.769866
 CYCLE:   307 TIME:   0.082 TIME LEFT:  2.00D  GRAD.:     1.654 HEAT: -6.769959
 CYCLE:   308 TIME:   0.105 TIME LEFT:  2.00D  GRAD.:     3.670 HEAT: -6.770380
 CYCLE:   309 TIME:   0.098 TIME LEFT:  2.00D  GRAD.:     2.540 HEAT: -6.770708
 CYCLE:   310 TIME:   0.105 TIME LEFT:  2.00D  GRAD.:     1.639 HEAT: -6.770947
 CYCLE:   311 TIME:   0.102 TIME LEFT:  2.00D  GRAD.:     1.219 HEAT: -6.771261
 CYCLE:   312 TIME:   0.102 TIME LEFT:  2.00D  GRAD.:     1.869 HEAT: -6.771650
 CYCLE:   313 TIME:   0.117 TIME LEFT:  2.00D  GRAD.:     2.434 HEAT: -6.772211
 CYCLE:   314 TIME:   0.105 TIME LEFT:  2.00D  GRAD.:     1.283 HEAT: -6.772973
 CYCLE:   315 TIME:   0.105 TIME LEFT:  2.00D  GRAD.:     2.459 HEAT: -6.773305
 CYCLE:   316 TIME:   0.109 TIME LEFT:  2.00D  GRAD.:     4.882 HEAT: -6.773310
 CYCLE:   317 TIME:   0.098 TIME LEFT:  2.00D  GRAD.:     1.501 HEAT: -6.773793
 CYCLE:   318 TIME:   0.094 TIME LEFT:  2.00D  GRAD.:     1.228 HEAT: -6.773943
 CYCLE:   319 TIME:   0.090 TIME LEFT:  2.00D  GRAD.:     1.766 HEAT: -6.774189
 CYCLE:   320 TIME:   0.086 TIME LEFT:  2.00D  GRAD.:     4.303 HEAT: -6.774438
 CYCLE:   321 TIME:   0.102 TIME LEFT:  2.00D  GRAD.:     1.622 HEAT: -6.774913
 CYCLE:   322 TIME:   0.121 TIME LEFT:  2.00D  GRAD.:     1.850 HEAT: -6.775232
 CYCLE:   323 TIME:   0.102 TIME LEFT:  2.00D  GRAD.:     1.675 HEAT: -6.775483
 CYCLE:   324 TIME:   0.094 TIME LEFT:  2.00D  GRAD.:     1.506 HEAT: -6.775748
 CYCLE:   325 TIME:   0.094 TIME LEFT:  2.00D  GRAD.:     2.038 HEAT: -6.776150
 CYCLE:   326 TIME:   0.109 TIME LEFT:  2.00D  GRAD.:     1.630 HEAT: -6.776500
 CYCLE:   327 TIME:   0.090 TIME LEFT:  2.00D  GRAD.:     1.706 HEAT: -6.776986
 CYCLE:   328 TIME:   0.105 TIME LEFT:  2.00D  GRAD.:     1.459 HEAT: -6.777279
 CYCLE:   329 TIME:   0.109 TIME LEFT:  2.00D  GRAD.:     1.192 HEAT: -6.777484
 CYCLE:   330 TIME:   0.094 TIME LEFT:  2.00D  GRAD.:     1.358 HEAT: -6.777878
 CYCLE:   331 TIME:   0.113 TIME LEFT:  2.00D  GRAD.:     3.113 HEAT: -6.777984
 CYCLE:   332 TIME:   0.113 TIME LEFT:  2.00D  GRAD.:     5.507 HEAT: -6.777824
 CYCLE:   333 TIME:   0.102 TIME LEFT:  2.00D  GRAD.:     1.591 HEAT: -6.778494
 CYCLE:   334 TIME:   0.102 TIME LEFT:  2.00D  GRAD.:     2.906 HEAT: -6.778585
 CYCLE:   335 TIME:   0.105 TIME LEFT:  2.00D  GRAD.:     1.510 HEAT: -6.778767
 CYCLE:   336 TIME:   0.121 TIME LEFT:  2.00D  GRAD.:     0.928 HEAT: -6.778894
 CYCLE:   337 TIME:   0.109 TIME LEFT:  2.00D  GRAD.:     1.397 HEAT: -6.779044
 CYCLE:   338 TIME:   0.121 TIME LEFT:  2.00D  GRAD.:     1.336 HEAT: -6.779350
 CYCLE:   339 TIME:   0.094 TIME LEFT:  2.00D  GRAD.:     1.848 HEAT: -6.779953
 CYCLE:   340 TIME:   0.098 TIME LEFT:  2.00D  GRAD.:     5.041 HEAT: -6.779974
 CYCLE:   341 TIME:   0.105 TIME LEFT:  2.00D  GRAD.:     1.509 HEAT: -6.780578
 CYCLE:   342 TIME:   0.098 TIME LEFT:  2.00D  GRAD.:     1.133 HEAT: -6.780716
 CYCLE:   343 TIME:   0.109 TIME LEFT:  2.00D  GRAD.:     1.810 HEAT: -6.780903
 CYCLE:   344 TIME:   0.094 TIME LEFT:  2.00D  GRAD.:     1.115 HEAT: -6.781084
 CYCLE:   345 TIME:   0.105 TIME LEFT:  2.00D  GRAD.:     1.089 HEAT: -6.781388
 CYCLE:   346 TIME:   0.094 TIME LEFT:  2.00D  GRAD.:     1.303 HEAT: -6.781676
 CYCLE:   347 TIME:   0.102 TIME LEFT:  2.00D  GRAD.:     3.198 HEAT: -6.781911
 CYCLE:   348 TIME:   0.086 TIME LEFT:  2.00D  GRAD.:     3.444 HEAT: -6.782007
 CYCLE:   349 TIME:   0.102 TIME LEFT:  2.00D  GRAD.:     1.076 HEAT: -6.782169
 CYCLE:   350 TIME:   0.105 TIME LEFT:  2.00D  GRAD.:     1.176 HEAT: -6.782234
 CYCLE:   351 TIME:   0.102 TIME LEFT:  2.00D  GRAD.:     1.320 HEAT: -6.782365
 CYCLE:   352 TIME:   0.113 TIME LEFT:  2.00D  GRAD.:     3.022 HEAT: -6.782492
 CYCLE:   353 TIME:   0.082 TIME LEFT:  2.00D  GRAD.:     1.442 HEAT: -6.782725
 CYCLE:   354 TIME:   0.078 TIME LEFT:  2.00D  GRAD.:     0.873 HEAT: -6.782832
 CYCLE:   355 TIME:   0.082 TIME LEFT:  2.00D  GRAD.:     3.003 HEAT: -6.782954
 CYCLE:   356 TIME:   0.086 TIME LEFT:  2.00D  GRAD.:     1.870 HEAT: -6.783089
 CYCLE:   357 TIME:   0.090 TIME LEFT:  2.00D  GRAD.:     0.632 HEAT: -6.783242
 CYCLE:   358 TIME:   0.117 TIME LEFT:  2.00D  GRAD.:     1.578 HEAT: -6.783341
 CYCLE:   359 TIME:   0.105 TIME LEFT:  2.00D  GRAD.:     1.347 HEAT: -6.783416
 CYCLE:   360 TIME:   0.102 TIME LEFT:  2.00D  GRAD.:     1.830 HEAT: -6.783613
 CYCLE:   361 TIME:   0.117 TIME LEFT:  2.00D  GRAD.:     0.941 HEAT: -6.783660
 CYCLE:   362 TIME:   0.090 TIME LEFT:  2.00D  GRAD.:     0.801 HEAT: -6.783708
 CYCLE:   363 TIME:   0.102 TIME LEFT:  2.00D  GRAD.:     1.718 HEAT: -6.783769
 CYCLE:   364 TIME:   0.098 TIME LEFT:  2.00D  GRAD.:     0.974 HEAT: -6.783829
 CYCLE:   365 TIME:   0.090 TIME LEFT:  2.00D  GRAD.:     0.818 HEAT: -6.783929
 CYCLE:   366 TIME:   0.094 TIME LEFT:  2.00D  GRAD.:     1.004 HEAT: -6.784025
 CYCLE:   367 TIME:   0.090 TIME LEFT:  2.00D  GRAD.:     1.032 HEAT: -6.784196
 CYCLE:   368 TIME:   0.125 TIME LEFT:  2.00D  GRAD.:     2.549 HEAT: -6.784196
 CYCLE:   369 TIME:   0.113 TIME LEFT:  2.00D  GRAD.:     0.979 HEAT: -6.784396
 CYCLE:   370 TIME:   0.125 TIME LEFT:  2.00D  GRAD.:     0.886 HEAT: -6.784517
 CYCLE:   371 TIME:   0.094 TIME LEFT:  2.00D  GRAD.:     0.988 HEAT: -6.784640
 CYCLE:   372 TIME:   0.125 TIME LEFT:  2.00D  GRAD.:     1.070 HEAT: -6.784864
 CYCLE:   373 TIME:   0.109 TIME LEFT:  2.00D  GRAD.:     1.431 HEAT: -6.785050
 CYCLE:   374 TIME:   0.117 TIME LEFT:  2.00D  GRAD.:     1.805 HEAT: -6.785213
 CYCLE:   375 TIME:   0.105 TIME LEFT:  2.00D  GRAD.:     2.484 HEAT: -6.785292
 CYCLE:   376 TIME:   0.113 TIME LEFT:  2.00D  GRAD.:     0.548 HEAT: -6.785343
 CYCLE:   377 TIME:   0.102 TIME LEFT:  2.00D  GRAD.:     0.733 HEAT: -6.785357
 CYCLE:   378 TIME:   0.105 TIME LEFT:  2.00D  GRAD.:     0.776 HEAT: -6.785387
 CYCLE:   379 TIME:   0.086 TIME LEFT:  2.00D  GRAD.:     2.164 HEAT: -6.785455
 CYCLE:   380 TIME:   0.090 TIME LEFT:  2.00D  GRAD.:     2.269 HEAT: -6.785384
 CYCLE:   381 TIME:   0.105 TIME LEFT:  2.00D  GRAD.:     0.628 HEAT: -6.785707
 CYCLE:   382 TIME:   0.086 TIME LEFT:  2.00D  GRAD.:     0.651 HEAT: -6.785768
 CYCLE:   383 TIME:   0.102 TIME LEFT:  2.00D  GRAD.:     0.814 HEAT: -6.785847
 CYCLE:   384 TIME:   0.105 TIME LEFT:  2.00D  GRAD.:     0.544 HEAT: -6.785907
 CYCLE:   385 TIME:   0.090 TIME LEFT:  2.00D  GRAD.:     0.657 HEAT: -6.786003
 CYCLE:   386 TIME:   0.094 TIME LEFT:  2.00D  GRAD.:     0.895 HEAT: -6.786053
 CYCLE:   387 TIME:   0.105 TIME LEFT:  2.00D  GRAD.:     0.741 HEAT: -6.786112
 CYCLE:   388 TIME:   0.094 TIME LEFT:  2.00D  GRAD.:     0.549 HEAT: -6.786169
 CYCLE:   389 TIME:   0.094 TIME LEFT:  2.00D  GRAD.:     4.856 HEAT: -6.786145
 CYCLE:   390 TIME:   0.090 TIME LEFT:  2.00D  GRAD.:     0.986 HEAT: -6.786277
 CYCLE:   391 TIME:   0.074 TIME LEFT:  2.00D  GRAD.:     0.588 HEAT: -6.786298
 CYCLE:   392 TIME:   0.078 TIME LEFT:  2.00D  GRAD.:     0.530 HEAT: -6.786360
 CYCLE:   393 TIME:   0.074 TIME LEFT:  2.00D  GRAD.:     0.612 HEAT: -6.786467
 CYCLE:   394 TIME:   0.098 TIME LEFT:  2.00D  GRAD.:     1.511 HEAT: -6.786546
 CYCLE:   395 TIME:   0.078 TIME LEFT:  2.00D  GRAD.:     0.958 HEAT: -6.786644
 CYCLE:   396 TIME:   0.078 TIME LEFT:  2.00D  GRAD.:     0.783 HEAT: -6.786723
 CYCLE:   397 TIME:   0.090 TIME LEFT:  2.00D  GRAD.:     0.638 HEAT: -6.786873
 CYCLE:   398 TIME:   0.086 TIME LEFT:  2.00D  GRAD.:     2.204 HEAT: -6.786796
 CYCLE:   399 TIME:   0.090 TIME LEFT:  2.00D  GRAD.:     0.558 HEAT: -6.787000
 CYCLE:   400 TIME:   0.082 TIME LEFT:  2.00D  GRAD.:     0.418 HEAT: -6.787039
 CYCLE:   401 TIME:   0.078 TIME LEFT:  2.00D  GRAD.:     1.258 HEAT: -6.787113
 CYCLE:   402 TIME:   0.078 TIME LEFT:  2.00D  GRAD.:     0.947 HEAT: -6.787178
 CYCLE:   403 TIME:   0.086 TIME LEFT:  2.00D  GRAD.:     0.963 HEAT: -6.787225
 CYCLE:   404 TIME:   0.094 TIME LEFT:  2.00D  GRAD.:     0.810 HEAT: -6.787258
 CYCLE:   405 TIME:   0.094 TIME LEFT:  2.00D  GRAD.:     0.515 HEAT: -6.787299
 CYCLE:   406 TIME:   0.102 TIME LEFT:  2.00D  GRAD.:     0.559 HEAT: -6.787341
 CYCLE:   407 TIME:   0.086 TIME LEFT:  2.00D  GRAD.:     0.675 HEAT: -6.787399
 CYCLE:   408 TIME:   0.086 TIME LEFT:  2.00D  GRAD.:     1.428 HEAT: -6.787545
 CYCLE:   409 TIME:   0.078 TIME LEFT:  2.00D  GRAD.:     0.914 HEAT: -6.787624
 CYCLE:   410 TIME:   0.094 TIME LEFT:  2.00D  GRAD.:     0.581 HEAT: -6.787658
 CYCLE:   411 TIME:   0.082 TIME LEFT:  2.00D  GRAD.:     0.615 HEAT: -6.787694
 CYCLE:   412 TIME:   0.082 TIME LEFT:  2.00D  GRAD.:     0.591 HEAT: -6.787785
 CYCLE:   413 TIME:   0.086 TIME LEFT:  2.00D  GRAD.:     0.509 HEAT: -6.787910
 CYCLE:   414 TIME:   0.090 TIME LEFT:  2.00D  GRAD.:     1.073 HEAT: -6.787996
 CYCLE:   415 TIME:   0.090 TIME LEFT:  2.00D  GRAD.:     0.855 HEAT: -6.788060
 CYCLE:   416 TIME:   0.090 TIME LEFT:  2.00D  GRAD.:     0.581 HEAT: -6.788099
 CYCLE:   417 TIME:   0.086 TIME LEFT:  2.00D  GRAD.:     1.005 HEAT: -6.788160
 CYCLE:   418 TIME:   0.086 TIME LEFT:  2.00D  GRAD.:     1.329 HEAT: -6.788200
 CYCLE:   419 TIME:   0.086 TIME LEFT:  2.00D  GRAD.:     0.811 HEAT: -6.788236
 CYCLE:   420 TIME:   0.082 TIME LEFT:  2.00D  GRAD.:     0.633 HEAT: -6.788294
 CYCLE:   421 TIME:   0.078 TIME LEFT:  2.00D  GRAD.:     0.628 HEAT: -6.788341
 CYCLE:   422 TIME:   0.078 TIME LEFT:  2.00D  GRAD.:     0.498 HEAT: -6.788444
 CYCLE:   423 TIME:   0.090 TIME LEFT:  2.00D  GRAD.:     1.138 HEAT: -6.788507
 CYCLE:   424 TIME:   0.086 TIME LEFT:  2.00D  GRAD.:     0.606 HEAT: -6.788573
 CYCLE:   425 TIME:   0.086 TIME LEFT:  2.00D  GRAD.:     0.628 HEAT: -6.788660
 CYCLE:   426 TIME:   0.090 TIME LEFT:  2.00D  GRAD.:     1.152 HEAT: -6.788710
 CYCLE:   427 TIME:   0.078 TIME LEFT:  2.00D  GRAD.:     0.554 HEAT: -6.788790
 CYCLE:   428 TIME:   0.082 TIME LEFT:  2.00D  GRAD.:     0.850 HEAT: -6.788847
 CYCLE:   429 TIME:   0.082 TIME LEFT:  2.00D  GRAD.:     0.868 HEAT: -6.788912
 CYCLE:   430 TIME:   0.086 TIME LEFT:  2.00D  GRAD.:     1.143 HEAT: -6.788992
 CYCLE:   431 TIME:   0.082 TIME LEFT:  2.00D  GRAD.:     1.884 HEAT: -6.789088
 CYCLE:   432 TIME:   0.094 TIME LEFT:  2.00D  GRAD.:     2.337 HEAT: -6.789115
 CYCLE:   433 TIME:   0.086 TIME LEFT:  2.00D  GRAD.:     0.713 HEAT: -6.789229
 CYCLE:   434 TIME:   0.086 TIME LEFT:  2.00D  GRAD.:     0.643 HEAT: -6.789229
 CYCLE:   435 TIME:   0.086 TIME LEFT:  2.00D  GRAD.:     1.572 HEAT: -6.789349
 CYCLE:   436 TIME:   0.082 TIME LEFT:  2.00D  GRAD.:     3.000 HEAT: -6.789357
 CYCLE:   437 TIME:   0.074 TIME LEFT:  2.00D  GRAD.:     0.753 HEAT: -6.789581
 CYCLE:   438 TIME:   0.082 TIME LEFT:  2.00D  GRAD.:     0.581 HEAT: -6.789623
 CYCLE:   439 TIME:   0.098 TIME LEFT:  2.00D  GRAD.:     1.084 HEAT: -6.789737
 CYCLE:   440 TIME:   0.086 TIME LEFT:  2.00D  GRAD.:     1.126 HEAT: -6.789822
 CYCLE:   441 TIME:   0.078 TIME LEFT:  2.00D  GRAD.:     0.940 HEAT: -6.789911
 CYCLE:   442 TIME:   0.078 TIME LEFT:  2.00D  GRAD.:     0.793 HEAT: -6.789981
 CYCLE:   443 TIME:   0.098 TIME LEFT:  2.00D  GRAD.:     1.499 HEAT: -6.790114
 CYCLE:   444 TIME:   0.102 TIME LEFT:  2.00D  GRAD.:     1.542 HEAT: -6.790163
 CYCLE:   445 TIME:   0.090 TIME LEFT:  2.00D  GRAD.:     0.583 HEAT: -6.790224
 CYCLE:   446 TIME:   0.098 TIME LEFT:  2.00D  GRAD.:     1.592 HEAT: -6.790205
 CYCLE:   447 TIME:   0.082 TIME LEFT:  2.00D  GRAD.:     0.789 HEAT: -6.790284
 CYCLE:   448 TIME:   0.086 TIME LEFT:  2.00D  GRAD.:     1.907 HEAT: -6.790288
 CYCLE:   449 TIME:   0.082 TIME LEFT:  2.00D  GRAD.:     0.749 HEAT: -6.790384
 CYCLE:   450 TIME:   0.094 TIME LEFT:  2.00D  GRAD.:     1.626 HEAT: -6.790449
 CYCLE:   451 TIME:   0.094 TIME LEFT:  2.00D  GRAD.:     0.873 HEAT: -6.790514
 CYCLE:   452 TIME:   0.102 TIME LEFT:  2.00D  GRAD.:     0.777 HEAT: -6.790569
 CYCLE:   453 TIME:   0.105 TIME LEFT:  2.00D  GRAD.:     1.056 HEAT: -6.790660
 CYCLE:   454 TIME:   0.117 TIME LEFT:  2.00D  GRAD.:     1.579 HEAT: -6.790759
 CYCLE:   455 TIME:   0.109 TIME LEFT:  2.00D  GRAD.:     1.163 HEAT: -6.790888
 CYCLE:   456 TIME:   0.098 TIME LEFT:  2.00D  GRAD.:     1.827 HEAT: -6.790910
 CYCLE:   457 TIME:   0.102 TIME LEFT:  2.00D  GRAD.:    16.336 HEAT: -6.787376
 CYCLE:   458 TIME:   0.078 TIME LEFT:  2.00D  GRAD.:     7.296 HEAT: -6.790091
 CYCLE:   459 TIME:   0.082 TIME LEFT:  2.00D  GRAD.:     3.912 HEAT: -6.789994
 CYCLE:   460 TIME:   0.078 TIME LEFT:  2.00D  GRAD.:    15.469 HEAT: -6.786689
 CYCLE:   461 TIME:   0.090 TIME LEFT:  2.00D  GRAD.:     0.920 HEAT: -6.790906
 CYCLE:   462 TIME:   0.117 TIME LEFT:  2.00D  GRAD.:     2.090 HEAT: -6.790942
 CYCLE:   463 TIME:   0.129 TIME LEFT:  2.00D  GRAD.:     0.531 HEAT: -6.791081
 CYCLE:   464 TIME:   0.113 TIME LEFT:  2.00D  GRAD.:     0.569 HEAT: -6.791120
 CYCLE:   465 TIME:   0.109 TIME LEFT:  2.00D  GRAD.:     3.060 HEAT: -6.791075
 CYCLE:   466 TIME:   0.109 TIME LEFT:  2.00D  GRAD.:     1.021 HEAT: -6.791157
 CYCLE:   467 TIME:   0.152 TIME LEFT:  2.00D  GRAD.:    10.135 HEAT: -6.790269
 CYCLE:   468 TIME:   0.215 TIME LEFT:  2.00D  GRAD.:     1.078 HEAT: -6.791230
 CYCLE:   469 TIME:   0.230 TIME LEFT:  2.00D  GRAD.:     9.098 HEAT: -6.790149
 CYCLE:   470 TIME:   0.094 TIME LEFT:  2.00D  GRAD.:     2.321 HEAT: -6.791184
 CYCLE:   471 TIME:   0.117 TIME LEFT:  2.00D  GRAD.:     6.781 HEAT: -6.790606
 CYCLE:   472 TIME:   0.164 TIME LEFT:  2.00D  GRAD.:     1.773 HEAT: -6.791240
 CYCLE:   473 TIME:   0.160 TIME LEFT:  2.00D  GRAD.:     3.853 HEAT: -6.791051
 CYCLE:   474 TIME:   0.117 TIME LEFT:  2.00D  GRAD.:     2.165 HEAT: -6.791242
 CYCLE:   475 TIME:   0.121 TIME LEFT:  2.00D  GRAD.:    11.630 HEAT: -6.789305
 CYCLE:   476 TIME:   0.121 TIME LEFT:  2.00D  GRAD.:     4.812 HEAT: -6.790960
 CYCLE:   477 TIME:   0.148 TIME LEFT:  2.00D  GRAD.:     7.489 HEAT: -6.790578
 CYCLE:   478 TIME:   0.184 TIME LEFT:  2.00D  GRAD.:     1.023 HEAT: -6.791364
 CYCLE:   479 TIME:   0.125 TIME LEFT:  2.00D  GRAD.:     1.977 HEAT: -6.791316
 CYCLE:   480 TIME:   0.145 TIME LEFT:  2.00D  GRAD.:     1.778 HEAT: -6.791386
 CYCLE:   481 TIME:   0.102 TIME LEFT:  2.00D  GRAD.:     7.942 HEAT: -6.790138
 CYCLE:   482 TIME:   0.109 TIME LEFT:  2.00D  GRAD.:     0.922 HEAT: -6.791477
 CYCLE:   483 TIME:   0.117 TIME LEFT:  2.00D  GRAD.:     1.255 HEAT: -6.791418
 CYCLE:   484 TIME:   0.125 TIME LEFT:  2.00D  GRAD.:     0.626 HEAT: -6.791513
 CYCLE:   485 TIME:   0.113 TIME LEFT:  2.00D  GRAD.:     3.423 HEAT: -6.791212
 CYCLE:   486 TIME:   0.117 TIME LEFT:  2.00D  GRAD.:     0.702 HEAT: -6.791589
 CYCLE:   487 TIME:   0.117 TIME LEFT:  2.00D  GRAD.:     4.819 HEAT: -6.789509
 CYCLE:   488 TIME:   0.117 TIME LEFT:  2.00D  GRAD.:     5.476 HEAT: -6.791450
 CYCLE:   489 TIME:   0.117 TIME LEFT:  2.00D  GRAD.:    33.644 HEAT: -6.783763
 CYCLE:   490 TIME:   0.152 TIME LEFT:  2.00D  GRAD.:    17.708 HEAT: -6.789626
 CYCLE:   491 TIME:   0.109 TIME LEFT:  2.00D  GRAD.:    12.812 HEAT: -6.790602
 CYCLE:   492 TIME:   0.113 TIME LEFT:  2.00D  GRAD.:     0.432 HEAT: -6.791707
 CYCLE:   493 TIME:   0.121 TIME LEFT:  2.00D  GRAD.:     0.500 HEAT: -6.791711
 CYCLE:   494 TIME:   0.117 TIME LEFT:  2.00D  GRAD.:     1.392 HEAT: -6.791873
 CYCLE:   495 TIME:   0.180 TIME LEFT:  2.00D  GRAD.:     1.577 HEAT: -6.792057
 CYCLE:   496 TIME:   0.133 TIME LEFT:  2.00D  GRAD.:     1.769 HEAT: -6.792235
 CYCLE:   497 TIME:   0.168 TIME LEFT:  2.00D  GRAD.:     2.442 HEAT: -6.792641
 CYCLE:   498 TIME:   0.129 TIME LEFT:  2.00D  GRAD.:     3.391 HEAT: -6.793075
 CYCLE:   499 TIME:   0.148 TIME LEFT:  2.00D  GRAD.:     4.203 HEAT: -6.792384
 CYCLE:   500 TIME:   0.141 TIME LEFT:  2.00D  GRAD.:     7.461 HEAT: -6.790926
 CYCLE:   501 TIME:   0.113 TIME LEFT:  2.00D  GRAD.:     6.158 HEAT: -6.792557
 CYCLE:   502 TIME:   0.195 TIME LEFT:  2.00D  GRAD.:     8.821 HEAT: -6.791457
 CYCLE:   503 TIME:   0.203 TIME LEFT:  2.00D  GRAD.:     8.636 HEAT: -6.793006
 CYCLE:   504 TIME:   0.211 TIME LEFT:  2.00D  GRAD.:    15.006 HEAT: -6.786981
 CYCLE:   505 TIME:   0.160 TIME LEFT:  2.00D  GRAD.:   153.826 HEAT: -6.632846
 CYCLE:   506 TIME:   0.160 TIME LEFT:  2.00D  GRAD.:   132.941 HEAT: -6.678417
 CYCLE:   507 TIME:   0.230 TIME LEFT:  2.00D  GRAD.:    58.970 HEAT: -6.763675
 CYCLE:   508 TIME:   0.125 TIME LEFT:  2.00D  GRAD.:    51.630 HEAT: -6.731545
 CYCLE:   509 TIME:   0.195 TIME LEFT:  2.00D  GRAD.:    38.863 HEAT: -6.779912
 CYCLE:   510 TIME:   0.207 TIME LEFT:  2.00D  GRAD.:   334.923 HEAT: -6.123096
 CYCLE:   511 TIME:   0.137 TIME LEFT:  2.00D  GRAD.:   159.561 HEAT: -6.588280
 CYCLE:   512 TIME:   0.129 TIME LEFT:  2.00D  GRAD.:    92.414 HEAT: -6.737829
 CYCLE:   513 TIME:   0.176 TIME LEFT:  2.00D  GRAD.:    18.464 HEAT: -6.747261
 CYCLE:   514 TIME:   0.129 TIME LEFT:  2.00D  GRAD.:    46.420 HEAT: -6.776709
 CYCLE:   515 TIME:   0.227 TIME LEFT:  2.00D  GRAD.:   148.651 HEAT: -6.631612
 CYCLE:   516 TIME:   0.137 TIME LEFT:  2.00D  GRAD.:     3.739 HEAT: -6.794447
 CYCLE:   517 TIME:   0.148 TIME LEFT:  2.00D  GRAD.:     3.626 HEAT: -6.794600
 CYCLE:   518 TIME:   0.121 TIME LEFT:  2.00D  GRAD.:     3.557 HEAT: -6.793075
 CYCLE:   519 TIME:   0.125 TIME LEFT:  2.00D  GRAD.:     1.638 HEAT: -6.794419
 CYCLE:   520 TIME:   0.145 TIME LEFT:  2.00D  GRAD.:     9.518 HEAT: -6.786470
 CYCLE:   521 TIME:   0.129 TIME LEFT:  2.00D  GRAD.:     7.608 HEAT: -6.793563
 CYCLE:   522 TIME:   0.117 TIME LEFT:  2.00D  GRAD.:     4.849 HEAT: -6.791523
 CYCLE:   523 TIME:   0.152 TIME LEFT:  2.00D  GRAD.:     1.538 HEAT: -6.795076
 CYCLE:   524 TIME:   0.137 TIME LEFT:  2.00D  GRAD.:    13.931 HEAT: -6.784107
 CYCLE:   525 TIME:   0.156 TIME LEFT:  2.00D  GRAD.:     7.158 HEAT: -6.792903
 CYCLE:   526 TIME:   0.148 TIME LEFT:  2.00D  GRAD.:    12.930 HEAT: -6.789090
 CYCLE:   527 TIME:   0.117 TIME LEFT:  2.00D  GRAD.:     4.951 HEAT: -6.792765
 CYCLE:   528 TIME:   0.152 TIME LEFT:  2.00D  GRAD.:    22.794 HEAT: -6.782322
 CYCLE:   529 TIME:   0.098 TIME LEFT:  2.00D  GRAD.:     4.578 HEAT: -6.795714
 CYCLE:   530 TIME:   0.180 TIME LEFT:  2.00D  GRAD.:    33.715 HEAT: -6.708898
 CYCLE:   531 TIME:   0.199 TIME LEFT:  2.00D  GRAD.:    13.793 HEAT: -6.794050
 CYCLE:   532 TIME:   0.121 TIME LEFT:  2.00D  GRAD.:    51.687 HEAT: -6.773446
 CYCLE:   533 TIME:   0.105 TIME LEFT:  2.00D  GRAD.:     4.861 HEAT: -6.795707
 CYCLE:   534 TIME:   0.141 TIME LEFT:  2.00D  GRAD.:     1.368 HEAT: -6.796448
 CYCLE:   535 TIME:   0.090 TIME LEFT:  2.00D  GRAD.:     5.461 HEAT: -6.794969
 CYCLE:   536 TIME:   0.168 TIME LEFT:  2.00D  GRAD.:     1.281 HEAT: -6.796418
 CYCLE:   537 TIME:   0.180 TIME LEFT:  2.00D  GRAD.:    25.801 HEAT: -6.766234
 CYCLE:   538 TIME:   0.113 TIME LEFT:  2.00D  GRAD.:     2.704 HEAT: -6.796254
 CYCLE:   539 TIME:   0.234 TIME LEFT:  2.00D  GRAD.:    12.706 HEAT: -6.786506
 CYCLE:   540 TIME:   0.137 TIME LEFT:  2.00D  GRAD.:     2.858 HEAT: -6.795906
 CYCLE:   541 TIME:   0.160 TIME LEFT:  2.00D  GRAD.:     8.068 HEAT: -6.793084
 CYCLE:   542 TIME:   0.172 TIME LEFT:  2.00D  GRAD.:     2.240 HEAT: -6.795569
 CYCLE:   543 TIME:   0.133 TIME LEFT:  2.00D  GRAD.:     4.306 HEAT: -6.795999
 CYCLE:   544 TIME:   0.156 TIME LEFT:  2.00D  GRAD.:    13.219 HEAT: -6.794241
 CYCLE:   545 TIME:   0.141 TIME LEFT:  2.00D  GRAD.:     1.595 HEAT: -6.796590
 CYCLE:   546 TIME:   0.254 TIME LEFT:  2.00D  GRAD.:    25.057 HEAT: -6.786626
 CYCLE:   547 TIME:   0.160 TIME LEFT:  2.00D  GRAD.:     3.358 HEAT: -6.796568
 CYCLE:   548 TIME:   0.207 TIME LEFT:  2.00D  GRAD.:     4.570 HEAT: -6.796317
 CYCLE:   549 TIME:   0.113 TIME LEFT:  2.00D  GRAD.:     3.725 HEAT: -6.796343
 CYCLE:   550 TIME:   0.219 TIME LEFT:  2.00D  GRAD.:    10.806 HEAT: -6.795414
 CYCLE:   551 TIME:   0.125 TIME LEFT:  2.00D  GRAD.:     2.563 HEAT: -6.796692
 CYCLE:   552 TIME:   0.105 TIME LEFT:  2.00D  GRAD.:     0.885 HEAT: -6.796789
 CYCLE:   553 TIME:   0.195 TIME LEFT:  2.00D  GRAD.:     0.776 HEAT: -6.796863
 CYCLE:   554 TIME:   0.137 TIME LEFT:  2.00D  GRAD.:     8.466 HEAT: -6.795592
 CYCLE:   555 TIME:   0.121 TIME LEFT:  2.00D  GRAD.:     1.528 HEAT: -6.797042
 CYCLE:   556 TIME:   0.129 TIME LEFT:  2.00D  GRAD.:     1.780 HEAT: -6.796873
 CYCLE:   557 TIME:   0.129 TIME LEFT:  2.00D  GRAD.:     0.849 HEAT: -6.797128
 CYCLE:   558 TIME:   0.223 TIME LEFT:  2.00D  GRAD.:     1.788 HEAT: -6.797160
 CYCLE:   559 TIME:   0.164 TIME LEFT:  2.00D  GRAD.:     2.052 HEAT: -6.797484
 CYCLE:   560 TIME:   0.117 TIME LEFT:  2.00D  GRAD.:     2.006 HEAT: -6.797786
 CYCLE:   561 TIME:   0.109 TIME LEFT:  2.00D  GRAD.:     4.334 HEAT: -6.797844
 CYCLE:   562 TIME:   0.113 TIME LEFT:  2.00D  GRAD.:     1.665 HEAT: -6.798303
 CYCLE:   563 TIME:   0.258 TIME LEFT:  2.00D  GRAD.:     1.196 HEAT: -6.798557
 CYCLE:   564 TIME:   0.219 TIME LEFT:  2.00D  GRAD.:     1.088 HEAT: -6.798693
 CYCLE:   565 TIME:   0.117 TIME LEFT:  2.00D  GRAD.:     3.698 HEAT: -6.799275
 CYCLE:   566 TIME:   0.215 TIME LEFT:  2.00D  GRAD.:     4.224 HEAT: -6.799640
 CYCLE:   567 TIME:   0.160 TIME LEFT:  2.00D  GRAD.:     1.729 HEAT: -6.799866
 CYCLE:   568 TIME:   0.211 TIME LEFT:  2.00D  GRAD.:     4.840 HEAT: -6.800086
 CYCLE:   569 TIME:   0.133 TIME LEFT:  2.00D  GRAD.:     3.349 HEAT: -6.800237
 CYCLE:   570 TIME:   0.148 TIME LEFT:  2.00D  GRAD.:     2.922 HEAT: -6.800260
 CYCLE:   571 TIME:   0.246 TIME LEFT:  2.00D  GRAD.:     7.234 HEAT: -6.799832
 CYCLE:   572 TIME:   0.129 TIME LEFT:  2.00D  GRAD.:     9.606 HEAT: -6.800659
 CYCLE:   573 TIME:   0.172 TIME LEFT:  2.00D  GRAD.:    12.286 HEAT: -6.800400
 CYCLE:   574 TIME:   0.199 TIME LEFT:  2.00D  GRAD.:     6.337 HEAT: -6.800991
 CYCLE:   575 TIME:   0.129 TIME LEFT:  2.00D  GRAD.:    15.961 HEAT: -6.794873
 CYCLE:   576 TIME:   0.133 TIME LEFT:  2.00D  GRAD.:     8.420 HEAT: -6.801388
 CYCLE:   577 TIME:   0.211 TIME LEFT:  2.00D  GRAD.:    13.036 HEAT: -6.799264
 CYCLE:   578 TIME:   0.109 TIME LEFT:  2.00D  GRAD.:     7.183 HEAT: -6.801988
 CYCLE:   579 TIME:   0.109 TIME LEFT:  2.00D  GRAD.:     6.275 HEAT: -6.802406
 CYCLE:   580 TIME:   0.227 TIME LEFT:  2.00D  GRAD.:     9.518 HEAT: -6.799778
 CYCLE:   581 TIME:   0.137 TIME LEFT:  2.00D  GRAD.:     1.774 HEAT: -6.803012
 CYCLE:   582 TIME:   0.086 TIME LEFT:  2.00D  GRAD.:     4.292 HEAT: -6.802911
 CYCLE:   583 TIME:   0.121 TIME LEFT:  2.00D  GRAD.:     9.897 HEAT: -6.803312
 CYCLE:   584 TIME:   0.148 TIME LEFT:  2.00D  GRAD.:     4.794 HEAT: -6.804222
 CYCLE:   585 TIME:   0.180 TIME LEFT:  2.00D  GRAD.:     4.212 HEAT: -6.805343
 CYCLE:   586 TIME:   0.230 TIME LEFT:  2.00D  GRAD.:     5.383 HEAT: -6.805568
 CYCLE:   587 TIME:   0.141 TIME LEFT:  2.00D  GRAD.:     7.313 HEAT: -6.805879
 CYCLE:   588 TIME:   0.172 TIME LEFT:  2.00D  GRAD.:     2.938 HEAT: -6.806912
 CYCLE:   589 TIME:   0.137 TIME LEFT:  2.00D  GRAD.:     1.627 HEAT: -6.807272
 CYCLE:   590 TIME:   0.188 TIME LEFT:  2.00D  GRAD.:     6.351 HEAT: -6.805554
 CYCLE:   591 TIME:   0.133 TIME LEFT:  2.00D  GRAD.:     1.555 HEAT: -6.807689
 CYCLE:   592 TIME:   0.242 TIME LEFT:  2.00D  GRAD.:     3.767 HEAT: -6.806993
 CYCLE:   593 TIME:   0.141 TIME LEFT:  2.00D  GRAD.:     1.457 HEAT: -6.808347
 CYCLE:   594 TIME:   0.152 TIME LEFT:  2.00D  GRAD.:     4.281 HEAT: -6.807110
 CYCLE:   595 TIME:   0.160 TIME LEFT:  2.00D  GRAD.:     0.960 HEAT: -6.808713
 CYCLE:   596 TIME:   0.203 TIME LEFT:  2.00D  GRAD.:     5.256 HEAT: -6.807461
 CYCLE:   597 TIME:   0.141 TIME LEFT:  2.00D  GRAD.:    21.900 HEAT: -6.805377
 CYCLE:   598 TIME:   0.207 TIME LEFT:  2.00D  GRAD.:     4.626 HEAT: -6.808807
 CYCLE:   599 TIME:   0.160 TIME LEFT:  2.00D  GRAD.:     4.520 HEAT: -6.809175
 CYCLE:   600 TIME:   0.152 TIME LEFT:  2.00D  GRAD.:     3.325 HEAT: -6.809597
 CYCLE:   601 TIME:   0.176 TIME LEFT:  2.00D  GRAD.:     4.022 HEAT: -6.810184
 CYCLE:   602 TIME:   0.125 TIME LEFT:  2.00D  GRAD.:     2.822 HEAT: -6.810671
 CYCLE:   603 TIME:   0.172 TIME LEFT:  2.00D  GRAD.:     1.895 HEAT: -6.810934
 CYCLE:   604 TIME:   0.180 TIME LEFT:  2.00D  GRAD.:     2.190 HEAT: -6.811052
 CYCLE:   605 TIME:   0.121 TIME LEFT:  2.00D  GRAD.:     1.496 HEAT: -6.811290
 CYCLE:   606 TIME:   0.223 TIME LEFT:  2.00D  GRAD.:     1.751 HEAT: -6.811682
 CYCLE:   607 TIME:   0.168 TIME LEFT:  2.00D  GRAD.:     2.134 HEAT: -6.811938
 CYCLE:   608 TIME:   0.125 TIME LEFT:  2.00D  GRAD.:     1.587 HEAT: -6.812183
 CYCLE:   609 TIME:   0.223 TIME LEFT:  2.00D  GRAD.:     2.087 HEAT: -6.812253
 CYCLE:   610 TIME:   0.195 TIME LEFT:  2.00D  GRAD.:     1.101 HEAT: -6.812432
 CYCLE:   611 TIME:   0.742 TIME LEFT:  2.00D  GRAD.:     1.666 HEAT: -6.812555
 CYCLE:   612 TIME:   0.129 TIME LEFT:  2.00D  GRAD.:     1.187 HEAT: -6.812662
 CYCLE:   613 TIME:   0.172 TIME LEFT:  2.00D  GRAD.:     1.250 HEAT: -6.812890
 CYCLE:   614 TIME:   0.184 TIME LEFT:  2.00D  GRAD.:     1.382 HEAT: -6.813181
 CYCLE:   615 TIME:   0.156 TIME LEFT:  2.00D  GRAD.:     1.448 HEAT: -6.813283
 CYCLE:   616 TIME:   0.219 TIME LEFT:  2.00D  GRAD.:     0.783 HEAT: -6.813329
 CYCLE:   617 TIME:   0.137 TIME LEFT:  2.00D  GRAD.:     1.155 HEAT: -6.813386
 CYCLE:   618 TIME:   0.109 TIME LEFT:  2.00D  GRAD.:     2.002 HEAT: -6.813481
 CYCLE:   619 TIME:   0.109 TIME LEFT:  2.00D  GRAD.:     2.167 HEAT: -6.813629
 CYCLE:   620 TIME:   0.113 TIME LEFT:  2.00D  GRAD.:     6.438 HEAT: -6.813270
 CYCLE:   621 TIME:   0.109 TIME LEFT:  2.00D  GRAD.:     0.918 HEAT: -6.813795
 CYCLE:   622 TIME:   0.117 TIME LEFT:  2.00D  GRAD.:     0.731 HEAT: -6.813754
 CYCLE:   623 TIME:   0.121 TIME LEFT:  2.00D  GRAD.:     3.236 HEAT: -6.813745
 CYCLE:   624 TIME:   0.223 TIME LEFT:  2.00D  GRAD.:     1.052 HEAT: -6.813989
 CYCLE:   625 TIME:   0.113 TIME LEFT:  2.00D  GRAD.:     0.883 HEAT: -6.814068
 CYCLE:   626 TIME:   0.160 TIME LEFT:  2.00D  GRAD.:     0.946 HEAT: -6.814254
 CYCLE:   627 TIME:   0.195 TIME LEFT:  2.00D  GRAD.:     0.793 HEAT: -6.814454
 CYCLE:   628 TIME:   0.113 TIME LEFT:  2.00D  GRAD.:     0.792 HEAT: -6.814586
 CYCLE:   629 TIME:   0.203 TIME LEFT:  2.00D  GRAD.:     6.082 HEAT: -6.814154
 CYCLE:   630 TIME:   0.207 TIME LEFT:  2.00D  GRAD.:     0.938 HEAT: -6.814908
 CYCLE:   631 TIME:   0.121 TIME LEFT:  2.00D  GRAD.:     0.856 HEAT: -6.814887
 CYCLE:   632 TIME:   0.141 TIME LEFT:  2.00D  GRAD.:     3.098 HEAT: -6.815018
 CYCLE:   633 TIME:   0.102 TIME LEFT:  2.00D  GRAD.:     1.806 HEAT: -6.815240
 CYCLE:   634 TIME:   0.113 TIME LEFT:  2.00D  GRAD.:     0.750 HEAT: -6.815386
 CYCLE:   635 TIME:   0.121 TIME LEFT:  2.00D  GRAD.:     0.941 HEAT: -6.815458
 CYCLE:   636 TIME:   0.145 TIME LEFT:  2.00D  GRAD.:     2.256 HEAT: -6.815686
 CYCLE:   637 TIME:   0.113 TIME LEFT:  2.00D  GRAD.:     1.654 HEAT: -6.815806
 CYCLE:   638 TIME:   0.109 TIME LEFT:  2.00D  GRAD.:     2.028 HEAT: -6.815930
 CYCLE:   639 TIME:   0.137 TIME LEFT:  2.00D  GRAD.:     1.432 HEAT: -6.816130
 CYCLE:   640 TIME:   0.203 TIME LEFT:  2.00D  GRAD.:     1.302 HEAT: -6.816283
 CYCLE:   641 TIME:   0.145 TIME LEFT:  2.00D  GRAD.:     1.802 HEAT: -6.816604
 CYCLE:   642 TIME:   0.098 TIME LEFT:  2.00D  GRAD.:     0.999 HEAT: -6.816844
 CYCLE:   643 TIME:   0.199 TIME LEFT:  2.00D  GRAD.:     0.804 HEAT: -6.816968
 CYCLE:   644 TIME:   0.121 TIME LEFT:  2.00D  GRAD.:     1.369 HEAT: -6.817166
 CYCLE:   645 TIME:   0.121 TIME LEFT:  2.00D  GRAD.:     2.561 HEAT: -6.817159
 CYCLE:   646 TIME:   0.191 TIME LEFT:  2.00D  GRAD.:     0.902 HEAT: -6.817359
 CYCLE:   647 TIME:   0.133 TIME LEFT:  2.00D  GRAD.:     0.945 HEAT: -6.817446
 CYCLE:   648 TIME:   0.137 TIME LEFT:  2.00D  GRAD.:     1.057 HEAT: -6.817570
 CYCLE:   649 TIME:   0.129 TIME LEFT:  2.00D  GRAD.:     2.910 HEAT: -6.817369
 CYCLE:   650 TIME:   0.121 TIME LEFT:  2.00D  GRAD.:     1.523 HEAT: -6.817719
 CYCLE:   651 TIME:   0.141 TIME LEFT:  2.00D  GRAD.:     1.318 HEAT: -6.817773
 CYCLE:   652 TIME:   0.160 TIME LEFT:  2.00D  GRAD.:     0.819 HEAT: -6.817838
 CYCLE:   653 TIME:   0.184 TIME LEFT:  2.00D  GRAD.:     0.909 HEAT: -6.818011
 CYCLE:   654 TIME:   0.168 TIME LEFT:  2.00D  GRAD.:     1.004 HEAT: -6.818123
 CYCLE:   655 TIME:   0.207 TIME LEFT:  2.00D  GRAD.:     1.355 HEAT: -6.818281
 CYCLE:   656 TIME:   0.199 TIME LEFT:  2.00D  GRAD.:     0.796 HEAT: -6.818401
 CYCLE:   657 TIME:   0.230 TIME LEFT:  2.00D  GRAD.:     0.668 HEAT: -6.818472
 CYCLE:   658 TIME:   0.141 TIME LEFT:  2.00D  GRAD.:     0.907 HEAT: -6.818570
 CYCLE:   659 TIME:   0.125 TIME LEFT:  2.00D  GRAD.:     1.172 HEAT: -6.818654
 CYCLE:   660 TIME:   0.215 TIME LEFT:  2.00D  GRAD.:     0.646 HEAT: -6.818746
 CYCLE:   661 TIME:   0.133 TIME LEFT:  2.00D  GRAD.:     0.506 HEAT: -6.818819
 CYCLE:   662 TIME:   0.125 TIME LEFT:  2.00D  GRAD.:     0.615 HEAT: -6.818898
 CYCLE:   663 TIME:   0.191 TIME LEFT:  2.00D  GRAD.:     4.065 HEAT: -6.818850
 CYCLE:   664 TIME:   0.129 TIME LEFT:  2.00D  GRAD.:     1.404 HEAT: -6.819032
 CYCLE:   665 TIME:   0.117 TIME LEFT:  2.00D  GRAD.:     0.578 HEAT: -6.819062
 CYCLE:   666 TIME:   0.172 TIME LEFT:  2.00D  GRAD.:     0.552 HEAT: -6.819075
 CYCLE:   667 TIME:   0.148 TIME LEFT:  2.00D  GRAD.:     1.078 HEAT: -6.819064
 CYCLE:   668 TIME:   0.113 TIME LEFT:  2.00D  GRAD.:     0.596 HEAT: -6.819148
 CYCLE:   669 TIME:   0.129 TIME LEFT:  2.00D  GRAD.:     1.024 HEAT: -6.819239
 CYCLE:   670 TIME:   0.121 TIME LEFT:  2.00D  GRAD.:     1.334 HEAT: -6.819298
 CYCLE:   671 TIME:   0.137 TIME LEFT:  2.00D  GRAD.:     0.707 HEAT: -6.819375
 CYCLE:   672 TIME:   0.188 TIME LEFT:  2.00D  GRAD.:     0.725 HEAT: -6.819430
 CYCLE:   673 TIME:   0.152 TIME LEFT:  2.00D  GRAD.:     0.958 HEAT: -6.819478
 CYCLE:   674 TIME:   0.145 TIME LEFT:  2.00D  GRAD.:     1.493 HEAT: -6.819556
 CYCLE:   675 TIME:   0.113 TIME LEFT:  2.00D  GRAD.:     1.400 HEAT: -6.819650
 CYCLE:   676 TIME:   0.113 TIME LEFT:  2.00D  GRAD.:     0.706 HEAT: -6.819708
 CYCLE:   677 TIME:   0.098 TIME LEFT:  2.00D  GRAD.:     0.503 HEAT: -6.819754
 CYCLE:   678 TIME:   0.113 TIME LEFT:  2.00D  GRAD.:     1.873 HEAT: -6.819783
 CYCLE:   679 TIME:   0.113 TIME LEFT:  2.00D  GRAD.:     1.213 HEAT: -6.819818
 CYCLE:   680 TIME:   0.117 TIME LEFT:  2.00D  GRAD.:     0.474 HEAT: -6.819797
 CYCLE:   681 TIME:   0.109 TIME LEFT:  2.00D  GRAD.:     0.312 HEAT: -6.819868
 CYCLE:   682 TIME:   0.164 TIME LEFT:  2.00D  GRAD.:     0.387 HEAT: -6.819928
 CYCLE:   683 TIME:   0.121 TIME LEFT:  2.00D  GRAD.:     1.425 HEAT: -6.819949
 CYCLE:   684 TIME:   0.156 TIME LEFT:  2.00D  GRAD.:     1.188 HEAT: -6.819980
 CYCLE:   685 TIME:   0.164 TIME LEFT:  2.00D  GRAD.:     0.545 HEAT: -6.820029
 CYCLE:   686 TIME:   0.137 TIME LEFT:  2.00D  GRAD.:     0.483 HEAT: -6.820065
 CYCLE:   687 TIME:   0.176 TIME LEFT:  2.00D  GRAD.:     0.568 HEAT: -6.820093
 CYCLE:   688 TIME:   0.160 TIME LEFT:  2.00D  GRAD.:     2.022 HEAT: -6.820114
 CYCLE:   689 TIME:   0.211 TIME LEFT:  2.00D  GRAD.:     0.442 HEAT: -6.820167
 CYCLE:   690 TIME:   0.141 TIME LEFT:  2.00D  GRAD.:     0.354 HEAT: -6.820176
 CYCLE:   691 TIME:   0.156 TIME LEFT:  2.00D  GRAD.:     0.583 HEAT: -6.820190
 CYCLE:   692 TIME:   0.113 TIME LEFT:  2.00D  GRAD.:     2.857 HEAT: -6.820153
 CYCLE:   693 TIME:   0.105 TIME LEFT:  2.00D  GRAD.:     0.535 HEAT: -6.820219
 CYCLE:   694 TIME:   0.133 TIME LEFT:  2.00D  GRAD.:     0.333 HEAT: -6.820229
 CYCLE:   695 TIME:   0.160 TIME LEFT:  2.00D  GRAD.:     0.428 HEAT: -6.820250
 CYCLE:   696 TIME:   0.141 TIME LEFT:  2.00D  GRAD.:     0.535 HEAT: -6.820279
 CYCLE:   697 TIME:   0.141 TIME LEFT:  2.00D  GRAD.:     0.501 HEAT: -6.820317
 CYCLE:   698 TIME:   0.113 TIME LEFT:  2.00D  GRAD.:     1.512 HEAT: -6.820215
 CYCLE:   699 TIME:   0.121 TIME LEFT:  2.00D  GRAD.:     0.424 HEAT: -6.820371
 CYCLE:   700 TIME:   0.129 TIME LEFT:  2.00D  GRAD.:     0.609 HEAT: -6.820383
 CYCLE:   701 TIME:   0.184 TIME LEFT:  2.00D  GRAD.:     0.296 HEAT: -6.820403
 CYCLE:   702 TIME:   0.141 TIME LEFT:  2.00D  GRAD.:     0.294 HEAT: -6.820426
 CYCLE:   703 TIME:   0.230 TIME LEFT:  2.00D  GRAD.:     0.873 HEAT: -6.820434
 CYCLE:   704 TIME:   0.113 TIME LEFT:  2.00D  GRAD.:     0.276 HEAT: -6.820454
 CYCLE:   705 TIME:   0.102 TIME LEFT:  2.00D  GRAD.:     0.240 HEAT: -6.820462
 CYCLE:   706 TIME:   0.191 TIME LEFT:  2.00D  GRAD.:     0.656 HEAT: -6.820474
 CYCLE:   707 TIME:   0.199 TIME LEFT:  2.00D  GRAD.:     1.934 HEAT: -6.820461
 CYCLE:   708 TIME:   0.109 TIME LEFT:  2.00D  GRAD.:     0.494 HEAT: -6.820491
 CYCLE:   709 TIME:   0.102 TIME LEFT:  2.00D  GRAD.:     0.245 HEAT: -6.820500
 CYCLE:   710 TIME:   0.113 TIME LEFT:  2.00D  GRAD.:     0.521 HEAT: -6.820518
 CYCLE:   711 TIME:   0.117 TIME LEFT:  2.00D  GRAD.:     0.262 HEAT: -6.820537
 CYCLE:   712 TIME:   0.117 TIME LEFT:  2.00D  GRAD.:     0.347 HEAT: -6.820551
 CYCLE:   713 TIME:   0.137 TIME LEFT:  2.00D  GRAD.:     0.426 HEAT: -6.820575
 CYCLE:   714 TIME:   0.121 TIME LEFT:  2.00D  GRAD.:     1.084 HEAT: -6.820595
 CYCLE:   715 TIME:   0.215 TIME LEFT:  2.00D  GRAD.:     0.427 HEAT: -6.820631
 CYCLE:   716 TIME:   0.109 TIME LEFT:  2.00D  GRAD.:     0.396 HEAT: -6.820644
 CYCLE:   717 TIME:   0.109 TIME LEFT:  2.00D  GRAD.:     0.626 HEAT: -6.820595
 CYCLE:   718 TIME:   0.164 TIME LEFT:  2.00D  GRAD.:     3.469 HEAT: -6.820545
 CYCLE:   719 TIME:   0.137 TIME LEFT:  2.00D  GRAD.:     1.629 HEAT: -6.820638
 CYCLE:   720 TIME:   0.094 TIME LEFT:  2.00D  GRAD.:     0.259 HEAT: -6.820674
 CYCLE:   721 TIME:   0.109 TIME LEFT:  2.00D  GRAD.:     0.396 HEAT: -6.820679
 CYCLE:   722 TIME:   0.109 TIME LEFT:  2.00D  GRAD.:     1.887 HEAT: -6.820664
 CYCLE:   723 TIME:   0.105 TIME LEFT:  2.00D  GRAD.:     0.436 HEAT: -6.820693
 CYCLE:   724 TIME:   0.141 TIME LEFT:  2.00D  GRAD.:     0.276 HEAT: -6.820701
 CYCLE:   725 TIME:   0.125 TIME LEFT:  2.00D  GRAD.:     1.243 HEAT: -6.820697
 CYCLE:   726 TIME:   0.113 TIME LEFT:  2.00D  GRAD.:     0.424 HEAT: -6.820717
 CYCLE:   727 TIME:   0.125 TIME LEFT:  2.00D  GRAD.:     0.246 HEAT: -6.820723
 CYCLE:   728 TIME:   0.109 TIME LEFT:  2.00D  GRAD.:     0.731 HEAT: -6.820727
 CYCLE:   729 TIME:   0.113 TIME LEFT:  2.00D  GRAD.:     0.581 HEAT: -6.820741
 CYCLE:   730 TIME:   0.121 TIME LEFT:  2.00D  GRAD.:     0.292 HEAT: -6.820778
 CYCLE:   731 TIME:   0.180 TIME LEFT:  2.00D  GRAD.:     1.049 HEAT: -6.820787
 CYCLE:   732 TIME:   0.117 TIME LEFT:  2.00D  GRAD.:     0.730 HEAT: -6.820805
 CYCLE:   733 TIME:   0.145 TIME LEFT:  2.00D  GRAD.:     0.373 HEAT: -6.820829
 CYCLE:   734 TIME:   0.180 TIME LEFT:  2.00D  GRAD.:     0.485 HEAT: -6.820838
 CYCLE:   735 TIME:   0.133 TIME LEFT:  2.00D  GRAD.:     0.360 HEAT: -6.820849
 CYCLE:   736 TIME:   0.105 TIME LEFT:  2.00D  GRAD.:     0.571 HEAT: -6.820864
 CYCLE:   737 TIME:   0.109 TIME LEFT:  2.00D  GRAD.:     0.307 HEAT: -6.820873
 CYCLE:   738 TIME:   0.105 TIME LEFT:  2.00D  GRAD.:     0.279 HEAT: -6.820880
 CYCLE:   739 TIME:   0.117 TIME LEFT:  2.00D  GRAD.:     0.652 HEAT: -6.820883
 CYCLE:   740 TIME:   0.172 TIME LEFT:  2.00D  GRAD.:     0.291 HEAT: -6.820891
 CYCLE:   741 TIME:   0.160 TIME LEFT:  2.00D  GRAD.:     0.370 HEAT: -6.820896
 CYCLE:   742 TIME:   0.086 TIME LEFT:  2.00D  GRAD.:     0.242 HEAT: -6.820902
 CYCLE:   743 TIME:   0.207 TIME LEFT:  2.00D  GRAD.:     0.457 HEAT: -6.820919
 CYCLE:   744 TIME:   0.137 TIME LEFT:  2.00D  GRAD.:     0.272 HEAT: -6.820927
 CYCLE:   745 TIME:   0.102 TIME LEFT:  2.00D  GRAD.:     1.179 HEAT: -6.820915
 CYCLE:   746 TIME:   0.102 TIME LEFT:  2.00D  GRAD.:     0.939 HEAT: -6.820921
 CYCLE:   747 TIME:   0.207 TIME LEFT:  2.00D  GRAD.:     0.168 HEAT: -6.820947
 CYCLE:   748 TIME:   0.141 TIME LEFT:  2.00D  GRAD.:     0.164 HEAT: -6.820949
 CYCLE:   749 TIME:   0.098 TIME LEFT:  2.00D  GRAD.:     0.576 HEAT: -6.820940
 CYCLE:   750 TIME:   0.109 TIME LEFT:  2.00D  GRAD.:     0.371 HEAT: -6.820966
 CYCLE:   751 TIME:   0.152 TIME LEFT:  2.00D  GRAD.:     0.610 HEAT: -6.820966
 CYCLE:   752 TIME:   0.105 TIME LEFT:  2.00D  GRAD.:     0.213 HEAT: -6.820974
 CYCLE:   753 TIME:   0.105 TIME LEFT:  2.00D  GRAD.:     0.260 HEAT: -6.820976
 CYCLE:   754 TIME:   0.102 TIME LEFT:  2.00D  GRAD.:     0.213 HEAT: -6.820980
 CYCLE:   755 TIME:   0.129 TIME LEFT:  2.00D  GRAD.:     1.752 HEAT: -6.820962
 CYCLE:   756 TIME:   0.172 TIME LEFT:  2.00D  GRAD.:     0.190 HEAT: -6.820985
 CYCLE:   757 TIME:   0.129 TIME LEFT:  2.00D  GRAD.:     0.179 HEAT: -6.820987
 CYCLE:   758 TIME:   0.141 TIME LEFT:  2.00D  GRAD.:     0.211 HEAT: -6.820991
 CYCLE:   759 TIME:   0.102 TIME LEFT:  2.00D  GRAD.:     0.157 HEAT: -6.820995
 CYCLE:   760 TIME:   0.133 TIME LEFT:  2.00D  GRAD.:     0.258 HEAT: -6.821001
 CYCLE:   761 TIME:   0.125 TIME LEFT:  2.00D  GRAD.:     0.228 HEAT: -6.821005
 CYCLE:   762 TIME:   0.105 TIME LEFT:  2.00D  GRAD.:     0.178 HEAT: -6.821011
 CYCLE:   763 TIME:   0.109 TIME LEFT:  2.00D  GRAD.:     0.159 HEAT: -6.821016
 CYCLE:   764 TIME:   0.109 TIME LEFT:  2.00D  GRAD.:     0.204 HEAT: -6.821025
 CYCLE:   765 TIME:   0.105 TIME LEFT:  2.00D  GRAD.:     0.131 HEAT: -6.821031
 CYCLE:   766 TIME:   0.105 TIME LEFT:  2.00D  GRAD.:     0.340 HEAT: -6.821032
 CYCLE:   767 TIME:   0.098 TIME LEFT:  2.00D  GRAD.:     0.095 HEAT: -6.821034

 -------------------------------------------------------------------------------
 RM1 PRECISE POLAR GNORM=0.1




     HERBERTS TEST WAS SATISFIED IN BFGS                      
     SCF FIELD WAS ACHIEVED                                   


                              RM1 CALCULATION
                                                       MOPAC2016 (Version: 21.013L)
                                                       Sat Oct 16 16:37:08 2021
                                                       No. of days remaining =  89




          FINAL HEAT OF FORMATION =         -6.82103 KCAL/MOL =     -28.53921 KJ/MOL


          TOTAL ENERGY            =      -5234.45385 EV
          ELECTRONIC ENERGY       =     -44768.94963 EV  POINT GROUP:     C1  
          CORE-CORE REPULSION     =      39534.49579 EV
          COSMO AREA              =        508.16 SQUARE ANGSTROMS
          COSMO VOLUME            =        569.96 CUBIC ANGSTROMS

          GRADIENT NORM           =          0.09465 = 0.01183 PER ATOM
          IONIZATION POTENTIAL    =          8.309603 EV
          HOMO LUMO ENERGIES (EV) =         -8.310 -0.784
          NO. OF FILLED LEVELS    =         86
          MOLECULAR WEIGHT        =        450.5792

          MOLECULAR DIMENSIONS (Angstroms)

            Atom       Atom       Distance
            H    63    H    37    18.27076
            H    61    O    25    13.39184
            H    59    H    52     5.10831


          SCF CALCULATIONS        =        768
 
          WALL-CLOCK TIME         =  1 MINUTE AND 28.988 SECONDS
          COMPUTATION TIME        = 16 MINUTES AND 39.060 SECONDS




  ATOM    CHEMICAL      BOND LENGTH      BOND ANGLE     TWIST ANGLE 
 NUMBER    SYMBOL       (ANGSTROMS)      (DEGREES)       (DEGREES) 
   (I)                     NA:I           NB:NA:I       NC:NB:NA:I       NA    NB    NC 
     1       C          0.00000000       0.0000000       0.0000000        0     0     0
     2       C          1.51997524  *    0.0000000       0.0000000        1     0     0
     3       C          1.52667105  *  110.7483890  *    0.0000000        2     1     0
     4       C          1.52688477  *  110.7885302  * -179.9462381  *     3     2     1
     5       C          1.52707212  *  110.6898397  * -179.8681913  *     4     3     2
     6       C          1.52716228  *  110.6822534  * -179.7410227  *     5     4     3
     7       C          1.52600585  *  110.5147706  * -179.6989826  *     6     5     4
     8       C          1.53572717  *  109.9592719  * -179.6398365  *     7     6     5
     9       N          1.46090884  *  111.6773132  *  179.8950190  *     8     7     6
    10       C          1.41256976  *  125.4586117  *   86.3677778  *     9     8     7
    11       C          1.39229880  *  129.6486819  *   15.4122098  *    10     9     8
    12       C          1.38568797  *  117.3858174  *  177.2617725  *    11    10     9
    13       C          1.40168009  *  121.5380302  *   -0.1424446  *    12    11    10
    14       C          1.39001059  *  121.1971294  *    0.2140503  *    13    12    11
    15       C          1.38461732  *  118.1101950  *    0.1367904  *    14    13    12
    16       C          1.44098789  *  132.4882172  *  179.1838542  *    15    14    13
    17       C          1.42435532  *  106.9678911  * -179.8313569  *    16    15    14
    18       C          1.39415704  *  121.3302817  *  179.4688702  *    17    16    15
    19       C          1.38418844  *  117.4890472  *   -0.3910322  *    18    17    16
    20       C          1.40267754  *  121.3912618  *    0.1041922  *    19    18    17
    21       C          1.39375568  *  121.2726619  *    0.9124169  *    20    19    18
    22       C          1.45303566  *  120.1730146  *  179.9772478  *    20    19    18
    23       C          1.34402884  *  122.8201176  * -133.7806999  *    22    20    21
    24       C          1.47015154  *  123.3313883  * -178.0230039  *    23    22    20
    25       O          1.21938370  *  127.4202690  *  159.8815148  *    24    23    22
    26       O          1.35274771  *  113.4523096  *  -20.1028903  *    24    23    22
    27       C          1.41969476  *  122.5876264  *    2.7172604  *    23    22    20
    28       N          1.15625530  *  179.3881159  *  175.9670623  *    27    23    22
    29       C          1.46040457  *  119.2963752  * -179.8197558  *    13    12    11
    30       C          1.39274533  *  120.0001458  *  -50.2603439  *    29    13    12
    31       C          1.38904429  *  119.7823765  * -179.9007547  *    30    29    13
    32       C          1.38980454  *  120.1677009  *   -0.0647115  *    31    30    29
    33       C          1.38977613  *  119.9686296  *    0.0577580  *    32    31    30
    34       C          1.39280293  *  119.8684808  *  129.8440637  *    29    13    12
    35       H          1.09926468  *  115.9956605  *   45.8494013  *    22    20    21
    36       H          1.09958127  *  112.2937646  *   60.1563352  *     1     2     3
    37       H          1.09965625  *  111.8433134  *  179.9984089  *     1     2     3
    38       H          1.09957234  *  112.2952634  *  -60.1551211  *     1     2     3
    39       H          1.11062329  *  110.1392621  * -177.2600629  *     2     1    36
    40       H          1.11063803  *  110.1274462  *  -62.3979180  *     2     1    36
    41       H          1.11058572  *  110.2189508  * -179.7987101  *     3     2    39
    42       H          1.11056458  *  110.2160320  *  -64.8043897  *     3     2    39
    43       H          1.11059834  *  110.3240982  * -179.8202606  *     4     3    41
    44       H          1.11059589  *  110.2977444  *  -64.6792143  *     4     3    41
    45       H          1.11066499  *  110.3594246  * -179.7505739  *     5     4    43
    46       H          1.11060964  *  110.3407531  *  -64.5816316  *     5     4    43
    47       H          1.11075557  *  110.3360982  * -179.7416202  *     6     5    45
    48       H          1.11076778  *  110.2868323  * -179.6596077  *     6     5    46
    49       H          1.11105041  *  110.7214580  * -179.8824974  *     7     6    47
    50       H          1.11046464  *  110.7103352  *  -64.2358837  *     7     6    47
    51       H          1.11423936  *  111.1818529  *  179.5714167  *     8     7    49
    52       H          1.11542682  *  111.0181812  *  -63.7796819  *     8     7    49
    53       H          1.09148357  *  121.9143375  *   -2.7335613  *    11    10     9
    54       H          1.09520489  *  119.1562443  * -179.5458402  *    12    11    10
    55       H          1.09312499  *  121.5119626  *  179.5011969  *    14    13    12
    56       H          1.09198210  *  121.6990604  *  179.9390959  *    18    17    16
    57       H          1.09563031  *  118.8650999  *  178.8385792  *    19    18    17
[...]



      MOLECULAR POINT GROUP   :   C1  


                  EIGENVALUES  
 -40.07406 -39.14507 -37.40498 -37.13748 -36.42434 -36.08581 -35.44698 -35.28815
 -34.08460 -33.07940 -31.99993 -30.85824 -30.62291 -29.77467 -29.50752 -28.43054
 -27.77129 -26.87017 -25.26248 -24.34589 -23.57855 -22.86903 -22.77060 -22.24233
 -22.07935 -21.43116 -21.18817 -20.96126 -20.84713 -20.63643 -18.53176 -18.49366
 -18.20766 -17.96757 -17.51246 -17.01651 -16.55974 -16.32583 -16.20152 -16.09145
 -15.93570 -15.75770 -15.66405 -15.47381 -15.02804 -14.98490 -14.91306 -14.83602
 -14.73622 -14.65930 -14.52230 -14.42145 -14.23301 -14.21379 -14.11845 -13.80343
 -13.65111 -13.44953 -13.37328 -13.28983 -13.17853 -13.09705 -12.98965 -12.92355
 -12.80121 -12.46829 -12.42815 -12.33081 -12.24179 -12.19579 -12.02423 -11.97677
 -11.92642 -11.73093 -11.65153 -11.59189 -11.46492 -11.30755 -11.09042 -10.95178
 -10.64256  -9.95113  -9.56319  -9.39378  -8.77666  -8.30960  -0.78412  -0.24081
   0.04812   0.48703   0.62699   0.86801   1.02786   1.27336   1.49432   1.56208
   2.39324   2.42373   2.63223   2.88103   3.02044   3.10176   3.27248   3.49122
   3.54968   3.63295   3.71583   3.81571   3.90619   3.94871   3.97504   4.02444
   4.06519   4.07425   4.12851   4.22010   4.22604   4.24005   4.28126   4.30458
   4.35718   4.38490   4.41042   4.45467   4.53060   4.55785   4.56181   4.64634
   4.66997   4.69839   4.73384   4.78855   4.79049   4.82141   4.88987   4.93617
   4.94284   5.00527   5.03237   5.03695   5.08204   5.10588   5.12247   5.20875
   5.21200   5.24204   5.26741   5.27162   5.32756   5.37162   5.41341   5.49633
   5.51015   5.62963   5.63930   5.66374   5.74950   5.81615   5.89294   5.91870
   6.04132   6.19158   6.29748   6.33831   6.36267   6.57306


              NET ATOMIC CHARGES AND DIPOLE CONTRIBUTIONS

  ATOM NO.   TYPE          CHARGE      No. of ELECS.   s-Pop       p-Pop       
   25          O          -0.352028        6.3520     1.90968     4.44234
   24          C           0.399192        3.6008     1.18127     2.41954
   26          O          -0.333171        6.3332     1.83997     4.49320
   59          H           0.245051        0.7549     0.75495
   27          C           0.044053        3.9559     1.19701     2.75894
   28          N          -0.143583        5.1436     1.84797     3.29561
    1          C          -0.177532        4.1775     1.15572     3.02181
    2          C          -0.111935        4.1119     1.16675     2.94519
    3          C          -0.123362        4.1234     1.17076     2.95260
    4          C          -0.123140        4.1231     1.17067     2.95246
    5          C          -0.124084        4.1241     1.17073     2.95335
    6          C          -0.118288        4.1183     1.16953     2.94876
    7          C          -0.169272        4.1693     1.17984     2.98943
    8          C           0.062430        3.9376     1.15857     2.77900
    9          N          -0.284855        5.2849     1.51395     3.77090
   10          C           0.113512        3.8865     1.15297     2.73351
   11          C          -0.163631        4.1636     1.17066     2.99297
   12          C          -0.050271        4.0503     1.17684     2.87344
   13          C          -0.072165        4.0722     1.16144     2.91073
   14          C          -0.034354        4.0344     1.16931     2.86504
   15          C          -0.088185        4.0882     1.15818     2.93001
   16          C          -0.108578        4.1086     1.15909     2.94949
   17          C           0.145501        3.8545     1.15385     2.70065
   18          C          -0.180172        4.1802     1.17182     3.00836
   19          C          -0.011010        4.0110     1.17540     2.83561
   20          C          -0.174454        4.1745     1.16265     3.01181
   21          C           0.008851        3.9911     1.16753     2.82362
   22          C           0.103823        3.8962     1.18338     2.71280
   23          C          -0.137677        4.1377     1.14265     2.99502
   29          C          -0.014140        4.0141     1.16025     2.85389
   30          C          -0.105011        4.1050     1.17866     2.92635
   31          C          -0.100681        4.1007     1.17869     2.92199
   32          C          -0.106026        4.1060     1.17891     2.92712
   33          C          -0.100882        4.1009     1.17865     2.92223
   34          C          -0.105660        4.1057     1.17876     2.92690
   35          H           0.128679        0.8713     0.87132
   36          H           0.058814        0.9412     0.94119
   37          H           0.056070        0.9439     0.94393
   38          H           0.057862        0.9421     0.94214
   39          H           0.059021        0.9410     0.94098
   40          H           0.059828        0.9402     0.94017
   41          H           0.064536        0.9355     0.93546
   42          H           0.062850        0.9372     0.93715
   43          H           0.061086        0.9389     0.93891
   44          H           0.062227        0.9378     0.93777
   45          H           0.067759        0.9322     0.93224
   46          H           0.064996        0.9350     0.93500
   47          H           0.061850        0.9381     0.93815
   48          H           0.063007        0.9370     0.93699
   49          H           0.084219        0.9158     0.91578
   50          H           0.082001        0.9180     0.91800
   51          H           0.080432        0.9196     0.91957
   52          H           0.078325        0.9217     0.92168
   53          H           0.119654        0.8803     0.88035
   54          H           0.110972        0.8890     0.88903
   55          H           0.115501        0.8845     0.88450
   56          H           0.127495        0.8725     0.87251
   57          H           0.114804        0.8852     0.88520
   58          H           0.113149        0.8869     0.88685
   60          H           0.110644        0.8894     0.88936
   61          H           0.105178        0.8948     0.89482
   62          H           0.105352        0.8946     0.89465
   63          H           0.104996        0.8950     0.89500
   64          H           0.110429        0.8896     0.88957
 DIPOLE           X         Y         Z       TOTAL
 POINT-CHG.     2.614    -2.111     4.161     5.348
 HYBRID         0.327     0.510    -0.327     0.689
 SUM            2.941    -1.601     3.834     5.090


          ATOMIC ORBITAL ELECTRON POPULATIONS

     Atom    s        px        py        pz   
    1  C   1.15572   0.96396   1.02816   1.02968
    2  C   1.16675   0.95352   0.96610   1.02556
    3  C   1.17076   0.95027   0.97112   1.03121
    4  C   1.17067   0.96019   0.96400   1.02827
    5  C   1.17073   0.94435   0.97468   1.03433
    6  C   1.16953   0.96718   0.95316   1.02841
    7  C   1.17984   0.94472   0.98830   1.05641
    8  C   1.15857   0.93737   0.80277   1.03886
    9  N   1.51395   1.59659   1.10716   1.06715
   10  C   1.15297   0.98181   0.88805   0.86365
   11  C   1.17066   1.07417   1.00091   0.91790
   12  C   1.17684   0.96440   0.92415   0.98488
   13  C   1.16144   1.03884   0.93842   0.93346
   14  C   1.16931   0.96830   0.97831   0.91843
   15  C   1.15818   1.07283   0.93350   0.92368
   16  C   1.15909   1.08322   0.93397   0.93231
   17  C   1.15385   0.94851   0.87654   0.87561
   18  C   1.17182   1.08494   1.00399   0.91943
   19  C   1.17540   0.93646   0.91188   0.98727
   20  C   1.16265   1.11677   0.94825   0.94678
   21  C   1.16753   0.93814   0.97237   0.91311
   22  C   1.18338   0.93668   0.91305   0.86306
   23  C   1.14265   0.96005   1.00227   1.03270
   24  C   1.18127   0.76309   0.81140   0.84505
   25  O   1.90968   1.45776   1.76517   1.21941
   26  O   1.83997   1.62185   1.34823   1.52312
   27  C   1.19701   0.91633   0.92020   0.92241
   28  N   1.84797   1.10516   1.10117   1.08929
   29  C   1.16025   0.95627   0.95640   0.94122
   30  C   1.17866   0.99206   0.98879   0.94550
   31  C   1.17869   0.97292   0.96417   0.98490
   32  C   1.17891   0.96006   0.99064   0.97641
   33  C   1.17865   0.99006   0.98234   0.94984
   34  C   1.17876   0.97157   0.96491   0.99042
   35  H   0.87132
   36  H   0.94119
   37  H   0.94393
   38  H   0.94214
   39  H   0.94098
   40  H   0.94017
   41  H   0.93546
   42  H   0.93715
   43  H   0.93891
   44  H   0.93777
   45  H   0.93224
   46  H   0.93500
   47  H   0.93815
   48  H   0.93699
   49  H   0.91578
   50  H   0.91800
   51  H   0.91957
   52  H   0.92168
   53  H   0.88035
   54  H   0.88903
   55  H   0.88450
   56  H   0.87251
   57  H   0.88520
   58  H   0.88685
   59  H   0.75495
   60  H   0.88936
   61  H   0.89482
   62  H   0.89465
   63  H   0.89500
   64  H   0.88957
 ******************** TDHF POLARIZABILITIES ********************



          MOLECULAR WEIGHT =  450.58



          ROTATIONAL CONSTANTS IN CM(-1)

          A =    0.00267650   B =    0.00209720   C =    0.00126081



           PRINCIPAL MOMENTS OF INERTIA IN UNITS OF 10**(-40)*GRAM-CM**2

          A =    10458.7087   B =    13347.7211   C =    22202.1829


 ROTATION MATRIX FOR ORIENTATION OF MOLECULE:

         0.594790   -0.085024   -0.799372
         0.789188    0.251011    0.560514
         0.152994   -0.964243    0.216399


          CARTESIAN COORDINATES 

    NO.       ATOM         X         Y         Z

     1         C       -9.9433   -1.4130    1.9190
     2         C       -9.0392   -1.5422    0.7040
     3         C       -7.5908   -1.2298    1.0719
     4         C       -6.6820   -1.3581   -0.1484
     5         C       -5.2335   -1.0484    0.2228
     6         C       -4.3257   -1.1705   -0.9991
     7         C       -2.8782   -0.8675   -0.6224
     8         C       -1.9785   -0.9851   -1.8614
     9         N       -0.5816   -0.6995   -1.5429
    10         C        0.3579   -1.6386   -1.0627
    11         C        0.2992   -3.0297   -1.0549
    12         C        1.4025   -3.7115   -0.5672
    13         C        2.5371   -3.0327   -0.1018
    14         C        2.5979   -1.6440   -0.1072
    15         C        1.5021   -0.9448   -0.5841
    16         C        1.2278    0.4638   -0.7146
    17         C       -0.0776    0.5833   -1.2718
    18         C       -0.6502    1.8307   -1.5158
    19         C        0.0944    2.9507   -1.1884
    20         C        1.3780    2.8382   -0.6340
    21         C        1.9620    1.5930   -0.4081
    22         C        2.1367    4.0317   -0.3007
    23         C        1.6085    5.0650    0.3774
    24         C        2.3530    6.2951    0.6840
    25         O        1.8933    7.3859    0.9766
    26         O        3.6955    6.1422    0.6192
    27         C        0.2788    5.0536    0.8746
    28         N       -0.8022    5.0552    1.2849
    29         C        3.6743   -3.8005    0.3981
    30         C        3.4758   -4.8027    1.3447
    31         C        4.5610   -5.5289    1.8186
    32         C        5.8409   -5.2582    1.3496
    33         C        6.0371   -4.2578    0.4050
    34         C        4.9565   -3.5268   -0.0720
    35         H        3.1849    4.0443   -0.6316
    36         H       -9.9269   -0.3995    2.3453
    37         H      -10.9922   -1.6344    1.6739
    38         H       -9.6568   -2.1013    2.7272
    39         H       -9.1205   -2.5628    0.2737
    40         H       -9.3892   -0.8680   -0.1063
    41         H       -7.5162   -0.2098    1.5048
    42         H       -7.2469   -1.9051    1.8837
    43         H       -6.7602   -2.3775   -0.5821
    44         H       -7.0266   -0.6808   -0.9583
    45         H       -5.1560   -0.0306    0.6607
    46         H       -4.8879   -1.7285    1.0299
    47         H       -4.4065   -2.1867   -1.4401
    48         H       -4.6684   -0.4854   -1.8035
    49         H       -2.7917    0.1474   -0.1787
    50         H       -2.5283   -1.5548    0.1765
    51         H       -2.0479   -2.0007   -2.3144
    52         H       -2.3097   -0.2852   -2.6643
    53         H       -0.5763   -3.5723   -1.4162
    54         H        1.3904   -4.8066   -0.5547
    55         H        3.4769   -1.1092    0.2620
    56         H       -1.6500    1.9293   -1.9437
    57         H       -0.3260    3.9424   -1.3885
    58         H        2.9671    1.5015    0.0132
    59         H        4.1503    6.9698    0.8308
    60         H        2.4710   -5.0115    1.7237
    61         H        4.4072   -6.3146    2.5639
    62         H        6.6935   -5.8320    1.7239
    63         H        7.0444   -4.0460    0.0348
    64         H        5.1127   -2.7462   -0.8223


 ENERGY OF "REORIENTED" SYSTEM WITHOUT FIELD:       -6.8210280584


  NFREQ=  3  IWFLB=  0  IBET=  1  IGAM=  1
  ATOL= 0.10000D-02  BTOL= 0.10000D-02    MAXITU=  500    MAXITA=  150


 *****************************************************************
 CALCULATION OF STATIC FIELD QUANTITIES
 *****************************************************************

 +++++ ALPHA AT       0.00000 EV.

                           COMPONENTS OF ALPHA

                     *X           *Y           *Z
           *=X:     336.8728     -39.5100      36.6190
           *=Y:     -39.5029     415.0463      -4.4049
           *=Z:      36.6233      -4.3912     160.6141

  ISOTROPIC AVERAGE ALPHA =     304.17772 A.U. =     45.07449 ANG.**3

 +++++ BETA (SECOND HARMONIC GENERATION) AT       0.00000 EV.

                              COMPONENTS OF BETA
            *XX         *XY         *YY         *XZ         *YZ         *ZZ
   *=X  -221.34868   296.38448 -1279.68041   -69.20645   -31.35899   -48.57119
   *=Y   296.25471 -1280.00302 -2496.88914   -31.43351  -783.02064   -62.08868
   *=Z   -69.08235   -31.64214  -783.19700   -48.52534   -62.20074     8.99120


 AVERAGE BETAX(SHG) VALUE AT   0.00000 EV =       -929.8709 a.u. = -0.803354E-29 ESU
 AVERAGE BETAY(SHG) VALUE AT   0.00000 EV =      -1357.6268 a.u. = -0.117291E-28 ESU
 AVERAGE BETAZ(SHG) VALUE AT   0.00000 EV =       -505.9520 a.u. = -0.437113E-29 ESU



 AVERAGE BETA (SHG) VALUE AT   0.00000 EV =       1721.5684 a.u. =  0.148733E-28 ESU
   (1 a.u. = 8.639418X10-33 esu)



 +++++ ALPHA AT       0.00000 EV.

                           COMPONENTS OF ALPHA

                     *X           *Y           *Z
           *=X:     336.8728     -39.5100      36.6190
           *=Y:     -39.5029     415.0463      -4.4049
           *=Z:      36.6233      -4.3912     160.6141

  ISOTROPIC AVERAGE ALPHA =     304.17772 A.U. =     45.07449 ANG.**3


 GAMMA (THIRD HARMONIC GENERATION) AT    0.00000 EV.


 GAMMA(X,X,X,X) =        100195.18524
 GAMMA(Y,Y,Y,Y) =        507827.72296
 GAMMA(Z,Z,Z,Z) =          5974.73970
 GAMMA(X,X,Y,Y) =         86392.58955
 GAMMA(X,X,Z,Z) =         13513.67359
 GAMMA(Y,Y,X,X) =         86392.72054
 GAMMA(Y,Y,Z,Z) =         31130.40562
 GAMMA(Z,Z,X,X) =         13513.69847
 GAMMA(Z,Z,Y,Y) =         31130.29980


 AVERAGE GAMMA VALUE AT    0.00000 =        175214.20710 a.u. =        88250.18489 ESU (X10-39)




 **********************************************************************
 CALCULATION FOR A FREQUENCY OF    0.25000 EV  =       0.00919 A.U. 
                  WAVELENGTH OF    4959.37 NM  =    2016.38525 CM(-1)
 **********************************************************************

 +++++ ALPHA AT       0.25000 EV.

                           COMPONENTS OF ALPHA

                     *X           *Y           *Z
           *=X:     337.4170     -39.7013      36.7372
           *=Y:     -39.6952     416.2628      -4.3428
           *=Z:      36.7405      -4.3314     160.8373

  ISOTROPIC AVERAGE ALPHA =     304.83904 A.U. =     45.17248 ANG.**3

 +++++ BETA (SECOND HARMONIC GENERATION) AT       0.25000 EV.

                              COMPONENTS OF BETA
            *XX         *XY         *YY         *XZ         *YZ         *ZZ
   *=X  -226.96166   305.97004 -1301.51024   -70.23025   -30.23421   -48.79116
   *=Y   306.91257 -1318.60993 -2593.68738   -31.66150  -812.22094   -64.96466
   *=Z   -70.28863   -34.60620  -810.80228   -49.39227   -66.74943     8.43517


 AVERAGE BETAX(SHG) VALUE AT   0.25000 EV =       -953.4382 a.u. = -0.823715E-29 ESU
 AVERAGE BETAY(SHG) VALUE AT   0.25000 EV =      -1412.1346 a.u. = -0.122000E-28 ESU
 AVERAGE BETAZ(SHG) VALUE AT   0.25000 EV =       -524.1376 a.u. = -0.452824E-29 ESU



 AVERAGE BETA (SHG) VALUE AT   0.25000 EV =       1782.6634 a.u. =  0.154012E-28 ESU
   (1 a.u. = 8.639418X10-33 esu)



 +++++ ALPHA AT       0.75000 EV.

                           COMPONENTS OF ALPHA

                     *X           *Y           *Z
           *=X:     341.8771     -41.3014      37.7085
           *=Y:     -41.2953     426.4260      -3.8224
           *=Z:      37.7108      -3.8115     162.6564

  ISOTROPIC AVERAGE ALPHA =     310.31980 A.U. =     45.98465 ANG.**3


 GAMMA (THIRD HARMONIC GENERATION) AT    0.25000 EV.


 GAMMA(X,X,X,X) =        104471.15349
 GAMMA(Y,Y,Y,Y) =        552900.30507
 GAMMA(Z,Z,Z,Z) =          6231.87864
 GAMMA(X,X,Y,Y) =         91084.42711
 GAMMA(X,X,Z,Z) =         14121.80621
 GAMMA(Y,Y,X,X) =         92665.32878
 GAMMA(Y,Y,Z,Z) =         33846.01400
 GAMMA(Z,Z,X,X) =         14107.26122
 GAMMA(Z,Z,Y,Y) =         33825.45803


 AVERAGE GAMMA VALUE AT    0.25000 =        188650.72651 a.u. =        95017.76009 ESU (X10-39)




 **********************************************************************
 CALCULATION FOR A FREQUENCY OF    0.50000 EV  =       0.01837 A.U. 
                  WAVELENGTH OF    2479.68 NM  =    4032.77050 CM(-1)
 **********************************************************************

 +++++ ALPHA AT       0.50000 EV.

                           COMPONENTS OF ALPHA

                     *X           *Y           *Z
           *=X:     339.0650     -40.2857      37.0940
           *=Y:     -40.2794     419.9793      -4.1572
           *=Z:      37.0971      -4.1456     161.5096

  ISOTROPIC AVERAGE ALPHA =     306.85129 A.U. =     45.47067 ANG.**3

 +++++ BETA (SECOND HARMONIC GENERATION) AT       0.50000 EV.

                              COMPONENTS OF BETA
            *XX         *XY         *YY         *XZ         *YZ         *ZZ
   *=X  -245.26521   337.86050 -1369.71308   -73.49362   -25.80968   -49.39220
   *=Y   342.85265 -1448.34452 -2922.15160   -32.10666  -911.07578   -74.59309
   *=Z   -73.90737   -45.08698  -903.29697   -52.18004   -82.37101     6.49330


 AVERAGE BETAX(SHG) VALUE AT   0.50000 EV =      -1031.1900 a.u. = -0.890888E-29 ESU
 AVERAGE BETAY(SHG) VALUE AT   0.50000 EV =      -1597.4433 a.u. = -0.138010E-28 ESU
 AVERAGE BETAZ(SHG) VALUE AT   0.50000 EV =       -585.3726 a.u. = -0.505728E-29 ESU



 AVERAGE BETA (SHG) VALUE AT   0.50000 EV =       1989.4318 a.u. =  0.171875E-28 ESU
   (1 a.u. = 8.639418X10-33 esu)



 +++++ ALPHA AT       1.50000 EV.

                           COMPONENTS OF ALPHA

                     *X           *Y           *Z
           *=X:     358.7037     -47.9279      41.5135
           *=Y:     -47.9164     468.1486      -1.3135
           *=Z:      41.5135      -1.2976     169.5063

  ISOTROPIC AVERAGE ALPHA =     332.11953 A.U. =     49.21504 ANG.**3


 GAMMA (THIRD HARMONIC GENERATION) AT    0.50000 EV.


 GAMMA(X,X,X,X) =        119930.61833
 GAMMA(Y,Y,Y,Y) =        734599.51388
 GAMMA(Z,Z,Z,Z) =          7181.26013
 GAMMA(X,X,Y,Y) =        107700.80671
 GAMMA(X,X,Z,Z) =         16331.98233
 GAMMA(Y,Y,X,X) =        117422.79504
 GAMMA(Y,Y,Z,Z) =         44837.28065
 GAMMA(Z,Z,X,X) =         16199.46991
 GAMMA(Z,Z,Y,Y) =         44513.77731


 AVERAGE GAMMA VALUE AT    0.50000 =        241743.50086 a.u. =       121759.01145 ESU (X10-39)



 **********************
 *                    *
 * JOB ENDED NORMALLY *
 *                    *
 **********************



 TOTAL JOB TIME:           145.31 SECONDS

 == MOPAC DONE ==
