 *******************************************************************************
 ** Site#: 4824         For non-commercial use only    Version 21.013L 64BITS **
 *******************************************************************************
 ** Cite this program as: MOPAC2016, Version: 21.013L, James J. P. Stewart,   **
 ** Stewart Computational Chemistry, web: HTTP://OpenMOPAC.net. Days left:  87**
 *******************************************************************************
 **                                                                           **
 **                                MOPAC2016                                  **
 **                                                                           **
 *******************************************************************************

                              RM1 CALCULATION RESULTS

 *******************************************************************************
 *  CALCULATION DONE:                                Mon Oct 18 11:17:43 2021  *
 *  RM1        - The RM1 Hamiltonian to be used
 *  POLAR      - CALCULATE FIRST, SECOND AND THIRD-ORDER POLARIZABILITIES
 *  PRECISE    - TIGHTER CRITERIA TO BE USED
 *  XYZ        - CARTESIAN COORDINATE SYSTEM TO BE USED
 *  T=         - A TIME OF 172800.0 SECONDS REQUESTED
 *  DUMP=N     - RESTART FILE WRITTEN EVERY 7200.0 SECONDS REQUESTED
 *  GNORM      - EXIT WHEN GRADIENT NORM DROPS BELOW 0.100
 *******************************************************************************
RM1 PRECISE POLAR XYZ GNORM=0.1


   ATOM   CHEMICAL          X               Y               Z
  NUMBER   SYMBOL      (ANGSTROMS)     (ANGSTROMS)     (ANGSTROMS)
 
     1       C          0.00000000  *   0.00000000  *   0.00000000  *
     2       C          1.51921438  *   0.00000000  *   0.00000000  *
     3       C          2.06087690  *   1.42747972  *   0.00000000  *
     4       C          3.58694868  *   1.42624125  *  -0.00946836  *
     5       C          4.12785149  *   2.85395948  *   0.00278746  *
     6       C          5.65375866  *   2.85228121  *  -0.03766154  *
     7       C          6.20218052  *   4.26770167  *   0.11305328  *
     8       C          7.69372919  *   4.33693534  *  -0.25546165  *
     9       N          7.91169872  *   4.32176901  *  -1.70104325  *
    10       C          7.83119513  *   5.45270481  *  -2.53349440  *
    11       C          7.34233332  *   6.72759284  *  -2.24532241  *
    12       C          7.27617320  *   7.62942927  *  -3.29242603  *
    13       C          7.64937025  *   7.26589357  *  -4.59399422  *
    14       C          8.14638973  *   6.00616994  *  -4.87685566  *
    15       C          8.29938205  *   5.10221898  *  -3.82916831  *
    16       C          8.72664903  *   3.73183882  *  -3.76549903  *
    17       C          8.38931044  *   3.25698041  *  -2.47778073  *
    18       C          8.44105792  *   1.88729450  *  -2.14843651  *
    19       C          8.78476848  *   1.01405331  *  -3.13928083  *
    20       C          9.18556153  *   1.46056661  *  -4.43240390  *
    21       C          9.29631563  *   2.84019120  *  -4.69483905  *
    22       C          9.97023186  *   3.21277814  *  -5.87556713  *
    23       C         10.63413228  *   4.41466648  *  -6.30501219  *
    24       C         10.96147797  *   5.60290234  *  -5.66093658  *
    25       C         11.65974323  *   6.56858286  *  -6.37526787  *
    26       C         12.06126363  *   6.35303363  *  -7.70554793  *
    27       C         11.82079339  *   5.15389069  *  -8.33929392  *
    28       C         11.12944649  *   4.17588324  *  -7.61938709  *
    29       N         10.79399523  *   2.86454877  *  -7.99086028  *
    30       C         10.19073785  *   2.24870111  *  -6.87723031  *
    31       C          9.90006634  *   0.88186281  *  -6.68491631  *
    32       C          9.46212163  *   0.50709578  *  -5.44777183  *
    33       C         11.31219511  *   2.16003420  *  -9.16000342  *
    34       C         12.69976282  *   1.56218509  *  -8.89020687  *
    35       C         13.20401785  *   0.83654606  * -10.13373906  *
    36       C         14.58461952  *   0.23560157  *  -9.87894792  *
    37       C         15.09334628  *  -0.49040136  * -11.12154150  *
    38       C         16.47225945  *  -1.09523755  * -10.86864138  *
    39       C         16.98441127  *  -1.82036804  * -12.11126951  *
    40       C         18.35629622  *  -2.42328859  * -11.85497390  *
    41       C         11.98714036  *   7.84159082  *  -5.75729185  *
    42       C         12.53345577  *   7.94049874  *  -4.53194996  *
    43       C         12.81663816  *   9.21936771  *  -3.86767717  *
    44       O         13.15732298  *   9.39197412  *  -2.71002340  *
    45       O         12.66924460  *  10.29509678  *  -4.67233305  *
    46       C         12.91113449  *   6.80126309  *  -3.77342887  *
    47       N         13.22838216  *   5.87878333  *  -3.15256489  *
    48       H         11.75640785  *   8.73721891  *  -6.35165108  *
    49       H         -0.40906151  *  -1.02075744  *   0.00059215  *
    50       H         -0.41721853  *   0.50497794  *   0.88339777  *
    51       H         -0.41847007  *   0.50512288  *  -0.88265586  *
    52       H          1.90307219  *  -0.56119680  *   0.87785465  *
    53       H          1.90343029  *  -0.55992966  *  -0.87939326  *
    54       H          1.67189505  *   1.98004983  *  -0.87983002  *
    55       H          1.67819185  *   1.99084224  *   0.87761205  *
    56       H          3.96106605  *   0.87163413  *   0.87592376  *
    57       H          3.97475557  *   0.87034587  *  -0.89042541  *
    58       H          3.72485443  *   3.42398641  *  -0.85873801  *
    59       H          3.76345845  *   3.39434421  *   0.90460489  *
    60       H          6.06794088  *   2.19990811  *   0.76280933  *
    61       H          6.00991240  *   2.38353911  *  -0.98387525  *
    62       H          5.62129334  *   4.99775043  *  -0.49388098  *
    63       H          6.06629813  *   4.61384074  *   1.16150981  *
    64       H          8.14499476  *   5.26967545  *   0.16048203  *
    65       H          8.26141777  *   3.50760274  *   0.22647047  *
    66       H          7.00698006  *   6.99465854  *  -1.24143345  *
    67       H          6.90158429  *   8.64184360  *  -3.11159996  *
    68       H          7.51900326  *   7.99056384  *  -5.40290183  *
    69       H          8.39057251  *   5.71546006  *  -5.90290365  *
    70       H          8.15209492  *   1.54413889  *  -1.15130511  *
    71       H          8.75871170  *  -0.06385189  *  -2.94167208  *
    72       H         10.67606298  *   5.75253861  *  -4.61522201  *
    73       H         12.60001904  *   7.14722658  *  -8.23432760  *
    74       H         12.16517622  *   4.97827373  *  -9.36056365  *
    75       H         10.05476858  *   0.15317764  *  -7.48212839  *
    76       H          9.30670987  *  -0.55566365  *  -5.23114887  *
    77       H         10.58511201  *   1.36805345  *  -9.45795527  *
    78       H         11.33889663  *   2.86292413  * -10.02568704  *
    79       H         13.41252682  *   2.35843615  *  -8.58461809  *
    80       H         12.65987680  *   0.87323685  *  -8.01875313  *
    81       H         12.49002047  *   0.04240447  * -10.44149705  *
    82       H         13.23879593  *   1.53013205  * -11.00168436  *
    83       H         15.30457175  *   1.02487726  *  -9.57350964  *
    84       H         14.54719610  *  -0.46035960  *  -9.01277238  *
    85       H         14.37795450  *  -1.28146751  * -11.43129023  *
    86       H         15.13112733  *   0.20671899  * -11.98651784  *
    87       H         17.19238365  *  -0.30826282  * -10.56039757  *
    88       H         16.43351974  *  -1.79475399  * -10.00613511  *
    89       H         16.26894913  *  -2.61274109  * -12.41825887  *
    90       H         17.02787265  *  -1.12397857  * -12.97576959  *
    91       H         18.74519572  *  -2.94883243  * -12.73923793  *
    92       H         19.10340571  *  -1.66066018  * -11.59207972  *
    93       H         18.34613293  *  -3.15285791  * -11.03167512  *
    94       H         12.86225695  *  11.11378147  *  -4.19435170  *
 


          CARTESIAN COORDINATES 

    NO.       ATOM           X           Y           Z

     1         C          0.0000      0.0000      0.0000
     2         C          1.5192      0.0000      0.0000
     3         C          2.0609      1.4275      0.0000
     4         C          3.5869      1.4262     -0.0095
     5         C          4.1279      2.8540      0.0028
     6         C          5.6538      2.8523     -0.0377
     7         C          6.2022      4.2677      0.1131
     8         C          7.6937      4.3369     -0.2555
     9         N          7.9117      4.3218     -1.7010
    10         C          7.8312      5.4527     -2.5335
    11         C          7.3423      6.7276     -2.2453
    12         C          7.2762      7.6294     -3.2924
    13         C          7.6494      7.2659     -4.5940
    14         C          8.1464      6.0062     -4.8769
    15         C          8.2994      5.1022     -3.8292
    16         C          8.7266      3.7318     -3.7655
    17         C          8.3893      3.2570     -2.4778
    18         C          8.4411      1.8873     -2.1484
    19         C          8.7848      1.0141     -3.1393
    20         C          9.1856      1.4606     -4.4324
    21         C          9.2963      2.8402     -4.6948
    22         C          9.9702      3.2128     -5.8756
    23         C         10.6341      4.4147     -6.3050
    24         C         10.9615      5.6029     -5.6609
    25         C         11.6597      6.5686     -6.3753
    26         C         12.0613      6.3530     -7.7055
    27         C         11.8208      5.1539     -8.3393
    28         C         11.1294      4.1759     -7.6194
    29         N         10.7940      2.8645     -7.9909
    30         C         10.1907      2.2487     -6.8772
    31         C          9.9001      0.8819     -6.6849
    32         C          9.4621      0.5071     -5.4478
    33         C         11.3122      2.1600     -9.1600
    34         C         12.6998      1.5622     -8.8902
    35         C         13.2040      0.8365    -10.1337
    36         C         14.5846      0.2356     -9.8789
    37         C         15.0933     -0.4904    -11.1215
    38         C         16.4723     -1.0952    -10.8686
    39         C         16.9844     -1.8204    -12.1113
    40         C         18.3563     -2.4233    -11.8550
    41         C         11.9871      7.8416     -5.7573
    42         C         12.5335      7.9405     -4.5319
    43         C         12.8166      9.2194     -3.8677
    44         O         13.1573      9.3920     -2.7100
    45         O         12.6692     10.2951     -4.6723
    46         C         12.9111      6.8013     -3.7734
    47         N         13.2284      5.8788     -3.1526
    48         H         11.7564      8.7372     -6.3517
    49         H         -0.4091     -1.0208      0.0006
    50         H         -0.4172      0.5050      0.8834
    51         H         -0.4185      0.5051     -0.8827
    52         H          1.9031     -0.5612      0.8779
    53         H          1.9034     -0.5599     -0.8794
    54         H          1.6719      1.9800     -0.8798
    55         H          1.6782      1.9908      0.8776
    56         H          3.9611      0.8716      0.8759
    57         H          3.9748      0.8703     -0.8904
    58         H          3.7249      3.4240     -0.8587
    59         H          3.7635      3.3943      0.9046
    60         H          6.0679      2.1999      0.7628
    61         H          6.0099      2.3835     -0.9839
    62         H          5.6213      4.9978     -0.4939
    63         H          6.0663      4.6138      1.1615
    64         H          8.1450      5.2697      0.1605
    65         H          8.2614      3.5076      0.2265
    66         H          7.0070      6.9947     -1.2414
    67         H          6.9016      8.6418     -3.1116
    68         H          7.5190      7.9906     -5.4029
    69         H          8.3906      5.7155     -5.9029
    70         H          8.1521      1.5441     -1.1513
    71         H          8.7587     -0.0639     -2.9417
    72         H         10.6761      5.7525     -4.6152
    73         H         12.6000      7.1472     -8.2343
    74         H         12.1652      4.9783     -9.3606
    75         H         10.0548      0.1532     -7.4821
    76         H          9.3067     -0.5557     -5.2311
    77         H         10.5851      1.3681     -9.4580
    78         H         11.3389      2.8629    -10.0257
    79         H         13.4125      2.3584     -8.5846
    80         H         12.6599      0.8732     -8.0188
    81         H         12.4900      0.0424    -10.4415
    82         H         13.2388      1.5301    -11.0017
    83         H         15.3046      1.0249     -9.5735
    84         H         14.5472     -0.4604     -9.0128
    85         H         14.3780     -1.2815    -11.4313
    86         H         15.1311      0.2067    -11.9865
    87         H         17.1924     -0.3083    -10.5604
    88         H         16.4335     -1.7948    -10.0061
    89         H         16.2689     -2.6127    -12.4183
    90         H         17.0279     -1.1240    -12.9758
    91         H         18.7452     -2.9488    -12.7392
    92         H         19.1034     -1.6607    -11.5921
    93         H         18.3461     -3.1529    -11.0317
    94         H         12.8623     11.1138     -4.1944

  H: (RM1): G.B. ROCHA, R.O. FREIRE, A.M.SIMAS, J.J.P. STEWART, J. COMP. CHEM. 27, 1101 (2006)
  C: (RM1): G.B. ROCHA, R.O. FREIRE, A.M.SIMAS, J.J.P. STEWART, J. COMP. CHEM. 27, 1101 (2006)
  N: (RM1): G.B. ROCHA, R.O. FREIRE, A.M.SIMAS, J.J.P. STEWART, J. COMP. CHEM. 27, 1101 (2006)
  O: (RM1): G.B. ROCHA, R.O. FREIRE, A.M.SIMAS, J.J.P. STEWART, J. COMP. CHEM. 27, 1101 (2006)

           Empirical Formula: C42 H47 N3 O2  =    94 atoms



      MOLECULAR POINT GROUP   :   C1  


      RHF CALCULATION, NO. OF DOUBLY OCCUPIED LEVELS = 121


          Geometry optimization using L-BFGS
 CYCLE:     1 TIME:   0.230 TIME LEFT:  2.00D  GRAD.:    17.751 HEAT: -14.16782
 CYCLE:     2 TIME:   0.105 TIME LEFT:  2.00D  GRAD.:    17.392 HEAT: -14.17094
 CYCLE:     3 TIME:   0.109 TIME LEFT:  2.00D  GRAD.:     7.808 HEAT: -14.27789
 CYCLE:     4 TIME:   0.113 TIME LEFT:  2.00D  GRAD.:    17.513 HEAT: -14.17091
 CYCLE:     5 TIME:   0.125 TIME LEFT:  2.00D  GRAD.:     7.863 HEAT: -14.27807
 CYCLE:     6 TIME:   0.109 TIME LEFT:  2.00D  GRAD.:     9.535 HEAT: -14.30250
 CYCLE:     7 TIME:   0.152 TIME LEFT:  2.00D  GRAD.:     7.900 HEAT: -14.33496
 CYCLE:     8 TIME:   0.121 TIME LEFT:  2.00D  GRAD.:    11.698 HEAT: -14.36111
 CYCLE:     9 TIME:   0.133 TIME LEFT:  2.00D  GRAD.:     5.631 HEAT: -14.38576
 CYCLE:    10 TIME:   0.121 TIME LEFT:  2.00D  GRAD.:     5.538 HEAT: -14.39843
 CYCLE:    11 TIME:   0.113 TIME LEFT:  2.00D  GRAD.:     5.879 HEAT: -14.42729
 CYCLE:    12 TIME:   0.125 TIME LEFT:  2.00D  GRAD.:     8.788 HEAT: -14.45118
 CYCLE:    13 TIME:   0.133 TIME LEFT:  2.00D  GRAD.:     4.604 HEAT: -14.47605
 CYCLE:    14 TIME:   0.133 TIME LEFT:  2.00D  GRAD.:     3.900 HEAT: -14.49262
 CYCLE:    15 TIME:   0.137 TIME LEFT:  2.00D  GRAD.:     5.771 HEAT: -14.51576
 CYCLE:    16 TIME:   0.168 TIME LEFT:  2.00D  GRAD.:     8.770 HEAT: -14.53635
 CYCLE:    17 TIME:   0.145 TIME LEFT:  2.00D  GRAD.:     5.582 HEAT: -14.56278
 CYCLE:    18 TIME:   0.125 TIME LEFT:  2.00D  GRAD.:     4.905 HEAT: -14.59861
 CYCLE:    19 TIME:   0.121 TIME LEFT:  2.00D  GRAD.:     5.780 HEAT: -14.62076
 CYCLE:    20 TIME:   0.113 TIME LEFT:  2.00D  GRAD.:     7.579 HEAT: -14.63994
 CYCLE:    21 TIME:   0.113 TIME LEFT:  2.00D  GRAD.:     4.157 HEAT: -14.65756
 CYCLE:    22 TIME:   0.109 TIME LEFT:  2.00D  GRAD.:     4.253 HEAT: -14.66860
 CYCLE:    23 TIME:   0.113 TIME LEFT:  2.00D  GRAD.:     8.023 HEAT: -14.67928
 CYCLE:    24 TIME:   0.113 TIME LEFT:  2.00D  GRAD.:     4.792 HEAT: -14.69136
 CYCLE:    25 TIME:   0.113 TIME LEFT:  2.00D  GRAD.:     4.202 HEAT: -14.70832
 CYCLE:    26 TIME:   0.113 TIME LEFT:  2.00D  GRAD.:     5.031 HEAT: -14.72097
 CYCLE:    27 TIME:   0.113 TIME LEFT:  2.00D  GRAD.:    10.372 HEAT: -14.73059
 CYCLE:    28 TIME:   0.113 TIME LEFT:  2.00D  GRAD.:     3.873 HEAT: -14.74691
 CYCLE:    29 TIME:   0.156 TIME LEFT:  2.00D  GRAD.:     3.133 HEAT: -14.75403
 CYCLE:    30 TIME:   0.168 TIME LEFT:  2.00D  GRAD.:     4.273 HEAT: -14.76231
 CYCLE:    31 TIME:   0.133 TIME LEFT:  2.00D  GRAD.:     4.998 HEAT: -14.77648
 CYCLE:    32 TIME:   0.125 TIME LEFT:  2.00D  GRAD.:     8.047 HEAT: -14.79218
 CYCLE:    33 TIME:   0.152 TIME LEFT:  2.00D  GRAD.:     3.797 HEAT: -14.81280
 CYCLE:    34 TIME:   0.109 TIME LEFT:  2.00D  GRAD.:     3.193 HEAT: -14.82541
 CYCLE:    35 TIME:   0.125 TIME LEFT:  2.00D  GRAD.:     5.013 HEAT: -14.84089
 CYCLE:    36 TIME:   0.168 TIME LEFT:  2.00D  GRAD.:     7.239 HEAT: -14.85020
 CYCLE:    37 TIME:   0.148 TIME LEFT:  2.00D  GRAD.:     3.598 HEAT: -14.86077
 CYCLE:    38 TIME:   0.375 TIME LEFT:  2.00D  GRAD.:     3.098 HEAT: -14.86950
 CYCLE:    39 TIME:   0.172 TIME LEFT:  2.00D  GRAD.:     5.789 HEAT: -14.87352
 CYCLE:    40 TIME:   0.125 TIME LEFT:  2.00D  GRAD.:     4.159 HEAT: -14.87786
 CYCLE:    41 TIME:   0.117 TIME LEFT:  2.00D  GRAD.:     2.568 HEAT: -14.88661
 CYCLE:    42 TIME:   0.156 TIME LEFT:  2.00D  GRAD.:     2.756 HEAT: -14.89091
 CYCLE:    43 TIME:   0.188 TIME LEFT:  2.00D  GRAD.:     6.083 HEAT: -14.89621
 CYCLE:    44 TIME:   0.254 TIME LEFT:  2.00D  GRAD.:     2.244 HEAT: -14.90234
 CYCLE:    45 TIME:   0.168 TIME LEFT:  2.00D  GRAD.:     1.752 HEAT: -14.90491
 CYCLE:    46 TIME:   0.121 TIME LEFT:  2.00D  GRAD.:     2.088 HEAT: -14.90906
 CYCLE:    47 TIME:   0.117 TIME LEFT:  2.00D  GRAD.:     3.378 HEAT: -14.91247
 CYCLE:    48 TIME:   0.117 TIME LEFT:  2.00D  GRAD.:     1.738 HEAT: -14.91603
 CYCLE:    49 TIME:   0.117 TIME LEFT:  2.00D  GRAD.:     1.552 HEAT: -14.91837
 CYCLE:    50 TIME:   0.172 TIME LEFT:  2.00D  GRAD.:     1.992 HEAT: -14.92254
 CYCLE:    51 TIME:   0.172 TIME LEFT:  2.00D  GRAD.:     4.663 HEAT: -14.92412
 CYCLE:    52 TIME:   3.043 TIME LEFT:  2.00D  GRAD.:     1.835 HEAT: -14.92831
 CYCLE:    53 TIME:   0.125 TIME LEFT:  2.00D  GRAD.:     1.344 HEAT: -14.93061
 CYCLE:    54 TIME:   0.160 TIME LEFT:  2.00D  GRAD.:     1.674 HEAT: -14.93277
 CYCLE:    55 TIME:   0.125 TIME LEFT:  2.00D  GRAD.:     9.080 HEAT: -14.92959
 CYCLE:    56 TIME:   0.109 TIME LEFT:  2.00D  GRAD.:     2.078 HEAT: -14.93535
 CYCLE:    57 TIME:   0.152 TIME LEFT:  2.00D  GRAD.:     1.311 HEAT: -14.93633
 CYCLE:    58 TIME:   0.125 TIME LEFT:  2.00D  GRAD.:     1.444 HEAT: -14.93811
 CYCLE:    59 TIME:   0.129 TIME LEFT:  2.00D  GRAD.:     1.497 HEAT: -14.93979
 CYCLE:    60 TIME:   0.117 TIME LEFT:  2.00D  GRAD.:     3.846 HEAT: -14.94273
 CYCLE:    61 TIME:   0.156 TIME LEFT:  2.00D  GRAD.:     2.014 HEAT: -14.94634
 CYCLE:    62 TIME:   0.156 TIME LEFT:  2.00D  GRAD.:     1.530 HEAT: -14.94867
 CYCLE:    63 TIME:   0.168 TIME LEFT:  2.00D  GRAD.:     2.267 HEAT: -14.95129
 CYCLE:    64 TIME:   0.133 TIME LEFT:  2.00D  GRAD.:     2.935 HEAT: -14.95529
 CYCLE:    65 TIME:   0.137 TIME LEFT:  2.00D  GRAD.:     2.780 HEAT: -14.96119
 CYCLE:    66 TIME:   0.137 TIME LEFT:  2.00D  GRAD.:     2.953 HEAT: -14.96631
 CYCLE:    67 TIME:   0.156 TIME LEFT:  2.00D  GRAD.:     2.070 HEAT: -14.97086
 CYCLE:    68 TIME:   0.117 TIME LEFT:  2.00D  GRAD.:     1.977 HEAT: -14.97463
 CYCLE:    69 TIME:   0.137 TIME LEFT:  2.00D  GRAD.:     3.064 HEAT: -14.97899
 CYCLE:    70 TIME:   0.113 TIME LEFT:  2.00D  GRAD.:     2.264 HEAT: -14.98356
 CYCLE:    71 TIME:   0.113 TIME LEFT:  2.00D  GRAD.:     2.769 HEAT: -14.98649
 CYCLE:    72 TIME:   0.125 TIME LEFT:  2.00D  GRAD.:     2.217 HEAT: -14.98931
 CYCLE:    73 TIME:   0.117 TIME LEFT:  2.00D  GRAD.:     3.394 HEAT: -14.99249
 CYCLE:    74 TIME:   0.113 TIME LEFT:  2.00D  GRAD.:     1.994 HEAT: -14.99658
 CYCLE:    75 TIME:   0.117 TIME LEFT:  2.00D  GRAD.:     1.701 HEAT: -14.99993
 CYCLE:    76 TIME:   0.125 TIME LEFT:  2.00D  GRAD.:     2.220 HEAT: -15.00244
 CYCLE:    77 TIME:   0.117 TIME LEFT:  2.00D  GRAD.:     1.782 HEAT: -15.00501
 CYCLE:    78 TIME:   0.113 TIME LEFT:  2.00D  GRAD.:     1.471 HEAT: -15.00752
 CYCLE:    79 TIME:   0.145 TIME LEFT:  2.00D  GRAD.:     2.450 HEAT: -15.00995
 CYCLE:    80 TIME:   0.121 TIME LEFT:  2.00D  GRAD.:     1.725 HEAT: -15.01283
 CYCLE:    81 TIME:   0.129 TIME LEFT:  2.00D  GRAD.:     1.614 HEAT: -15.01537
 CYCLE:    82 TIME:   0.117 TIME LEFT:  2.00D  GRAD.:     3.084 HEAT: -15.01857
 CYCLE:    83 TIME:   0.113 TIME LEFT:  2.00D  GRAD.:     1.848 HEAT: -15.02152
 CYCLE:    84 TIME:   0.109 TIME LEFT:  2.00D  GRAD.:     1.477 HEAT: -15.02337
 CYCLE:    85 TIME:   0.121 TIME LEFT:  2.00D  GRAD.:     2.409 HEAT: -15.02605
 CYCLE:    86 TIME:   0.125 TIME LEFT:  2.00D  GRAD.:     4.727 HEAT: -15.02681
 CYCLE:    87 TIME:   0.168 TIME LEFT:  2.00D  GRAD.:     1.944 HEAT: -15.02887
 CYCLE:    88 TIME:   0.172 TIME LEFT:  2.00D  GRAD.:     1.437 HEAT: -15.03047
 CYCLE:    89 TIME:   0.168 TIME LEFT:  2.00D  GRAD.:     2.044 HEAT: -15.03209
 CYCLE:    90 TIME:   0.164 TIME LEFT:  2.00D  GRAD.:     2.013 HEAT: -15.03446
 CYCLE:    91 TIME:   0.160 TIME LEFT:  2.00D  GRAD.:     5.993 HEAT: -15.03386
 CYCLE:    92 TIME:   0.121 TIME LEFT:  2.00D  GRAD.:     1.349 HEAT: -15.03852
 CYCLE:    93 TIME:   0.133 TIME LEFT:  2.00D  GRAD.:     1.196 HEAT: -15.03933
 CYCLE:    94 TIME:   0.121 TIME LEFT:  2.00D  GRAD.:     1.487 HEAT: -15.04163
 CYCLE:    95 TIME:   0.125 TIME LEFT:  2.00D  GRAD.:     2.602 HEAT: -15.04424
 CYCLE:    96 TIME:   0.125 TIME LEFT:  2.00D  GRAD.:     1.878 HEAT: -15.04703
 CYCLE:    97 TIME:   0.113 TIME LEFT:  2.00D  GRAD.:     1.578 HEAT: -15.04930
 CYCLE:    98 TIME:   0.121 TIME LEFT:  2.00D  GRAD.:     2.117 HEAT: -15.05216
 CYCLE:    99 TIME:   0.129 TIME LEFT:  2.00D  GRAD.:     2.201 HEAT: -15.05427
 CYCLE:   100 TIME:   0.121 TIME LEFT:  2.00D  GRAD.:     1.488 HEAT: -15.05604
 CYCLE:   101 TIME:   0.133 TIME LEFT:  2.00D  GRAD.:     1.470 HEAT: -15.05865
 CYCLE:   102 TIME:   0.117 TIME LEFT:  2.00D  GRAD.:     7.081 HEAT: -15.05758
 CYCLE:   103 TIME:   0.125 TIME LEFT:  2.00D  GRAD.:     2.295 HEAT: -15.06084
 CYCLE:   104 TIME:   0.129 TIME LEFT:  2.00D  GRAD.:     1.300 HEAT: -15.06196
 CYCLE:   105 TIME:   0.129 TIME LEFT:  2.00D  GRAD.:     1.354 HEAT: -15.06368
 CYCLE:   106 TIME:   0.117 TIME LEFT:  2.00D  GRAD.:     1.477 HEAT: -15.06548
 CYCLE:   107 TIME:   0.133 TIME LEFT:  2.00D  GRAD.:     4.156 HEAT: -15.06630
 CYCLE:   108 TIME:   0.113 TIME LEFT:  2.00D  GRAD.:     1.385 HEAT: -15.06866
 CYCLE:   109 TIME:   0.109 TIME LEFT:  2.00D  GRAD.:     1.027 HEAT: -15.06965
 CYCLE:   110 TIME:   0.125 TIME LEFT:  2.00D  GRAD.:     1.547 HEAT: -15.07068
 CYCLE:   111 TIME:   0.121 TIME LEFT:  2.00D  GRAD.:     1.445 HEAT: -15.07229
 CYCLE:   112 TIME:   0.121 TIME LEFT:  2.00D  GRAD.:     2.782 HEAT: -15.07460
 CYCLE:   113 TIME:   0.113 TIME LEFT:  2.00D  GRAD.:     2.004 HEAT: -15.07634
 CYCLE:   114 TIME:   0.137 TIME LEFT:  2.00D  GRAD.:     1.129 HEAT: -15.07725
 CYCLE:   115 TIME:   0.129 TIME LEFT:  2.00D  GRAD.:     1.315 HEAT: -15.07878
 CYCLE:   116 TIME:   0.121 TIME LEFT:  2.00D  GRAD.:     1.349 HEAT: -15.08026
 CYCLE:   117 TIME:   0.129 TIME LEFT:  2.00D  GRAD.:     3.513 HEAT: -15.08124
 CYCLE:   118 TIME:   0.117 TIME LEFT:  2.00D  GRAD.:     1.244 HEAT: -15.08341
 CYCLE:   119 TIME:   0.129 TIME LEFT:  2.00D  GRAD.:     0.902 HEAT: -15.08417
 CYCLE:   120 TIME:   0.145 TIME LEFT:  2.00D  GRAD.:     1.588 HEAT: -15.08518
 CYCLE:   121 TIME:   0.137 TIME LEFT:  2.00D  GRAD.:     2.388 HEAT: -15.08607
 CYCLE:   122 TIME:   0.113 TIME LEFT:  2.00D  GRAD.:     1.741 HEAT: -15.08732
 CYCLE:   123 TIME:   0.133 TIME LEFT:  2.00D  GRAD.:     1.479 HEAT: -15.08912
 CYCLE:   124 TIME:   0.121 TIME LEFT:  2.00D  GRAD.:     2.670 HEAT: -15.08996
 CYCLE:   125 TIME:   0.109 TIME LEFT:  2.00D  GRAD.:     1.520 HEAT: -15.09088
 CYCLE:   126 TIME:   0.117 TIME LEFT:  2.00D  GRAD.:     1.053 HEAT: -15.09213
 CYCLE:   127 TIME:   0.117 TIME LEFT:  2.00D  GRAD.:     1.329 HEAT: -15.09293
 CYCLE:   128 TIME:   0.133 TIME LEFT:  2.00D  GRAD.:     1.560 HEAT: -15.09471
 CYCLE:   129 TIME:   0.160 TIME LEFT:  2.00D  GRAD.:     1.913 HEAT: -15.09646
 CYCLE:   130 TIME:   0.156 TIME LEFT:  2.00D  GRAD.:     1.215 HEAT: -15.09848
 CYCLE:   131 TIME:   0.141 TIME LEFT:  2.00D  GRAD.:     1.399 HEAT: -15.09985
 CYCLE:   132 TIME:   0.117 TIME LEFT:  2.00D  GRAD.:     1.644 HEAT: -15.10160
 CYCLE:   133 TIME:   0.121 TIME LEFT:  2.00D  GRAD.:     1.899 HEAT: -15.10389
 CYCLE:   134 TIME:   0.117 TIME LEFT:  2.00D  GRAD.:     1.778 HEAT: -15.10658
 CYCLE:   135 TIME:   0.125 TIME LEFT:  2.00D  GRAD.:     1.732 HEAT: -15.10836
 CYCLE:   136 TIME:   0.129 TIME LEFT:  2.00D  GRAD.:     1.552 HEAT: -15.10958
 CYCLE:   137 TIME:   0.133 TIME LEFT:  2.00D  GRAD.:     1.211 HEAT: -15.11106
 CYCLE:   138 TIME:   0.137 TIME LEFT:  2.00D  GRAD.:     1.786 HEAT: -15.11250
 CYCLE:   139 TIME:   0.129 TIME LEFT:  2.00D  GRAD.:     1.382 HEAT: -15.11396
 CYCLE:   140 TIME:   0.129 TIME LEFT:  2.00D  GRAD.:     1.354 HEAT: -15.11527
 CYCLE:   141 TIME:   0.125 TIME LEFT:  2.00D  GRAD.:     1.306 HEAT: -15.11632
 CYCLE:   142 TIME:   0.141 TIME LEFT:  2.00D  GRAD.:     1.155 HEAT: -15.11751
 CYCLE:   143 TIME:   0.152 TIME LEFT:  2.00D  GRAD.:     1.845 HEAT: -15.11942
 CYCLE:   144 TIME:   0.129 TIME LEFT:  2.00D  GRAD.:     1.543 HEAT: -15.12102
 CYCLE:   145 TIME:   0.129 TIME LEFT:  2.00D  GRAD.:     1.245 HEAT: -15.12233
 CYCLE:   146 TIME:   0.121 TIME LEFT:  2.00D  GRAD.:     1.274 HEAT: -15.12456
 CYCLE:   147 TIME:   0.121 TIME LEFT:  2.00D  GRAD.:     2.875 HEAT: -15.12568
 CYCLE:   148 TIME:   0.113 TIME LEFT:  2.00D  GRAD.:     1.170 HEAT: -15.12712
 CYCLE:   149 TIME:   0.109 TIME LEFT:  2.00D  GRAD.:     0.882 HEAT: -15.12800
 CYCLE:   150 TIME:   0.145 TIME LEFT:  2.00D  GRAD.:     1.245 HEAT: -15.12893
 CYCLE:   151 TIME:   0.164 TIME LEFT:  2.00D  GRAD.:     2.317 HEAT: -15.13003
 CYCLE:   152 TIME:   0.129 TIME LEFT:  2.00D  GRAD.:     1.760 HEAT: -15.13124
 CYCLE:   153 TIME:   0.121 TIME LEFT:  2.00D  GRAD.:     0.927 HEAT: -15.13195
 CYCLE:   154 TIME:   0.117 TIME LEFT:  2.00D  GRAD.:     0.996 HEAT: -15.13246
 CYCLE:   155 TIME:   0.152 TIME LEFT:  2.00D  GRAD.:     1.616 HEAT: -15.13351
 CYCLE:   156 TIME:   0.137 TIME LEFT:  2.00D  GRAD.:     1.968 HEAT: -15.13481
 CYCLE:   157 TIME:   0.137 TIME LEFT:  2.00D  GRAD.:     1.328 HEAT: -15.13651
 CYCLE:   158 TIME:   0.148 TIME LEFT:  2.00D  GRAD.:     1.154 HEAT: -15.13788
 CYCLE:   159 TIME:   0.152 TIME LEFT:  2.00D  GRAD.:     1.527 HEAT: -15.13967
 CYCLE:   160 TIME:   0.156 TIME LEFT:  2.00D  GRAD.:     2.146 HEAT: -15.14147
 CYCLE:   161 TIME:   0.141 TIME LEFT:  2.00D  GRAD.:     1.379 HEAT: -15.14363
 CYCLE:   162 TIME:   0.129 TIME LEFT:  2.00D  GRAD.:     1.234 HEAT: -15.14541
 CYCLE:   163 TIME:   0.137 TIME LEFT:  2.00D  GRAD.:     1.525 HEAT: -15.14665
 CYCLE:   164 TIME:   0.113 TIME LEFT:  2.00D  GRAD.:     1.448 HEAT: -15.14804
 CYCLE:   165 TIME:   0.145 TIME LEFT:  2.00D  GRAD.:     3.389 HEAT: -15.14933
 CYCLE:   166 TIME:   0.117 TIME LEFT:  2.00D  GRAD.:     2.156 HEAT: -15.15087
 CYCLE:   167 TIME:   0.152 TIME LEFT:  2.00D  GRAD.:     1.159 HEAT: -15.15161
 CYCLE:   168 TIME:   0.141 TIME LEFT:  2.00D  GRAD.:     1.864 HEAT: -15.15261
 CYCLE:   169 TIME:   0.145 TIME LEFT:  2.00D  GRAD.:     1.467 HEAT: -15.15365
 CYCLE:   170 TIME:   0.129 TIME LEFT:  2.00D  GRAD.:     1.577 HEAT: -15.15607
 CYCLE:   171 TIME:   0.117 TIME LEFT:  2.00D  GRAD.:     3.112 HEAT: -15.15678
 CYCLE:   172 TIME:   0.133 TIME LEFT:  2.00D  GRAD.:     1.148 HEAT: -15.15800
 CYCLE:   173 TIME:   0.125 TIME LEFT:  2.00D  GRAD.:     0.966 HEAT: -15.15872
 CYCLE:   174 TIME:   0.129 TIME LEFT:  2.00D  GRAD.:     1.540 HEAT: -15.15989
 CYCLE:   175 TIME:   0.121 TIME LEFT:  2.00D  GRAD.:     1.467 HEAT: -15.16124
 CYCLE:   176 TIME:   0.156 TIME LEFT:  2.00D  GRAD.:     2.424 HEAT: -15.16311
 CYCLE:   177 TIME:   0.141 TIME LEFT:  2.00D  GRAD.:     2.022 HEAT: -15.16487
 CYCLE:   178 TIME:   0.125 TIME LEFT:  2.00D  GRAD.:     0.841 HEAT: -15.16578
 CYCLE:   179 TIME:   0.121 TIME LEFT:  2.00D  GRAD.:     1.228 HEAT: -15.16646
 CYCLE:   180 TIME:   0.172 TIME LEFT:  2.00D  GRAD.:     0.927 HEAT: -15.16752
 CYCLE:   181 TIME:   0.184 TIME LEFT:  2.00D  GRAD.:     2.597 HEAT: -15.16892
 CYCLE:   182 TIME:   0.137 TIME LEFT:  2.00D  GRAD.:     2.503 HEAT: -15.16978
 CYCLE:   183 TIME:   0.117 TIME LEFT:  2.00D  GRAD.:     1.095 HEAT: -15.17046
 CYCLE:   184 TIME:   0.137 TIME LEFT:  2.00D  GRAD.:     1.580 HEAT: -15.17096
 CYCLE:   185 TIME:   0.121 TIME LEFT:  2.00D  GRAD.:     0.922 HEAT: -15.17167
 CYCLE:   186 TIME:   0.121 TIME LEFT:  2.00D  GRAD.:     1.481 HEAT: -15.17303
 CYCLE:   187 TIME:   0.121 TIME LEFT:  2.00D  GRAD.:     1.349 HEAT: -15.17380
 CYCLE:   188 TIME:   0.141 TIME LEFT:  2.00D  GRAD.:     2.610 HEAT: -15.17532
 CYCLE:   189 TIME:   0.113 TIME LEFT:  2.00D  GRAD.:     1.581 HEAT: -15.17664
 CYCLE:   190 TIME:   0.117 TIME LEFT:  2.00D  GRAD.:     1.220 HEAT: -15.17733
 CYCLE:   191 TIME:   0.121 TIME LEFT:  2.00D  GRAD.:     1.511 HEAT: -15.17932
 CYCLE:   192 TIME:   0.117 TIME LEFT:  2.00D  GRAD.:     2.136 HEAT: -15.18067
 CYCLE:   193 TIME:   0.121 TIME LEFT:  2.00D  GRAD.:     1.381 HEAT: -15.18255
 CYCLE:   194 TIME:   0.121 TIME LEFT:  2.00D  GRAD.:     1.240 HEAT: -15.18446
 CYCLE:   195 TIME:   0.125 TIME LEFT:  2.00D  GRAD.:     2.157 HEAT: -15.18553
 CYCLE:   196 TIME:   0.117 TIME LEFT:  2.00D  GRAD.:     1.237 HEAT: -15.18679
 CYCLE:   197 TIME:   0.129 TIME LEFT:  2.00D  GRAD.:     0.998 HEAT: -15.18784
 CYCLE:   198 TIME:   0.145 TIME LEFT:  2.00D  GRAD.:     1.207 HEAT: -15.18845
 CYCLE:   199 TIME:   0.117 TIME LEFT:  2.00D  GRAD.:     1.146 HEAT: -15.18933
 CYCLE:   200 TIME:   0.125 TIME LEFT:  2.00D  GRAD.:     1.077 HEAT: -15.19064
 CYCLE:   201 TIME:   0.117 TIME LEFT:  2.00D  GRAD.:     2.088 HEAT: -15.19117
 CYCLE:   202 TIME:   0.148 TIME LEFT:  2.00D  GRAD.:     0.867 HEAT: -15.19188
 CYCLE:   203 TIME:   0.156 TIME LEFT:  2.00D  GRAD.:     0.971 HEAT: -15.19239
 CYCLE:   204 TIME:   0.129 TIME LEFT:  2.00D  GRAD.:     1.022 HEAT: -15.19301
 CYCLE:   205 TIME:   0.133 TIME LEFT:  2.00D  GRAD.:     2.943 HEAT: -15.19399
 CYCLE:   206 TIME:   0.113 TIME LEFT:  2.00D  GRAD.:     1.279 HEAT: -15.19536
 CYCLE:   207 TIME:   0.117 TIME LEFT:  2.00D  GRAD.:     0.884 HEAT: -15.19579
 CYCLE:   208 TIME:   0.129 TIME LEFT:  2.00D  GRAD.:     1.278 HEAT: -15.19672
 CYCLE:   209 TIME:   0.145 TIME LEFT:  2.00D  GRAD.:     1.043 HEAT: -15.19773
 CYCLE:   210 TIME:   0.152 TIME LEFT:  2.00D  GRAD.:     1.001 HEAT: -15.19923
 CYCLE:   211 TIME:   0.141 TIME LEFT:  2.00D  GRAD.:     1.587 HEAT: -15.20085
 CYCLE:   212 TIME:   0.172 TIME LEFT:  2.00D  GRAD.:     2.019 HEAT: -15.20193
 CYCLE:   213 TIME:   0.113 TIME LEFT:  2.00D  GRAD.:     1.749 HEAT: -15.20265
 CYCLE:   214 TIME:   0.152 TIME LEFT:  2.00D  GRAD.:     0.895 HEAT: -15.20304
 CYCLE:   215 TIME:   0.156 TIME LEFT:  2.00D  GRAD.:     1.546 HEAT: -15.20344
 CYCLE:   216 TIME:   0.113 TIME LEFT:  2.00D  GRAD.:     1.079 HEAT: -15.20398
 CYCLE:   217 TIME:   0.137 TIME LEFT:  2.00D  GRAD.:     1.080 HEAT: -15.20527
 CYCLE:   218 TIME:   0.129 TIME LEFT:  2.00D  GRAD.:     0.912 HEAT: -15.20596
 CYCLE:   219 TIME:   0.125 TIME LEFT:  2.00D  GRAD.:     0.955 HEAT: -15.20702
 CYCLE:   220 TIME:   0.133 TIME LEFT:  2.00D  GRAD.:     2.572 HEAT: -15.20714
 CYCLE:   221 TIME:   0.133 TIME LEFT:  2.00D  GRAD.:     0.951 HEAT: -15.20784
 CYCLE:   222 TIME:   0.121 TIME LEFT:  2.00D  GRAD.:     0.972 HEAT: -15.20825
 CYCLE:   223 TIME:   0.125 TIME LEFT:  2.00D  GRAD.:     0.707 HEAT: -15.20872
 CYCLE:   224 TIME:   0.125 TIME LEFT:  2.00D  GRAD.:     0.820 HEAT: -15.20957
 CYCLE:   225 TIME:   0.121 TIME LEFT:  2.00D  GRAD.:     1.474 HEAT: -15.21025
 CYCLE:   226 TIME:   0.117 TIME LEFT:  2.00D  GRAD.:     1.038 HEAT: -15.21095
 CYCLE:   227 TIME:   0.129 TIME LEFT:  2.00D  GRAD.:     1.008 HEAT: -15.21193
 CYCLE:   228 TIME:   0.125 TIME LEFT:  2.00D  GRAD.:     1.610 HEAT: -15.21225
 CYCLE:   229 TIME:   0.160 TIME LEFT:  2.00D  GRAD.:     0.864 HEAT: -15.21267
 CYCLE:   230 TIME:   0.164 TIME LEFT:  2.00D  GRAD.:     0.878 HEAT: -15.21317
 CYCLE:   231 TIME:   0.152 TIME LEFT:  2.00D  GRAD.:     0.765 HEAT: -15.21353
 CYCLE:   232 TIME:   0.137 TIME LEFT:  2.00D  GRAD.:     1.179 HEAT: -15.21411
 CYCLE:   233 TIME:   0.125 TIME LEFT:  2.00D  GRAD.:     1.302 HEAT: -15.21463
 CYCLE:   234 TIME:   0.125 TIME LEFT:  2.00D  GRAD.:     0.837 HEAT: -15.21502
 CYCLE:   235 TIME:   0.125 TIME LEFT:  2.00D  GRAD.:     0.695 HEAT: -15.21558
 CYCLE:   236 TIME:   0.117 TIME LEFT:  2.00D  GRAD.:     0.800 HEAT: -15.21601
 CYCLE:   237 TIME:   0.141 TIME LEFT:  2.00D  GRAD.:     1.269 HEAT: -15.21655
 CYCLE:   238 TIME:   0.117 TIME LEFT:  2.00D  GRAD.:     0.991 HEAT: -15.21702
 CYCLE:   239 TIME:   0.113 TIME LEFT:  2.00D  GRAD.:     0.799 HEAT: -15.21733
 CYCLE:   240 TIME:   0.117 TIME LEFT:  2.00D  GRAD.:     1.102 HEAT: -15.21821
 CYCLE:   241 TIME:   0.113 TIME LEFT:  2.00D  GRAD.:     1.333 HEAT: -15.21886
 CYCLE:   242 TIME:   0.113 TIME LEFT:  2.00D  GRAD.:     0.967 HEAT: -15.22001
 CYCLE:   243 TIME:   0.121 TIME LEFT:  2.00D  GRAD.:     1.125 HEAT: -15.22116
 CYCLE:   244 TIME:   0.121 TIME LEFT:  2.00D  GRAD.:     1.139 HEAT: -15.22226
 CYCLE:   245 TIME:   0.152 TIME LEFT:  2.00D  GRAD.:     1.209 HEAT: -15.22343
 CYCLE:   246 TIME:   0.137 TIME LEFT:  2.00D  GRAD.:     2.213 HEAT: -15.22422
 CYCLE:   247 TIME:   0.168 TIME LEFT:  2.00D  GRAD.:     4.433 HEAT: -15.22453
 CYCLE:   248 TIME:   0.148 TIME LEFT:  2.00D  GRAD.:     1.354 HEAT: -15.22655
 CYCLE:   249 TIME:   0.121 TIME LEFT:  2.00D  GRAD.:     2.936 HEAT: -15.22597
 CYCLE:   250 TIME:   0.137 TIME LEFT:  2.00D  GRAD.:     2.668 HEAT: -15.22639
 CYCLE:   251 TIME:   0.121 TIME LEFT:  2.00D  GRAD.:     0.760 HEAT: -15.22774
 CYCLE:   252 TIME:   0.109 TIME LEFT:  2.00D  GRAD.:     0.601 HEAT: -15.22803
 CYCLE:   253 TIME:   0.125 TIME LEFT:  2.00D  GRAD.:     0.835 HEAT: -15.22860
 CYCLE:   254 TIME:   0.152 TIME LEFT:  2.00D  GRAD.:     1.406 HEAT: -15.22917
 CYCLE:   255 TIME:   0.121 TIME LEFT:  2.00D  GRAD.:     0.814 HEAT: -15.22984
 CYCLE:   256 TIME:   0.125 TIME LEFT:  2.00D  GRAD.:     0.675 HEAT: -15.23021
 CYCLE:   257 TIME:   0.125 TIME LEFT:  2.00D  GRAD.:     0.709 HEAT: -15.23062
 CYCLE:   258 TIME:   0.129 TIME LEFT:  2.00D  GRAD.:     1.527 HEAT: -15.23131
 CYCLE:   259 TIME:   0.145 TIME LEFT:  2.00D  GRAD.:     0.825 HEAT: -15.23204
 CYCLE:   260 TIME:   0.125 TIME LEFT:  2.00D  GRAD.:     0.606 HEAT: -15.23250
 CYCLE:   261 TIME:   0.133 TIME LEFT:  2.00D  GRAD.:     0.693 HEAT: -15.23292
 CYCLE:   262 TIME:   0.141 TIME LEFT:  2.00D  GRAD.:     1.025 HEAT: -15.23330
 CYCLE:   263 TIME:   0.113 TIME LEFT:  2.00D  GRAD.:     0.796 HEAT: -15.23370
 CYCLE:   264 TIME:   0.137 TIME LEFT:  2.00D  GRAD.:     0.636 HEAT: -15.23402
 CYCLE:   265 TIME:   0.141 TIME LEFT:  2.00D  GRAD.:     0.812 HEAT: -15.23442
 CYCLE:   266 TIME:   0.145 TIME LEFT:  2.00D  GRAD.:     1.459 HEAT: -15.23473
 CYCLE:   267 TIME:   0.129 TIME LEFT:  2.00D  GRAD.:     0.601 HEAT: -15.23507
 CYCLE:   268 TIME:   0.172 TIME LEFT:  2.00D  GRAD.:     0.503 HEAT: -15.23531
 CYCLE:   269 TIME:   0.164 TIME LEFT:  2.00D  GRAD.:     0.608 HEAT: -15.23556
 CYCLE:   270 TIME:   0.141 TIME LEFT:  2.00D  GRAD.:     0.954 HEAT: -15.23607
 CYCLE:   271 TIME:   0.141 TIME LEFT:  2.00D  GRAD.:     1.442 HEAT: -15.23642
 CYCLE:   272 TIME:   0.129 TIME LEFT:  2.00D  GRAD.:     0.590 HEAT: -15.23684
 CYCLE:   273 TIME:   0.164 TIME LEFT:  2.00D  GRAD.:     0.854 HEAT: -15.23714
 CYCLE:   274 TIME:   0.137 TIME LEFT:  2.00D  GRAD.:     1.067 HEAT: -15.23752
 CYCLE:   275 TIME:   0.168 TIME LEFT:  2.00D  GRAD.:     1.157 HEAT: -15.23822
 CYCLE:   276 TIME:   0.125 TIME LEFT:  2.00D  GRAD.:     1.592 HEAT: -15.23891
 CYCLE:   277 TIME:   0.133 TIME LEFT:  2.00D  GRAD.:     0.898 HEAT: -15.23952
 CYCLE:   278 TIME:   0.125 TIME LEFT:  2.00D  GRAD.:     0.800 HEAT: -15.23990
 CYCLE:   279 TIME:   0.125 TIME LEFT:  2.00D  GRAD.:     0.943 HEAT: -15.24034
 CYCLE:   280 TIME:   0.121 TIME LEFT:  2.00D  GRAD.:     1.610 HEAT: -15.24077
 CYCLE:   281 TIME:   0.113 TIME LEFT:  2.00D  GRAD.:     0.782 HEAT: -15.24134
 CYCLE:   282 TIME:   0.125 TIME LEFT:  2.00D  GRAD.:     0.655 HEAT: -15.24175
 CYCLE:   283 TIME:   0.113 TIME LEFT:  2.00D  GRAD.:     0.692 HEAT: -15.24227
 CYCLE:   284 TIME:   0.352 TIME LEFT:  2.00D  GRAD.:     1.861 HEAT: -15.24266
 CYCLE:   285 TIME:   0.137 TIME LEFT:  2.00D  GRAD.:     0.803 HEAT: -15.24337
 CYCLE:   286 TIME:   0.137 TIME LEFT:  2.00D  GRAD.:     0.632 HEAT: -15.24380
 CYCLE:   287 TIME:   0.133 TIME LEFT:  2.00D  GRAD.:     0.889 HEAT: -15.24426
 CYCLE:   288 TIME:   0.156 TIME LEFT:  2.00D  GRAD.:     1.822 HEAT: -15.24464
 CYCLE:   289 TIME:   0.121 TIME LEFT:  2.00D  GRAD.:     0.833 HEAT: -15.24517
 CYCLE:   290 TIME:   0.129 TIME LEFT:  2.00D  GRAD.:     0.707 HEAT: -15.24549
 CYCLE:   291 TIME:   0.125 TIME LEFT:  2.00D  GRAD.:     1.095 HEAT: -15.24585
 CYCLE:   292 TIME:   0.113 TIME LEFT:  2.00D  GRAD.:     1.002 HEAT: -15.24635
 CYCLE:   293 TIME:   0.121 TIME LEFT:  2.00D  GRAD.:     1.933 HEAT: -15.24683
 CYCLE:   294 TIME:   0.125 TIME LEFT:  2.00D  GRAD.:     1.217 HEAT: -15.24727
 CYCLE:   295 TIME:   0.137 TIME LEFT:  2.00D  GRAD.:     0.520 HEAT: -15.24745
 CYCLE:   296 TIME:   0.125 TIME LEFT:  2.00D  GRAD.:     0.525 HEAT: -15.24760
 CYCLE:   297 TIME:   0.121 TIME LEFT:  2.00D  GRAD.:     0.471 HEAT: -15.24780
 CYCLE:   298 TIME:   0.121 TIME LEFT:  2.00D  GRAD.:     0.940 HEAT: -15.24801
 CYCLE:   299 TIME:   0.148 TIME LEFT:  2.00D  GRAD.:     0.350 HEAT: -15.24820
 CYCLE:   300 TIME:   0.113 TIME LEFT:  2.00D  GRAD.:     0.355 HEAT: -15.24828
 CYCLE:   301 TIME:   0.113 TIME LEFT:  2.00D  GRAD.:     0.478 HEAT: -15.24852
 CYCLE:   302 TIME:   0.117 TIME LEFT:  2.00D  GRAD.:     1.580 HEAT: -15.24850
 CYCLE:   303 TIME:   0.109 TIME LEFT:  2.00D  GRAD.:     0.507 HEAT: -15.24881
 CYCLE:   304 TIME:   0.125 TIME LEFT:  2.00D  GRAD.:     0.335 HEAT: -15.24892
 CYCLE:   305 TIME:   0.113 TIME LEFT:  2.00D  GRAD.:     0.484 HEAT: -15.24911
 CYCLE:   306 TIME:   0.125 TIME LEFT:  2.00D  GRAD.:     0.683 HEAT: -15.24937
 CYCLE:   307 TIME:   0.117 TIME LEFT:  2.00D  GRAD.:     1.352 HEAT: -15.24945
 CYCLE:   308 TIME:   0.121 TIME LEFT:  2.00D  GRAD.:     0.449 HEAT: -15.24967
 CYCLE:   309 TIME:   0.125 TIME LEFT:  2.00D  GRAD.:     0.481 HEAT: -15.24978
 CYCLE:   310 TIME:   0.117 TIME LEFT:  2.00D  GRAD.:     0.527 HEAT: -15.24992
 CYCLE:   311 TIME:   0.141 TIME LEFT:  2.00D  GRAD.:     1.334 HEAT: -15.25006
 CYCLE:   312 TIME:   0.117 TIME LEFT:  2.00D  GRAD.:     0.482 HEAT: -15.25032
 CYCLE:   313 TIME:   0.141 TIME LEFT:  2.00D  GRAD.:     0.456 HEAT: -15.25049
 CYCLE:   314 TIME:   0.129 TIME LEFT:  2.00D  GRAD.:     0.637 HEAT: -15.25070
 CYCLE:   315 TIME:   0.160 TIME LEFT:  2.00D  GRAD.:     0.617 HEAT: -15.25096
 CYCLE:   316 TIME:   0.168 TIME LEFT:  2.00D  GRAD.:     0.597 HEAT: -15.25133
 CYCLE:   317 TIME:   0.168 TIME LEFT:  2.00D  GRAD.:     0.785 HEAT: -15.25157
 CYCLE:   318 TIME:   0.145 TIME LEFT:  2.00D  GRAD.:     0.801 HEAT: -15.25179
 CYCLE:   319 TIME:   0.117 TIME LEFT:  2.00D  GRAD.:     0.516 HEAT: -15.25199
 CYCLE:   320 TIME:   0.141 TIME LEFT:  2.00D  GRAD.:     0.585 HEAT: -15.25220
 CYCLE:   321 TIME:   0.117 TIME LEFT:  2.00D  GRAD.:     0.541 HEAT: -15.25243
 CYCLE:   322 TIME:   0.121 TIME LEFT:  2.00D  GRAD.:     0.541 HEAT: -15.25262
 CYCLE:   323 TIME:   0.129 TIME LEFT:  2.00D  GRAD.:     0.650 HEAT: -15.25281
 CYCLE:   324 TIME:   0.137 TIME LEFT:  2.00D  GRAD.:     0.349 HEAT: -15.25290
 CYCLE:   325 TIME:   0.145 TIME LEFT:  2.00D  GRAD.:     0.583 HEAT: -15.25302
 CYCLE:   326 TIME:   0.129 TIME LEFT:  2.00D  GRAD.:     0.587 HEAT: -15.25315
 CYCLE:   327 TIME:   0.137 TIME LEFT:  2.00D  GRAD.:     1.389 HEAT: -15.25337
 CYCLE:   328 TIME:   0.113 TIME LEFT:  2.00D  GRAD.:     0.964 HEAT: -15.25353
 CYCLE:   329 TIME:   0.109 TIME LEFT:  2.00D  GRAD.:     0.352 HEAT: -15.25364
 CYCLE:   330 TIME:   0.121 TIME LEFT:  2.00D  GRAD.:     0.314 HEAT: -15.25371
 CYCLE:   331 TIME:   0.121 TIME LEFT:  2.00D  GRAD.:     0.322 HEAT: -15.25384
 CYCLE:   332 TIME:   0.121 TIME LEFT:  2.00D  GRAD.:     0.657 HEAT: -15.25396
 CYCLE:   333 TIME:   0.113 TIME LEFT:  2.00D  GRAD.:     0.385 HEAT: -15.25407
 CYCLE:   334 TIME:   0.109 TIME LEFT:  2.00D  GRAD.:     0.268 HEAT: -15.25412
 CYCLE:   335 TIME:   0.117 TIME LEFT:  2.00D  GRAD.:     0.326 HEAT: -15.25424
 CYCLE:   336 TIME:   0.109 TIME LEFT:  2.00D  GRAD.:     0.443 HEAT: -15.25433
 CYCLE:   337 TIME:   0.121 TIME LEFT:  2.00D  GRAD.:     0.389 HEAT: -15.25446
 CYCLE:   338 TIME:   0.129 TIME LEFT:  2.00D  GRAD.:     0.749 HEAT: -15.25465
 CYCLE:   339 TIME:   0.117 TIME LEFT:  2.00D  GRAD.:     0.746 HEAT: -15.25478
 CYCLE:   340 TIME:   0.117 TIME LEFT:  2.00D  GRAD.:     0.356 HEAT: -15.25487
 CYCLE:   341 TIME:   0.125 TIME LEFT:  2.00D  GRAD.:     0.389 HEAT: -15.25497
 CYCLE:   342 TIME:   0.125 TIME LEFT:  2.00D  GRAD.:     0.345 HEAT: -15.25506
 CYCLE:   343 TIME:   0.125 TIME LEFT:  2.00D  GRAD.:     0.533 HEAT: -15.25518
 CYCLE:   344 TIME:   0.145 TIME LEFT:  2.00D  GRAD.:     0.696 HEAT: -15.25526
 CYCLE:   345 TIME:   0.121 TIME LEFT:  2.00D  GRAD.:     0.341 HEAT: -15.25534
 CYCLE:   346 TIME:   0.125 TIME LEFT:  2.00D  GRAD.:     0.287 HEAT: -15.25540
 CYCLE:   347 TIME:   0.113 TIME LEFT:  2.00D  GRAD.:     0.332 HEAT: -15.25548
 CYCLE:   348 TIME:   0.125 TIME LEFT:  2.00D  GRAD.:     0.596 HEAT: -15.25558
 CYCLE:   349 TIME:   0.117 TIME LEFT:  2.00D  GRAD.:     0.282 HEAT: -15.25567
 CYCLE:   350 TIME:   0.121 TIME LEFT:  2.00D  GRAD.:     0.258 HEAT: -15.25573
 CYCLE:   351 TIME:   0.133 TIME LEFT:  2.00D  GRAD.:     0.456 HEAT: -15.25582
 CYCLE:   352 TIME:   0.113 TIME LEFT:  2.00D  GRAD.:     0.715 HEAT: -15.25592
 CYCLE:   353 TIME:   0.121 TIME LEFT:  2.00D  GRAD.:     0.387 HEAT: -15.25604
 CYCLE:   354 TIME:   0.164 TIME LEFT:  2.00D  GRAD.:     0.330 HEAT: -15.25616
 CYCLE:   355 TIME:   0.148 TIME LEFT:  2.00D  GRAD.:     0.509 HEAT: -15.25624
 CYCLE:   356 TIME:   0.117 TIME LEFT:  2.00D  GRAD.:     0.538 HEAT: -15.25638
 CYCLE:   357 TIME:   0.121 TIME LEFT:  2.00D  GRAD.:     0.762 HEAT: -15.25660
 CYCLE:   358 TIME:   0.113 TIME LEFT:  2.00D  GRAD.:     0.495 HEAT: -15.25686
 CYCLE:   359 TIME:   0.117 TIME LEFT:  2.00D  GRAD.:     0.501 HEAT: -15.25706
 CYCLE:   360 TIME:   0.125 TIME LEFT:  2.00D  GRAD.:     0.701 HEAT: -15.25723
 CYCLE:   361 TIME:   0.164 TIME LEFT:  2.00D  GRAD.:     0.740 HEAT: -15.25752
 CYCLE:   362 TIME:   0.133 TIME LEFT:  2.00D  GRAD.:     0.822 HEAT: -15.25768
 CYCLE:   363 TIME:   0.121 TIME LEFT:  2.00D  GRAD.:     0.481 HEAT: -15.25787
 CYCLE:   364 TIME:   0.117 TIME LEFT:  2.00D  GRAD.:     0.386 HEAT: -15.25796
 CYCLE:   365 TIME:   0.121 TIME LEFT:  2.00D  GRAD.:     0.595 HEAT: -15.25810
 CYCLE:   366 TIME:   0.121 TIME LEFT:  2.00D  GRAD.:     1.122 HEAT: -15.25827
 CYCLE:   367 TIME:   0.148 TIME LEFT:  2.00D  GRAD.:     0.440 HEAT: -15.25854
 CYCLE:   368 TIME:   0.125 TIME LEFT:  2.00D  GRAD.:     0.369 HEAT: -15.25867
 CYCLE:   369 TIME:   0.125 TIME LEFT:  2.00D  GRAD.:     0.650 HEAT: -15.25880
 CYCLE:   370 TIME:   0.129 TIME LEFT:  2.00D  GRAD.:     0.610 HEAT: -15.25895
 CYCLE:   371 TIME:   0.121 TIME LEFT:  2.00D  GRAD.:     0.448 HEAT: -15.25909
 CYCLE:   372 TIME:   0.121 TIME LEFT:  2.00D  GRAD.:     0.665 HEAT: -15.25932
 CYCLE:   373 TIME:   0.109 TIME LEFT:  2.00D  GRAD.:     0.644 HEAT: -15.25955
 CYCLE:   374 TIME:   0.113 TIME LEFT:  2.00D  GRAD.:     0.553 HEAT: -15.25980
 CYCLE:   375 TIME:   0.113 TIME LEFT:  2.00D  GRAD.:     0.905 HEAT: -15.26003
 CYCLE:   376 TIME:   0.125 TIME LEFT:  2.00D  GRAD.:     0.449 HEAT: -15.26023
 CYCLE:   377 TIME:   0.129 TIME LEFT:  2.00D  GRAD.:     0.418 HEAT: -15.26035
 CYCLE:   378 TIME:   0.141 TIME LEFT:  2.00D  GRAD.:     0.434 HEAT: -15.26061
 CYCLE:   379 TIME:   0.160 TIME LEFT:  2.00D  GRAD.:     0.965 HEAT: -15.26080
 CYCLE:   380 TIME:   0.164 TIME LEFT:  2.00D  GRAD.:     0.478 HEAT: -15.26105
 CYCLE:   381 TIME:   0.160 TIME LEFT:  2.00D  GRAD.:     0.376 HEAT: -15.26122
 CYCLE:   382 TIME:   0.145 TIME LEFT:  2.00D  GRAD.:     0.536 HEAT: -15.26147
 CYCLE:   383 TIME:   0.125 TIME LEFT:  2.00D  GRAD.:     0.824 HEAT: -15.26171
 CYCLE:   384 TIME:   0.121 TIME LEFT:  2.00D  GRAD.:     0.481 HEAT: -15.26202
 CYCLE:   385 TIME:   0.121 TIME LEFT:  2.00D  GRAD.:     0.405 HEAT: -15.26222
 CYCLE:   386 TIME:   0.113 TIME LEFT:  2.00D  GRAD.:     0.843 HEAT: -15.26243
 CYCLE:   387 TIME:   0.117 TIME LEFT:  2.00D  GRAD.:     0.646 HEAT: -15.26262
 CYCLE:   388 TIME:   0.125 TIME LEFT:  2.00D  GRAD.:     0.507 HEAT: -15.26281
 CYCLE:   389 TIME:   0.133 TIME LEFT:  2.00D  GRAD.:     0.423 HEAT: -15.26306
 CYCLE:   390 TIME:   0.137 TIME LEFT:  2.00D  GRAD.:     0.944 HEAT: -15.26319
 CYCLE:   391 TIME:   0.133 TIME LEFT:  2.00D  GRAD.:     0.429 HEAT: -15.26335
 CYCLE:   392 TIME:   0.141 TIME LEFT:  2.00D  GRAD.:     0.342 HEAT: -15.26345
 CYCLE:   393 TIME:   0.113 TIME LEFT:  2.00D  GRAD.:     0.383 HEAT: -15.26355
 CYCLE:   394 TIME:   0.117 TIME LEFT:  2.00D  GRAD.:     0.540 HEAT: -15.26375
 CYCLE:   395 TIME:   0.117 TIME LEFT:  2.00D  GRAD.:     0.967 HEAT: -15.26381
 CYCLE:   396 TIME:   0.129 TIME LEFT:  2.00D  GRAD.:     0.329 HEAT: -15.26398
 CYCLE:   397 TIME:   0.125 TIME LEFT:  2.00D  GRAD.:     0.426 HEAT: -15.26406
 CYCLE:   398 TIME:   0.109 TIME LEFT:  2.00D  GRAD.:     0.339 HEAT: -15.26417
 CYCLE:   399 TIME:   0.113 TIME LEFT:  2.00D  GRAD.:     0.477 HEAT: -15.26435
 CYCLE:   400 TIME:   0.113 TIME LEFT:  2.00D  GRAD.:     0.487 HEAT: -15.26448
 CYCLE:   401 TIME:   0.148 TIME LEFT:  2.00D  GRAD.:     0.498 HEAT: -15.26477
 CYCLE:   402 TIME:   0.160 TIME LEFT:  2.00D  GRAD.:     1.686 HEAT: -15.26481
 CYCLE:   403 TIME:   0.129 TIME LEFT:  2.00D  GRAD.:     0.586 HEAT: -15.26506
 CYCLE:   404 TIME:   0.121 TIME LEFT:  2.00D  GRAD.:     0.423 HEAT: -15.26520
 CYCLE:   405 TIME:   0.137 TIME LEFT:  2.00D  GRAD.:     0.504 HEAT: -15.26538
 CYCLE:   406 TIME:   0.125 TIME LEFT:  2.00D  GRAD.:     0.521 HEAT: -15.26561
 CYCLE:   407 TIME:   0.117 TIME LEFT:  2.00D  GRAD.:     1.202 HEAT: -15.26578
 CYCLE:   408 TIME:   0.113 TIME LEFT:  2.00D  GRAD.:     0.451 HEAT: -15.26619
 CYCLE:   409 TIME:   0.121 TIME LEFT:  2.00D  GRAD.:     0.468 HEAT: -15.26640
 CYCLE:   410 TIME:   0.129 TIME LEFT:  2.00D  GRAD.:     1.012 HEAT: -15.26670
 CYCLE:   411 TIME:   0.121 TIME LEFT:  2.00D  GRAD.:     0.562 HEAT: -15.26707
 CYCLE:   412 TIME:   0.137 TIME LEFT:  2.00D  GRAD.:     0.519 HEAT: -15.26744
 CYCLE:   413 TIME:   0.129 TIME LEFT:  2.00D  GRAD.:     1.225 HEAT: -15.26767
 CYCLE:   414 TIME:   0.125 TIME LEFT:  2.00D  GRAD.:     0.663 HEAT: -15.26796
 CYCLE:   415 TIME:   0.125 TIME LEFT:  2.00D  GRAD.:     0.583 HEAT: -15.26831
 CYCLE:   416 TIME:   0.129 TIME LEFT:  2.00D  GRAD.:     0.767 HEAT: -15.26868
 CYCLE:   417 TIME:   0.137 TIME LEFT:  2.00D  GRAD.:     3.040 HEAT: -15.26855
 CYCLE:   418 TIME:   0.148 TIME LEFT:  2.00D  GRAD.:     0.824 HEAT: -15.26922
 CYCLE:   419 TIME:   0.168 TIME LEFT:  2.00D  GRAD.:     0.533 HEAT: -15.26941
 CYCLE:   420 TIME:   0.121 TIME LEFT:  2.00D  GRAD.:     0.478 HEAT: -15.26965
 CYCLE:   421 TIME:   0.168 TIME LEFT:  2.00D  GRAD.:     1.112 HEAT: -15.27017
 CYCLE:   422 TIME:   0.168 TIME LEFT:  2.00D  GRAD.:     2.006 HEAT: -15.27013
 CYCLE:   423 TIME:   0.160 TIME LEFT:  2.00D  GRAD.:     0.576 HEAT: -15.27069
 CYCLE:   424 TIME:   0.168 TIME LEFT:  2.00D  GRAD.:     0.493 HEAT: -15.27092
 CYCLE:   425 TIME:   0.168 TIME LEFT:  2.00D  GRAD.:     0.443 HEAT: -15.27128
 CYCLE:   426 TIME:   0.164 TIME LEFT:  2.00D  GRAD.:     1.068 HEAT: -15.27173
 CYCLE:   427 TIME:   0.168 TIME LEFT:  2.00D  GRAD.:     0.745 HEAT: -15.27209
 CYCLE:   428 TIME:   0.156 TIME LEFT:  2.00D  GRAD.:     0.468 HEAT: -15.27226
 CYCLE:   429 TIME:   0.172 TIME LEFT:  2.00D  GRAD.:     0.475 HEAT: -15.27260
 CYCLE:   430 TIME:   0.133 TIME LEFT:  2.00D  GRAD.:     0.688 HEAT: -15.27282
 CYCLE:   431 TIME:   0.164 TIME LEFT:  2.00D  GRAD.:     0.543 HEAT: -15.27314
 CYCLE:   432 TIME:   0.121 TIME LEFT:  2.00D  GRAD.:     1.458 HEAT: -15.27330
 CYCLE:   433 TIME:   0.113 TIME LEFT:  2.00D  GRAD.:     0.619 HEAT: -15.27356
 CYCLE:   434 TIME:   0.125 TIME LEFT:  2.00D  GRAD.:     0.531 HEAT: -15.27370
 CYCLE:   435 TIME:   0.129 TIME LEFT:  2.00D  GRAD.:     0.868 HEAT: -15.27403
 CYCLE:   436 TIME:   0.152 TIME LEFT:  2.00D  GRAD.:     0.748 HEAT: -15.27431
 CYCLE:   437 TIME:   0.160 TIME LEFT:  2.00D  GRAD.:     0.521 HEAT: -15.27467
 CYCLE:   438 TIME:   0.129 TIME LEFT:  2.00D  GRAD.:     1.044 HEAT: -15.27483
 CYCLE:   439 TIME:   0.109 TIME LEFT:  2.00D  GRAD.:     0.664 HEAT: -15.27497
 CYCLE:   440 TIME:   0.117 TIME LEFT:  2.00D  GRAD.:     0.634 HEAT: -15.27516
 CYCLE:   441 TIME:   0.137 TIME LEFT:  2.00D  GRAD.:     0.363 HEAT: -15.27527
 CYCLE:   442 TIME:   0.145 TIME LEFT:  2.00D  GRAD.:     0.357 HEAT: -15.27544
 CYCLE:   443 TIME:   0.156 TIME LEFT:  2.00D  GRAD.:     0.462 HEAT: -15.27557
 CYCLE:   444 TIME:   0.156 TIME LEFT:  2.00D  GRAD.:     0.390 HEAT: -15.27576
 CYCLE:   445 TIME:   0.125 TIME LEFT:  2.00D  GRAD.:     0.552 HEAT: -15.27590
 CYCLE:   446 TIME:   0.141 TIME LEFT:  2.00D  GRAD.:     0.319 HEAT: -15.27601
 CYCLE:   447 TIME:   0.117 TIME LEFT:  2.00D  GRAD.:     0.330 HEAT: -15.27612
 CYCLE:   448 TIME:   0.156 TIME LEFT:  2.00D  GRAD.:     0.427 HEAT: -15.27622
 CYCLE:   449 TIME:   0.164 TIME LEFT:  2.00D  GRAD.:     0.415 HEAT: -15.27637
 CYCLE:   450 TIME:   0.164 TIME LEFT:  2.00D  GRAD.:     0.592 HEAT: -15.27655
 CYCLE:   451 TIME:   0.129 TIME LEFT:  2.00D  GRAD.:     0.357 HEAT: -15.27674
 CYCLE:   452 TIME:   0.125 TIME LEFT:  2.00D  GRAD.:     0.430 HEAT: -15.27689
 CYCLE:   453 TIME:   0.164 TIME LEFT:  2.00D  GRAD.:     0.375 HEAT: -15.27703
 CYCLE:   454 TIME:   0.137 TIME LEFT:  2.00D  GRAD.:     0.416 HEAT: -15.27713
 CYCLE:   455 TIME:   0.172 TIME LEFT:  2.00D  GRAD.:     0.762 HEAT: -15.27723
 CYCLE:   456 TIME:   0.156 TIME LEFT:  2.00D  GRAD.:     0.319 HEAT: -15.27732
 CYCLE:   457 TIME:   0.160 TIME LEFT:  2.00D  GRAD.:     0.315 HEAT: -15.27739
 CYCLE:   458 TIME:   0.168 TIME LEFT:  2.00D  GRAD.:     0.339 HEAT: -15.27752
 CYCLE:   459 TIME:   0.129 TIME LEFT:  2.00D  GRAD.:     0.587 HEAT: -15.27770
 CYCLE:   460 TIME:   0.141 TIME LEFT:  2.00D  GRAD.:     0.523 HEAT: -15.27789
 CYCLE:   461 TIME:   0.137 TIME LEFT:  2.00D  GRAD.:     0.436 HEAT: -15.27798
 CYCLE:   462 TIME:   0.113 TIME LEFT:  2.00D  GRAD.:     0.514 HEAT: -15.27811
 CYCLE:   463 TIME:   0.129 TIME LEFT:  2.00D  GRAD.:     0.903 HEAT: -15.27815
 CYCLE:   464 TIME:   0.129 TIME LEFT:  2.00D  GRAD.:     0.433 HEAT: -15.27835
 CYCLE:   465 TIME:   0.164 TIME LEFT:  2.00D  GRAD.:     0.289 HEAT: -15.27849
 CYCLE:   466 TIME:   0.316 TIME LEFT:  2.00D  GRAD.:     0.415 HEAT: -15.27865
 CYCLE:   467 TIME:   0.129 TIME LEFT:  2.00D  GRAD.:     0.572 HEAT: -15.27885
 CYCLE:   468 TIME:   0.172 TIME LEFT:  2.00D  GRAD.:     0.480 HEAT: -15.27908
 CYCLE:   469 TIME:   0.141 TIME LEFT:  2.00D  GRAD.:     4.417 HEAT: -15.27733
 CYCLE:   470 TIME:   0.113 TIME LEFT:  2.00D  GRAD.:     0.422 HEAT: -15.27926
 CYCLE:   471 TIME:   0.117 TIME LEFT:  2.00D  GRAD.:     0.362 HEAT: -15.27932
 CYCLE:   472 TIME:   0.121 TIME LEFT:  2.00D  GRAD.:     0.315 HEAT: -15.27945
 CYCLE:   473 TIME:   0.133 TIME LEFT:  2.00D  GRAD.:     0.831 HEAT: -15.27954
 CYCLE:   474 TIME:   0.121 TIME LEFT:  2.00D  GRAD.:     0.921 HEAT: -15.27966
 CYCLE:   475 TIME:   0.125 TIME LEFT:  2.00D  GRAD.:     0.328 HEAT: -15.27978
 CYCLE:   476 TIME:   0.121 TIME LEFT:  2.00D  GRAD.:     0.257 HEAT: -15.27984
 CYCLE:   477 TIME:   0.168 TIME LEFT:  2.00D  GRAD.:     0.464 HEAT: -15.28001
 CYCLE:   478 TIME:   0.168 TIME LEFT:  2.00D  GRAD.:     0.492 HEAT: -15.28013
 CYCLE:   479 TIME:   0.152 TIME LEFT:  2.00D  GRAD.:     0.533 HEAT: -15.28035
 CYCLE:   480 TIME:   0.129 TIME LEFT:  2.00D  GRAD.:     0.795 HEAT: -15.28046
 CYCLE:   481 TIME:   0.125 TIME LEFT:  2.00D  GRAD.:     0.465 HEAT: -15.28057
 CYCLE:   482 TIME:   0.125 TIME LEFT:  2.00D  GRAD.:     0.690 HEAT: -15.28070
 CYCLE:   483 TIME:   0.125 TIME LEFT:  2.00D  GRAD.:     0.417 HEAT: -15.28080
 CYCLE:   484 TIME:   0.164 TIME LEFT:  2.00D  GRAD.:     0.343 HEAT: -15.28089
 CYCLE:   485 TIME:   0.160 TIME LEFT:  2.00D  GRAD.:     0.368 HEAT: -15.28096
 CYCLE:   486 TIME:   0.125 TIME LEFT:  2.00D  GRAD.:     0.357 HEAT: -15.28110
 CYCLE:   487 TIME:   0.152 TIME LEFT:  2.00D  GRAD.:     0.701 HEAT: -15.28125
 CYCLE:   488 TIME:   0.160 TIME LEFT:  2.00D  GRAD.:     0.316 HEAT: -15.28137
 CYCLE:   489 TIME:   0.148 TIME LEFT:  2.00D  GRAD.:     0.322 HEAT: -15.28143
 CYCLE:   490 TIME:   0.121 TIME LEFT:  2.00D  GRAD.:     0.474 HEAT: -15.28153
 CYCLE:   491 TIME:   0.137 TIME LEFT:  2.00D  GRAD.:     0.413 HEAT: -15.28166
 CYCLE:   492 TIME:   0.141 TIME LEFT:  2.00D  GRAD.:     0.629 HEAT: -15.28176
 CYCLE:   493 TIME:   0.109 TIME LEFT:  2.00D  GRAD.:     0.346 HEAT: -15.28189
 CYCLE:   494 TIME:   0.121 TIME LEFT:  2.00D  GRAD.:     0.342 HEAT: -15.28200
 CYCLE:   495 TIME:   0.129 TIME LEFT:  2.00D  GRAD.:     0.409 HEAT: -15.28212
 CYCLE:   496 TIME:   0.145 TIME LEFT:  2.00D  GRAD.:     0.889 HEAT: -15.28221
 CYCLE:   497 TIME:   0.121 TIME LEFT:  2.00D  GRAD.:     0.348 HEAT: -15.28236
 CYCLE:   498 TIME:   0.121 TIME LEFT:  2.00D  GRAD.:     0.247 HEAT: -15.28243
 CYCLE:   499 TIME:   0.156 TIME LEFT:  2.00D  GRAD.:     0.290 HEAT: -15.28249
 CYCLE:   500 TIME:   0.129 TIME LEFT:  2.00D  GRAD.:     0.610 HEAT: -15.28257
 CYCLE:   501 TIME:   0.121 TIME LEFT:  2.00D  GRAD.:     0.316 HEAT: -15.28265
 CYCLE:   502 TIME:   0.133 TIME LEFT:  2.00D  GRAD.:     0.292 HEAT: -15.28272
 CYCLE:   503 TIME:   0.125 TIME LEFT:  2.00D  GRAD.:     0.360 HEAT: -15.28278
 CYCLE:   504 TIME:   0.129 TIME LEFT:  2.00D  GRAD.:     0.727 HEAT: -15.28283
 CYCLE:   505 TIME:   0.109 TIME LEFT:  2.00D  GRAD.:     0.252 HEAT: -15.28291
 CYCLE:   506 TIME:   0.109 TIME LEFT:  2.00D  GRAD.:     0.280 HEAT: -15.28295
 CYCLE:   507 TIME:   0.113 TIME LEFT:  2.00D  GRAD.:     0.296 HEAT: -15.28300
 CYCLE:   508 TIME:   0.117 TIME LEFT:  2.00D  GRAD.:     0.359 HEAT: -15.28309
 CYCLE:   509 TIME:   0.121 TIME LEFT:  2.00D  GRAD.:     0.568 HEAT: -15.28316
 CYCLE:   510 TIME:   0.117 TIME LEFT:  2.00D  GRAD.:     0.234 HEAT: -15.28324
 CYCLE:   511 TIME:   0.121 TIME LEFT:  2.00D  GRAD.:     0.282 HEAT: -15.28329
 CYCLE:   512 TIME:   0.160 TIME LEFT:  2.00D  GRAD.:     0.358 HEAT: -15.28335
 CYCLE:   513 TIME:   0.129 TIME LEFT:  2.00D  GRAD.:     0.283 HEAT: -15.28343
 CYCLE:   514 TIME:   0.117 TIME LEFT:  2.00D  GRAD.:     0.440 HEAT: -15.28350
 CYCLE:   515 TIME:   0.125 TIME LEFT:  2.00D  GRAD.:     0.314 HEAT: -15.28355
 CYCLE:   516 TIME:   0.113 TIME LEFT:  2.00D  GRAD.:     0.295 HEAT: -15.28360
 CYCLE:   517 TIME:   0.141 TIME LEFT:  2.00D  GRAD.:     0.326 HEAT: -15.28369
 CYCLE:   518 TIME:   0.129 TIME LEFT:  2.00D  GRAD.:     0.801 HEAT: -15.28368
 CYCLE:   519 TIME:   0.145 TIME LEFT:  2.00D  GRAD.:     0.215 HEAT: -15.28377
 CYCLE:   520 TIME:   0.117 TIME LEFT:  2.00D  GRAD.:     0.205 HEAT: -15.28380
 CYCLE:   521 TIME:   0.145 TIME LEFT:  2.00D  GRAD.:     0.409 HEAT: -15.28384
 CYCLE:   522 TIME:   0.121 TIME LEFT:  2.00D  GRAD.:     0.297 HEAT: -15.28390
 CYCLE:   523 TIME:   0.121 TIME LEFT:  2.00D  GRAD.:     0.293 HEAT: -15.28395
 CYCLE:   524 TIME:   0.125 TIME LEFT:  2.00D  GRAD.:     0.197 HEAT: -15.28399
 CYCLE:   525 TIME:   0.137 TIME LEFT:  2.00D  GRAD.:     0.188 HEAT: -15.28402
 CYCLE:   526 TIME:   0.121 TIME LEFT:  2.00D  GRAD.:     0.351 HEAT: -15.28408
 CYCLE:   527 TIME:   0.121 TIME LEFT:  2.00D  GRAD.:     0.304 HEAT: -15.28415
 CYCLE:   528 TIME:   0.152 TIME LEFT:  2.00D  GRAD.:     0.194 HEAT: -15.28419
 CYCLE:   529 TIME:   0.152 TIME LEFT:  2.00D  GRAD.:     0.412 HEAT: -15.28424
 CYCLE:   530 TIME:   0.152 TIME LEFT:  2.00D  GRAD.:     0.352 HEAT: -15.28428
 CYCLE:   531 TIME:   0.125 TIME LEFT:  2.00D  GRAD.:     0.191 HEAT: -15.28432
 CYCLE:   532 TIME:   0.129 TIME LEFT:  2.00D  GRAD.:     0.183 HEAT: -15.28436
 CYCLE:   533 TIME:   0.129 TIME LEFT:  2.00D  GRAD.:     0.271 HEAT: -15.28440
 CYCLE:   534 TIME:   0.164 TIME LEFT:  2.00D  GRAD.:     0.257 HEAT: -15.28443
 CYCLE:   535 TIME:   0.121 TIME LEFT:  2.00D  GRAD.:     0.160 HEAT: -15.28445
 CYCLE:   536 TIME:   0.145 TIME LEFT:  2.00D  GRAD.:     0.153 HEAT: -15.28447
 CYCLE:   537 TIME:   0.121 TIME LEFT:  2.00D  GRAD.:     0.179 HEAT: -15.28449
 CYCLE:   538 TIME:   0.160 TIME LEFT:  2.00D  GRAD.:     0.159 HEAT: -15.28451
 CYCLE:   539 TIME:   0.141 TIME LEFT:  2.00D  GRAD.:     0.192 HEAT: -15.28454
 CYCLE:   540 TIME:   0.113 TIME LEFT:  2.00D  GRAD.:     0.156 HEAT: -15.28457
 CYCLE:   541 TIME:   0.105 TIME LEFT:  2.00D  GRAD.:     0.143 HEAT: -15.28458
 CYCLE:   542 TIME:   0.121 TIME LEFT:  2.00D  GRAD.:     0.194 HEAT: -15.28462
 CYCLE:   543 TIME:   0.133 TIME LEFT:  2.00D  GRAD.:     0.534 HEAT: -15.28464
 CYCLE:   544 TIME:   0.125 TIME LEFT:  2.00D  GRAD.:     0.174 HEAT: -15.28469
 CYCLE:   545 TIME:   0.125 TIME LEFT:  2.00D  GRAD.:     0.174 HEAT: -15.28473
 CYCLE:   546 TIME:   0.125 TIME LEFT:  2.00D  GRAD.:     0.461 HEAT: -15.28477
 CYCLE:   547 TIME:   0.121 TIME LEFT:  2.00D  GRAD.:     0.235 HEAT: -15.28483
 CYCLE:   548 TIME:   0.145 TIME LEFT:  2.00D  GRAD.:     0.184 HEAT: -15.28488
 CYCLE:   549 TIME:   0.141 TIME LEFT:  2.00D  GRAD.:     0.290 HEAT: -15.28493
 CYCLE:   550 TIME:   0.125 TIME LEFT:  2.00D  GRAD.:     0.263 HEAT: -15.28497
 CYCLE:   551 TIME:   0.113 TIME LEFT:  2.00D  GRAD.:     0.154 HEAT: -15.28499
 CYCLE:   552 TIME:   0.121 TIME LEFT:  2.00D  GRAD.:     0.187 HEAT: -15.28502
 CYCLE:   553 TIME:   0.113 TIME LEFT:  2.00D  GRAD.:     0.201 HEAT: -15.28505
 CYCLE:   554 TIME:   0.164 TIME LEFT:  2.00D  GRAD.:     0.476 HEAT: -15.28505
 CYCLE:   555 TIME:   0.105 TIME LEFT:  2.00D  GRAD.:     0.283 HEAT: -15.28509
 CYCLE:   556 TIME:   0.152 TIME LEFT:  2.00D  GRAD.:     0.117 HEAT: -15.28511
 CYCLE:   557 TIME:   0.145 TIME LEFT:  2.00D  GRAD.:     0.109 HEAT: -15.28512
 CYCLE:   558 TIME:   0.133 TIME LEFT:  2.00D  GRAD.:     0.184 HEAT: -15.28515
 CYCLE:   559 TIME:   0.117 TIME LEFT:  2.00D  GRAD.:     0.304 HEAT: -15.28516
 CYCLE:   560 TIME:   0.156 TIME LEFT:  2.00D  GRAD.:     0.158 HEAT: -15.28518
 CYCLE:   561 TIME:   0.141 TIME LEFT:  2.00D  GRAD.:     0.126 HEAT: -15.28520
 CYCLE:   562 TIME:   0.129 TIME LEFT:  2.00D  GRAD.:     0.250 HEAT: -15.28521
 CYCLE:   563 TIME:   0.160 TIME LEFT:  2.00D  GRAD.:     0.253 HEAT: -15.28523
 CYCLE:   564 TIME:   0.160 TIME LEFT:  2.00D  GRAD.:     0.145 HEAT: -15.28526
 CYCLE:   565 TIME:   0.117 TIME LEFT:  2.00D  GRAD.:     0.146 HEAT: -15.28527
 CYCLE:   566 TIME:   0.137 TIME LEFT:  2.00D  GRAD.:     0.113 HEAT: -15.28528
 CYCLE:   567 TIME:   0.117 TIME LEFT:  2.00D  GRAD.:     0.113 HEAT: -15.28530
 CYCLE:   568 TIME:   0.129 TIME LEFT:  2.00D  GRAD.:     0.164 HEAT: -15.28532
 CYCLE:   569 TIME:   0.121 TIME LEFT:  2.00D  GRAD.:     0.262 HEAT: -15.28533
 CYCLE:   570 TIME:   0.117 TIME LEFT:  2.00D  GRAD.:     0.101 HEAT: -15.28534
 CYCLE:   571 TIME:   0.109 TIME LEFT:  2.00D  GRAD.:     0.193 HEAT: -15.28535
 CYCLE:   572 TIME:   0.109 TIME LEFT:  2.00D  GRAD.:     0.122 HEAT: -15.28536
 CYCLE:   573 TIME:   0.117 TIME LEFT:  2.00D  GRAD.:     0.143 HEAT: -15.28537
 CYCLE:   574 TIME:   0.105 TIME LEFT:  2.00D  GRAD.:     0.143 HEAT: -15.28539
 CYCLE:   575 TIME:   0.137 TIME LEFT:  2.00D  GRAD.:     0.147 HEAT: -15.28541
 CYCLE:   576 TIME:   0.121 TIME LEFT:  2.00D  GRAD.:     0.310 HEAT: -15.28543
 CYCLE:   577 TIME:   0.129 TIME LEFT:  2.00D  GRAD.:     0.166 HEAT: -15.28545
 CYCLE:   578 TIME:   0.121 TIME LEFT:  2.00D  GRAD.:     0.110 HEAT: -15.28546
 CYCLE:   579 TIME:   0.121 TIME LEFT:  2.00D  GRAD.:     0.140 HEAT: -15.28547
 CYCLE:   580 TIME:   0.109 TIME LEFT:  2.00D  GRAD.:     0.184 HEAT: -15.28549
 CYCLE:   581 TIME:   0.117 TIME LEFT:  2.00D  GRAD.:     0.155 HEAT: -15.28552
 CYCLE:   582 TIME:   0.156 TIME LEFT:  2.00D  GRAD.:     0.223 HEAT: -15.28555
 CYCLE:   583 TIME:   0.141 TIME LEFT:  2.00D  GRAD.:     0.171 HEAT: -15.28558
 CYCLE:   584 TIME:   0.125 TIME LEFT:  2.00D  GRAD.:     0.214 HEAT: -15.28561
 CYCLE:   585 TIME:   0.113 TIME LEFT:  2.00D  GRAD.:     0.163 HEAT: -15.28562
 CYCLE:   586 TIME:   0.109 TIME LEFT:  2.00D  GRAD.:     0.144 HEAT: -15.28564
 CYCLE:   587 TIME:   0.129 TIME LEFT:  2.00D  GRAD.:     0.166 HEAT: -15.28566
 CYCLE:   588 TIME:   0.113 TIME LEFT:  2.00D  GRAD.:     0.236 HEAT: -15.28568
 CYCLE:   589 TIME:   0.121 TIME LEFT:  2.00D  GRAD.:     0.143 HEAT: -15.28570
 CYCLE:   590 TIME:   0.109 TIME LEFT:  2.00D  GRAD.:     0.132 HEAT: -15.28572
 CYCLE:   591 TIME:   0.105 TIME LEFT:  2.00D  GRAD.:     0.198 HEAT: -15.28573
 CYCLE:   592 TIME:   0.109 TIME LEFT:  2.00D  GRAD.:     0.161 HEAT: -15.28575
 CYCLE:   593 TIME:   0.113 TIME LEFT:  2.00D  GRAD.:     0.140 HEAT: -15.28576
 CYCLE:   594 TIME:   0.105 TIME LEFT:  2.00D  GRAD.:     0.132 HEAT: -15.28578
 CYCLE:   595 TIME:   0.109 TIME LEFT:  2.00D  GRAD.:     0.128 HEAT: -15.28580
 CYCLE:   596 TIME:   0.117 TIME LEFT:  2.00D  GRAD.:     0.156 HEAT: -15.28583
 CYCLE:   597 TIME:   0.129 TIME LEFT:  2.00D  GRAD.:     0.464 HEAT: -15.28583
 CYCLE:   598 TIME:   0.133 TIME LEFT:  2.00D  GRAD.:     0.125 HEAT: -15.28585
 CYCLE:   599 TIME:   0.133 TIME LEFT:  2.00D  GRAD.:     0.199 HEAT: -15.28586
 CYCLE:   600 TIME:   0.152 TIME LEFT:  2.00D  GRAD.:     0.110 HEAT: -15.28588
 CYCLE:   601 TIME:   0.156 TIME LEFT:  2.00D  GRAD.:     0.217 HEAT: -15.28589
 CYCLE:   602 TIME:   0.133 TIME LEFT:  2.00D  GRAD.:     0.254 HEAT: -15.28590
 CYCLE:   603 TIME:   0.125 TIME LEFT:  2.00D  GRAD.:     0.098 HEAT: -15.28591

 -------------------------------------------------------------------------------
 RM1 PRECISE POLAR XYZ GNORM=0.1




     HERBERTS TEST WAS SATISFIED IN BFGS                      
     SCF FIELD WAS ACHIEVED                                   


                              RM1 CALCULATION
                                                       MOPAC2016 (Version: 21.013L)
                                                       Mon Oct 18 11:19:06 2021
                                                       No. of days remaining =  87




          FINAL HEAT OF FORMATION =        -15.28592 KCAL/MOL =     -63.95627 KJ/MOL


          TOTAL ENERGY            =      -7189.88342 EV
          ELECTRONIC ENERGY       =     -78336.38055 EV  POINT GROUP:     C1  
          CORE-CORE REPULSION     =      71146.49713 EV
          COSMO AREA              =        665.66 SQUARE ANGSTROMS
          COSMO VOLUME            =        804.75 CUBIC ANGSTROMS

          GRADIENT NORM           =          0.09831 = 0.01014 PER ATOM
          IONIZATION POTENTIAL    =          7.847903 EV
          HOMO LUMO ENERGIES (EV) =         -7.848 -0.593
          NO. OF FILLED LEVELS    =        121
          MOLECULAR WEIGHT        =        625.8522

          MOLECULAR DIMENSIONS (Angstroms)

            Atom       Atom       Distance
            H    91    H    50    23.24856
            H    49    H    94    14.54999
            H    65    H    78     6.58776


          SCF CALCULATIONS        =        604
 
          WALL-CLOCK TIME         =  1 MINUTE AND 23.090 SECONDS
          COMPUTATION TIME        = 26 MINUTES AND 36.794 SECONDS




   ATOM   CHEMICAL          X               Y               Z
  NUMBER   SYMBOL      (ANGSTROMS)     (ANGSTROMS)     (ANGSTROMS)
 
     1       C          0.11977750  *  -0.06436878  *  -0.44063804  *
     2       C          1.62672806  *   0.00368382  *  -0.62749957  *
     3       C          2.15722924  *   1.38458938  *  -0.25014610  *
     4       C          3.67067306  *   1.45446774  *  -0.43999320  *
     5       C          4.19963352  *   2.83571534  *  -0.06013851  *
     6       C          5.71303875  *   2.90576640  *  -0.25406464  *
     7       C          6.23944790  *   4.28283419  *   0.13480162  *
     8       C          7.76133232  *   4.38039798  *  -0.04837038  *
     9       N          8.15140655  *   4.40161157  *  -1.45366677  *
    10       C          7.98138573  *   5.49932722  *  -2.31503083  *
    11       C          7.49514528  *   6.77700670  *  -2.03218896  *
    12       C          7.34806766  *   7.64560520  *  -3.09633086  *
    13       C          7.64778944  *   7.25191963  *  -4.40850866  *
    14       C          8.14928839  *   5.99316911  *  -4.68435824  *
    15       C          8.37406141  *   5.11549439  *  -3.62763498  *
    16       C          8.83105134  *   3.75454769  *  -3.54805224  *
    17       C          8.58014312  *   3.31646585  *  -2.22920283  *
    18       C          8.69685465  *   1.95997671  *  -1.85434239  *
    19       C          8.99628172  *   1.06103648  *  -2.83744491  *
    20       C          9.29754027  *   1.47311213  *  -4.16633614  *
    21       C          9.36462396  *   2.84645407  *  -4.48389776  *
    22       C          9.96553739  *   3.19239753  *  -5.71170801  *
    23       C         10.56951366  *   4.39464365  *  -6.22191310  *
    24       C         10.91036964  *   5.60844585  *  -5.63884340  *
    25       C         11.54561869  *   6.56114449  *  -6.42430051  *
    26       C         11.85657865  *   6.31392070  *  -7.77368773  *
    27       C         11.60553531  *   5.08629687  *  -8.35071268  *
    28       C         10.98465488  *   4.11844940  *  -7.55690383  *
    29       N         10.65974463  *   2.78836202  *  -7.86539774  *
    30       C         10.15112905  *   2.19818387  *  -6.69305221  *
    31       C          9.90231315  *   0.83351495  *  -6.44015449  *
    32       C          9.53525638  *   0.49227848  *  -5.16848372  *
    33       C         11.15162969  *   2.05295875  *  -9.02797628  *
    34       C         12.57155703  *   1.51590481  *  -8.79586149  *
    35       C         13.05172873  *   0.75761655  * -10.02978940  *
    36       C         14.46526008  *   0.22211324  *  -9.81178715  *
    37       C         14.95095903  *  -0.53735617  * -11.04435524  *
    38       C         16.36563158  *  -1.06945422  * -10.82755441  *
    39       C         16.85338462  *  -1.82941072  * -12.05853088  *
    40       C         18.26212753  *  -2.35757893  * -11.84221483  *
    41       C         11.88865505  *   7.85903212  *  -5.86733961  *
    42       C         12.53033256  *   8.00123281  *  -4.69513161  *
    43       C         12.83984338  *   9.30710650  *  -4.09600180  *
    44       O         13.13012200  *   9.54183333  *  -2.93491879  *
    45       O         12.78429219  *  10.33248456  *  -4.97756162  *
    46       C         12.98629263  *   6.89261273  *  -3.93429370  *
    47       N         13.38336967  *   6.00057650  *  -3.31517428  *
    48       H         11.59272456  *   8.73185621  *  -6.46616566  *
    49       H         -0.28174924  *  -1.05217929  *  -0.70945225  *
    50       H         -0.18043026  *   0.12475680  *   0.60010618  *
    51       H         -0.41124885  *   0.67098245  *  -1.06221488  *
    52       H          2.12295708  *  -0.78326732  *  -0.02089210  *
    53       H          1.89327526  *  -0.24219805  *  -1.67725674  *
    54       H          1.65460343  *   2.16750041  *  -0.85658241  *
    55       H          1.88670442  *   1.62581098  *   0.79958757  *
    56       H          4.17172110  *   0.66923495  *   0.16478184  *
    57       H          3.93908313  *   1.21435108  *  -1.49058692  *
    58       H          3.69705952  *   3.62035837  *  -0.66443401  *
    59       H          3.93249724  *   3.07546096  *   0.99087204  *
    60       H          6.21505425  *   2.11719761  *   0.34645435  *
    61       H          5.97869454  *   2.67149260  *  -1.30692003  *
    62       H          5.72784294  *   5.07732944  *  -0.44917401  *
    63       H          5.99154461  *   4.50739410  *   1.19445111  *
    64       H          8.14923190  *   5.30842639  *   0.43660397  *
    65       H          8.28349393  *   3.54563040  *   0.47310399  *
    66       H          7.23459791  *   7.07769256  *  -1.01585204  *
    67       H          6.97325907  *   8.65807052  *  -2.91740452  *
    68       H          7.47122872  *   7.95571540  *  -5.22657672  *
    69       H          8.33685052  *   5.67613606  *  -5.71414913  *
    70       H          8.51808992  *   1.64086227  *  -0.82579146  *
    71       H          9.02375833  *  -0.00806728  *  -2.60079462  *
    72       H         10.68745603  *   5.79317969  *  -4.58245291  *
    73       H         12.33303257  *   7.10139937  *  -8.36684033  *
    74       H         11.89147215  *   4.88267135  *  -9.38421929  *
    75       H         10.03561467  *   0.08032975  *  -7.21847077  *
    76       H          9.40604917  *  -0.56443203  *  -4.91045790  *
    77       H         10.44062035  *   1.22527573  *  -9.25705430  *
    78       H         11.11482959  *   2.72023064  *  -9.92016289  *
    79       H         13.26377356  *   2.34973973  *  -8.55235627  *
    80       H         12.59271827  *   0.86139517  *  -7.89843051  *
    81       H         12.35623164  *  -0.07495859  * -10.26813767  *
    82       H         13.02232628  *   1.41496951  * -10.92465270  *
    83       H         15.16040129  *   1.05457745  *  -9.57242674  *
    84       H         14.49518275  *  -0.43473257  *  -8.91672374  *
    85       H         14.25743403  *  -1.37151712  * -11.28219603  *
    86       H         14.91900862  *   0.11875536  * -11.93984432  *
    87       H         17.06065831  *  -0.23631843  * -10.59048068  *
    88       H         16.39947645  *  -1.72622463  *  -9.93265583  *
    89       H         16.16383118  *  -2.66647736  * -12.29796836  *
    90       H         16.82368529  *  -1.17642723  * -12.95642532  *
    91       H         18.63158588  *  -2.90875817  * -12.71910822  *
    92       H         18.98482795  *  -1.55153289  * -11.64969288  *
    93       H         18.32232440  *  -3.04768439  * -10.98829129  *
    94       H         12.99439782  *  11.17273508  *  -4.54624126  *

                             CARTESIAN COORDINATES

   1    C        0.119777499    -0.064368782    -0.440638038
   2    C        1.626728061     0.003683820    -0.627499567
   3    C        2.157229238     1.384589380    -0.250146096
   4    C        3.670673056     1.454467742    -0.439993197
   5    C        4.199633519     2.835715341    -0.060138506
   6    C        5.713038748     2.905766399    -0.254064637
   7    C        6.239447901     4.282834191     0.134801620
   8    C        7.761332323     4.380397975    -0.048370384
   9    N        8.151406550     4.401611572    -1.453666772
  10    C        7.981385731     5.499327222    -2.315030832
  11    C        7.495145277     6.777006696    -2.032188958
  12    C        7.348067659     7.645605201    -3.096330865
  13    C        7.647789438     7.251919629    -4.408508660
  14    C        8.149288386     5.993169107    -4.684358238
  15    C        8.374061408     5.115494395    -3.627634980
  16    C        8.831051338     3.754547693    -3.548052240
  17    C        8.580143121     3.316465851    -2.229202835
  18    C        8.696854652     1.959976707    -1.854342386
  19    C        8.996281719     1.061036478    -2.837444913
  20    C        9.297540275     1.473112130    -4.166336136
  21    C        9.364623959     2.846454070    -4.483897759
  22    C        9.965537386     3.192397533    -5.711708008
  23    C       10.569513660     4.394643645    -6.221913103
  24    C       10.910369644     5.608445850    -5.638843399
  25    C       11.545618694     6.561144485    -6.424300507
  26    C       11.856578649     6.313920705    -7.773687726
  27    C       11.605535312     5.086296865    -8.350712677
  28    C       10.984654875     4.118449396    -7.556903835
  29    N       10.659744631     2.788362018    -7.865397740
  30    C       10.151129053     2.198183873    -6.693052213
  31    C        9.902313152     0.833514948    -6.440154490
  32    C        9.535256377     0.492278478    -5.168483723
  33    C       11.151629688     2.052958753    -9.027976280
  34    C       12.571557028     1.515904813    -8.795861491
  35    C       13.051728726     0.757616548   -10.029789404
  36    C       14.465260078     0.222113239    -9.811787150
  37    C       14.950959029    -0.537356174   -11.044355242
  38    C       16.365631583    -1.069454217   -10.827554410
  39    C       16.853384620    -1.829410722   -12.058530881
  40    C       18.262127529    -2.357578933   -11.842214833
  41    C       11.888655052     7.859032124    -5.867339611
  42    C       12.530332562     8.001232806    -4.695131610
  43    C       12.839843379     9.307106501    -4.096001800
  44    O       13.130121999     9.541833335    -2.934918787
  45    O       12.784292187    10.332484564    -4.977561624
  46    C       12.986292628     6.892612727    -3.934293698
  47    N       13.383369672     6.000576496    -3.315174283
  48    H       11.592724563     8.731856207    -6.466165659
  49    H       -0.281749238    -1.052179293    -0.709452254
  50    H       -0.180430264     0.124756796     0.600106184
  51    H       -0.411248849     0.670982445    -1.062214881
  52    H        2.122957081    -0.783267318    -0.020892099
  53    H        1.893275258    -0.242198053    -1.677256738
  54    H        1.654603432     2.167500412    -0.856582411
  55    H        1.886704420     1.625810983     0.799587568
  56    H        4.171721098     0.669234954     0.164781842
  57    H        3.939083132     1.214351078    -1.490586921
  58    H        3.697059515     3.620358368    -0.664434011
  59    H        3.932497243     3.075460956     0.990872036
  60    H        6.215054246     2.117197610     0.346454350
  61    H        5.978694538     2.671492605    -1.306920034
  62    H        5.727842945     5.077329442    -0.449174009
  63    H        5.991544610     4.507394103     1.194451110
  64    H        8.149231898     5.308426394     0.436603967
  65    H        8.283493934     3.545630400     0.473103993
  66    H        7.234597907     7.077692560    -1.015852036
  67    H        6.973259073     8.658070524    -2.917404515
  68    H        7.471228723     7.955715396    -5.226576719
  69    H        8.336850521     5.676136062    -5.714149132
  70    H        8.518089920     1.640862268    -0.825791457
  71    H        9.023758325    -0.008067276    -2.600794617
  72    H       10.687456031     5.793179685    -4.582452906
  73    H       12.333032566     7.101399370    -8.366840331
  74    H       11.891472153     4.882671352    -9.384219293
  75    H       10.035614671     0.080329754    -7.218470772
  76    H        9.406049169    -0.564432027    -4.910457904
  77    H       10.440620349     1.225275735    -9.257054300
  78    H       11.114829594     2.720230635    -9.920162888
  79    H       13.263773562     2.349739729    -8.552356266
  80    H       12.592718272     0.861395168    -7.898430510
  81    H       12.356231638    -0.074958592   -10.268137667
  82    H       13.022326277     1.414969513   -10.924652700
  83    H       15.160401288     1.054577453    -9.572426740
  84    H       14.495182746    -0.434732568    -8.916723738
  85    H       14.257434025    -1.371517123   -11.282196033
  86    H       14.919008624     0.118755362   -11.939844319
  87    H       17.060658310    -0.236318426   -10.590480684
  88    H       16.399476452    -1.726224625    -9.932655828
  89    H       16.163831182    -2.666477360   -12.297968357
  90    H       16.823685289    -1.176427230   -12.956425316
  91    H       18.631585882    -2.908758171   -12.719108221
  92    H       18.984827953    -1.551532886   -11.649692880
  93    H       18.322324402    -3.047684393   -10.988291285
  94    H       12.994397824    11.172735078    -4.546241260


           Empirical Formula: C42 H47 N3 O2  =    94 atoms



      MOLECULAR POINT GROUP   :   C1  


                  EIGENVALUES  
 -40.07839 -39.62428 -39.00616 -37.01102 -36.68705 -36.31442 -36.16114 -35.78118
 -35.38115 -35.14761 -34.31671 -33.92306 -33.13256 -32.79456 -32.16384 -31.41601
 -30.69390 -29.88929 -29.56774 -28.92031 -28.45620 -28.40179 -27.42352 -26.87770
 -26.50406 -25.15897 -24.47035 -24.12953 -23.29484 -23.04643 -22.69772 -22.21313
 -22.16409 -21.89267 -21.54981 -21.39045 -21.17113 -21.03420 -20.96298 -20.84521
 -20.57814 -19.84875 -18.71669 -18.34502 -18.26934 -18.09948 -17.74224 -17.24899
 -17.10983 -16.93043 -16.54972 -16.33179 -16.23083 -16.01846 -15.99970 -15.97015
 -15.71554 -15.68553 -15.49444 -15.28852 -15.13089 -14.96218 -14.89726 -14.83489
 -14.80646 -14.60947 -14.58378 -14.54641 -14.45298 -14.39857 -14.27485 -14.19234
 -14.13798 -14.08227 -14.01684 -13.95198 -13.65477 -13.63499 -13.50486 -13.45979
 -13.34429 -13.28079 -13.18087 -13.17381 -13.03509 -12.94387 -12.85455 -12.76378
 -12.66441 -12.56097 -12.36474 -12.35330 -12.31273 -12.30616 -12.22455 -12.18091
 -12.01892 -11.99546 -11.97353 -11.89796 -11.86475 -11.73432 -11.64005 -11.62184
 -11.54025 -11.47645 -11.44857 -11.32845 -11.30409 -11.15739 -11.10529 -11.01019
 -10.88272 -10.73145 -10.47441 -10.09538  -9.37450  -8.77468  -8.61495  -7.93219
  -7.84790  -0.59343  -0.36403   0.14518   0.37366   0.67954   0.92405   1.06172
   1.43142   1.58590   1.64356   1.73905   1.79955   2.30461   2.56585   2.62148
   2.88298   3.13862   3.20808   3.33708   3.42429   3.47410   3.59547   3.68953
   3.73105   3.76638   3.79595   3.86288   3.91167   3.96376   3.96747   3.99002
   4.06987   4.08908   4.09614   4.13044   4.21764   4.24146   4.25350   4.25556
   4.28925   4.31001   4.33082   4.35782   4.36937   4.39652   4.41467   4.44419
   4.45234   4.48879   4.53481   4.56394   4.57074   4.58115   4.61498   4.68835
   4.69550   4.69941   4.73531   4.75357   4.79342   4.79575   4.80055   4.86507
   4.89269   4.90815   4.93897   4.95675   4.97970   4.98781   5.02879   5.03553
   5.05019   5.06498   5.10476   5.12336   5.13554   5.13932   5.15711   5.18824
   5.21491   5.22385   5.23149   5.24328   5.25248   5.31692   5.32808   5.34568
   5.36189   5.36491   5.40908   5.45577   5.47618   5.49649   5.51534   5.59054
   5.61485   5.62166   5.68526   5.69988   5.73025   5.81316   5.88775   5.98811
   6.05706   6.10350   6.12594   6.24145   6.29615   6.40962   6.45941   6.54073
   6.61123   6.68999   6.70698


              NET ATOMIC CHARGES AND DIPOLE CONTRIBUTIONS

  ATOM NO.   TYPE          CHARGE      No. of ELECS.   s-Pop       p-Pop       
   44          O          -0.354315        6.3543     1.90963     4.44468
   43          C           0.400242        3.5998     1.18174     2.41802
   45          O          -0.334815        6.3348     1.84008     4.49474
   94          H           0.243588        0.7564     0.75641
   46          C           0.042643        3.9574     1.19665     2.76071
   47          N          -0.140531        5.1405     1.84788     3.29265
    1          C          -0.177045        4.1770     1.15574     3.02130
    2          C          -0.112384        4.1124     1.16680     2.94558
    3          C          -0.122679        4.1227     1.17073     2.95195
[...]
   30          C           0.119376        3.8806     1.15397     2.72665
   31          C          -0.178970        4.1790     1.17018     3.00879
   32          C          -0.024084        4.0241     1.17616     2.84792
   33          C           0.061168        3.9388     1.15840     2.78043
   34          C          -0.168495        4.1685     1.17972     2.98878
   35          C          -0.118657        4.1187     1.16953     2.94912
   36          C          -0.123793        4.1238     1.17072     2.95308
   37          C          -0.123363        4.1234     1.17070     2.95266
   38          C          -0.123255        4.1233     1.17076     2.95250
   39          C          -0.112020        4.1120     1.16676     2.94526
   40          C          -0.177510        4.1775     1.15573     3.02178
   41          C           0.105927        3.8941     1.18343     2.71064
   42          C          -0.136315        4.1363     1.14221     2.99411
   48          H           0.127217        0.8728     0.87278
   49          H           0.055521        0.9445     0.94448
   50          H           0.057259        0.9427     0.94274
   51          H           0.057830        0.9422     0.94217
   52          H           0.059189        0.9408     0.94081
   53          H           0.060354        0.9396     0.93965
   54          H           0.062888        0.9371     0.93711
   55          H           0.061396        0.9386     0.93860
   56          H           0.060783        0.9392     0.93922
   57          H           0.064866        0.9351     0.93513
   58          H           0.064840        0.9352     0.93516
   59          H           0.060155        0.9398     0.93984
   60          H           0.059141        0.9409     0.94086
   61          H           0.077859        0.9221     0.92214
   62          H           0.082922        0.9171     0.91708
   63          H           0.071164        0.9288     0.92884
   64          H           0.075267        0.9247     0.92473
   65          H           0.080422        0.9196     0.91958
   66          H           0.115227        0.8848     0.88477
   67          H           0.100056        0.8999     0.89994
   68          H           0.105164        0.8948     0.89484
   69          H           0.119420        0.8806     0.88058
   70          H           0.119062        0.8809     0.88094
   71          H           0.102113        0.8979     0.89789
   72          H           0.137758        0.8622     0.86224
   73          H           0.104997        0.8950     0.89500
   74          H           0.120862        0.8791     0.87914
   75          H           0.118906        0.8811     0.88109
   76          H           0.102408        0.8976     0.89759
   77          H           0.079708        0.9203     0.92029
   78          H           0.078192        0.9218     0.92181
   79          H           0.083421        0.9166     0.91658
   80          H           0.083836        0.9162     0.91616
   81          H           0.062170        0.9378     0.93783
   82          H           0.061957        0.9380     0.93804
   83          H           0.066050        0.9340     0.93395
   84          H           0.065853        0.9341     0.93415
   85          H           0.061607        0.9384     0.93839
   86          H           0.061600        0.9384     0.93840
   87          H           0.063532        0.9365     0.93647
   88          H           0.063392        0.9366     0.93661
   89          H           0.059431        0.9406     0.94057
   90          H           0.059459        0.9405     0.94054
   91          H           0.056113        0.9439     0.94389
   92          H           0.058302        0.9417     0.94170
   93          H           0.058221        0.9418     0.94178
 DIPOLE           X         Y         Z       TOTAL
 POINT-CHG.    -2.443    -2.434    -3.411     4.851
 HYBRID        -0.030     0.752     0.034     0.754
 SUM           -2.473    -1.682    -3.378     4.511


          ATOMIC ORBITAL ELECTRON POPULATIONS

     Atom    s        px        py        pz   
    1  C   1.15574   0.96634   1.02734   1.02762
    2  C   1.16680   0.95355   0.97123   1.02080
    3  C   1.17073   0.95465   0.97409   1.02321
    4  C   1.17070   0.95826   0.96977   1.02507
    5  C   1.17066   0.95225   0.97731   1.02220
    6  C   1.17036   0.96123   0.95691   1.03397
    7  C   1.17834   0.95134   0.99797   1.03266
    8  C   1.15728   0.95175   1.03691   0.78856
    9  N   1.50030   1.57962   1.10209   1.08965
   10  C   1.15307   0.99047   0.88164   0.88100
   11  C   1.16985   1.06107   0.93355   0.99422
   12  C   1.17577   0.98013   0.97830   0.92920
   13  C   1.17773   1.03876   0.97470   0.96713
   14  C   1.17300   0.96742   0.93265   0.97901
   15  C   1.15761   1.04840   0.93785   0.92589
   16  C   1.15576   1.09730   0.94284   0.93482
   17  C   1.15241   0.95821   0.86526   0.89170
   18  C   1.17078   1.08469   0.91897   0.99926
   19  C   1.17569   0.95386   0.97931   0.92103
   20  C   1.16314   1.08473   0.93549   0.94408
   21  C   1.13921   0.91712   0.90580   0.89733
   22  C   1.15562   1.07823   0.92900   0.95356
   23  C   1.15871   1.04154   0.95110   0.92962
   24  C   1.17401   0.92382   0.90745   0.98757
   25  C   1.16267   1.09217   0.95579   0.96119
   26  C   1.17315   0.96784   0.96034   0.92904
   27  C   1.16978   1.05750   0.94539   0.99902
   28  C   1.15456   0.95723   0.83910   0.93364
   29  N   1.51177   1.52429   1.08462   1.15091
   30  C   1.15397   0.96509   0.92612   0.83544
   31  C   1.17018   1.08694   0.93754   0.98430
   32  C   1.17616   0.94779   0.97613   0.92400
   33  C   1.15840   0.95377   0.96656   0.86010
   34  C   1.17972   0.96171   1.02672   1.00035
   35  C   1.16953   0.97548   1.00248   0.97117
   36  C   1.17072   0.95830   1.00869   0.98609
   37  C   1.17070   0.96982   1.00439   0.97845
   38  C   1.17076   0.96230   1.00671   0.98349
   39  C   1.16676   0.96390   1.00280   0.97856
   40  C   1.15573   0.97332   1.02079   1.02767
   41  C   1.18343   0.83673   0.97659   0.89732
   42  C   1.14221   1.11650   0.88790   0.98971
   43  C   1.18174   0.73635   0.84482   0.83685
   44  O   1.90963   1.42136   1.83601   1.18732
   45  O   1.84008   1.84565   1.20343   1.44566
   46  C   1.19665   0.92294   0.91785   0.91992
   47  N   1.84788   1.09572   1.10537   1.09156
   48  H   0.87278
   49  H   0.94448
   50  H   0.94274
   51  H   0.94217
   52  H   0.94081
   53  H   0.93965
   54  H   0.93711
   55  H   0.93860
   56  H   0.93922
   57  H   0.93513
   58  H   0.93516
   59  H   0.93984
   60  H   0.94086
   61  H   0.92214
   62  H   0.91708
   63  H   0.92884
   64  H   0.92473
   65  H   0.91958
   66  H   0.88477
   67  H   0.89994
   68  H   0.89484
   69  H   0.88058
   70  H   0.88094
   71  H   0.89789
   72  H   0.86224
   73  H   0.89500
   74  H   0.87914
   75  H   0.88109
   76  H   0.89759
   77  H   0.92029
   78  H   0.92181
   79  H   0.91658
   80  H   0.91616
   81  H   0.93783
   82  H   0.93804
   83  H   0.93395
   84  H   0.93415
   85  H   0.93839
   86  H   0.93840
   87  H   0.93647
   88  H   0.93661
   89  H   0.94057
   90  H   0.94054
   91  H   0.94389
   92  H   0.94170
   93  H   0.94178
   94  H   0.75641
 ******************** TDHF POLARIZABILITIES ********************



          MOLECULAR WEIGHT =  625.85



          ROTATIONAL CONSTANTS IN CM(-1)

          A =    0.00220857   B =    0.00100892   C =    0.00075204



           PRINCIPAL MOMENTS OF INERTIA IN UNITS OF 10**(-40)*GRAM-CM**2

          A =    12674.6281   B =    27745.4113   C =    37222.5007


 ROTATION MATRIX FOR ORIENTATION OF MOLECULE:

         0.733038    0.311454    0.604691
        -0.144529    0.940027   -0.308968
        -0.664655    0.139090    0.734090


          CARTESIAN COORDINATES 

    NO.       ATOM         X         Y         Z

     1         C       -9.6059   -5.9086   -1.5049
     2         C       -8.3869   -5.4013   -0.7518
     3         C       -8.4484   -3.8855   -0.5807
     4         C       -7.2229   -3.3749    0.1735
     5         C       -7.2872   -1.8589    0.3455
     6         C       -6.0591   -1.3486    1.0966
     7         C       -6.1307    0.1639    1.2749
     8         C       -4.9074    0.7041    2.0306
     9         N       -3.6905    0.6501    1.2283
    10         C       -3.4013    1.5092    0.1540
    11         C       -4.1304    2.5981   -0.3272
    12         C       -3.6564    3.2208   -1.4657
    13         C       -2.5077    2.7616   -2.1260
    14         C       -1.7748    1.6962   -1.6364
    15         C       -2.1855    1.0881   -0.4535
    16         C       -1.7068   -0.0378    0.3017
    17         C       -2.7039   -0.3443    1.2535
    18         C       -2.6715   -1.5310    2.0184
    19         C       -1.6687   -2.4195    1.7555
    20         C       -0.6241   -2.1231    0.8348
    21         C       -0.5624   -0.8554    0.2179
    22         C        0.6442   -0.5139   -0.4269
    23         C        1.2523    0.7334   -0.8077
    24         C        0.9392    2.0617   -0.5486
    25         C        1.7892    3.0459   -1.0354
    26         C        2.9498    2.7226   -1.7616
    27         C        3.3267    1.4102   -1.9576
    28         C        2.4838    0.4174   -1.4513
    29         N        2.6429   -0.9770   -1.4633
    30         C        1.5762   -1.5271   -0.7279
    31         C        1.4229   -2.8523   -0.2711
    32         C        0.3580   -3.1105    0.5459
    33         C        3.8825   -1.6768   -1.7921
    34         C        4.8467   -1.7071   -0.5971
    35         C        6.1284   -2.4420   -0.9783
    36         C        7.0971   -2.4748    0.2019
    37         C        8.3821   -3.2089   -0.1745
    38         C        9.3519   -3.2383    1.0044
    39         C       10.6375   -3.9720    0.6305
    40         C       11.6027   -3.9997    1.8044
    41         C        1.4829    4.4502   -0.8201
    42         C        1.1536    4.9468    0.3845
    43         C        0.7935    6.3541    0.6080
    44         O        0.2007    6.8266    1.5633
    45         O        1.1906    7.1780   -0.3896
    46         C        1.1424    4.1525    1.5612
    47         N        1.1509    3.5237    2.5314
    48         H        1.5378    5.0952   -1.7083
    49         H       -9.5788   -6.9997   -1.6398
    50         H      -10.5450   -5.6796   -0.9809
    51         H       -9.6883   -5.4692   -2.5095
    52         H       -8.3125   -5.9022    0.2367
    53         H       -7.4582   -5.6955   -1.2853
    54         H       -8.5269   -3.3905   -1.5717
    55         H       -9.3792   -3.5970   -0.0482
    56         H       -7.1441   -3.8728    1.1631
    57         H       -6.2931   -3.6631   -0.3612
    58         H       -7.3674   -1.3619   -0.6445
    59         H       -8.2163   -1.5705    0.8814
    60         H       -5.9762   -1.8500    2.0846
    61         H       -5.1307   -1.6326    0.5567
    62         H       -6.2324    0.6702    0.2914
    63         H       -7.0492    0.4451    1.8335
    64         H       -5.0796    1.7647    2.3344
    65         H       -4.7506    0.1546    2.9870
    66         H       -5.0403    2.9410    0.1685
    67         H       -4.1965    4.0807   -1.8738
    68         H       -2.1951    3.2544   -3.0508
    69         H       -0.9070    1.3133   -2.1810
    70         H       -3.4400   -1.7436    2.7639
    71         H       -1.6513   -3.3830    2.2761
    72         H        0.0469    2.3129    0.0350
    73         H        3.5794    3.5288   -2.1522
    74         H        4.2526    1.1641   -2.4805
    75         H        2.1468   -3.6270   -0.5291
    76         H        0.2445   -4.1082    0.9837
    77         H        3.6332   -2.7082   -2.1345
    78         H        4.3521   -1.1851   -2.6755
    79         H        5.0718   -0.6738   -0.2574
    80         H        4.3603   -2.1910    0.2767
    81         H        5.8973   -3.4744   -1.3166
    82         H        6.6066   -1.9577   -1.8561
    83         H        7.3273   -1.4425    0.5408
    84         H        6.6191   -2.9585    1.0800
    85         H        8.1524   -4.2421   -0.5108
    86         H        8.8591   -2.7267   -1.0540
    87         H        9.5834   -2.2057    1.3413
    88         H        8.8769   -3.7207    1.8848
    89         H       10.4122   -5.0070    0.2964
    90         H       11.1181   -3.4923   -0.2483
    91         H       12.5360   -4.5247    1.5544
    92         H       11.8880   -2.9901    2.1337
    93         H       11.1790   -4.5109    2.6809
    94         H        0.9364    8.0933   -0.2055


 ENERGY OF "REORIENTED" SYSTEM WITHOUT FIELD:      -15.2859108407


  NFREQ=  3  IWFLB=  0  IBET=  1  IGAM=  1
  ATOL= 0.10000D-02  BTOL= 0.10000D-02    MAXITU=  500    MAXITA=  150


 *****************************************************************
 CALCULATION OF STATIC FIELD QUANTITIES
 *****************************************************************

 +++++ ALPHA AT       0.00000 EV.

                           COMPONENTS OF ALPHA

                     *X           *Y           *Z
           *=X:     439.7870     -56.8481    -102.6345
           *=Y:     -56.8481     468.8062     -44.0063
           *=Z:    -102.6327     -44.0061     314.7207

  ISOTROPIC AVERAGE ALPHA =     407.77131 A.U. =     60.42547 ANG.**3

 +++++ BETA (SECOND HARMONIC GENERATION) AT       0.00000 EV.

                              COMPONENTS OF BETA
            *XX         *XY         *YY         *XZ         *YZ         *ZZ
   *=X  -177.23920   664.49563  -136.88441  -155.90003  -154.43252    78.93278
   *=Y   664.22465  -136.77394 -1736.06446  -154.35998  -354.02224   -33.02197
   *=Z  -155.61431  -154.39060  -354.17182    78.82937   -33.03343    89.44911


 AVERAGE BETAX(SHG) VALUE AT   0.00000 EV =       -141.1117 a.u. = -0.121912E-29 ESU
 AVERAGE BETAY(SHG) VALUE AT   0.00000 EV =       -662.8133 a.u. = -0.572632E-29 ESU
 AVERAGE BETAZ(SHG) VALUE AT   0.00000 EV =       -252.2567 a.u. = -0.217935E-29 ESU



 AVERAGE BETA (SHG) VALUE AT   0.00000 EV =        723.0957 a.u. =  0.624713E-29 ESU
   (1 a.u. = 8.639418X10-33 esu)



 +++++ ALPHA AT       0.00000 EV.

                           COMPONENTS OF ALPHA

                     *X           *Y           *Z
           *=X:     439.7870     -56.8481    -102.6345
           *=Y:     -56.8481     468.8062     -44.0063
           *=Z:    -102.6327     -44.0061     314.7207

  ISOTROPIC AVERAGE ALPHA =     407.77131 A.U. =     60.42547 ANG.**3


 GAMMA (THIRD HARMONIC GENERATION) AT    0.00000 EV.


 GAMMA(X,X,X,X) =        251685.28700
 GAMMA(Y,Y,Y,Y) =        309401.06493
 GAMMA(Z,Z,Z,Z) =          9941.91961
 GAMMA(X,X,Y,Y) =         55880.84657
 GAMMA(X,X,Z,Z) =         18672.37350
 GAMMA(Y,Y,X,X) =         55880.79923
 GAMMA(Y,Y,Z,Z) =         31759.13037
 GAMMA(Z,Z,X,X) =         18672.14668
 GAMMA(Z,Z,Y,Y) =         31759.29358


 AVERAGE GAMMA VALUE AT    0.00000 =        156730.57229 a.u. =        78940.52778 ESU (X10-39)




 **********************************************************************
 CALCULATION FOR A FREQUENCY OF    0.25000 EV  =       0.00919 A.U. 
                  WAVELENGTH OF    4959.37 NM  =    2016.38525 CM(-1)
 **********************************************************************

 +++++ ALPHA AT       0.25000 EV.

                           COMPONENTS OF ALPHA

                     *X           *Y           *Z
           *=X:     440.7396     -56.9555    -102.8554
           *=Y:     -56.9555     469.8026     -44.0400
           *=Z:    -102.8538     -44.0398     315.1618

  ISOTROPIC AVERAGE ALPHA =     408.56800 A.U. =     60.54353 ANG.**3

 +++++ BETA (SECOND HARMONIC GENERATION) AT       0.25000 EV.

                              COMPONENTS OF BETA
            *XX         *XY         *YY         *XZ         *YZ         *ZZ
   *=X  -186.07947   680.12988  -145.24191  -158.05715  -159.85858    80.92988
   *=Y   674.01108  -138.12228 -1783.53562  -157.39424  -368.83438   -33.70122
   *=Z  -151.79750  -157.74573  -373.63028    78.59119   -35.58276    89.19433


 AVERAGE BETAX(SHG) VALUE AT   0.25000 EV =       -148.3225 a.u. = -0.128142E-29 ESU
 AVERAGE BETAY(SHG) VALUE AT   0.25000 EV =       -684.2406 a.u. = -0.591144E-29 ESU
 AVERAGE BETAZ(SHG) VALUE AT   0.25000 EV =       -262.3256 a.u. = -0.226634E-29 ESU



 AVERAGE BETA (SHG) VALUE AT   0.25000 EV =        747.6626 a.u. =  0.645937E-29 ESU
   (1 a.u. = 8.639418X10-33 esu)



 +++++ ALPHA AT       0.75000 EV.

                           COMPONENTS OF ALPHA

                     *X           *Y           *Z
           *=X:     448.6256     -57.8256    -104.6766
           *=Y:     -57.8258     478.0513     -44.3053
           *=Z:    -104.6744     -44.3047     318.7837

  ISOTROPIC AVERAGE ALPHA =     415.15355 A.U. =     61.51941 ANG.**3


 GAMMA (THIRD HARMONIC GENERATION) AT    0.25000 EV.


 GAMMA(X,X,X,X) =        268339.33987
 GAMMA(Y,Y,Y,Y) =        332414.14244
 GAMMA(Z,Z,Z,Z) =         10354.08337
 GAMMA(X,X,Y,Y) =         59185.65316
 GAMMA(X,X,Z,Z) =         19706.22075
 GAMMA(Y,Y,X,X) =         58403.73550
 GAMMA(Y,Y,Z,Z) =         33828.93031
 GAMMA(Z,Z,X,X) =         19449.45800
 GAMMA(Z,Z,Y,Y) =         34468.63338


 AVERAGE GAMMA VALUE AT    0.25000 =        167230.03936 a.u. =        84228.79707 ESU (X10-39)




 **********************************************************************
 CALCULATION FOR A FREQUENCY OF    0.50000 EV  =       0.01837 A.U. 
                  WAVELENGTH OF    2479.68 NM  =    4032.77050 CM(-1)
 **********************************************************************

 +++++ ALPHA AT       0.50000 EV.

                           COMPONENTS OF ALPHA

                     *X           *Y           *Z
           *=X:     443.6386     -57.2797    -103.5266
           *=Y:     -57.2797     472.8340     -44.1404
           *=Z:    -103.5247     -44.1399     316.4998

  ISOTROPIC AVERAGE ALPHA =     410.99079 A.U. =     60.90255 ANG.**3

 +++++ BETA (SECOND HARMONIC GENERATION) AT       0.50000 EV.

                              COMPONENTS OF BETA
            *XX         *XY         *YY         *XZ         *YZ         *ZZ
   *=X  -216.16554   731.49228  -174.89440  -164.79522  -178.55512    87.57181
   *=Y   703.43900  -141.52250 -1940.42371  -167.14597  -419.06044   -35.72153
   *=Z  -135.90945  -168.89624  -440.45661    76.90264   -44.05427    87.87553


 AVERAGE BETAX(SHG) VALUE AT   0.50000 EV =       -173.0118 a.u. = -0.149472E-29 ESU
 AVERAGE BETAY(SHG) VALUE AT   0.50000 EV =       -755.7355 a.u. = -0.652912E-29 ESU
 AVERAGE BETAZ(SHG) VALUE AT   0.50000 EV =       -296.0902 a.u. = -0.255805E-29 ESU



 AVERAGE BETA (SHG) VALUE AT   0.50000 EV =        829.9028 a.u. =  0.716988E-29 ESU
   (1 a.u. = 8.639418X10-33 esu)



 +++++ ALPHA AT       1.50000 EV.

                           COMPONENTS OF ALPHA

                     *X           *Y           *Z
           *=X:     479.6173     -60.8466    -111.6964
           *=Y:     -60.8476     510.4893     -45.1376
           *=Z:    -111.6930     -45.1356     332.5563

  ISOTROPIC AVERAGE ALPHA =     440.88760 A.U. =     65.33280 ANG.**3


 GAMMA (THIRD HARMONIC GENERATION) AT    0.50000 EV.


 GAMMA(X,X,X,X) =        331942.30565
 GAMMA(Y,Y,Y,Y) =        421878.53313
 GAMMA(Z,Z,Z,Z) =         11757.59364
 GAMMA(X,X,Y,Y) =         71205.25732
 GAMMA(X,X,Z,Z) =         23512.03561
 GAMMA(Y,Y,X,X) =         66729.18293
 GAMMA(Y,Y,Z,Z) =         41741.41143
 GAMMA(Z,Z,X,X) =         22055.95410
 GAMMA(Z,Z,Y,Y) =         45555.07317


 AVERAGE GAMMA VALUE AT    0.50000 =        207275.46939 a.u. =       104398.48914 ESU (X10-39)



 **********************
 *                    *
 * JOB ENDED NORMALLY *
 *                    *
 **********************



 TOTAL JOB TIME:           220.78 SECONDS

 == MOPAC DONE ==
