 *******************************************************************************
 ** Site#: 4824         For non-commercial use only    Version 21.013L 64BITS **
 *******************************************************************************
 ** Cite this program as: MOPAC2016, Version: 21.013L, James J. P. Stewart,   **
 ** Stewart Computational Chemistry, web: HTTP://OpenMOPAC.net. Days left:  89**
 *******************************************************************************
 **                                                                           **
 **                                MOPAC2016                                  **
 **                                                                           **
 *******************************************************************************

                              RM1 CALCULATION RESULTS

 *******************************************************************************
 *  CALCULATION DONE:                                Sat Oct 16 16:28:54 2021  *
 *  RM1        - The RM1 Hamiltonian to be used
 *  POLAR      - CALCULATE FIRST, SECOND AND THIRD-ORDER POLARIZABILITIES
 *  PRECISE    - TIGHTER CRITERIA TO BE USED
 *  T=         - A TIME OF 172800.0 SECONDS REQUESTED
 *  DUMP=N     - RESTART FILE WRITTEN EVERY 7200.0 SECONDS REQUESTED
 *  GNORM      - EXIT WHEN GRADIENT NORM DROPS BELOW 0.100
 *******************************************************************************
RM1 PRECISE POLAR GNORM=0.1


  ATOM    CHEMICAL      BOND LENGTH      BOND ANGLE     TWIST ANGLE 
 NUMBER    SYMBOL       (ANGSTROMS)      (DEGREES)       (DEGREES) 
   (I)                     NA:I           NB:NA:I       NC:NB:NA:I       NA    NB    NC 
     1       C          0.00000000       0.0000000       0.0000000        0     0     0
     2       C          1.54730000  *    0.0000000       0.0000000        1     0     0
     3       C          1.55070000  *  111.5934000  *    0.0000000        2     1     0
     4       C          1.55020000  *  110.8309000  *  179.9227000  *     3     2     1
     5       C          1.55270000  *  111.6009000  * -176.2352000  *     4     3     2
     6       C          1.55060000  *  110.9393000  *  173.1776000  *     5     4     3
     7       C          1.55240000  *  111.7499000  * -170.0753000  *     6     5     4
     8       C          1.55210000  *  110.4551000  *  164.8116000  *     7     6     5
     9       N          1.45770000  *  110.9303000  * -158.2683000  *     8     7     6
    10       C          1.42540000  *  120.5767000  *   90.2995000  *     9     8     7
    11       C          1.34310000  *  130.1952000  *  -37.6049000  *    10     9     8
    12       C          1.47540000  *  118.1315000  * -179.4385000  *    11    10     9
    13       C          1.34840000  *  120.6915000  *   -0.8983000  *    12    11    10
    14       C          1.47440000  *  120.6708000  *    0.4095000  *    13    12    11
    15       C          1.34250000  *  117.9797000  *   -0.2498000  *    14    13    12
    16       C          1.46330000  *  132.9670000  *  179.1983000  *    15    14    13
    17       C          1.35050000  *  107.7601000  * -176.9009000  *    16    15    14
    18       C          1.45850000  *  118.3228000  *  174.1787000  *    17    16    15
    19       S          1.81580000  *  130.8702000  * -169.5595000  *    18    17    16
    20       C          1.82570000  *   93.4074000  *  174.9930000  *    19    18    17
    21       C          1.34990000  *  107.5493000  *   -0.8962000  *    20    19    18
    22       C          1.34840000  *  120.9514000  *    2.8069000  *    18    17    16
    23       C          1.47230000  *  120.0293000  *    0.8675000  *    22    18    17
    24       C          1.35020000  *  120.0177000  *   -2.6132000  *    23    22    18
    25       C          1.46730000  *  119.5993000  *  177.3530000  *    24    23    22
    26       C          1.34710000  *  120.1412000  * -102.1190000  *    25    24    23
    27       C          1.46880000  *  120.1200000  * -179.1584000  *    26    25    24
    28       C          1.34470000  *  120.0215000  *   -0.6350000  *    27    26    25
    29       C          1.46940000  *  120.0034000  *   -0.1215000  *    28    27    26
    30       C          1.34500000  *  120.0343000  *    0.3272000  *    29    28    27
    31       C          1.45940000  *  126.1529000  * -179.2073000  *    20    19    18
    32       C          1.34870000  *  127.0119000  * -159.9704000  *    31    20    21
    33       C          1.48800000  *  115.9421000  *  177.9442000  *    32    31    20
    34       C          1.34870000  *  115.6728000  *    0.0231000  *    33    32    31
    35       S          1.82040000  *  107.3541000  *    0.3414000  *    34    33    32
    36       C          1.45650000  *  127.5285000  *  179.7045000  *    34    33    32
    37       C          1.34950000  *  127.8011000  *   20.0972000  *    36    34    33
    38       C          1.48850000  *  115.5730000  *  179.9465000  *    37    36    34
    39       C          1.34930000  *  116.1052000  *    1.7052000  *    38    37    36
    40       S          1.81860000  *  124.9042000  * -159.9750000  *    36    34    33
    41       C          1.46910000  *  125.6320000  * -179.2875000  *    39    38    37
    42       C          1.34920000  *  124.7601000  * -147.6783000  *    41    39    38
    43       C          1.47520000  *  120.6137000  *  179.7881000  *    42    41    39
    44       O          1.23230000  *  120.0390000  * -177.1317000  *    43    42    41
    45       O          1.35450000  *  121.1848000  *    6.2106000  *    43    42    41
    46       C          1.43220000  *  121.6166000  *    1.6081000  *    42    41    39
    47       N          1.15740000  *  179.8329000  * -179.8482000  *    46    42    41
    48       H          1.05370000  *  116.7141000  *   30.5051000  *    41    39    38
    49       H          1.09090000  *  110.0731000  *   60.7111000  *     1     2     3
    50       H          1.09090000  *  109.3011000  * -179.5843000  *     1     2     3
    51       H          1.09090000  *  110.2480000  *  -59.8751000  *     1     2     3
    52       H          1.09350000  *  108.5438000  *  -58.8727000  *     2     1    50
    53       H          1.09290000  *  109.1991000  *  179.2205000  *     2     1    51
    54       H          1.09200000  *  109.6033000  * -179.8151000  *     3     2    52
    55       H          1.09220000  *  108.9714000  * -179.3493000  *     3     2    53
    56       H          1.09290000  *  108.8628000  * -176.1649000  *     4     3    54
    57       H          1.09080000  *  109.4337000  *  -57.6401000  *     4     3    54
    58       H          1.09340000  *  109.8253000  *  173.8106000  *     5     4    56
    59       H          1.09280000  *  108.6520000  *  174.1915000  *     5     4    57
    60       H          1.09330000  *  108.2214000  * -171.4372000  *     6     5    58
    61       H          1.09250000  *  109.5832000  * -172.0327000  *     6     5    59
    62       H          1.09220000  *  109.9278000  *  166.7262000  *     7     6    60
    63       H          1.09180000  *  108.9716000  *  166.5287000  *     7     6    61
    64       H          1.09370000  *  109.4639000  * -160.5154000  *     8     7    62
    65       H          1.09070000  *  109.5294000  * -161.4260000  *     8     7    63
    66       H          1.05000000  *  121.5200000  *    0.3640000  *    11    10     9
    67       H          1.05090000  *  119.3109000  *  179.1269000  *    12    11    10
    68       H          1.05110000  *  119.6109000  * -179.7803000  *    13    12    11
    69       H          1.04630000  *  120.0650000  *  179.1419000  *    14    13    12
    70       H          1.04850000  *  122.7121000  *    0.0336000  *    21    20    31
    71       H          1.05060000  *  119.7342000  *  177.0671000  *    23    22    18
    72       H          1.05020000  *  120.3094000  *   -0.3285000  *    26    25    24
    73       H          1.05080000  *  119.7762000  *  178.8046000  *    27    26    25
    74       H          1.05000000  *  120.0624000  *  179.1332000  *    28    27    26
    75       H          1.05140000  *  119.8505000  * -179.7046000  *    29    28    27
    76       H          1.05240000  *  119.8259000  *  179.5587000  *    30    29    28
    77       H          1.04800000  *  122.4868000  *   -0.5597000  *    32    31    20
    78       H          1.04910000  *  121.6472000  *  179.7015000  *    33    32    31
    79       H          1.04870000  *  122.7948000  *    0.2749000  *    37    36    34
    80       H          1.05000000  *  121.5584000  * -178.8672000  *    38    37    36
    81       H          0.94130000  *  121.0265000  *   -0.4882000  *    45    43    44
 


          CARTESIAN COORDINATES 

    NO.       ATOM           X           Y           Z

     1         C          0.0000      0.0000      0.0000
     2         C          1.5473      0.0000      0.0000
     3         C          2.1180      1.4419      0.0000
     4         C          3.6680      1.4212      0.0020
     5         C          4.2587      2.8541      0.0968
     6         C          5.7989      2.8083      0.2695
     7         C          6.3811      4.2058      0.6128
     8         C          7.8317      4.0725      1.1486
     9         N          8.2063      5.2419      1.9340
    10         C          7.9737      5.2760      3.3399
    11         C          6.9453      4.7990      4.0602
    12         C          6.9704      4.9942      5.5224
    13         C          8.0080      5.6183      6.1158
    14         C          9.1367      6.1276      5.3154
    15         C          9.0988      5.9456      3.9859
    16         C         10.0077      6.3195      2.9017
    17         C          9.4375      5.9416      1.7373
    18         C         10.0927      6.3211      0.4908
    19         S          9.5208      6.2232     -1.2298
    20         C         10.9984      7.0730     -1.8839
    21         C         11.7866      7.3854     -0.8334
    22         C         11.2677      6.9825      0.4983
    23         C         11.9177      7.3154      1.7768
    24         C         11.3122      7.0054      2.9431
    25         C         11.9941      7.2883      4.2112
    26         C         12.5958      6.2939      4.8922
    27         C         13.2623      6.5743      6.1707
    28         C         13.2838      7.8276      6.6576
    29         C         12.6428      8.9177      5.9092
    30         C         12.0286      8.6616      4.7404
    31         C         11.2591      7.3918     -3.2839
    32         C         10.3593      7.4364     -4.2876
    33         C         10.8889      7.8369     -5.6193
    34         C         12.2093      8.1081     -5.6655
    35         S         12.8743      7.8564     -3.9897
    36         C         12.9916      8.5140     -6.8251
    37         C         12.5433      9.0566     -7.9765
    38         C         13.5886      9.3710     -8.9885
    39         C         14.8549      9.0459     -8.6546
    40         S         14.7991      8.3693     -6.9634
    41         C         16.0447      9.2749     -9.4855
    42         C         17.1343      8.4794     -9.5046
    43         C         18.2790      8.7943    -10.3801
    44         O         19.2464      8.0324    -10.4287
    45         O         18.3227      9.9468    -11.0903
    46         C         17.2081      7.2880     -8.7131
    47         N         17.2708      6.3247     -8.0747
    48         H         16.0201     10.1094    -10.1283
    49         H         -0.3744      0.5013     -0.8936
    50         H         -0.3606     -1.0296      0.0075
    51         H         -0.3775      0.5137      0.8852
    52         H          1.8951     -0.5295      0.8913
    53         H          1.9067     -0.5301     -0.8856
    54         H          1.7694      1.9739     -0.8876
    55         H          1.7654      1.9633      0.8926
    56         H          4.0125      0.8299      0.8541
    57         H          4.0259      0.9508     -0.9148
    58         H          4.0097      3.4183     -0.8061
    59         H          3.8169      3.3578      0.9601
    60         H          6.0312      2.1165      1.0836
    61         H          6.2594      2.4360     -0.6486
    62         H          6.3693      4.8423     -0.2747
    63         H          5.7576      4.6718      1.3783
    64         H          7.9023      3.1924      1.7941
    65         H          8.5170      3.9255      0.3129
    66         H          6.1398      4.3025      3.6050
    67         H          6.1685      4.6406      6.1025
    68         H          8.0099      5.7451      7.1592
    69         H          9.9305      6.6223      5.7842
    70         H         12.6907      7.9058     -0.9385
    71         H         12.8551      7.7896      1.7768
    72         H         12.5761      5.3110      4.5229
    73         H         13.7137      5.7913      6.7067
    74         H         13.7483      8.0264      7.5780
    75         H         12.6652      9.8975      6.2898
    76         H         11.5646      9.4435      4.2106
    77         H          9.3429      7.2269     -4.1421
    78         H         10.2685      7.8965     -6.4632
    79         H         11.5286      9.2528     -8.1547
    80         H         13.3463      9.8115     -9.9103
    81         H         19.0772     10.1701    -11.6069

  H: (RM1): G.B. ROCHA, R.O. FREIRE, A.M.SIMAS, J.J.P. STEWART, J. COMP. CHEM. 27, 1101 (2006)
  C: (RM1): G.B. ROCHA, R.O. FREIRE, A.M.SIMAS, J.J.P. STEWART, J. COMP. CHEM. 27, 1101 (2006)
  N: (RM1): G.B. ROCHA, R.O. FREIRE, A.M.SIMAS, J.J.P. STEWART, J. COMP. CHEM. 27, 1101 (2006)
  O: (RM1): G.B. ROCHA, R.O. FREIRE, A.M.SIMAS, J.J.P. STEWART, J. COMP. CHEM. 27, 1101 (2006)
  S: (RM1): G.B. ROCHA, R.O. FREIRE, A.M.SIMAS, J.J.P. STEWART, J. COMP. CHEM. 27, 1101 (2006)

           Empirical Formula: C40 H34 N2 O2 S3  =    81 atoms



      MOLECULAR POINT GROUP   :   C1  


      RHF CALCULATION, NO. OF DOUBLY OCCUPIED LEVELS = 117


          Geometry optimization using L-BFGS
 CYCLE:     1 TIME:   0.270 TIME LEFT:  2.00D  GRAD.:   530.799 HEAT:  161.5117
 CYCLE:     2 TIME:   0.164 TIME LEFT:  2.00D  GRAD.:   474.155 HEAT:  158.8698
 CYCLE:     3 TIME:   0.191 TIME LEFT:  2.00D  GRAD.:   556.533 HEAT:  145.0463
 CYCLE:     4 TIME:   0.195 TIME LEFT:  2.00D  GRAD.:   474.865 HEAT:  158.8695
 CYCLE:     5 TIME:   0.207 TIME LEFT:  2.00D  GRAD.:   558.064 HEAT:  145.0604
 CYCLE:     6 TIME:   0.223 TIME LEFT:  2.00D  GRAD.:   540.042 HEAT:  136.7056
 CYCLE:     7 TIME:   0.191 TIME LEFT:  2.00D  GRAD.:   382.001 HEAT:  129.6936
 CYCLE:     8 TIME:   0.199 TIME LEFT:  2.00D  GRAD.:   389.311 HEAT:  120.4567
 CYCLE:     9 TIME:   0.203 TIME LEFT:  2.00D  GRAD.:   363.834 HEAT:  107.0639
 CYCLE:    10 TIME:   0.207 TIME LEFT:  2.00D  GRAD.:   328.868 HEAT:  99.65553
 CYCLE:    11 TIME:   0.207 TIME LEFT:  2.00D  GRAD.:   138.828 HEAT:  96.39393
 CYCLE:    12 TIME:   0.172 TIME LEFT:  2.00D  GRAD.:    96.121 HEAT:  95.54769
 CYCLE:    13 TIME:   0.152 TIME LEFT:  2.00D  GRAD.:   114.326 HEAT:  94.48683
 CYCLE:    14 TIME:   0.145 TIME LEFT:  2.00D  GRAD.:   124.346 HEAT:  93.14502
 CYCLE:    15 TIME:   0.219 TIME LEFT:  2.00D  GRAD.:   133.553 HEAT:  91.44291
 CYCLE:    16 TIME:   0.160 TIME LEFT:  2.00D  GRAD.:   145.362 HEAT:  90.24260
 CYCLE:    17 TIME:   0.164 TIME LEFT:  2.00D  GRAD.:    78.658 HEAT:  89.66563
 CYCLE:    18 TIME:   0.156 TIME LEFT:  2.00D  GRAD.:    72.245 HEAT:  89.24142
 CYCLE:    19 TIME:   0.172 TIME LEFT:  2.00D  GRAD.:    55.590 HEAT:  88.70520
 CYCLE:    20 TIME:   0.160 TIME LEFT:  2.00D  GRAD.:   121.257 HEAT:  88.20061
 CYCLE:    21 TIME:   0.152 TIME LEFT:  2.00D  GRAD.:    55.666 HEAT:  87.87894
 CYCLE:    22 TIME:   0.145 TIME LEFT:  2.00D  GRAD.:    45.719 HEAT:  87.72060
 CYCLE:    23 TIME:   0.156 TIME LEFT:  2.00D  GRAD.:    34.662 HEAT:  87.34503
 CYCLE:    24 TIME:   0.156 TIME LEFT:  2.00D  GRAD.:    36.199 HEAT:  87.06854
 CYCLE:    25 TIME:   0.160 TIME LEFT:  2.00D  GRAD.:    59.798 HEAT:  86.89341
 CYCLE:    26 TIME:   0.164 TIME LEFT:  2.00D  GRAD.:    52.147 HEAT:  86.77510
 CYCLE:    27 TIME:   0.160 TIME LEFT:  2.00D  GRAD.:    25.740 HEAT:  86.68071
 CYCLE:    28 TIME:   0.145 TIME LEFT:  2.00D  GRAD.:    23.383 HEAT:  86.58824
 CYCLE:    29 TIME:   0.148 TIME LEFT:  2.00D  GRAD.:    25.652 HEAT:  86.48778
 CYCLE:    30 TIME:   0.160 TIME LEFT:  2.00D  GRAD.:   167.031 HEAT:  86.65723
 CYCLE:    31 TIME:   0.156 TIME LEFT:  2.00D  GRAD.:    29.356 HEAT:  86.37098
 CYCLE:    32 TIME:   0.152 TIME LEFT:  2.00D  GRAD.:    17.808 HEAT:  86.34819
 CYCLE:    33 TIME:   0.168 TIME LEFT:  2.00D  GRAD.:    19.416 HEAT:  86.30946
 CYCLE:    34 TIME:   0.160 TIME LEFT:  2.00D  GRAD.:    22.603 HEAT:  86.28091
 CYCLE:    35 TIME:   0.168 TIME LEFT:  2.00D  GRAD.:   139.457 HEAT:  86.41424
 CYCLE:    36 TIME:   0.145 TIME LEFT:  2.00D  GRAD.:    25.180 HEAT:  86.22191
 CYCLE:    37 TIME:   0.156 TIME LEFT:  2.00D  GRAD.:    16.838 HEAT:  86.20628
 CYCLE:    38 TIME:   0.172 TIME LEFT:  2.00D  GRAD.:    25.327 HEAT:  86.17086
 CYCLE:    39 TIME:   0.180 TIME LEFT:  2.00D  GRAD.:    27.867 HEAT:  86.14252
 CYCLE:    40 TIME:   0.156 TIME LEFT:  2.00D  GRAD.:    49.964 HEAT:  86.04230
 CYCLE:    41 TIME:   0.152 TIME LEFT:  2.00D  GRAD.:    48.000 HEAT:  85.99788
 CYCLE:    42 TIME:   0.156 TIME LEFT:  2.00D  GRAD.:    28.224 HEAT:  85.92712
 CYCLE:    43 TIME:   0.168 TIME LEFT:  2.00D  GRAD.:    17.279 HEAT:  85.87839
 CYCLE:    44 TIME:   0.152 TIME LEFT:  2.00D  GRAD.:    30.213 HEAT:  85.82250
 CYCLE:    45 TIME:   0.160 TIME LEFT:  2.00D  GRAD.:    34.545 HEAT:  85.77083
 CYCLE:    46 TIME:   0.164 TIME LEFT:  2.00D  GRAD.:    29.625 HEAT:  85.69356
 CYCLE:    47 TIME:   0.168 TIME LEFT:  2.00D  GRAD.:    50.981 HEAT:  85.63633
 CYCLE:    48 TIME:   0.168 TIME LEFT:  2.00D  GRAD.:    45.812 HEAT:  85.60518
 CYCLE:    49 TIME:   0.160 TIME LEFT:  2.00D  GRAD.:    22.976 HEAT:  85.52799
 CYCLE:    50 TIME:   0.172 TIME LEFT:  2.00D  GRAD.:    16.181 HEAT:  85.49784
 CYCLE:    51 TIME:   0.180 TIME LEFT:  2.00D  GRAD.:    38.142 HEAT:  85.48127
 CYCLE:    52 TIME:   0.188 TIME LEFT:  2.00D  GRAD.:    26.801 HEAT:  85.40663
 CYCLE:    53 TIME:   0.184 TIME LEFT:  2.00D  GRAD.:   113.214 HEAT:  85.45766
 CYCLE:    54 TIME:   0.152 TIME LEFT:  2.00D  GRAD.:    14.526 HEAT:  85.36655
 CYCLE:    55 TIME:   0.145 TIME LEFT:  2.00D  GRAD.:    11.934 HEAT:  85.36046
 CYCLE:    56 TIME:   0.188 TIME LEFT:  2.00D  GRAD.:    36.745 HEAT:  85.36320
 CYCLE:    57 TIME:   0.184 TIME LEFT:  2.00D  GRAD.:    23.333 HEAT:  85.32957
 CYCLE:    58 TIME:   0.172 TIME LEFT:  2.00D  GRAD.:     9.028 HEAT:  85.30962
 CYCLE:    59 TIME:   0.172 TIME LEFT:  2.00D  GRAD.:    18.415 HEAT:  85.26885
 CYCLE:    60 TIME:   0.184 TIME LEFT:  2.00D  GRAD.:    22.104 HEAT:  85.22448
 CYCLE:    61 TIME:   0.172 TIME LEFT:  2.00D  GRAD.:    67.039 HEAT:  85.26545
 CYCLE:    62 TIME:   0.176 TIME LEFT:  2.00D  GRAD.:    16.122 HEAT:  85.14878
 CYCLE:    63 TIME:   0.152 TIME LEFT:  2.00D  GRAD.:     9.743 HEAT:  85.12730
 CYCLE:    64 TIME:   0.148 TIME LEFT:  2.00D  GRAD.:    21.074 HEAT:  85.10146
 CYCLE:    65 TIME:   0.152 TIME LEFT:  2.00D  GRAD.:    17.387 HEAT:  85.07336
 CYCLE:    66 TIME:   0.148 TIME LEFT:  2.00D  GRAD.:    16.762 HEAT:  85.03283
 CYCLE:    67 TIME:   0.172 TIME LEFT:  2.00D  GRAD.:    50.582 HEAT:  85.00497
 CYCLE:    68 TIME:   0.156 TIME LEFT:  2.00D  GRAD.:    22.866 HEAT:  84.97908
 CYCLE:    69 TIME:   0.156 TIME LEFT:  2.00D  GRAD.:    20.383 HEAT:  84.96710
 CYCLE:    70 TIME:   0.215 TIME LEFT:  2.00D  GRAD.:    21.964 HEAT:  84.93133
 CYCLE:    71 TIME:   0.184 TIME LEFT:  2.00D  GRAD.:    41.509 HEAT:  84.89749
 CYCLE:    72 TIME:   0.207 TIME LEFT:  2.00D  GRAD.:    22.919 HEAT:  84.84166
 CYCLE:    73 TIME:   0.215 TIME LEFT:  2.00D  GRAD.:    14.672 HEAT:  84.79136
 CYCLE:    74 TIME:   0.207 TIME LEFT:  2.00D  GRAD.:    15.752 HEAT:  84.75610
 CYCLE:    75 TIME:   0.152 TIME LEFT:  2.00D  GRAD.:    18.501 HEAT:  84.67720
 CYCLE:    76 TIME:   0.168 TIME LEFT:  2.00D  GRAD.:    32.745 HEAT:  84.64838
 CYCLE:    77 TIME:   0.152 TIME LEFT:  2.00D  GRAD.:    21.152 HEAT:  84.59139
 CYCLE:    78 TIME:   0.152 TIME LEFT:  2.00D  GRAD.:    15.394 HEAT:  84.55636
 CYCLE:    79 TIME:   0.145 TIME LEFT:  2.00D  GRAD.:    17.309 HEAT:  84.52047
 CYCLE:    80 TIME:   0.160 TIME LEFT:  2.00D  GRAD.:    18.657 HEAT:  84.46358
 CYCLE:    81 TIME:   0.215 TIME LEFT:  2.00D  GRAD.:    49.430 HEAT:  84.42247
 CYCLE:    82 TIME:   0.270 TIME LEFT:  2.00D  GRAD.:   164.908 HEAT:  84.54331
 CYCLE:    83 TIME:   0.246 TIME LEFT:  2.00D  GRAD.:    21.079 HEAT:  84.34477
 CYCLE:    84 TIME:   0.441 TIME LEFT:  2.00D  GRAD.:    16.208 HEAT:  84.33041
 CYCLE:    85 TIME:   0.391 TIME LEFT:  2.00D  GRAD.:    19.729 HEAT:  84.31073
 CYCLE:    86 TIME:   0.258 TIME LEFT:  2.00D  GRAD.:    18.525 HEAT:  84.28223
 CYCLE:    87 TIME:   0.363 TIME LEFT:  2.00D  GRAD.:    58.246 HEAT:  84.26310
 CYCLE:    88 TIME:   0.281 TIME LEFT:  2.00D  GRAD.:    13.848 HEAT:  84.19257
 CYCLE:    89 TIME:   0.289 TIME LEFT:  2.00D  GRAD.:    13.384 HEAT:  84.17562
 CYCLE:    90 TIME:   0.320 TIME LEFT:  2.00D  GRAD.:    16.832 HEAT:  84.14523
 CYCLE:    91 TIME:   0.430 TIME LEFT:  2.00D  GRAD.:    16.394 HEAT:  84.10038
 CYCLE:    92 TIME:   0.238 TIME LEFT:  2.00D  GRAD.:    58.556 HEAT:  84.07776
 CYCLE:    93 TIME:   0.309 TIME LEFT:  2.00D  GRAD.:    15.171 HEAT:  83.98817
 CYCLE:    94 TIME:   0.375 TIME LEFT:  2.00D  GRAD.:     9.117 HEAT:  83.96830
 CYCLE:    95 TIME:   0.379 TIME LEFT:  2.00D  GRAD.:    10.847 HEAT:  83.94809
 CYCLE:    96 TIME:   0.398 TIME LEFT:  2.00D  GRAD.:    15.749 HEAT:  83.91504
 CYCLE:    97 TIME:   0.273 TIME LEFT:  2.00D  GRAD.:   174.408 HEAT:  84.06895
 CYCLE:    98 TIME:   0.312 TIME LEFT:  2.00D  GRAD.:    15.806 HEAT:  83.88928
 CYCLE:    99 TIME:   0.320 TIME LEFT:  2.00D  GRAD.:    12.188 HEAT:  83.88369
 CYCLE:   100 TIME:   0.285 TIME LEFT:  2.00D  GRAD.:     9.216 HEAT:  83.86961
 CYCLE:   101 TIME:   0.258 TIME LEFT:  2.00D  GRAD.:    10.653 HEAT:  83.85650
 CYCLE:   102 TIME:   0.246 TIME LEFT:  2.00D  GRAD.:    21.488 HEAT:  83.83182
 CYCLE:   103 TIME:   0.273 TIME LEFT:  2.00D  GRAD.:    14.607 HEAT:  83.80791
 CYCLE:   104 TIME:   0.223 TIME LEFT:  2.00D  GRAD.:    10.871 HEAT:  83.78637
 CYCLE:   105 TIME:   0.258 TIME LEFT:  2.00D  GRAD.:    11.248 HEAT:  83.75807
 CYCLE:   106 TIME:   0.414 TIME LEFT:  2.00D  GRAD.:    20.639 HEAT:  83.73219
 CYCLE:   107 TIME:   0.371 TIME LEFT:  2.00D  GRAD.:    13.927 HEAT:  83.70375
 CYCLE:   108 TIME:   0.410 TIME LEFT:  2.00D  GRAD.:    12.022 HEAT:  83.67471
 CYCLE:   109 TIME:   0.379 TIME LEFT:  2.00D  GRAD.:    12.529 HEAT:  83.65352
 CYCLE:   110 TIME:   0.398 TIME LEFT:  2.00D  GRAD.:    13.249 HEAT:  83.62872
 CYCLE:   111 TIME:   0.266 TIME LEFT:  2.00D  GRAD.:    72.064 HEAT:  83.62127
 CYCLE:   112 TIME:   0.367 TIME LEFT:  2.00D  GRAD.:    18.532 HEAT:  83.58810
 CYCLE:   113 TIME:   0.281 TIME LEFT:  2.00D  GRAD.:    10.013 HEAT:  83.57859
 CYCLE:   114 TIME:   0.289 TIME LEFT:  2.00D  GRAD.:    17.922 HEAT:  83.56552
 CYCLE:   115 TIME:   0.305 TIME LEFT:  2.00D  GRAD.:    16.919 HEAT:  83.55052
 CYCLE:   116 TIME:   0.359 TIME LEFT:  2.00D  GRAD.:    49.532 HEAT:  83.55458
 CYCLE:   117 TIME:   0.414 TIME LEFT:  2.00D  GRAD.:    13.913 HEAT:  83.49192
 CYCLE:   118 TIME:   0.219 TIME LEFT:  2.00D  GRAD.:     6.879 HEAT:  83.48072
 CYCLE:   119 TIME:   0.215 TIME LEFT:  2.00D  GRAD.:     9.230 HEAT:  83.46783
 CYCLE:   120 TIME:   0.234 TIME LEFT:  2.00D  GRAD.:     9.434 HEAT:  83.45716
 CYCLE:   121 TIME:   0.500 TIME LEFT:  2.00D  GRAD.:    23.833 HEAT:  83.44495
 CYCLE:   122 TIME:   0.363 TIME LEFT:  2.00D  GRAD.:    19.097 HEAT:  83.42237
 CYCLE:   123 TIME:   0.395 TIME LEFT:  2.00D  GRAD.:     9.786 HEAT:  83.41339
 CYCLE:   124 TIME:   0.336 TIME LEFT:  2.00D  GRAD.:     8.340 HEAT:  83.40578
 CYCLE:   125 TIME:   0.340 TIME LEFT:  2.00D  GRAD.:     8.404 HEAT:  83.39892
 CYCLE:   126 TIME:   0.414 TIME LEFT:  2.00D  GRAD.:   111.491 HEAT:  83.47225
 CYCLE:   127 TIME:   0.336 TIME LEFT:  2.00D  GRAD.:    15.667 HEAT:  83.38748
 CYCLE:   128 TIME:   0.324 TIME LEFT:  2.00D  GRAD.:     8.649 HEAT:  83.37844
 CYCLE:   129 TIME:   0.309 TIME LEFT:  2.00D  GRAD.:    10.427 HEAT:  83.37407
 CYCLE:   130 TIME:   0.410 TIME LEFT:  2.00D  GRAD.:    16.356 HEAT:  83.36313
 CYCLE:   131 TIME:   0.371 TIME LEFT:  2.00D  GRAD.:     8.214 HEAT:  83.34952
 CYCLE:   132 TIME:   0.344 TIME LEFT:  2.00D  GRAD.:     8.471 HEAT:  83.33806
 CYCLE:   133 TIME:   0.316 TIME LEFT:  2.00D  GRAD.:    30.721 HEAT:  83.33302
 CYCLE:   134 TIME:   0.273 TIME LEFT:  2.00D  GRAD.:     9.298 HEAT:  83.32254
 CYCLE:   135 TIME:   0.344 TIME LEFT:  2.00D  GRAD.:     5.878 HEAT:  83.31888
 CYCLE:   136 TIME:   0.406 TIME LEFT:  2.00D  GRAD.:    12.834 HEAT:  83.31262
 CYCLE:   137 TIME:   0.414 TIME LEFT:  2.00D  GRAD.:    12.706 HEAT:  83.30748
 CYCLE:   138 TIME:   0.371 TIME LEFT:  2.00D  GRAD.:    84.274 HEAT:  83.39022
 CYCLE:   139 TIME:   0.406 TIME LEFT:  2.00D  GRAD.:     7.097 HEAT:  83.29546
 CYCLE:   140 TIME:   0.320 TIME LEFT:  2.00D  GRAD.:     6.096 HEAT:  83.29300
 CYCLE:   141 TIME:   0.449 TIME LEFT:  2.00D  GRAD.:    16.192 HEAT:  83.28420
 CYCLE:   142 TIME:   0.398 TIME LEFT:  2.00D  GRAD.:     7.038 HEAT:  83.27376
 CYCLE:   143 TIME:   0.441 TIME LEFT:  2.00D  GRAD.:     5.496 HEAT:  83.26888
 CYCLE:   144 TIME:   0.387 TIME LEFT:  2.00D  GRAD.:     6.354 HEAT:  83.26209
 CYCLE:   145 TIME:   0.312 TIME LEFT:  2.00D  GRAD.:    10.751 HEAT:  83.25477
 CYCLE:   146 TIME:   0.242 TIME LEFT:  2.00D  GRAD.:     5.632 HEAT:  83.24773
 CYCLE:   147 TIME:   0.211 TIME LEFT:  2.00D  GRAD.:     6.349 HEAT:  83.24384
 CYCLE:   148 TIME:   0.227 TIME LEFT:  2.00D  GRAD.:    20.490 HEAT:  83.24416
 CYCLE:   149 TIME:   0.246 TIME LEFT:  2.00D  GRAD.:     5.926 HEAT:  83.23798
 CYCLE:   150 TIME:   0.273 TIME LEFT:  2.00D  GRAD.:     4.493 HEAT:  83.23658
 CYCLE:   151 TIME:   0.324 TIME LEFT:  2.00D  GRAD.:     4.707 HEAT:  83.23253
 CYCLE:   152 TIME:   0.227 TIME LEFT:  2.00D  GRAD.:     6.225 HEAT:  83.22896
 CYCLE:   153 TIME:   0.355 TIME LEFT:  2.00D  GRAD.:    14.262 HEAT:  83.22807
 CYCLE:   154 TIME:   0.289 TIME LEFT:  2.00D  GRAD.:     4.565 HEAT:  83.22452
 CYCLE:   155 TIME:   0.340 TIME LEFT:  2.00D  GRAD.:     3.980 HEAT:  83.22353
 CYCLE:   156 TIME:   0.395 TIME LEFT:  2.00D  GRAD.:     6.183 HEAT:  83.22086
 CYCLE:   157 TIME:   0.395 TIME LEFT:  2.00D  GRAD.:    15.095 HEAT:  83.22034
 CYCLE:   158 TIME:   0.297 TIME LEFT:  2.00D  GRAD.:     4.678 HEAT:  83.21689
 CYCLE:   159 TIME:   0.227 TIME LEFT:  2.00D  GRAD.:     3.951 HEAT:  83.21565
 CYCLE:   160 TIME:   0.227 TIME LEFT:  2.00D  GRAD.:     8.007 HEAT:  83.21428
 CYCLE:   161 TIME:   0.375 TIME LEFT:  2.00D  GRAD.:     6.191 HEAT:  83.21000
 CYCLE:   162 TIME:   0.336 TIME LEFT:  2.00D  GRAD.:    25.441 HEAT:  83.21417
 CYCLE:   163 TIME:   0.395 TIME LEFT:  2.00D  GRAD.:     5.111 HEAT:  83.20636
 CYCLE:   164 TIME:   0.305 TIME LEFT:  2.00D  GRAD.:     3.707 HEAT:  83.20519
 CYCLE:   165 TIME:   0.398 TIME LEFT:  2.00D  GRAD.:     3.798 HEAT:  83.20188
 CYCLE:   166 TIME:   0.301 TIME LEFT:  2.00D  GRAD.:     3.197 HEAT:  83.19944
 CYCLE:   167 TIME:   0.375 TIME LEFT:  2.00D  GRAD.:     7.110 HEAT:  83.19537
 CYCLE:   168 TIME:   0.387 TIME LEFT:  2.00D  GRAD.:    23.777 HEAT:  83.20016
 CYCLE:   169 TIME:   0.406 TIME LEFT:  2.00D  GRAD.:     6.994 HEAT:  83.19281
 CYCLE:   170 TIME:   0.309 TIME LEFT:  2.00D  GRAD.:     4.057 HEAT:  83.19130
 CYCLE:   171 TIME:   0.258 TIME LEFT:  2.00D  GRAD.:     4.347 HEAT:  83.19020
 CYCLE:   172 TIME:   0.371 TIME LEFT:  2.00D  GRAD.:     6.090 HEAT:  83.18834
 CYCLE:   173 TIME:   0.344 TIME LEFT:  2.00D  GRAD.:     5.799 HEAT:  83.18560
 CYCLE:   174 TIME:   0.312 TIME LEFT:  2.00D  GRAD.:    23.292 HEAT:  83.18552
 CYCLE:   175 TIME:   0.359 TIME LEFT:  2.00D  GRAD.:     4.559 HEAT:  83.17984
 CYCLE:   176 TIME:   0.316 TIME LEFT:  2.00D  GRAD.:     4.209 HEAT:  83.17883
 CYCLE:   177 TIME:   0.422 TIME LEFT:  2.00D  GRAD.:     6.441 HEAT:  83.17651
 CYCLE:   178 TIME:   0.410 TIME LEFT:  2.00D  GRAD.:     6.935 HEAT:  83.17325
 CYCLE:   179 TIME:   0.352 TIME LEFT:  2.00D  GRAD.:    14.711 HEAT:  83.16835
 CYCLE:   180 TIME:   0.344 TIME LEFT:  2.00D  GRAD.:     9.297 HEAT:  83.16343
 CYCLE:   181 TIME:   0.324 TIME LEFT:  2.00D  GRAD.:     5.076 HEAT:  83.16073
 CYCLE:   182 TIME:   0.246 TIME LEFT:  2.00D  GRAD.:     4.356 HEAT:  83.15837
 CYCLE:   183 TIME:   0.273 TIME LEFT:  2.00D  GRAD.:     4.477 HEAT:  83.15559
 CYCLE:   184 TIME:   0.297 TIME LEFT:  2.00D  GRAD.:     6.197 HEAT:  83.14974
 CYCLE:   185 TIME:   0.297 TIME LEFT:  2.00D  GRAD.:    20.047 HEAT:  83.15308
 CYCLE:   186 TIME:   0.324 TIME LEFT:  2.00D  GRAD.:    18.412 HEAT:  83.15231
 CYCLE:   187 TIME:   0.352 TIME LEFT:  2.00D  GRAD.:     4.620 HEAT:  83.14195
 CYCLE:   188 TIME:   0.324 TIME LEFT:  2.00D  GRAD.:     3.871 HEAT:  83.14052
 CYCLE:   189 TIME:   0.305 TIME LEFT:  2.00D  GRAD.:     8.546 HEAT:  83.13906
 CYCLE:   190 TIME:   0.359 TIME LEFT:  2.00D  GRAD.:    20.111 HEAT:  83.13855
 CYCLE:   191 TIME:   0.336 TIME LEFT:  2.00D  GRAD.:     5.691 HEAT:  83.13438
 CYCLE:   192 TIME:   0.395 TIME LEFT:  2.00D  GRAD.:     3.684 HEAT:  83.13198
 CYCLE:   193 TIME:   0.246 TIME LEFT:  2.00D  GRAD.:     6.589 HEAT:  83.12857
 CYCLE:   194 TIME:   0.281 TIME LEFT:  2.00D  GRAD.:     5.025 HEAT:  83.12592
 CYCLE:   195 TIME:   0.246 TIME LEFT:  2.00D  GRAD.:    10.347 HEAT:  83.12438
 CYCLE:   196 TIME:   0.309 TIME LEFT:  2.00D  GRAD.:     6.096 HEAT:  83.12094
 CYCLE:   197 TIME:   0.277 TIME LEFT:  2.00D  GRAD.:     7.054 HEAT:  83.11927
 CYCLE:   198 TIME:   0.355 TIME LEFT:  2.00D  GRAD.:     7.730 HEAT:  83.11431
 CYCLE:   199 TIME:   0.258 TIME LEFT:  2.00D  GRAD.:     6.909 HEAT:  83.10779
 CYCLE:   200 TIME:   0.312 TIME LEFT:  2.00D  GRAD.:     5.200 HEAT:  83.10109
 CYCLE:   201 TIME:   0.309 TIME LEFT:  2.00D  GRAD.:     5.569 HEAT:  83.09563
 CYCLE:   202 TIME:   0.457 TIME LEFT:  2.00D  GRAD.:    30.334 HEAT:  83.11098
 CYCLE:   203 TIME:   0.496 TIME LEFT:  2.00D  GRAD.:     3.787 HEAT:  83.09066
 CYCLE:   204 TIME:   0.434 TIME LEFT:  2.00D  GRAD.:     3.275 HEAT:  83.08945
 CYCLE:   205 TIME:   0.270 TIME LEFT:  2.00D  GRAD.:    12.484 HEAT:  83.08736
 CYCLE:   206 TIME:   0.297 TIME LEFT:  2.00D  GRAD.:     4.552 HEAT:  83.08549
 CYCLE:   207 TIME:   0.336 TIME LEFT:  2.00D  GRAD.:     3.960 HEAT:  83.08440
 CYCLE:   208 TIME:   0.461 TIME LEFT:  2.00D  GRAD.:     4.158 HEAT:  83.08016
 CYCLE:   209 TIME:   0.277 TIME LEFT:  2.00D  GRAD.:     6.631 HEAT:  83.07630
 CYCLE:   210 TIME:   0.352 TIME LEFT:  2.00D  GRAD.:    15.524 HEAT:  83.07457
 CYCLE:   211 TIME:   0.305 TIME LEFT:  2.00D  GRAD.:     6.283 HEAT:  83.06947
 CYCLE:   212 TIME:   0.371 TIME LEFT:  2.00D  GRAD.:     3.947 HEAT:  83.06663
 CYCLE:   213 TIME:   0.281 TIME LEFT:  2.00D  GRAD.:     4.234 HEAT:  83.06501
 CYCLE:   214 TIME:   0.273 TIME LEFT:  2.00D  GRAD.:     5.832 HEAT:  83.05951
 CYCLE:   215 TIME:   0.328 TIME LEFT:  2.00D  GRAD.:     6.411 HEAT:  83.05336
 CYCLE:   216 TIME:   0.305 TIME LEFT:  2.00D  GRAD.:     7.750 HEAT:  83.04707
 CYCLE:   217 TIME:   0.332 TIME LEFT:  2.00D  GRAD.:     6.550 HEAT:  83.04374
 CYCLE:   218 TIME:   0.312 TIME LEFT:  2.00D  GRAD.:     3.030 HEAT:  83.04227
 CYCLE:   219 TIME:   0.266 TIME LEFT:  2.00D  GRAD.:     4.581 HEAT:  83.04137
 CYCLE:   220 TIME:   0.285 TIME LEFT:  2.00D  GRAD.:     7.872 HEAT:  83.04056
 CYCLE:   221 TIME:   0.281 TIME LEFT:  2.00D  GRAD.:     4.711 HEAT:  83.03962
 CYCLE:   222 TIME:   0.281 TIME LEFT:  2.00D  GRAD.:     3.279 HEAT:  83.03806
 CYCLE:   223 TIME:   0.273 TIME LEFT:  2.00D  GRAD.:     4.223 HEAT:  83.03679
 CYCLE:   224 TIME:   0.430 TIME LEFT:  2.00D  GRAD.:     7.341 HEAT:  83.03406
 CYCLE:   225 TIME:   0.340 TIME LEFT:  2.00D  GRAD.:    12.182 HEAT:  83.03401
 CYCLE:   226 TIME:   0.320 TIME LEFT:  2.00D  GRAD.:     3.779 HEAT:  83.03131
 CYCLE:   227 TIME:   0.273 TIME LEFT:  2.00D  GRAD.:     3.769 HEAT:  83.03016
 CYCLE:   228 TIME:   0.426 TIME LEFT:  2.00D  GRAD.:     3.088 HEAT:  83.02873
 CYCLE:   229 TIME:   0.332 TIME LEFT:  2.00D  GRAD.:     3.245 HEAT:  83.02618
 CYCLE:   230 TIME:   0.438 TIME LEFT:  2.00D  GRAD.:     3.999 HEAT:  83.02477
 CYCLE:   231 TIME:   0.332 TIME LEFT:  2.00D  GRAD.:     7.916 HEAT:  83.02426
 CYCLE:   232 TIME:   0.387 TIME LEFT:  2.00D  GRAD.:     3.889 HEAT:  83.02205
 CYCLE:   233 TIME:   0.281 TIME LEFT:  2.00D  GRAD.:     3.645 HEAT:  83.02054
 CYCLE:   234 TIME:   0.355 TIME LEFT:  2.00D  GRAD.:     4.505 HEAT:  83.01932
 CYCLE:   235 TIME:   0.270 TIME LEFT:  2.00D  GRAD.:     8.716 HEAT:  83.01870
 CYCLE:   236 TIME:   0.277 TIME LEFT:  2.00D  GRAD.:     3.953 HEAT:  83.01760
 CYCLE:   237 TIME:   0.328 TIME LEFT:  2.00D  GRAD.:     3.215 HEAT:  83.01697
 CYCLE:   238 TIME:   0.301 TIME LEFT:  2.00D  GRAD.:     5.396 HEAT:  83.01650
 CYCLE:   239 TIME:   0.230 TIME LEFT:  2.00D  GRAD.:     3.027 HEAT:  83.01542
 CYCLE:   240 TIME:   0.215 TIME LEFT:  2.00D  GRAD.:     2.501 HEAT:  83.01469
 CYCLE:   241 TIME:   0.352 TIME LEFT:  2.00D  GRAD.:     4.019 HEAT:  83.01379
 CYCLE:   242 TIME:   0.281 TIME LEFT:  2.00D  GRAD.:     4.177 HEAT:  83.01271
 CYCLE:   243 TIME:   0.285 TIME LEFT:  2.00D  GRAD.:     2.806 HEAT:  83.01127
 CYCLE:   244 TIME:   0.285 TIME LEFT:  2.00D  GRAD.:     2.188 HEAT:  83.01011
 CYCLE:   245 TIME:   0.234 TIME LEFT:  2.00D  GRAD.:     1.699 HEAT:  83.00927
 CYCLE:   246 TIME:   0.340 TIME LEFT:  2.00D  GRAD.:     2.992 HEAT:  83.00841
 CYCLE:   247 TIME:   0.383 TIME LEFT:  2.00D  GRAD.:     2.915 HEAT:  83.00720
 CYCLE:   248 TIME:   0.410 TIME LEFT:  2.00D  GRAD.:     2.207 HEAT:  83.00591
 CYCLE:   249 TIME:   0.348 TIME LEFT:  2.00D  GRAD.:    27.310 HEAT:  83.00971
 CYCLE:   250 TIME:   0.391 TIME LEFT:  2.00D  GRAD.:     2.702 HEAT:  83.00455
 CYCLE:   251 TIME:   0.371 TIME LEFT:  2.00D  GRAD.:     2.012 HEAT:  83.00437
 CYCLE:   252 TIME:   0.332 TIME LEFT:  2.00D  GRAD.:     2.682 HEAT:  83.00379
 CYCLE:   253 TIME:   0.445 TIME LEFT:  2.00D  GRAD.:     2.665 HEAT:  83.00330
 CYCLE:   254 TIME:   0.391 TIME LEFT:  2.00D  GRAD.:     6.484 HEAT:  83.00308
 CYCLE:   255 TIME:   0.328 TIME LEFT:  2.00D  GRAD.:     2.422 HEAT:  83.00157
 CYCLE:   256 TIME:   0.289 TIME LEFT:  2.00D  GRAD.:     1.812 HEAT:  83.00107
 CYCLE:   257 TIME:   0.375 TIME LEFT:  2.00D  GRAD.:     2.894 HEAT:  83.00042
 CYCLE:   258 TIME:   0.246 TIME LEFT:  2.00D  GRAD.:     2.997 HEAT:  82.99965
 CYCLE:   259 TIME:   0.227 TIME LEFT:  2.00D  GRAD.:     2.397 HEAT:  82.99884
 CYCLE:   260 TIME:   0.336 TIME LEFT:  2.00D  GRAD.:     2.098 HEAT:  82.99756
 CYCLE:   261 TIME:   0.301 TIME LEFT:  2.00D  GRAD.:     6.817 HEAT:  82.99732
 CYCLE:   262 TIME:   0.371 TIME LEFT:  2.00D  GRAD.:     1.804 HEAT:  82.99613
 CYCLE:   263 TIME:   0.398 TIME LEFT:  2.00D  GRAD.:     1.835 HEAT:  82.99571
 CYCLE:   264 TIME:   0.316 TIME LEFT:  2.00D  GRAD.:     7.294 HEAT:  82.99477
 CYCLE:   265 TIME:   0.242 TIME LEFT:  2.00D  GRAD.:    13.766 HEAT:  82.99594
 CYCLE:   266 TIME:   0.332 TIME LEFT:  2.00D  GRAD.:     2.098 HEAT:  82.99398
 CYCLE:   267 TIME:   0.332 TIME LEFT:  2.00D  GRAD.:     1.926 HEAT:  82.99373
 CYCLE:   268 TIME:   0.398 TIME LEFT:  2.00D  GRAD.:     2.496 HEAT:  82.99308
 CYCLE:   269 TIME:   0.316 TIME LEFT:  2.00D  GRAD.:     2.537 HEAT:  82.99245
 CYCLE:   270 TIME:   0.418 TIME LEFT:  2.00D  GRAD.:     5.645 HEAT:  82.99212
 CYCLE:   271 TIME:   0.273 TIME LEFT:  2.00D  GRAD.:     4.423 HEAT:  82.99103
 CYCLE:   272 TIME:   0.289 TIME LEFT:  2.00D  GRAD.:     1.893 HEAT:  82.99062
 CYCLE:   273 TIME:   0.367 TIME LEFT:  2.00D  GRAD.:     1.969 HEAT:  82.99030
 CYCLE:   274 TIME:   0.359 TIME LEFT:  2.00D  GRAD.:     2.375 HEAT:  82.98986
 CYCLE:   275 TIME:   0.297 TIME LEFT:  2.00D  GRAD.:     2.550 HEAT:  82.98877
 CYCLE:   276 TIME:   0.363 TIME LEFT:  2.00D  GRAD.:     6.702 HEAT:  82.98848
 CYCLE:   277 TIME:   0.391 TIME LEFT:  2.00D  GRAD.:     3.846 HEAT:  82.98660
 CYCLE:   278 TIME:   0.281 TIME LEFT:  2.00D  GRAD.:     3.457 HEAT:  82.98579
 CYCLE:   279 TIME:   0.223 TIME LEFT:  2.00D  GRAD.:     3.441 HEAT:  82.98510
 CYCLE:   280 TIME:   0.312 TIME LEFT:  2.00D  GRAD.:     2.415 HEAT:  82.98449
 CYCLE:   281 TIME:   0.371 TIME LEFT:  2.00D  GRAD.:     3.636 HEAT:  82.98373
 CYCLE:   282 TIME:   0.402 TIME LEFT:  2.00D  GRAD.:     2.178 HEAT:  82.98275
 CYCLE:   283 TIME:   0.258 TIME LEFT:  2.00D  GRAD.:     2.259 HEAT:  82.98204
 CYCLE:   284 TIME:   0.273 TIME LEFT:  2.00D  GRAD.:     2.829 HEAT:  82.98013
 CYCLE:   285 TIME:   0.254 TIME LEFT:  2.00D  GRAD.:     5.067 HEAT:  82.97858
 CYCLE:   286 TIME:   0.387 TIME LEFT:  2.00D  GRAD.:     3.406 HEAT:  82.97787
 CYCLE:   287 TIME:   0.328 TIME LEFT:  2.00D  GRAD.:     2.164 HEAT:  82.97745
 CYCLE:   288 TIME:   0.301 TIME LEFT:  2.00D  GRAD.:     2.486 HEAT:  82.97666
 CYCLE:   289 TIME:   0.367 TIME LEFT:  2.00D  GRAD.:     2.953 HEAT:  82.97583
 CYCLE:   290 TIME:   0.344 TIME LEFT:  2.00D  GRAD.:     3.235 HEAT:  82.97389
 CYCLE:   291 TIME:   0.383 TIME LEFT:  2.00D  GRAD.:     8.369 HEAT:  82.97272
 CYCLE:   292 TIME:   0.316 TIME LEFT:  2.00D  GRAD.:    17.892 HEAT:  82.97460
 CYCLE:   293 TIME:   0.320 TIME LEFT:  2.00D  GRAD.:     7.183 HEAT:  82.97132
 CYCLE:   294 TIME:   0.340 TIME LEFT:  2.00D  GRAD.:     2.656 HEAT:  82.97008
 CYCLE:   295 TIME:   0.387 TIME LEFT:  2.00D  GRAD.:     4.320 HEAT:  82.96968
 CYCLE:   296 TIME:   0.289 TIME LEFT:  2.00D  GRAD.:     3.614 HEAT:  82.96909
 CYCLE:   297 TIME:   0.254 TIME LEFT:  2.00D  GRAD.:    10.083 HEAT:  82.96856
 CYCLE:   298 TIME:   0.262 TIME LEFT:  2.00D  GRAD.:     3.501 HEAT:  82.96763
 CYCLE:   299 TIME:   0.340 TIME LEFT:  2.00D  GRAD.:     3.084 HEAT:  82.96712
 CYCLE:   300 TIME:   0.250 TIME LEFT:  2.00D  GRAD.:     3.790 HEAT:  82.96667
 CYCLE:   301 TIME:   0.328 TIME LEFT:  2.00D  GRAD.:     5.135 HEAT:  82.96469
 CYCLE:   302 TIME:   0.410 TIME LEFT:  2.00D  GRAD.:     3.577 HEAT:  82.96295
 CYCLE:   303 TIME:   0.332 TIME LEFT:  2.00D  GRAD.:     3.727 HEAT:  82.96223
 CYCLE:   304 TIME:   0.340 TIME LEFT:  2.00D  GRAD.:    17.574 HEAT:  82.96797
 CYCLE:   305 TIME:   0.262 TIME LEFT:  2.00D  GRAD.:     3.183 HEAT:  82.96053
 CYCLE:   306 TIME:   0.246 TIME LEFT:  2.00D  GRAD.:     2.351 HEAT:  82.96007
 CYCLE:   307 TIME:   0.270 TIME LEFT:  2.00D  GRAD.:     3.649 HEAT:  82.95877
 CYCLE:   308 TIME:   0.273 TIME LEFT:  2.00D  GRAD.:    12.435 HEAT:  82.96009
 CYCLE:   309 TIME:   0.242 TIME LEFT:  2.00D  GRAD.:     2.964 HEAT:  82.95732
 CYCLE:   310 TIME:   0.234 TIME LEFT:  2.00D  GRAD.:     2.058 HEAT:  82.95696
 CYCLE:   311 TIME:   0.406 TIME LEFT:  2.00D  GRAD.:     5.531 HEAT:  82.95627
 CYCLE:   312 TIME:   0.438 TIME LEFT:  2.00D  GRAD.:     3.621 HEAT:  82.95575
 CYCLE:   313 TIME:   0.305 TIME LEFT:  2.00D  GRAD.:     3.433 HEAT:  82.95480
 CYCLE:   314 TIME:   0.258 TIME LEFT:  2.00D  GRAD.:     3.136 HEAT:  82.95456
 CYCLE:   315 TIME:   0.336 TIME LEFT:  2.00D  GRAD.:     4.607 HEAT:  82.95425
 CYCLE:   316 TIME:   0.242 TIME LEFT:  2.00D  GRAD.:     3.285 HEAT:  82.95333
 CYCLE:   317 TIME:   0.285 TIME LEFT:  2.00D  GRAD.:     3.549 HEAT:  82.95248
 CYCLE:   318 TIME:   0.289 TIME LEFT:  2.00D  GRAD.:     5.360 HEAT:  82.95151
 CYCLE:   319 TIME:   0.238 TIME LEFT:  2.00D  GRAD.:     3.334 HEAT:  82.95046
 CYCLE:   320 TIME:   0.316 TIME LEFT:  2.00D  GRAD.:     2.980 HEAT:  82.95014
 CYCLE:   321 TIME:   0.262 TIME LEFT:  2.00D  GRAD.:     7.732 HEAT:  82.94959
 CYCLE:   322 TIME:   0.262 TIME LEFT:  2.00D  GRAD.:     2.574 HEAT:  82.94815
 CYCLE:   323 TIME:   0.422 TIME LEFT:  2.00D  GRAD.:     4.193 HEAT:  82.94835
 CYCLE:   324 TIME:   0.387 TIME LEFT:  2.00D  GRAD.:     2.085 HEAT:  82.94741
 CYCLE:   325 TIME:   0.320 TIME LEFT:  2.00D  GRAD.:     7.078 HEAT:  82.94760
 CYCLE:   326 TIME:   0.426 TIME LEFT:  2.00D  GRAD.:     8.161 HEAT:  82.94695
 CYCLE:   327 TIME:   0.316 TIME LEFT:  2.00D  GRAD.:     2.553 HEAT:  82.94587
 CYCLE:   328 TIME:   0.367 TIME LEFT:  2.00D  GRAD.:    19.935 HEAT:  82.94811
 CYCLE:   329 TIME:   0.301 TIME LEFT:  2.00D  GRAD.:     3.541 HEAT:  82.94483
 CYCLE:   330 TIME:   0.344 TIME LEFT:  2.00D  GRAD.:     1.962 HEAT:  82.94433
 CYCLE:   331 TIME:   0.328 TIME LEFT:  2.00D  GRAD.:    12.249 HEAT:  82.94587
 CYCLE:   332 TIME:   0.379 TIME LEFT:  2.00D  GRAD.:     2.999 HEAT:  82.94368
 CYCLE:   333 TIME:   0.305 TIME LEFT:  2.00D  GRAD.:     3.887 HEAT:  82.94371
 CYCLE:   334 TIME:   0.293 TIME LEFT:  2.00D  GRAD.:     2.586 HEAT:  82.94331
 CYCLE:   335 TIME:   0.281 TIME LEFT:  2.00D  GRAD.:    18.829 HEAT:  82.94604
 CYCLE:   336 TIME:   0.246 TIME LEFT:  2.00D  GRAD.:     2.612 HEAT:  82.94220
 CYCLE:   337 TIME:   0.348 TIME LEFT:  2.00D  GRAD.:     1.740 HEAT:  82.94191
 CYCLE:   338 TIME:   0.363 TIME LEFT:  2.00D  GRAD.:     2.288 HEAT:  82.94087
 CYCLE:   339 TIME:   0.367 TIME LEFT:  2.00D  GRAD.:    10.360 HEAT:  82.94140
 CYCLE:   340 TIME:   0.254 TIME LEFT:  2.00D  GRAD.:     2.722 HEAT:  82.93967
 CYCLE:   341 TIME:   0.387 TIME LEFT:  2.00D  GRAD.:     2.291 HEAT:  82.93923
 CYCLE:   342 TIME:   0.418 TIME LEFT:  2.00D  GRAD.:     3.917 HEAT:  82.93855
 CYCLE:   343 TIME:   0.238 TIME LEFT:  2.00D  GRAD.:     8.130 HEAT:  82.93815
 CYCLE:   344 TIME:   0.348 TIME LEFT:  2.00D  GRAD.:     4.687 HEAT:  82.93749
 CYCLE:   345 TIME:   0.312 TIME LEFT:  2.00D  GRAD.:     2.542 HEAT:  82.93693
 CYCLE:   346 TIME:   0.246 TIME LEFT:  2.00D  GRAD.:     2.255 HEAT:  82.93672
 CYCLE:   347 TIME:   0.234 TIME LEFT:  2.00D  GRAD.:     1.920 HEAT:  82.93612
 CYCLE:   348 TIME:   0.332 TIME LEFT:  2.00D  GRAD.:     2.707 HEAT:  82.93563
 CYCLE:   349 TIME:   0.238 TIME LEFT:  2.00D  GRAD.:     2.850 HEAT:  82.93520
 CYCLE:   350 TIME:   0.238 TIME LEFT:  2.00D  GRAD.:     2.311 HEAT:  82.93394
 CYCLE:   351 TIME:   0.367 TIME LEFT:  2.00D  GRAD.:     2.409 HEAT:  82.93313
 CYCLE:   352 TIME:   0.500 TIME LEFT:  2.00D  GRAD.:     2.863 HEAT:  82.93335
 CYCLE:   353 TIME:   0.340 TIME LEFT:  2.00D  GRAD.:     7.968 HEAT:  82.93343
 CYCLE:   354 TIME:   0.320 TIME LEFT:  2.00D  GRAD.:     3.706 HEAT:  82.93247
 CYCLE:   355 TIME:   0.371 TIME LEFT:  2.00D  GRAD.:     8.101 HEAT:  82.93261
 CYCLE:   356 TIME:   0.434 TIME LEFT:  2.00D  GRAD.:     4.680 HEAT:  82.93266
 CYCLE:   357 TIME:   0.379 TIME LEFT:  2.00D  GRAD.:     9.268 HEAT:  82.93295
 CYCLE:   358 TIME:   0.457 TIME LEFT:  2.00D  GRAD.:     7.617 HEAT:  82.93378
 CYCLE:   359 TIME:   0.285 TIME LEFT:  2.00D  GRAD.:    11.520 HEAT:  82.93564
 CYCLE:   360 TIME:   0.281 TIME LEFT:  2.00D  GRAD.:    92.208 HEAT:  83.03328
 CYCLE:   361 TIME:   0.398 TIME LEFT:  2.00D  GRAD.:    73.463 HEAT:  83.01345
 CYCLE:   362 TIME:   0.410 TIME LEFT:  2.00D  GRAD.:    22.910 HEAT:  82.94451
 CYCLE:   363 TIME:   0.461 TIME LEFT:  2.00D  GRAD.:     7.075 HEAT:  82.93190
 CYCLE:   364 TIME:   0.262 TIME LEFT:  2.00D  GRAD.:    27.144 HEAT:  82.94978
 CYCLE:   365 TIME:   0.328 TIME LEFT:  2.00D  GRAD.:     8.066 HEAT:  82.93078
 CYCLE:   366 TIME:   0.359 TIME LEFT:  2.00D  GRAD.:    15.267 HEAT:  82.93362
 CYCLE:   367 TIME:   0.387 TIME LEFT:  2.00D  GRAD.:     4.893 HEAT:  82.93010
 CYCLE:   368 TIME:   0.402 TIME LEFT:  2.00D  GRAD.:     4.689 HEAT:  82.93019
 CYCLE:   369 TIME:   0.391 TIME LEFT:  2.00D  GRAD.:     1.459 HEAT:  82.92963
 CYCLE:   370 TIME:   0.305 TIME LEFT:  2.00D  GRAD.:     3.239 HEAT:  82.92967
 CYCLE:   371 TIME:   0.230 TIME LEFT:  2.00D  GRAD.:     2.279 HEAT:  82.92934
 CYCLE:   372 TIME:   0.340 TIME LEFT:  2.00D  GRAD.:     9.684 HEAT:  82.93289
 CYCLE:   373 TIME:   0.398 TIME LEFT:  2.00D  GRAD.:     1.337 HEAT:  82.92896
 CYCLE:   374 TIME:   0.281 TIME LEFT:  2.00D  GRAD.:     1.339 HEAT:  82.92873
 CYCLE:   375 TIME:   0.387 TIME LEFT:  2.00D  GRAD.:     1.739 HEAT:  82.92833
 CYCLE:   376 TIME:   0.309 TIME LEFT:  2.00D  GRAD.:     1.350 HEAT:  82.92697
 CYCLE:   377 TIME:   0.305 TIME LEFT:  2.00D  GRAD.:     4.376 HEAT:  82.92597
 CYCLE:   378 TIME:   0.305 TIME LEFT:  2.00D  GRAD.:     2.535 HEAT:  82.92527
 CYCLE:   379 TIME:   0.395 TIME LEFT:  2.00D  GRAD.:     2.572 HEAT:  82.92467
 CYCLE:   380 TIME:   0.367 TIME LEFT:  2.00D  GRAD.:     2.436 HEAT:  82.92386
 CYCLE:   381 TIME:   0.438 TIME LEFT:  2.00D  GRAD.:    27.062 HEAT:  82.92908
 CYCLE:   382 TIME:   0.332 TIME LEFT:  2.00D  GRAD.:     1.910 HEAT:  82.92357
 CYCLE:   383 TIME:   0.340 TIME LEFT:  2.00D  GRAD.:     1.444 HEAT:  82.92348
 CYCLE:   384 TIME:   0.289 TIME LEFT:  2.00D  GRAD.:     3.011 HEAT:  82.92285
 CYCLE:   385 TIME:   0.262 TIME LEFT:  2.00D  GRAD.:     2.080 HEAT:  82.92215
 CYCLE:   386 TIME:   0.254 TIME LEFT:  2.00D  GRAD.:     1.446 HEAT:  82.92136
 CYCLE:   387 TIME:   0.379 TIME LEFT:  2.00D  GRAD.:     2.255 HEAT:  82.92109
 CYCLE:   388 TIME:   0.395 TIME LEFT:  2.00D  GRAD.:     1.502 HEAT:  82.92084
 CYCLE:   389 TIME:   0.391 TIME LEFT:  2.00D  GRAD.:     2.097 HEAT:  82.92044
 CYCLE:   390 TIME:   0.332 TIME LEFT:  2.00D  GRAD.:     1.741 HEAT:  82.92001
 CYCLE:   391 TIME:   0.301 TIME LEFT:  2.00D  GRAD.:     1.422 HEAT:  82.91943
 CYCLE:   392 TIME:   0.246 TIME LEFT:  2.00D  GRAD.:     1.336 HEAT:  82.91898
 CYCLE:   393 TIME:   0.262 TIME LEFT:  2.00D  GRAD.:     3.219 HEAT:  82.91826
 CYCLE:   394 TIME:   0.289 TIME LEFT:  2.00D  GRAD.:     5.085 HEAT:  82.91839
 CYCLE:   395 TIME:   0.332 TIME LEFT:  2.00D  GRAD.:     1.526 HEAT:  82.91777
 CYCLE:   396 TIME:   0.312 TIME LEFT:  2.00D  GRAD.:     1.729 HEAT:  82.91781
 CYCLE:   397 TIME:   0.340 TIME LEFT:  2.00D  GRAD.:     3.523 HEAT:  82.91755
 CYCLE:   398 TIME:   0.336 TIME LEFT:  2.00D  GRAD.:     2.119 HEAT:  82.91734
 CYCLE:   399 TIME:   0.352 TIME LEFT:  2.00D  GRAD.:     1.545 HEAT:  82.91717
 CYCLE:   400 TIME:   0.273 TIME LEFT:  2.00D  GRAD.:     2.924 HEAT:  82.91707
 CYCLE:   401 TIME:   0.355 TIME LEFT:  2.00D  GRAD.:     1.399 HEAT:  82.91674
 CYCLE:   402 TIME:   0.410 TIME LEFT:  2.00D  GRAD.:     1.291 HEAT:  82.91660
 CYCLE:   403 TIME:   0.320 TIME LEFT:  2.00D  GRAD.:     1.366 HEAT:  82.91638
 CYCLE:   404 TIME:   0.453 TIME LEFT:  2.00D  GRAD.:     5.337 HEAT:  82.91619
 CYCLE:   405 TIME:   0.266 TIME LEFT:  2.00D  GRAD.:     1.533 HEAT:  82.91551
 CYCLE:   406 TIME:   0.262 TIME LEFT:  2.00D  GRAD.:     1.026 HEAT:  82.91540
 CYCLE:   407 TIME:   0.270 TIME LEFT:  2.00D  GRAD.:     1.086 HEAT:  82.91517
 CYCLE:   408 TIME:   0.270 TIME LEFT:  2.00D  GRAD.:     2.583 HEAT:  82.91478
 CYCLE:   409 TIME:   0.312 TIME LEFT:  2.00D  GRAD.:     1.872 HEAT:  82.91437
 CYCLE:   410 TIME:   0.352 TIME LEFT:  2.00D  GRAD.:     2.953 HEAT:  82.91420
 CYCLE:   411 TIME:   0.352 TIME LEFT:  2.00D  GRAD.:     1.236 HEAT:  82.91409
 CYCLE:   412 TIME:   0.305 TIME LEFT:  2.00D  GRAD.:     1.734 HEAT:  82.91402
 CYCLE:   413 TIME:   0.234 TIME LEFT:  2.00D  GRAD.:     2.263 HEAT:  82.91388
 CYCLE:   414 TIME:   0.297 TIME LEFT:  2.00D  GRAD.:     2.696 HEAT:  82.91351
 CYCLE:   415 TIME:   0.293 TIME LEFT:  2.00D  GRAD.:     3.122 HEAT:  82.91308
 CYCLE:   416 TIME:   0.352 TIME LEFT:  2.00D  GRAD.:     2.326 HEAT:  82.91277
 CYCLE:   417 TIME:   0.375 TIME LEFT:  2.00D  GRAD.:     1.224 HEAT:  82.91249
 CYCLE:   418 TIME:   0.355 TIME LEFT:  2.00D  GRAD.:     2.136 HEAT:  82.91228
 CYCLE:   419 TIME:   0.355 TIME LEFT:  2.00D  GRAD.:     1.945 HEAT:  82.91213
 CYCLE:   420 TIME:   0.254 TIME LEFT:  2.00D  GRAD.:     1.447 HEAT:  82.91159
 CYCLE:   421 TIME:   0.371 TIME LEFT:  2.00D  GRAD.:     1.871 HEAT:  82.91126
 CYCLE:   422 TIME:   0.219 TIME LEFT:  2.00D  GRAD.:     2.545 HEAT:  82.91100
 CYCLE:   423 TIME:   0.293 TIME LEFT:  2.00D  GRAD.:     1.761 HEAT:  82.91084
 CYCLE:   424 TIME:   0.359 TIME LEFT:  2.00D  GRAD.:     1.783 HEAT:  82.91034
 CYCLE:   425 TIME:   0.266 TIME LEFT:  2.00D  GRAD.:     5.150 HEAT:  82.91009
 CYCLE:   426 TIME:   0.211 TIME LEFT:  2.00D  GRAD.:     3.853 HEAT:  82.90975
 CYCLE:   427 TIME:   0.297 TIME LEFT:  2.00D  GRAD.:     2.358 HEAT:  82.90936
 CYCLE:   428 TIME:   0.418 TIME LEFT:  2.00D  GRAD.:     1.942 HEAT:  82.90893
 CYCLE:   429 TIME:   0.348 TIME LEFT:  2.00D  GRAD.:     1.867 HEAT:  82.90833
 CYCLE:   430 TIME:   0.305 TIME LEFT:  2.00D  GRAD.:     2.402 HEAT:  82.90773
 CYCLE:   431 TIME:   0.383 TIME LEFT:  2.00D  GRAD.:     2.135 HEAT:  82.90724
 CYCLE:   432 TIME:   0.266 TIME LEFT:  2.00D  GRAD.:     1.849 HEAT:  82.90666
 CYCLE:   433 TIME:   0.395 TIME LEFT:  2.00D  GRAD.:     2.037 HEAT:  82.90618
 CYCLE:   434 TIME:   0.355 TIME LEFT:  2.00D  GRAD.:     2.595 HEAT:  82.90543
 CYCLE:   435 TIME:   0.285 TIME LEFT:  2.00D  GRAD.:     2.240 HEAT:  82.90461
 CYCLE:   436 TIME:   0.383 TIME LEFT:  2.00D  GRAD.:     5.254 HEAT:  82.90416
 CYCLE:   437 TIME:   0.387 TIME LEFT:  2.00D  GRAD.:     4.864 HEAT:  82.90356
 CYCLE:   438 TIME:   0.363 TIME LEFT:  2.00D  GRAD.:     1.836 HEAT:  82.90329
 CYCLE:   439 TIME:   0.340 TIME LEFT:  2.00D  GRAD.:     1.400 HEAT:  82.90304
 CYCLE:   440 TIME:   0.312 TIME LEFT:  2.00D  GRAD.:     1.472 HEAT:  82.90280
 CYCLE:   441 TIME:   0.371 TIME LEFT:  2.00D  GRAD.:     2.311 HEAT:  82.90221
 CYCLE:   442 TIME:   0.465 TIME LEFT:  2.00D  GRAD.:    34.462 HEAT:  82.91183
 CYCLE:   443 TIME:   0.332 TIME LEFT:  2.00D  GRAD.:     1.722 HEAT:  82.90172
 CYCLE:   444 TIME:   0.297 TIME LEFT:  2.00D  GRAD.:     1.492 HEAT:  82.90166
 CYCLE:   445 TIME:   0.258 TIME LEFT:  2.00D  GRAD.:     1.370 HEAT:  82.90151
 CYCLE:   446 TIME:   0.363 TIME LEFT:  2.00D  GRAD.:     2.168 HEAT:  82.90103
 CYCLE:   447 TIME:   0.297 TIME LEFT:  2.00D  GRAD.:     4.364 HEAT:  82.90095
 CYCLE:   448 TIME:   0.281 TIME LEFT:  2.00D  GRAD.:     1.618 HEAT:  82.90045
 CYCLE:   449 TIME:   0.227 TIME LEFT:  2.00D  GRAD.:     1.059 HEAT:  82.90018
 CYCLE:   450 TIME:   0.234 TIME LEFT:  2.00D  GRAD.:     1.679 HEAT:  82.89971
 CYCLE:   451 TIME:   0.254 TIME LEFT:  2.00D  GRAD.:     2.180 HEAT:  82.89925
 CYCLE:   452 TIME:   0.352 TIME LEFT:  2.00D  GRAD.:     2.415 HEAT:  82.89872
 CYCLE:   453 TIME:   0.316 TIME LEFT:  2.00D  GRAD.:     2.108 HEAT:  82.89822
 CYCLE:   454 TIME:   0.316 TIME LEFT:  2.00D  GRAD.:     1.823 HEAT:  82.89790
 CYCLE:   455 TIME:   0.277 TIME LEFT:  2.00D  GRAD.:     1.349 HEAT:  82.89739
 CYCLE:   456 TIME:   0.246 TIME LEFT:  2.00D  GRAD.:    11.220 HEAT:  82.89784
 CYCLE:   457 TIME:   0.219 TIME LEFT:  2.00D  GRAD.:     2.210 HEAT:  82.89692
 CYCLE:   458 TIME:   0.352 TIME LEFT:  2.00D  GRAD.:     1.129 HEAT:  82.89683
 CYCLE:   459 TIME:   0.262 TIME LEFT:  2.00D  GRAD.:     2.482 HEAT:  82.89672
 CYCLE:   460 TIME:   0.223 TIME LEFT:  2.00D  GRAD.:     1.866 HEAT:  82.89656
 CYCLE:   461 TIME:   0.230 TIME LEFT:  2.00D  GRAD.:     2.333 HEAT:  82.89619
 CYCLE:   462 TIME:   0.238 TIME LEFT:  2.00D  GRAD.:     2.848 HEAT:  82.89597
 CYCLE:   463 TIME:   0.246 TIME LEFT:  2.00D  GRAD.:     2.315 HEAT:  82.89551
 CYCLE:   464 TIME:   0.227 TIME LEFT:  2.00D  GRAD.:     1.608 HEAT:  82.89502
 CYCLE:   465 TIME:   0.301 TIME LEFT:  2.00D  GRAD.:     1.680 HEAT:  82.89457
 CYCLE:   466 TIME:   0.285 TIME LEFT:  2.00D  GRAD.:     1.739 HEAT:  82.89419
 CYCLE:   467 TIME:   0.270 TIME LEFT:  2.00D  GRAD.:     3.333 HEAT:  82.89404
 CYCLE:   468 TIME:   0.340 TIME LEFT:  2.00D  GRAD.:     1.199 HEAT:  82.89380
 CYCLE:   469 TIME:   0.289 TIME LEFT:  2.00D  GRAD.:     1.363 HEAT:  82.89369
 CYCLE:   470 TIME:   0.281 TIME LEFT:  2.00D  GRAD.:     1.209 HEAT:  82.89356
 CYCLE:   471 TIME:   0.223 TIME LEFT:  2.00D  GRAD.:     1.663 HEAT:  82.89333
 CYCLE:   472 TIME:   0.297 TIME LEFT:  2.00D  GRAD.:     8.343 HEAT:  82.89352
 CYCLE:   473 TIME:   0.281 TIME LEFT:  2.00D  GRAD.:     1.440 HEAT:  82.89303
 CYCLE:   474 TIME:   0.371 TIME LEFT:  2.00D  GRAD.:     0.887 HEAT:  82.89298
 CYCLE:   475 TIME:   0.379 TIME LEFT:  2.00D  GRAD.:     1.054 HEAT:  82.89288
 CYCLE:   476 TIME:   0.293 TIME LEFT:  2.00D  GRAD.:     1.263 HEAT:  82.89278
 CYCLE:   477 TIME:   0.336 TIME LEFT:  2.00D  GRAD.:     2.254 HEAT:  82.89251
 CYCLE:   478 TIME:   0.266 TIME LEFT:  2.00D  GRAD.:     3.450 HEAT:  82.89253
 CYCLE:   479 TIME:   0.227 TIME LEFT:  2.00D  GRAD.:     1.123 HEAT:  82.89213
 CYCLE:   480 TIME:   0.293 TIME LEFT:  2.00D  GRAD.:     0.885 HEAT:  82.89197
 CYCLE:   481 TIME:   0.309 TIME LEFT:  2.00D  GRAD.:     1.166 HEAT:  82.89182
 CYCLE:   482 TIME:   0.348 TIME LEFT:  2.00D  GRAD.:     8.116 HEAT:  82.89248
 CYCLE:   483 TIME:   0.281 TIME LEFT:  2.00D  GRAD.:     1.435 HEAT:  82.89161
 CYCLE:   484 TIME:   0.320 TIME LEFT:  2.00D  GRAD.:     1.105 HEAT:  82.89152
 CYCLE:   485 TIME:   0.453 TIME LEFT:  2.00D  GRAD.:     1.138 HEAT:  82.89123
 CYCLE:   486 TIME:   0.312 TIME LEFT:  2.00D  GRAD.:     1.894 HEAT:  82.89107
 CYCLE:   487 TIME:   0.285 TIME LEFT:  2.00D  GRAD.:     3.689 HEAT:  82.89103
 CYCLE:   488 TIME:   0.387 TIME LEFT:  2.00D  GRAD.:     1.387 HEAT:  82.89090
 CYCLE:   489 TIME:   0.406 TIME LEFT:  2.00D  GRAD.:     1.244 HEAT:  82.89077
 CYCLE:   490 TIME:   0.348 TIME LEFT:  2.00D  GRAD.:     3.527 HEAT:  82.89063
 CYCLE:   491 TIME:   0.277 TIME LEFT:  2.00D  GRAD.:     2.231 HEAT:  82.89046
 CYCLE:   492 TIME:   0.293 TIME LEFT:  2.00D  GRAD.:     1.051 HEAT:  82.89021
 CYCLE:   493 TIME:   0.266 TIME LEFT:  2.00D  GRAD.:     1.124 HEAT:  82.89011
 CYCLE:   494 TIME:   0.277 TIME LEFT:  2.00D  GRAD.:     2.320 HEAT:  82.88971
 CYCLE:   495 TIME:   0.367 TIME LEFT:  2.00D  GRAD.:     2.461 HEAT:  82.88939
 CYCLE:   496 TIME:   0.387 TIME LEFT:  2.00D  GRAD.:     1.472 HEAT:  82.88910
 CYCLE:   497 TIME:   0.434 TIME LEFT:  2.00D  GRAD.:     1.895 HEAT:  82.88884
 CYCLE:   498 TIME:   0.391 TIME LEFT:  2.00D  GRAD.:     1.975 HEAT:  82.88868
 CYCLE:   499 TIME:   0.375 TIME LEFT:  2.00D  GRAD.:     1.943 HEAT:  82.88848
 CYCLE:   500 TIME:   0.309 TIME LEFT:  2.00D  GRAD.:     1.949 HEAT:  82.88832
 CYCLE:   501 TIME:   0.363 TIME LEFT:  2.00D  GRAD.:     2.475 HEAT:  82.88793
 CYCLE:   502 TIME:   0.250 TIME LEFT:  2.00D  GRAD.:     6.173 HEAT:  82.88811
 CYCLE:   503 TIME:   0.215 TIME LEFT:  2.00D  GRAD.:     3.064 HEAT:  82.88774
 CYCLE:   504 TIME:   0.426 TIME LEFT:  2.00D  GRAD.:     0.996 HEAT:  82.88759
 CYCLE:   505 TIME:   0.379 TIME LEFT:  2.00D  GRAD.:     1.439 HEAT:  82.88753
 CYCLE:   506 TIME:   0.348 TIME LEFT:  2.00D  GRAD.:     1.371 HEAT:  82.88746
 CYCLE:   507 TIME:   0.320 TIME LEFT:  2.00D  GRAD.:     2.289 HEAT:  82.88730
 CYCLE:   508 TIME:   0.301 TIME LEFT:  2.00D  GRAD.:     1.742 HEAT:  82.88711
 CYCLE:   509 TIME:   0.367 TIME LEFT:  2.00D  GRAD.:     1.140 HEAT:  82.88693
 CYCLE:   510 TIME:   0.312 TIME LEFT:  2.00D  GRAD.:     1.003 HEAT:  82.88676
 CYCLE:   511 TIME:   0.320 TIME LEFT:  2.00D  GRAD.:     1.473 HEAT:  82.88641
 CYCLE:   512 TIME:   0.363 TIME LEFT:  2.00D  GRAD.:     1.443 HEAT:  82.88607
 CYCLE:   513 TIME:   0.328 TIME LEFT:  2.00D  GRAD.:     5.414 HEAT:  82.88631
 CYCLE:   514 TIME:   0.414 TIME LEFT:  2.00D  GRAD.:     1.144 HEAT:  82.88558
 CYCLE:   515 TIME:   0.426 TIME LEFT:  2.00D  GRAD.:     0.821 HEAT:  82.88548
 CYCLE:   516 TIME:   0.355 TIME LEFT:  2.00D  GRAD.:     0.948 HEAT:  82.88530
 CYCLE:   517 TIME:   0.258 TIME LEFT:  2.00D  GRAD.:     2.838 HEAT:  82.88517
 CYCLE:   518 TIME:   0.293 TIME LEFT:  2.00D  GRAD.:     2.026 HEAT:  82.88501
 CYCLE:   519 TIME:   0.215 TIME LEFT:  2.00D  GRAD.:     1.053 HEAT:  82.88490
 CYCLE:   520 TIME:   0.258 TIME LEFT:  2.00D  GRAD.:     1.120 HEAT:  82.88481
 CYCLE:   521 TIME:   0.297 TIME LEFT:  2.00D  GRAD.:     5.149 HEAT:  82.88480
 CYCLE:   522 TIME:   0.273 TIME LEFT:  2.00D  GRAD.:     1.685 HEAT:  82.88461
 CYCLE:   523 TIME:   0.262 TIME LEFT:  2.00D  GRAD.:     1.561 HEAT:  82.88458
 CYCLE:   524 TIME:   0.336 TIME LEFT:  2.00D  GRAD.:     1.065 HEAT:  82.88449
 CYCLE:   525 TIME:   0.277 TIME LEFT:  2.00D  GRAD.:     0.869 HEAT:  82.88431
 CYCLE:   526 TIME:   0.227 TIME LEFT:  2.00D  GRAD.:     1.004 HEAT:  82.88418
 CYCLE:   527 TIME:   0.246 TIME LEFT:  2.00D  GRAD.:     1.217 HEAT:  82.88392
 CYCLE:   528 TIME:   0.230 TIME LEFT:  2.00D  GRAD.:     0.968 HEAT:  82.88368
 CYCLE:   529 TIME:   0.285 TIME LEFT:  2.00D  GRAD.:     1.484 HEAT:  82.88350
 CYCLE:   530 TIME:   0.230 TIME LEFT:  2.00D  GRAD.:     1.888 HEAT:  82.88328
 CYCLE:   531 TIME:   0.309 TIME LEFT:  2.00D  GRAD.:     1.205 HEAT:  82.88312
 CYCLE:   532 TIME:   0.223 TIME LEFT:  2.00D  GRAD.:     1.178 HEAT:  82.88302
 CYCLE:   533 TIME:   0.340 TIME LEFT:  2.00D  GRAD.:     0.975 HEAT:  82.88287
 CYCLE:   534 TIME:   0.281 TIME LEFT:  2.00D  GRAD.:     1.152 HEAT:  82.88273
 CYCLE:   535 TIME:   0.258 TIME LEFT:  2.00D  GRAD.:    11.491 HEAT:  82.88373
 CYCLE:   536 TIME:   0.297 TIME LEFT:  2.00D  GRAD.:     5.707 HEAT:  82.88282
 CYCLE:   537 TIME:   0.312 TIME LEFT:  2.00D  GRAD.:     2.082 HEAT:  82.88252
 CYCLE:   538 TIME:   0.203 TIME LEFT:  2.00D  GRAD.:     0.918 HEAT:  82.88247
 CYCLE:   539 TIME:   0.254 TIME LEFT:  2.00D  GRAD.:     0.982 HEAT:  82.88242
 CYCLE:   540 TIME:   0.215 TIME LEFT:  2.00D  GRAD.:     1.372 HEAT:  82.88235
 CYCLE:   541 TIME:   0.246 TIME LEFT:  2.00D  GRAD.:     1.057 HEAT:  82.88224
 CYCLE:   542 TIME:   0.363 TIME LEFT:  2.00D  GRAD.:     0.904 HEAT:  82.88214
 CYCLE:   543 TIME:   0.230 TIME LEFT:  2.00D  GRAD.:     2.427 HEAT:  82.88202
 CYCLE:   544 TIME:   0.215 TIME LEFT:  2.00D  GRAD.:     1.326 HEAT:  82.88193
 CYCLE:   545 TIME:   0.215 TIME LEFT:  2.00D  GRAD.:     1.115 HEAT:  82.88186
 CYCLE:   546 TIME:   0.273 TIME LEFT:  2.00D  GRAD.:     1.045 HEAT:  82.88180
 CYCLE:   547 TIME:   0.211 TIME LEFT:  2.00D  GRAD.:     0.886 HEAT:  82.88168
 CYCLE:   548 TIME:   0.324 TIME LEFT:  2.00D  GRAD.:     1.349 HEAT:  82.88150
 CYCLE:   549 TIME:   0.242 TIME LEFT:  2.00D  GRAD.:     1.165 HEAT:  82.88136
 CYCLE:   550 TIME:   0.211 TIME LEFT:  2.00D  GRAD.:     0.861 HEAT:  82.88127
 CYCLE:   551 TIME:   0.223 TIME LEFT:  2.00D  GRAD.:     1.091 HEAT:  82.88109
 CYCLE:   552 TIME:   0.332 TIME LEFT:  2.00D  GRAD.:     3.824 HEAT:  82.88109
 CYCLE:   553 TIME:   0.246 TIME LEFT:  2.00D  GRAD.:     1.031 HEAT:  82.88096
 CYCLE:   554 TIME:   0.316 TIME LEFT:  2.00D  GRAD.:     0.590 HEAT:  82.88092
 CYCLE:   555 TIME:   0.324 TIME LEFT:  2.00D  GRAD.:     1.916 HEAT:  82.88090
 CYCLE:   556 TIME:   0.215 TIME LEFT:  2.00D  GRAD.:     0.727 HEAT:  82.88085
 CYCLE:   557 TIME:   0.203 TIME LEFT:  2.00D  GRAD.:     0.539 HEAT:  82.88082
 CYCLE:   558 TIME:   0.305 TIME LEFT:  2.00D  GRAD.:     1.308 HEAT:  82.88071
 CYCLE:   559 TIME:   0.215 TIME LEFT:  2.00D  GRAD.:     1.847 HEAT:  82.88065
 CYCLE:   560 TIME:   0.219 TIME LEFT:  2.00D  GRAD.:     2.084 HEAT:  82.88069
 CYCLE:   561 TIME:   0.254 TIME LEFT:  2.00D  GRAD.:     0.642 HEAT:  82.88056
 CYCLE:   562 TIME:   0.262 TIME LEFT:  2.00D  GRAD.:     0.526 HEAT:  82.88053
 CYCLE:   563 TIME:   0.219 TIME LEFT:  2.00D  GRAD.:     0.826 HEAT:  82.88045
 CYCLE:   564 TIME:   0.371 TIME LEFT:  2.00D  GRAD.:     1.402 HEAT:  82.88033
 CYCLE:   565 TIME:   0.371 TIME LEFT:  2.00D  GRAD.:     1.210 HEAT:  82.88024
 CYCLE:   566 TIME:   0.312 TIME LEFT:  2.00D  GRAD.:     1.411 HEAT:  82.88013
 CYCLE:   567 TIME:   0.266 TIME LEFT:  2.00D  GRAD.:     0.595 HEAT:  82.88009
 CYCLE:   568 TIME:   0.258 TIME LEFT:  2.00D  GRAD.:     0.695 HEAT:  82.88006
 CYCLE:   569 TIME:   0.273 TIME LEFT:  2.00D  GRAD.:     0.910 HEAT:  82.88002
 CYCLE:   570 TIME:   0.246 TIME LEFT:  2.00D  GRAD.:     0.847 HEAT:  82.87997
 CYCLE:   571 TIME:   0.215 TIME LEFT:  2.00D  GRAD.:     1.256 HEAT:  82.87994
 CYCLE:   572 TIME:   0.297 TIME LEFT:  2.00D  GRAD.:     0.557 HEAT:  82.87991
 CYCLE:   573 TIME:   0.227 TIME LEFT:  2.00D  GRAD.:     0.696 HEAT:  82.87988
 CYCLE:   574 TIME:   0.277 TIME LEFT:  2.00D  GRAD.:     0.820 HEAT:  82.87986
 CYCLE:   575 TIME:   0.363 TIME LEFT:  2.00D  GRAD.:     1.334 HEAT:  82.87975
 CYCLE:   576 TIME:   0.359 TIME LEFT:  2.00D  GRAD.:     3.112 HEAT:  82.87989
 CYCLE:   577 TIME:   0.301 TIME LEFT:  2.00D  GRAD.:     0.728 HEAT:  82.87968
 CYCLE:   578 TIME:   0.320 TIME LEFT:  2.00D  GRAD.:     0.984 HEAT:  82.87969
 CYCLE:   579 TIME:   0.234 TIME LEFT:  2.00D  GRAD.:     1.268 HEAT:  82.87964
 CYCLE:   580 TIME:   0.273 TIME LEFT:  2.00D  GRAD.:     2.829 HEAT:  82.87968
 CYCLE:   581 TIME:   0.211 TIME LEFT:  2.00D  GRAD.:     0.620 HEAT:  82.87959
 CYCLE:   582 TIME:   0.211 TIME LEFT:  2.00D  GRAD.:     0.472 HEAT:  82.87959
 CYCLE:   583 TIME:   0.227 TIME LEFT:  2.00D  GRAD.:     0.722 HEAT:  82.87957
 CYCLE:   584 TIME:   0.215 TIME LEFT:  2.00D  GRAD.:     0.722 HEAT:  82.87953
 CYCLE:   585 TIME:   0.238 TIME LEFT:  2.00D  GRAD.:     0.418 HEAT:  82.87950
 CYCLE:   586 TIME:   0.270 TIME LEFT:  2.00D  GRAD.:     0.366 HEAT:  82.87948
 CYCLE:   587 TIME:   0.211 TIME LEFT:  2.00D  GRAD.:     0.414 HEAT:  82.87947
 CYCLE:   588 TIME:   0.230 TIME LEFT:  2.00D  GRAD.:     0.484 HEAT:  82.87943
 CYCLE:   589 TIME:   0.223 TIME LEFT:  2.00D  GRAD.:     1.354 HEAT:  82.87941
 CYCLE:   590 TIME:   0.227 TIME LEFT:  2.00D  GRAD.:     0.622 HEAT:  82.87935
 CYCLE:   591 TIME:   0.242 TIME LEFT:  2.00D  GRAD.:     0.382 HEAT:  82.87934
 CYCLE:   592 TIME:   0.250 TIME LEFT:  2.00D  GRAD.:     0.279 HEAT:  82.87932
 CYCLE:   593 TIME:   0.309 TIME LEFT:  2.00D  GRAD.:     2.917 HEAT:  82.87963
 CYCLE:   594 TIME:   0.223 TIME LEFT:  2.00D  GRAD.:     0.875 HEAT:  82.87931
 CYCLE:   595 TIME:   0.234 TIME LEFT:  2.00D  GRAD.:     1.289 HEAT:  82.87928
 CYCLE:   596 TIME:   0.262 TIME LEFT:  2.00D  GRAD.:     0.510 HEAT:  82.87926
 CYCLE:   597 TIME:   0.285 TIME LEFT:  2.00D  GRAD.:     0.515 HEAT:  82.87926
 CYCLE:   598 TIME:   0.242 TIME LEFT:  2.00D  GRAD.:     0.530 HEAT:  82.87925
 CYCLE:   599 TIME:   0.215 TIME LEFT:  2.00D  GRAD.:     0.488 HEAT:  82.87923
 CYCLE:   600 TIME:   0.285 TIME LEFT:  2.00D  GRAD.:     0.396 HEAT:  82.87922
 CYCLE:   601 TIME:   0.227 TIME LEFT:  2.00D  GRAD.:     0.375 HEAT:  82.87920
 CYCLE:   602 TIME:   0.309 TIME LEFT:  2.00D  GRAD.:     0.459 HEAT:  82.87919
 CYCLE:   603 TIME:   0.234 TIME LEFT:  2.00D  GRAD.:     1.538 HEAT:  82.87917
 CYCLE:   604 TIME:   0.219 TIME LEFT:  2.00D  GRAD.:     0.308 HEAT:  82.87915
 CYCLE:   605 TIME:   0.293 TIME LEFT:  2.00D  GRAD.:     0.234 HEAT:  82.87914
 CYCLE:   606 TIME:   0.215 TIME LEFT:  2.00D  GRAD.:     0.890 HEAT:  82.87916
 CYCLE:   607 TIME:   0.301 TIME LEFT:  2.00D  GRAD.:     0.365 HEAT:  82.87914
 CYCLE:   608 TIME:   0.234 TIME LEFT:  2.00D  GRAD.:     0.374 HEAT:  82.87913
 CYCLE:   609 TIME:   0.215 TIME LEFT:  2.00D  GRAD.:     0.310 HEAT:  82.87912
 CYCLE:   610 TIME:   0.242 TIME LEFT:  2.00D  GRAD.:     1.801 HEAT:  82.87921
 CYCLE:   611 TIME:   0.223 TIME LEFT:  2.00D  GRAD.:     0.432 HEAT:  82.87911
 CYCLE:   612 TIME:   0.383 TIME LEFT:  2.00D  GRAD.:     0.357 HEAT:  82.87912
 CYCLE:   613 TIME:   0.344 TIME LEFT:  2.00D  GRAD.:     0.188 HEAT:  82.87911
 CYCLE:   614 TIME:   0.215 TIME LEFT:  2.00D  GRAD.:     0.325 HEAT:  82.87910
 CYCLE:   615 TIME:   0.219 TIME LEFT:  2.00D  GRAD.:     0.523 HEAT:  82.87910
 CYCLE:   616 TIME:   0.316 TIME LEFT:  2.00D  GRAD.:     0.395 HEAT:  82.87909
 CYCLE:   617 TIME:   0.344 TIME LEFT:  2.00D  GRAD.:     0.432 HEAT:  82.87912
 CYCLE:   618 TIME:   0.367 TIME LEFT:  2.00D  GRAD.:     1.718 HEAT:  82.87910
 CYCLE:   619 TIME:   0.227 TIME LEFT:  2.00D  GRAD.:     0.326 HEAT:  82.87907
 CYCLE:   620 TIME:   0.211 TIME LEFT:  2.00D  GRAD.:     0.308 HEAT:  82.87907
 CYCLE:   621 TIME:   0.223 TIME LEFT:  2.00D  GRAD.:     0.961 HEAT:  82.87913
 CYCLE:   622 TIME:   0.223 TIME LEFT:  2.00D  GRAD.:     0.468 HEAT:  82.87907
 CYCLE:   623 TIME:   0.215 TIME LEFT:  2.00D  GRAD.:     0.514 HEAT:  82.87907
 CYCLE:   624 TIME:   0.211 TIME LEFT:  2.00D  GRAD.:     0.204 HEAT:  82.87906
 CYCLE:   625 TIME:   0.227 TIME LEFT:  2.00D  GRAD.:     1.732 HEAT:  82.87915
 CYCLE:   626 TIME:   0.219 TIME LEFT:  2.00D  GRAD.:     0.544 HEAT:  82.87907
 CYCLE:   627 TIME:   0.230 TIME LEFT:  2.00D  GRAD.:     1.193 HEAT:  82.87909
 CYCLE:   628 TIME:   0.227 TIME LEFT:  2.00D  GRAD.:     0.191 HEAT:  82.87905
 CYCLE:   629 TIME:   0.242 TIME LEFT:  2.00D  GRAD.:     0.156 HEAT:  82.87904
 CYCLE:   630 TIME:   0.219 TIME LEFT:  2.00D  GRAD.:     0.591 HEAT:  82.87906
 CYCLE:   631 TIME:   0.211 TIME LEFT:  2.00D  GRAD.:     0.373 HEAT:  82.87904
 CYCLE:   632 TIME:   0.227 TIME LEFT:  2.00D  GRAD.:     1.376 HEAT:  82.87914
 CYCLE:   633 TIME:   0.227 TIME LEFT:  2.00D  GRAD.:     2.212 HEAT:  82.87907
 CYCLE:   634 TIME:   0.211 TIME LEFT:  2.00D  GRAD.:     2.517 HEAT:  82.87907
 CYCLE:   635 TIME:   0.215 TIME LEFT:  2.00D  GRAD.:     0.257 HEAT:  82.87902
 CYCLE:   636 TIME:   0.211 TIME LEFT:  2.00D  GRAD.:     0.251 HEAT:  82.87902
 CYCLE:   637 TIME:   0.242 TIME LEFT:  2.00D  GRAD.:     0.219 HEAT:  82.87902
 CYCLE:   638 TIME:   0.305 TIME LEFT:  2.00D  GRAD.:     0.230 HEAT:  82.87902
 CYCLE:   639 TIME:   0.215 TIME LEFT:  2.00D  GRAD.:     0.426 HEAT:  82.87901
 CYCLE:   640 TIME:   0.211 TIME LEFT:  2.00D  GRAD.:     0.312 HEAT:  82.87901
 CYCLE:   641 TIME:   0.316 TIME LEFT:  2.00D  GRAD.:     0.543 HEAT:  82.87902
 CYCLE:   642 TIME:   0.215 TIME LEFT:  2.00D  GRAD.:     0.446 HEAT:  82.87900
 CYCLE:   643 TIME:   0.266 TIME LEFT:  2.00D  GRAD.:     0.543 HEAT:  82.87904
 CYCLE:   644 TIME:   0.223 TIME LEFT:  2.00D  GRAD.:     0.239 HEAT:  82.87899
 CYCLE:   645 TIME:   0.359 TIME LEFT:  2.00D  GRAD.:     0.711 HEAT:  82.87899
 CYCLE:   646 TIME:   3.637 TIME LEFT:  2.00D  GRAD.:     0.298 HEAT:  82.87898
 CYCLE:   647 TIME:   0.922 TIME LEFT:  2.00D  GRAD.:     0.206 HEAT:  82.87897
 CYCLE:   648 TIME:   0.348 TIME LEFT:  2.00D  GRAD.:     0.317 HEAT:  82.87897
 CYCLE:   649 TIME:   0.316 TIME LEFT:  2.00D  GRAD.:     0.335 HEAT:  82.87895
 CYCLE:   650 TIME:   0.309 TIME LEFT:  2.00D  GRAD.:    10.265 HEAT:  82.87979
 CYCLE:   651 TIME:   0.215 TIME LEFT:  2.00D  GRAD.:     3.444 HEAT:  82.87906
 CYCLE:   652 TIME:   0.215 TIME LEFT:  2.00D  GRAD.:     0.359 HEAT:  82.87894
 CYCLE:   653 TIME:   0.312 TIME LEFT:  2.00D  GRAD.:     0.731 HEAT:  82.87896
 CYCLE:   654 TIME:   0.230 TIME LEFT:  2.00D  GRAD.:     0.791 HEAT:  82.87894
 CYCLE:   655 TIME:   0.316 TIME LEFT:  2.00D  GRAD.:     0.443 HEAT:  82.87892
 CYCLE:   656 TIME:   0.227 TIME LEFT:  2.00D  GRAD.:     0.326 HEAT:  82.87892
 CYCLE:   657 TIME:   0.219 TIME LEFT:  2.00D  GRAD.:     0.304 HEAT:  82.87891
 CYCLE:   658 TIME:   0.312 TIME LEFT:  2.00D  GRAD.:     1.259 HEAT:  82.87896
 CYCLE:   659 TIME:   0.215 TIME LEFT:  2.00D  GRAD.:     0.340 HEAT:  82.87891
 CYCLE:   660 TIME:   0.344 TIME LEFT:  2.00D  GRAD.:     0.143 HEAT:  82.87890
 CYCLE:   661 TIME:   0.418 TIME LEFT:  2.00D  GRAD.:     1.152 HEAT:  82.87895
 CYCLE:   662 TIME:   0.238 TIME LEFT:  2.00D  GRAD.:     0.249 HEAT:  82.87889
 CYCLE:   663 TIME:   0.227 TIME LEFT:  2.00D  GRAD.:     0.150 HEAT:  82.87889
 CYCLE:   664 TIME:   0.285 TIME LEFT:  2.00D  GRAD.:     0.451 HEAT:  82.87891
 CYCLE:   665 TIME:   0.219 TIME LEFT:  2.00D  GRAD.:     0.779 HEAT:  82.87888
 CYCLE:   666 TIME:   0.223 TIME LEFT:  2.00D  GRAD.:     1.132 HEAT:  82.87888
 CYCLE:   667 TIME:   0.211 TIME LEFT:  2.00D  GRAD.:     0.232 HEAT:  82.87886
 CYCLE:   668 TIME:   0.273 TIME LEFT:  2.00D  GRAD.:     0.273 HEAT:  82.87885
 CYCLE:   669 TIME:   0.211 TIME LEFT:  2.00D  GRAD.:     0.406 HEAT:  82.87884
 CYCLE:   670 TIME:   0.215 TIME LEFT:  2.00D  GRAD.:     0.363 HEAT:  82.87883
 CYCLE:   671 TIME:   0.266 TIME LEFT:  2.00D  GRAD.:     0.304 HEAT:  82.87881
 CYCLE:   672 TIME:   0.207 TIME LEFT:  2.00D  GRAD.:     0.335 HEAT:  82.87881
 CYCLE:   673 TIME:   0.219 TIME LEFT:  2.00D  GRAD.:     1.674 HEAT:  82.87882
 CYCLE:   674 TIME:   0.211 TIME LEFT:  2.00D  GRAD.:     0.427 HEAT:  82.87879
 CYCLE:   675 TIME:   0.211 TIME LEFT:  2.00D  GRAD.:     0.171 HEAT:  82.87878
 CYCLE:   676 TIME:   0.199 TIME LEFT:  2.00D  GRAD.:     0.318 HEAT:  82.87878
 CYCLE:   677 TIME:   0.207 TIME LEFT:  2.00D  GRAD.:     0.770 HEAT:  82.87878
 CYCLE:   678 TIME:   0.211 TIME LEFT:  2.00D  GRAD.:     0.461 HEAT:  82.87877
 CYCLE:   679 TIME:   0.211 TIME LEFT:  2.00D  GRAD.:     0.794 HEAT:  82.87877
 CYCLE:   680 TIME:   0.281 TIME LEFT:  2.00D  GRAD.:     0.627 HEAT:  82.87877
 CYCLE:   681 TIME:   0.230 TIME LEFT:  2.00D  GRAD.:     0.302 HEAT:  82.87875
 CYCLE:   682 TIME:   0.285 TIME LEFT:  2.00D  GRAD.:     0.522 HEAT:  82.87872
 CYCLE:   683 TIME:   0.211 TIME LEFT:  2.00D  GRAD.:     0.891 HEAT:  82.87871
 CYCLE:   684 TIME:   0.223 TIME LEFT:  2.00D  GRAD.:     0.971 HEAT:  82.87870
 CYCLE:   685 TIME:   0.219 TIME LEFT:  2.00D  GRAD.:     0.952 HEAT:  82.87867
 CYCLE:   686 TIME:   0.227 TIME LEFT:  2.00D  GRAD.:     1.378 HEAT:  82.87870
 CYCLE:   687 TIME:   0.211 TIME LEFT:  2.00D  GRAD.:     0.932 HEAT:  82.87866
 CYCLE:   688 TIME:   0.270 TIME LEFT:  2.00D  GRAD.:     0.326 HEAT:  82.87865
 CYCLE:   689 TIME:   0.375 TIME LEFT:  2.00D  GRAD.:     0.401 HEAT:  82.87864
 CYCLE:   690 TIME:   0.336 TIME LEFT:  2.00D  GRAD.:     0.269 HEAT:  82.87864
 CYCLE:   691 TIME:   0.258 TIME LEFT:  2.00D  GRAD.:     0.484 HEAT:  82.87865
 CYCLE:   692 TIME:   0.238 TIME LEFT:  2.00D  GRAD.:     0.734 HEAT:  82.87863
 CYCLE:   693 TIME:   0.363 TIME LEFT:  2.00D  GRAD.:     3.083 HEAT:  82.87871
 CYCLE:   694 TIME:   0.262 TIME LEFT:  2.00D  GRAD.:     0.659 HEAT:  82.87861
 CYCLE:   695 TIME:   0.285 TIME LEFT:  2.00D  GRAD.:     0.628 HEAT:  82.87861
 CYCLE:   696 TIME:   0.270 TIME LEFT:  2.00D  GRAD.:     2.775 HEAT:  82.87864
 CYCLE:   697 TIME:   0.273 TIME LEFT:  2.00D  GRAD.:     0.305 HEAT:  82.87859
 CYCLE:   698 TIME:   0.250 TIME LEFT:  2.00D  GRAD.:     0.213 HEAT:  82.87858
 CYCLE:   699 TIME:   0.242 TIME LEFT:  2.00D  GRAD.:     0.387 HEAT:  82.87860
 CYCLE:   700 TIME:   0.254 TIME LEFT:  2.00D  GRAD.:     0.221 HEAT:  82.87858
 CYCLE:   701 TIME:   0.254 TIME LEFT:  2.00D  GRAD.:     1.220 HEAT:  82.87859
 CYCLE:   702 TIME:   0.223 TIME LEFT:  2.00D  GRAD.:     0.495 HEAT:  82.87858
 CYCLE:   703 TIME:   0.227 TIME LEFT:  2.00D  GRAD.:     0.979 HEAT:  82.87857
 CYCLE:   704 TIME:   0.219 TIME LEFT:  2.00D  GRAD.:     0.579 HEAT:  82.87856
 CYCLE:   705 TIME:   0.227 TIME LEFT:  2.00D  GRAD.:     3.233 HEAT:  82.87875
 CYCLE:   706 TIME:   0.223 TIME LEFT:  2.00D  GRAD.:     1.149 HEAT:  82.87857
 CYCLE:   707 TIME:   0.230 TIME LEFT:  2.00D  GRAD.:     0.388 HEAT:  82.87855
 CYCLE:   708 TIME:   0.215 TIME LEFT:  2.00D  GRAD.:     0.771 HEAT:  82.87855
 CYCLE:   709 TIME:   0.223 TIME LEFT:  2.00D  GRAD.:     0.876 HEAT:  82.87855
 CYCLE:   710 TIME:   0.281 TIME LEFT:  2.00D  GRAD.:     0.339 HEAT:  82.87853
 CYCLE:   711 TIME:   0.254 TIME LEFT:  2.00D  GRAD.:     0.846 HEAT:  82.87853
 CYCLE:   712 TIME:   0.219 TIME LEFT:  2.00D  GRAD.:     0.327 HEAT:  82.87853
 CYCLE:   713 TIME:   0.215 TIME LEFT:  2.00D  GRAD.:     4.511 HEAT:  82.87871
 CYCLE:   714 TIME:   0.250 TIME LEFT:  2.00D  GRAD.:     0.424 HEAT:  82.87852
 CYCLE:   715 TIME:   0.273 TIME LEFT:  2.00D  GRAD.:     0.704 HEAT:  82.87853
 CYCLE:   716 TIME:   0.238 TIME LEFT:  2.00D  GRAD.:     0.212 HEAT:  82.87852
 CYCLE:   717 TIME:   0.238 TIME LEFT:  2.00D  GRAD.:     0.586 HEAT:  82.87852
 CYCLE:   718 TIME:   0.199 TIME LEFT:  2.00D  GRAD.:     0.547 HEAT:  82.87851
 CYCLE:   719 TIME:   0.223 TIME LEFT:  2.00D  GRAD.:     1.843 HEAT:  82.87854
 CYCLE:   720 TIME:   0.398 TIME LEFT:  2.00D  GRAD.:     0.312 HEAT:  82.87851
 CYCLE:   721 TIME:   0.215 TIME LEFT:  2.00D  GRAD.:     0.188 HEAT:  82.87851
 CYCLE:   722 TIME:   0.207 TIME LEFT:  2.00D  GRAD.:     0.200 HEAT:  82.87850
 CYCLE:   723 TIME:   0.215 TIME LEFT:  2.00D  GRAD.:     0.442 HEAT:  82.87849
 CYCLE:   724 TIME:   0.355 TIME LEFT:  2.00D  GRAD.:     0.211 HEAT:  82.87848
 CYCLE:   725 TIME:   0.242 TIME LEFT:  2.00D  GRAD.:     0.198 HEAT:  82.87847
 CYCLE:   726 TIME:   0.246 TIME LEFT:  2.00D  GRAD.:     1.611 HEAT:  82.87847
 CYCLE:   727 TIME:   0.207 TIME LEFT:  2.00D  GRAD.:     0.238 HEAT:  82.87844
 CYCLE:   728 TIME:   0.234 TIME LEFT:  2.00D  GRAD.:     0.211 HEAT:  82.87844
 CYCLE:   729 TIME:   0.219 TIME LEFT:  2.00D  GRAD.:     0.250 HEAT:  82.87844
 CYCLE:   730 TIME:   0.199 TIME LEFT:  2.00D  GRAD.:     5.166 HEAT:  82.87930
 CYCLE:   731 TIME:   0.340 TIME LEFT:  2.00D  GRAD.:     0.648 HEAT:  82.87843
 CYCLE:   732 TIME:   0.387 TIME LEFT:  2.00D  GRAD.:     0.603 HEAT:  82.87846
 CYCLE:   733 TIME:   0.230 TIME LEFT:  2.00D  GRAD.:     2.025 HEAT:  82.87850
 CYCLE:   734 TIME:   0.238 TIME LEFT:  2.00D  GRAD.:     4.127 HEAT:  82.87876
 CYCLE:   735 TIME:   0.340 TIME LEFT:  2.00D  GRAD.:     0.452 HEAT:  82.87841
 CYCLE:   736 TIME:   0.285 TIME LEFT:  2.00D  GRAD.:     0.280 HEAT:  82.87840
 CYCLE:   737 TIME:   0.297 TIME LEFT:  2.00D  GRAD.:     2.179 HEAT:  82.87846
 CYCLE:   738 TIME:   0.266 TIME LEFT:  2.00D  GRAD.:     0.729 HEAT:  82.87840
 CYCLE:   739 TIME:   0.234 TIME LEFT:  2.00D  GRAD.:     1.099 HEAT:  82.87840
 CYCLE:   740 TIME:   0.258 TIME LEFT:  2.00D  GRAD.:     0.183 HEAT:  82.87839
 CYCLE:   741 TIME:   0.328 TIME LEFT:  2.00D  GRAD.:     0.215 HEAT:  82.87839
 CYCLE:   742 TIME:   0.312 TIME LEFT:  2.00D  GRAD.:     0.657 HEAT:  82.87838
 CYCLE:   743 TIME:   0.285 TIME LEFT:  2.00D  GRAD.:     0.371 HEAT:  82.87838
 CYCLE:   744 TIME:   0.242 TIME LEFT:  2.00D  GRAD.:     0.399 HEAT:  82.87838
 CYCLE:   745 TIME:   0.242 TIME LEFT:  2.00D  GRAD.:     0.207 HEAT:  82.87837
 CYCLE:   746 TIME:   0.215 TIME LEFT:  2.00D  GRAD.:     0.362 HEAT:  82.87836
 CYCLE:   747 TIME:   0.211 TIME LEFT:  2.00D  GRAD.:     0.453 HEAT:  82.87836
 CYCLE:   748 TIME:   0.227 TIME LEFT:  2.00D  GRAD.:     2.139 HEAT:  82.87844
 CYCLE:   749 TIME:   0.234 TIME LEFT:  2.00D  GRAD.:     0.243 HEAT:  82.87835
 CYCLE:   750 TIME:   0.285 TIME LEFT:  2.00D  GRAD.:     0.213 HEAT:  82.87834
 CYCLE:   751 TIME:   0.281 TIME LEFT:  2.00D  GRAD.:     0.277 HEAT:  82.87833
 CYCLE:   752 TIME:   0.262 TIME LEFT:  2.00D  GRAD.:     1.143 HEAT:  82.87835
 CYCLE:   753 TIME:   0.273 TIME LEFT:  2.00D  GRAD.:     1.603 HEAT:  82.87836
 CYCLE:   754 TIME:   0.270 TIME LEFT:  2.00D  GRAD.:     0.273 HEAT:  82.87831
 CYCLE:   755 TIME:   0.348 TIME LEFT:  2.00D  GRAD.:     0.653 HEAT:  82.87831
 CYCLE:   756 TIME:   0.398 TIME LEFT:  2.00D  GRAD.:     0.707 HEAT:  82.87831
 CYCLE:   757 TIME:   0.246 TIME LEFT:  2.00D  GRAD.:     0.688 HEAT:  82.87831
 CYCLE:   758 TIME:   0.227 TIME LEFT:  2.00D  GRAD.:     0.931 HEAT:  82.87829
 CYCLE:   759 TIME:   0.254 TIME LEFT:  2.00D  GRAD.:     0.395 HEAT:  82.87829
 CYCLE:   760 TIME:   0.258 TIME LEFT:  2.00D  GRAD.:     0.220 HEAT:  82.87828
 CYCLE:   761 TIME:   0.250 TIME LEFT:  2.00D  GRAD.:     0.593 HEAT:  82.87829
 CYCLE:   762 TIME:   0.230 TIME LEFT:  2.00D  GRAD.:     0.165 HEAT:  82.87828
 CYCLE:   763 TIME:   0.223 TIME LEFT:  2.00D  GRAD.:     0.177 HEAT:  82.87827
 CYCLE:   764 TIME:   0.348 TIME LEFT:  2.00D  GRAD.:     0.229 HEAT:  82.87827
 CYCLE:   765 TIME:   0.234 TIME LEFT:  2.00D  GRAD.:     0.415 HEAT:  82.87826
 CYCLE:   766 TIME:   6.535 TIME LEFT:  2.00D  GRAD.:     0.368 HEAT:  82.87824
 CYCLE:   767 TIME:   3.203 TIME LEFT:  2.00D  GRAD.:     0.266 HEAT:  82.87823
 CYCLE:   768 TIME:   0.238 TIME LEFT:  2.00D  GRAD.:     0.395 HEAT:  82.87822
 CYCLE:   769 TIME:   0.230 TIME LEFT:  2.00D  GRAD.:     1.547 HEAT:  82.87825
 CYCLE:   770 TIME:   0.227 TIME LEFT:  2.00D  GRAD.:     0.347 HEAT:  82.87819
 CYCLE:   771 TIME:   0.324 TIME LEFT:  2.00D  GRAD.:     0.305 HEAT:  82.87819
 CYCLE:   772 TIME:   0.223 TIME LEFT:  2.00D  GRAD.:     0.610 HEAT:  82.87817
 CYCLE:   773 TIME:   0.258 TIME LEFT:  2.00D  GRAD.:     1.395 HEAT:  82.87817
 CYCLE:   774 TIME:   0.262 TIME LEFT:  2.00D  GRAD.:     0.450 HEAT:  82.87815
 CYCLE:   775 TIME:   0.293 TIME LEFT:  2.00D  GRAD.:     1.133 HEAT:  82.87816
 CYCLE:   776 TIME:   0.234 TIME LEFT:  2.00D  GRAD.:     0.358 HEAT:  82.87813
 CYCLE:   777 TIME:   0.348 TIME LEFT:  2.00D  GRAD.:     0.426 HEAT:  82.87813
 CYCLE:   778 TIME:   0.250 TIME LEFT:  2.00D  GRAD.:     0.776 HEAT:  82.87814
 CYCLE:   779 TIME:   0.215 TIME LEFT:  2.00D  GRAD.:     0.283 HEAT:  82.87812
 CYCLE:   780 TIME:   0.398 TIME LEFT:  2.00D  GRAD.:     1.211 HEAT:  82.87811
 CYCLE:   781 TIME:   0.297 TIME LEFT:  2.00D  GRAD.:     0.692 HEAT:  82.87810
 CYCLE:   782 TIME:   0.250 TIME LEFT:  2.00D  GRAD.:     1.626 HEAT:  82.87814
 CYCLE:   783 TIME:   0.250 TIME LEFT:  2.00D  GRAD.:     1.052 HEAT:  82.87810
 CYCLE:   784 TIME:   0.289 TIME LEFT:  2.00D  GRAD.:     0.369 HEAT:  82.87808
 CYCLE:   785 TIME:   0.285 TIME LEFT:  2.00D  GRAD.:     2.416 HEAT:  82.87819
 CYCLE:   786 TIME:   0.273 TIME LEFT:  2.00D  GRAD.:     0.178 HEAT:  82.87808
 CYCLE:   787 TIME:   0.258 TIME LEFT:  2.00D  GRAD.:     0.501 HEAT:  82.87808
 CYCLE:   788 TIME:   0.227 TIME LEFT:  2.00D  GRAD.:     0.454 HEAT:  82.87808
 CYCLE:   789 TIME:   0.227 TIME LEFT:  2.00D  GRAD.:     1.827 HEAT:  82.87819
 CYCLE:   790 TIME:   0.285 TIME LEFT:  2.00D  GRAD.:     0.763 HEAT:  82.87807
 CYCLE:   791 TIME:   0.223 TIME LEFT:  2.00D  GRAD.:     3.236 HEAT:  82.87816
 CYCLE:   792 TIME:   0.219 TIME LEFT:  2.00D  GRAD.:     0.202 HEAT:  82.87806
 CYCLE:   793 TIME:   0.223 TIME LEFT:  2.00D  GRAD.:     0.619 HEAT:  82.87806
 CYCLE:   794 TIME:   0.199 TIME LEFT:  2.00D  GRAD.:     0.301 HEAT:  82.87806
 CYCLE:   795 TIME:   0.230 TIME LEFT:  2.00D  GRAD.:     0.554 HEAT:  82.87806
 CYCLE:   796 TIME:   0.215 TIME LEFT:  2.00D  GRAD.:     0.332 HEAT:  82.87805
 CYCLE:   797 TIME:   0.238 TIME LEFT:  2.00D  GRAD.:     0.720 HEAT:  82.87805
 CYCLE:   798 TIME:   0.203 TIME LEFT:  2.00D  GRAD.:     0.466 HEAT:  82.87804
 CYCLE:   799 TIME:   0.254 TIME LEFT:  2.00D  GRAD.:     0.194 HEAT:  82.87804
 CYCLE:   800 TIME:   0.273 TIME LEFT:  2.00D  GRAD.:     0.213 HEAT:  82.87803
 CYCLE:   801 TIME:   0.211 TIME LEFT:  2.00D  GRAD.:     0.380 HEAT:  82.87803
 CYCLE:   802 TIME:   0.219 TIME LEFT:  2.00D  GRAD.:     0.539 HEAT:  82.87803
 CYCLE:   803 TIME:   0.230 TIME LEFT:  2.00D  GRAD.:     0.288 HEAT:  82.87802
 CYCLE:   804 TIME:   0.289 TIME LEFT:  2.00D  GRAD.:     0.197 HEAT:  82.87801
 CYCLE:   805 TIME:   0.262 TIME LEFT:  2.00D  GRAD.:     0.253 HEAT:  82.87800
 CYCLE:   806 TIME:   0.230 TIME LEFT:  2.00D  GRAD.:     0.353 HEAT:  82.87800
 CYCLE:   807 TIME:   0.219 TIME LEFT:  2.00D  GRAD.:     0.415 HEAT:  82.87799
 CYCLE:   808 TIME:   0.301 TIME LEFT:  2.00D  GRAD.:     0.433 HEAT:  82.87799
 CYCLE:   809 TIME:   0.250 TIME LEFT:  2.00D  GRAD.:     0.525 HEAT:  82.87796
 CYCLE:   810 TIME:   0.250 TIME LEFT:  2.00D  GRAD.:     0.353 HEAT:  82.87795
 CYCLE:   811 TIME:   0.324 TIME LEFT:  2.00D  GRAD.:     0.399 HEAT:  82.87794
 CYCLE:   812 TIME:   0.340 TIME LEFT:  2.00D  GRAD.:     0.755 HEAT:  82.87793
 CYCLE:   813 TIME:   0.301 TIME LEFT:  2.00D  GRAD.:     1.311 HEAT:  82.87791
 CYCLE:   814 TIME:   0.301 TIME LEFT:  2.00D  GRAD.:     0.967 HEAT:  82.87790
 CYCLE:   815 TIME:   0.270 TIME LEFT:  2.00D  GRAD.:     0.542 HEAT:  82.87790
 CYCLE:   816 TIME:   0.219 TIME LEFT:  2.00D  GRAD.:     0.279 HEAT:  82.87789
 CYCLE:   817 TIME:   0.230 TIME LEFT:  2.00D  GRAD.:     0.605 HEAT:  82.87789
 CYCLE:   818 TIME:   0.234 TIME LEFT:  2.00D  GRAD.:     0.631 HEAT:  82.87788
 CYCLE:   819 TIME:   0.293 TIME LEFT:  2.00D  GRAD.:     0.570 HEAT:  82.87786
 CYCLE:   820 TIME:   0.379 TIME LEFT:  2.00D  GRAD.:     0.615 HEAT:  82.87784
 CYCLE:   821 TIME:   0.320 TIME LEFT:  2.00D  GRAD.:     0.596 HEAT:  82.87780
[...]
    7          C          -0.168290        4.1683     1.17975     2.98854
    8          C           0.063218        3.9368     1.15850     2.77828
    9          N          -0.284163        5.2842     1.51370     3.77046
   10          C           0.105032        3.8950     1.15362     2.74135
   11          C          -0.167280        4.1673     1.17048     2.99680
   12          C          -0.054884        4.0549     1.17631     2.87857
   13          C          -0.158753        4.1588     1.17845     2.98031
   14          C          -0.037642        4.0376     1.17274     2.86491
   15          C          -0.084081        4.0841     1.15823     2.92585
   16          C          -0.089209        4.0892     1.15831     2.93090
   17          C           0.166770        3.8332     1.13880     2.69443
   18          C          -0.329596        4.3296     1.20338     3.12622
   19          S           0.387142        5.6129     1.88900     3.72386
   20          C          -0.223202        4.2232     1.19929     3.02391
   21          C          -0.088369        4.0884     1.18086     2.90751
   22          C           0.012491        3.9875     1.16033     2.82718
   23          C          -0.139780        4.1398     1.17276     2.96702
   24          C           0.049212        3.9508     1.15172     2.79907
   25          C          -0.034604        4.0346     1.16143     2.87318
   26          C          -0.093457        4.0935     1.17925     2.91421
   27          C          -0.108503        4.1085     1.17921     2.92929
   28          C          -0.101566        4.1016     1.17907     2.92250
   29          C          -0.106867        4.1069     1.17887     2.92800
   30          C          -0.095563        4.0956     1.17853     2.91703
   31          C          -0.253864        4.2539     1.20305     3.05081
   32          C          -0.103892        4.1039     1.18232     2.92158
   33          C          -0.081108        4.0811     1.18270     2.89840
   34          C          -0.289140        4.2891     1.20261     3.08653
   35          S           0.477314        5.5227     1.88691     3.63578
   36          C          -0.238205        4.2382     1.20841     3.02980
   37          C          -0.142195        4.1422     1.18277     2.95942
   38          C          -0.022161        4.0222     1.18458     2.83758
   39          C          -0.446358        4.4464     1.21912     3.22724
   40          S           0.583361        5.4166     1.88300     3.53364
   41          C           0.156673        3.8433     1.16843     2.67490
   42          C          -0.162071        4.1621     1.14119     3.02088
   48          H           0.126382        0.8736     0.87362
   49          H           0.057678        0.9423     0.94232
   50          H           0.056103        0.9439     0.94390
   51          H           0.057951        0.9420     0.94205
   52          H           0.059919        0.9401     0.94008
   53          H           0.059665        0.9403     0.94033
   54          H           0.062572        0.9374     0.93743
   55          H           0.062794        0.9372     0.93721
   56          H           0.062103        0.9379     0.93790
   57          H           0.062189        0.9378     0.93781
   58          H           0.064876        0.9351     0.93512
   59          H           0.064433        0.9356     0.93557
   60          H           0.062273        0.9377     0.93773
   61          H           0.064278        0.9357     0.93572
   62          H           0.082435        0.9176     0.91757
   63          H           0.081664        0.9183     0.91834
   64          H           0.078666        0.9213     0.92133
   65          H           0.080922        0.9191     0.91908
   66          H           0.117210        0.8828     0.88279
   67          H           0.100772        0.8992     0.89923
   68          H           0.108132        0.8919     0.89187
   69          H           0.119300        0.8807     0.88070
   70          H           0.132671        0.8673     0.86733
   71          H           0.121875        0.8781     0.87812
   72          H           0.118506        0.8815     0.88149
   73          H           0.107114        0.8929     0.89289
   74          H           0.105040        0.8950     0.89496
   75          H           0.105936        0.8941     0.89406
   76          H           0.112781        0.8872     0.88722
   77          H           0.133932        0.8661     0.86607
   78          H           0.128189        0.8718     0.87181
   79          H           0.136838        0.8632     0.86316
   80          H           0.124802        0.8752     0.87520
   
 DIPOLE           X         Y         Z       TOTAL
 POINT-CHG.    -3.173     0.196     1.009     3.335
 HYBRID        -2.436     0.488    -2.704     3.672
 SUM           -5.609     0.684    -1.695     5.899


          ATOMIC ORBITAL ELECTRON POPULATIONS

     Atom    s        px        py        pz   
    1  C   1.15573   0.96452   1.02802   1.02901
    2  C   1.16679   0.95292   0.96653   1.02608
    3  C   1.17073   0.95166   0.97050   1.02997
    4  C   1.17075   0.95867   0.96541   1.02900
    5  C   1.17066   0.94732   0.97290   1.03220
    6  C   1.16958   0.96408   0.95598   1.02947
    7  C   1.17975   0.94794   0.98547   1.05513
    8  C   1.15850   0.93425   0.80478   1.03925
    9  N   1.51370   1.59428   1.10660   1.06958
   10  C   1.15362   0.98629   0.88348   0.87158
   11  C   1.17048   1.07725   0.99835   0.92120
   12  C   1.17631   0.96980   0.93111   0.97766
   13  C   1.17845   1.04332   0.96807   0.96892
   14  C   1.17274   0.96084   0.97966   0.92441
   15  C   1.15823   1.06886   0.93132   0.92567
   16  C   1.15831   1.07941   0.92250   0.92899
   17  C   1.13880   0.97114   0.88160   0.84169
   18  C   1.20338   1.15590   1.00580   0.96452
   19  S   1.88900   1.77205   1.02580   0.92601
   20  C   1.19929   1.09237   0.96891   0.96262
   21  C   1.18086   1.00158   0.93802   0.96791
   22  C   1.16033   0.98640   0.93052   0.91025
   23  C   1.17276   1.05056   0.95845   0.95800
   24  C   1.15172   0.96015   0.91734   0.92158
   25  C   1.16143   0.96536   0.92572   0.98210
   26  C   1.17925   0.96806   0.97191   0.97424
   27  C   1.17921   0.99291   0.93788   0.99850
   28  C   1.17907   0.96012   0.98312   0.97926
   29  C   1.17887   0.97608   0.96826   0.98366
   30  C   1.17853   0.99158   0.93065   0.99480
   31  C   1.20305   0.99244   1.05696   1.00142
   32  C   1.18232   0.98392   0.97966   0.95800
   33  C   1.18270   0.93956   0.99277   0.96608
   34  C   1.20261   0.99201   1.08214   1.01238
   35  S   1.88691   1.04212   1.45661   1.13705
   36  C   1.20841   1.01597   1.04449   0.96933
   37  C   1.18277   1.00714   1.02890   0.92339
   38  C   1.18458   0.91015   0.94049   0.98694
   39  C   1.21912   1.01420   1.17075   1.04230
   40  S   1.88300   1.02791   1.52395   0.98177
   41  C   1.16843   0.88106   0.82503   0.96881
   42  C   1.14119   0.96635   1.14515   0.90938
   43  C   1.17973   0.83498   0.77184   0.80999
   44  O   1.90974   1.26982   1.35992   1.81299
   45  O   1.83998   1.55306   1.74043   1.20111
   46  C   1.19714   0.92639   0.92264   0.91548
   47  N   1.84842   1.07485   1.10124   1.11350
   48  H   0.87362
   49  H   0.94232
   50  H   0.94390
   51  H   0.94205
   52  H   0.94008
   53  H   0.94033
   54  H   0.93743
   55  H   0.93721
   56  H   0.93790
   57  H   0.93781
   58  H   0.93512
   59  H   0.93557
   60  H   0.93773
   61  H   0.93572
   62  H   0.91757
   63  H   0.91834
   64  H   0.92133
   65  H   0.91908
   66  H   0.88279
   67  H   0.89923
   68  H   0.89187
   69  H   0.88070
   70  H   0.86733
   71  H   0.87812
   72  H   0.88149
   73  H   0.89289
   74  H   0.89496
   75  H   0.89406
   76  H   0.88722
   77  H   0.86607
   78  H   0.87181
   79  H   0.86316
   80  H   0.87520
   81  H   0.75467
 ******************** TDHF POLARIZABILITIES ********************



          MOLECULAR WEIGHT =  670.90



          ROTATIONAL CONSTANTS IN CM(-1)

          A =    0.00194512   B =    0.00072284   C =    0.00056997



           PRINCIPAL MOMENTS OF INERTIA IN UNITS OF 10**(-40)*GRAM-CM**2

          A =    14391.2812   B =    38726.1079   C =    49112.7775


 ROTATION MATRIX FOR ORIENTATION OF MOLECULE:

         0.405242    0.640856    0.651984
        -0.405949    0.765142   -0.499764
        -0.819136   -0.062147    0.570222


          CARTESIAN COORDINATES 

    NO.       ATOM         X         Y         Z

     1         C       -5.1076   -9.7014   -1.2364
     2         C       -4.4916   -8.7273   -0.2454
     3         C       -4.8519   -7.2883   -0.6061
     4         C       -4.2337   -6.3089    0.3889
     5         C       -4.5937   -4.8702    0.0251
     6         C       -3.9748   -3.8909    1.0202
     7         C       -4.3360   -2.4545    0.6526
     8         C       -3.7090   -1.4813    1.6622
     9         N       -4.0511   -0.0933    1.3616
    10         C       -5.3463    0.4369    1.5411
    11         C       -6.4182   -0.0936    2.2567
    12         C       -7.5816    0.6553    2.3013
    13         C       -7.6825    1.8895    1.6494
    14         C       -6.6166    2.4156    0.9378
    15         C       -5.4318    1.6938    0.8847
    16         C       -4.1617    1.9220    0.2444
    17         C       -3.3520    0.7792    0.5075
    18         C       -2.0699    0.6969   -0.0240
    19         S       -0.8810   -0.5356    0.1176
    20         C        0.2251    0.3509   -0.8830
    21         C       -0.2770    1.5354   -1.3074
    22         C       -1.6166    1.7631   -0.8170
    23         C       -2.3996    2.8932   -1.0681
    24         C       -3.6687    2.9785   -0.5206
    25         C       -4.4550    4.1892   -0.7443
    26         C       -4.7875    5.0081    0.3316
    27         C       -5.5032    6.1776    0.1082
    28         C       -5.8854    6.5266   -1.1820
    29         C       -5.5490    5.7077   -2.2533
    30         C       -4.8285    4.5393   -2.0384
    31         C        1.5144   -0.1932   -1.1762
    32         C        1.7762   -1.3419   -1.8670
    33         C        3.1816   -1.5903   -1.9774
    34         C        3.9236   -0.6202   -1.3607
    35         S        2.9440    0.5942   -0.6549
    36         C        5.3497   -0.5910   -1.3205
    37         C        6.1650   -1.0345   -2.3342
    38         C        7.5389   -0.8990   -1.9980
    39         C        7.7178   -0.3581   -0.7412
    40         S        6.2308   -0.0296    0.0175
    41         C        9.0161   -0.1210   -0.1866
    42         C        9.2730    0.4137    1.0240
    43         C       10.6384    0.6104    1.5317
    44         O       10.9870    0.7214    2.6950
    45         O       11.5743    0.6716    0.5564
    46         C        8.2673    0.8256    1.9335
    47         N        7.4681    1.1706    2.6954
    48         H        9.8554   -0.4197   -0.8353
    49         H       -4.7593   -9.5265   -2.2646
    50         H       -4.8590  -10.7446   -0.9931
    51         H       -6.2050   -9.6362   -1.2582
    52         H       -4.8286   -8.9664    0.7854
    53         H       -3.3890   -8.8573   -0.2167
    54         H       -4.5153   -7.0556   -1.6386
    55         H       -5.9552   -7.1650   -0.6362
    56         H       -4.5719   -6.5426    1.4206
    57         H       -3.1307   -6.4351    0.4195
    58         H       -4.2559   -4.6366   -1.0067
    59         H       -5.6967   -4.7441   -0.0050
    60         H       -4.3141   -4.1240    2.0519
    61         H       -2.8717   -4.0174    1.0503
    62         H       -3.9970   -2.2157   -0.3775
    63         H       -5.4387   -2.3221    0.6230
    64         H       -4.0487   -1.7091    2.7004
    65         H       -2.6010   -1.5925    1.6952
    66         H       -6.3516   -1.0586    2.7621
    67         H       -8.4449    0.2728    2.8549
    68         H       -8.6230    2.4449    1.7032
    69         H       -6.7093    3.3744    0.4208
    70         H        0.2368    2.2513   -1.9452
    71         H       -2.0001    3.7036   -1.6830
    72         H       -4.4839    4.7290    1.3453
    73         H       -5.7644    6.8255    0.9500
    74         H       -6.4499    7.4475   -1.3542
    75         H       -5.8496    5.9837   -3.2681
    76         H       -4.5590    3.8939   -2.8796
    77         H        1.0237   -2.0002   -2.2945
    78         H        3.5889   -2.4593   -2.4887
    79         H        5.8171   -1.4326   -3.2841
    80         H        8.3430   -1.1914   -2.6710
    81         H       12.4567    0.8079    0.9298


 ENERGY OF "REORIENTED" SYSTEM WITHOUT FIELD:       82.8751167413


  NFREQ=  3  IWFLB=  0  IBET=  1  IGAM=  1
  ATOL= 0.10000D-02  BTOL= 0.10000D-02    MAXITU=  500    MAXITA=  150


 *****************************************************************
 CALCULATION OF STATIC FIELD QUANTITIES
 *****************************************************************

 +++++ ALPHA AT       0.00000 EV.

                           COMPONENTS OF ALPHA

                     *X           *Y           *Z
           *=X:     692.6737     -76.9182     -26.0018
           *=Y:     -76.9209     399.3659       6.5179
           *=Z:     -25.9843       6.5179     358.9028

  ISOTROPIC AVERAGE ALPHA =     483.64746 A.U. =     71.66916 ANG.**3

 +++++ BETA (SECOND HARMONIC GENERATION) AT       0.00000 EV.

                              COMPONENTS OF BETA
            *XX         *XY         *YY         *XZ         *YZ         *ZZ
   *=X -4537.86968  -695.72554  -262.34292 -1240.16851   152.03218  -485.42808
   *=Y  -695.97717  -262.37394    39.86365   152.12102    62.03296  -157.15690
   *=Z -1240.32647   152.02074    62.03204  -485.57687  -157.12152   132.29930


 AVERAGE BETAX(SHG) VALUE AT   0.00000 EV =      -3171.4563 a.u. = -0.273995E-28 ESU
 AVERAGE BETAY(SHG) VALUE AT   0.00000 EV =       -487.8474 a.u. = -0.421472E-29 ESU
 AVERAGE BETAZ(SHG) VALUE AT   0.00000 EV =       -627.5335 a.u. = -0.542152E-29 ESU



 AVERAGE BETA (SHG) VALUE AT   0.00000 EV =       3269.5456 a.u. =  0.282470E-28 ESU
   (1 a.u. = 8.639418X10-33 esu)



 +++++ ALPHA AT       0.00000 EV.

                           COMPONENTS OF ALPHA

                     *X           *Y           *Z
           *=X:     692.6737     -76.9182     -26.0018
           *=Y:     -76.9209     399.3659       6.5179
           *=Z:     -25.9843       6.5179     358.9028

  ISOTROPIC AVERAGE ALPHA =     483.64746 A.U. =     71.66916 ANG.**3


 GAMMA (THIRD HARMONIC GENERATION) AT    0.00000 EV.


 GAMMA(X,X,X,X) =       2221968.31014
 GAMMA(Y,Y,Y,Y) =         86077.35343
 GAMMA(Z,Z,Z,Z) =         12881.11846
 GAMMA(X,X,Y,Y) =         60765.86798
 GAMMA(X,X,Z,Z) =        129104.87949
 GAMMA(Y,Y,X,X) =         60765.61481
 GAMMA(Y,Y,Z,Z) =         10136.26154
 GAMMA(Z,Z,X,X) =        129104.65474
 GAMMA(Z,Z,Y,Y) =         10136.27158


 AVERAGE GAMMA VALUE AT    0.00000 =        544188.06643 a.u. =       274091.34382 ESU (X10-39)




 **********************************************************************
 CALCULATION FOR A FREQUENCY OF    0.25000 EV  =       0.00919 A.U. 
                  WAVELENGTH OF    4959.37 NM  =    2016.38525 CM(-1)
 **********************************************************************

 +++++ ALPHA AT       0.25000 EV.

                           COMPONENTS OF ALPHA

                     *X           *Y           *Z
           *=X:     695.6444     -77.1575     -25.8074
           *=Y:     -77.1602     400.1342       6.5485
           *=Z:     -25.7911       6.5485     359.5800

  ISOTROPIC AVERAGE ALPHA =     485.11950 A.U. =     71.88729 ANG.**3

 +++++ BETA (SECOND HARMONIC GENERATION) AT       0.25000 EV.

                              COMPONENTS OF BETA
            *XX         *XY         *YY         *XZ         *YZ         *ZZ
   *=X -4770.00560  -714.61048  -269.93911 -1302.37986   153.39200  -504.04827
   *=Y  -708.28871  -273.05418    41.58855   152.93800    61.35297  -162.33413
   *=Z -1292.20576   151.37362    61.04021  -509.14320  -161.37732   127.94957


 AVERAGE BETAX(SHG) VALUE AT   0.25000 EV =      -3329.6798 a.u. = -0.287665E-28 ESU
 AVERAGE BETAY(SHG) VALUE AT   0.25000 EV =       -499.5666 a.u. = -0.431596E-29 ESU
 AVERAGE BETAZ(SHG) VALUE AT   0.25000 EV =       -665.8741 a.u. = -0.575276E-29 ESU



 AVERAGE BETA (SHG) VALUE AT   0.25000 EV =       3432.1600 a.u. =  0.296519E-28 ESU
   (1 a.u. = 8.639418X10-33 esu)



 +++++ ALPHA AT       0.75000 EV.

                           COMPONENTS OF ALPHA

                     *X           *Y           *Z
           *=X:     721.0486     -79.1596     -24.0479
           *=Y:     -79.1635     406.4737       6.8104
           *=Z:     -24.0346       6.8106     365.1972

  ISOTROPIC AVERAGE ALPHA =     497.57317 A.U. =     73.73274 ANG.**3


 GAMMA (THIRD HARMONIC GENERATION) AT    0.25000 EV.


 GAMMA(X,X,X,X) =       2454930.93279
 GAMMA(Y,Y,Y,Y) =         89565.69707
 GAMMA(Z,Z,Z,Z) =         13928.98332
 GAMMA(X,X,Y,Y) =         64816.46964
 GAMMA(X,X,Z,Z) =        140956.79862
 GAMMA(Y,Y,X,X) =         66920.83712
 GAMMA(Y,Y,Z,Z) =         10781.93660
 GAMMA(Z,Z,X,X) =        141712.30714
 GAMMA(Z,Z,Y,Y) =         10734.42634


 AVERAGE GAMMA VALUE AT    0.25000 =        598869.67773 a.u. =       301632.84508 ESU (X10-39)




 **********************************************************************
 CALCULATION FOR A FREQUENCY OF    0.50000 EV  =       0.01837 A.U. 
                  WAVELENGTH OF    2479.68 NM  =    4032.77050 CM(-1)
 **********************************************************************

 +++++ ALPHA AT       0.50000 EV.

                           COMPONENTS OF ALPHA

                     *X           *Y           *Z
           *=X:     704.7958     -77.8885     -25.1956
           *=Y:     -77.8918     402.4683       6.6431
           *=Z:     -25.1811       6.6433     361.6429

  ISOTROPIC AVERAGE ALPHA =     489.63567 A.U. =     72.55652 ANG.**3

 +++++ BETA (SECOND HARMONIC GENERATION) AT       0.50000 EV.

                              COMPONENTS OF BETA
            *XX         *XY         *YY         *XZ         *YZ         *ZZ
   *=X -5596.66820  -777.23412  -296.42180 -1524.45992   156.69964  -568.60041
   *=Y  -748.46967  -309.28262    47.83668   155.54934    58.70014  -179.52700
   *=Z -1473.43060   147.56777    57.18657  -590.99213  -175.17865   112.21063


 AVERAGE BETAX(SHG) VALUE AT   0.50000 EV =      -3891.1153 a.u. = -0.336170E-28 ESU
 AVERAGE BETAY(SHG) VALUE AT   0.50000 EV =       -537.8624 a.u. = -0.464682E-29 ESU
 AVERAGE BETAZ(SHG) VALUE AT   0.50000 EV =       -802.2263 a.u. = -0.693077E-29 ESU



 AVERAGE BETA (SHG) VALUE AT   0.50000 EV =       4009.1946 a.u. =  0.346371E-28 ESU
   (1 a.u. = 8.639418X10-33 esu)



 +++++ ALPHA AT       1.50000 EV.

                           COMPONENTS OF ALPHA

                     *X           *Y           *Z
           *=X:     840.4750     -87.5124     -13.4128
           *=Y:     -87.5220     431.1405       7.9678
           *=Z:     -13.3888       7.9683     387.6194

  ISOTROPIC AVERAGE ALPHA =     553.07830 A.U. =     81.95775 ANG.**3


 GAMMA (THIRD HARMONIC GENERATION) AT    0.50000 EV.


 GAMMA(X,X,X,X) =       3500747.42164
 GAMMA(Y,Y,Y,Y) =        102000.34371
 GAMMA(Z,Z,Z,Z) =         18050.20223
 GAMMA(X,X,Y,Y) =         80562.82397
 GAMMA(X,X,Z,Z) =        193215.77104
 GAMMA(Y,Y,X,X) =         91700.75497
 GAMMA(Y,Y,Z,Z) =         13199.05799
 GAMMA(Z,Z,X,X) =        194997.61020
 GAMMA(Z,Z,Y,Y) =         12949.28022


 AVERAGE GAMMA VALUE AT    0.50000 =        841484.65319 a.u. =       423830.79237 ESU (X10-39)



 **********************
 *                    *
 * JOB ENDED NORMALLY *
 *                    *
 **********************



 TOTAL JOB TIME:           516.42 SECONDS

 == MOPAC DONE ==
