 *******************************************************************************
 ** Site#: 37966        For non-commercial use only           Version 21.186W **
 *******************************************************************************
 ** Cite this program as: MOPAC2016, Version: 21.186W, James J. P. Stewart,   **
 ** Stewart Computational Chemistry, web: HTTP://OpenMOPAC.net. Days left: 254**
 *******************************************************************************
 **                                                                           **
 **                                MOPAC2016                                  **
 **                                                                           **
 *******************************************************************************

                              RM1 CALCULATION RESULTS

 *******************************************************************************
 *  CALCULATION DONE:                                Sun Oct 24 12:46:16 2021  *
 *  RM1        - The RM1 Hamiltonian to be used
 *  POLAR      - CALCULATE FIRST, SECOND AND THIRD-ORDER POLARIZABILITIES
 *  PRECISE    - TIGHTER CRITERIA TO BE USED
 *  T=         - A TIME OF 172800.0 SECONDS REQUESTED
 *  DUMP=N     - RESTART FILE WRITTEN EVERY 7200.0 SECONDS REQUESTED
 *  GNORM      - EXIT WHEN GRADIENT NORM DROPS BELOW 0.100
 *******************************************************************************
RM1 PRECISE POLAR GNORM=0.1


  ATOM    CHEMICAL      BOND LENGTH      BOND ANGLE     TWIST ANGLE 
 NUMBER    SYMBOL       (ANGSTROMS)      (DEGREES)       (DEGREES) 
   (I)                     NA:I           NB:NA:I       NC:NB:NA:I       NA    NB    NC 
     1       C          0.00000000       0.0000000       0.0000000        0     0     0
     2       C          1.53440000  *    0.0000000       0.0000000        1     0     0
     3       C          1.53680000  *  111.7972000  *    0.0000000        2     1     0
     4       C          1.53720000  *  111.9490000  * -179.9457000  *     3     2     1
     5       C          1.53750000  *  111.8321000  *  179.8474000  *     4     3     2
     6       C          1.53980000  *  111.7603000  * -179.4665000  *     5     4     3
     7       N          1.48880000  *  114.2234000  *  179.8305000  *     6     5     4
     8       C          1.35040000  *  112.8834000  *   71.6172000  *     7     6     5
     9       C          1.33770000  *  125.7927000  *   60.2358000  *     8     7     6
    10       C          1.34220000  *  118.8549000  * -174.8037000  *     9     8     7
    11       C          1.35270000  *  122.3905000  *    2.3317000  *    10     9     8
    12       C          1.35200000  *  116.0775000  *   -2.5194000  *    11    10     9
    13       C          1.33510000  *  112.9917000  * -116.9207000  *     8     7     6
    14       C          1.34510000  *  106.5357000  *  175.1030000  *    13     8     9
    15       C          1.34920000  *  105.9990000  *    2.6969000  *    14    13     8
    16       C          1.35150000  *  122.6432000  *  177.1303000  *    15    14    13
    17       C          1.35000000  *  120.0783000  * -176.7220000  *    16    15    14
    18       C          1.34740000  *  121.0302000  *  128.2691000  *    17    16    15
    19       C          1.34230000  *  121.4966000  * -178.0167000  *    18    17    16
    20       C          1.34060000  *  120.0801000  *    0.2772000  *    19    18    17
    21       C          1.34060000  *  119.3669000  *    0.7455000  *    20    19    18
    22       C          1.34240000  *  120.1225000  *   -0.3048000  *    21    20    19
    23       C          1.34910000  *  115.8732000  *    0.7947000  *    16    15    14
    24       C          1.34920000  *  121.4520000  *  176.8355000  *    23    16    17
    25       C          1.34910000  *  132.4763000  * -179.3372000  *    14    13     8
    26       C          1.35020000  *  123.9767000  *    6.2308000  *    25    14    13
    27       C          1.34840000  *  121.4075000  * -134.6979000  *    26    25    14
    28       C          1.34240000  *  121.3862000  * -178.8174000  *    27    26    25
    29       C          1.34070000  *  120.1517000  *    1.1548000  *    28    27    26
    30       C          1.34050000  *  119.3728000  *    0.4118000  *    29    28    27
    31       C          1.34220000  *  120.0471000  *   -0.7726000  *    30    29    28
    32       N          1.36110000  *  112.4079000  *  174.7264000  *    24    23    16
    33       C          1.35090000  *  101.5327000  *    7.4372000  *    32    24    23
    34       C          1.33900000  *  112.6466000  *   -9.0750000  *    33    32    24
    35       C          1.34270000  *  118.2102000  * -171.4072000  *    34    33    32
    36       C          1.34380000  *  120.0363000  *   -5.2506000  *    35    34    33
    37       C          1.34220000  *  120.7367000  *    1.1767000  *    36    35    34
    38       C          1.34120000  *  124.9367000  *  173.7615000  *    33    32    24
    39       C          1.48930000  *  116.8001000  * -115.9331000  *    32    24    23
    40       C          1.53990000  *  114.2740000  *  -72.6566000  *    39    32    33
    41       C          1.53760000  *  111.7571000  * -179.5863000  *    40    39    32
    42       C          1.53730000  *  111.8379000  *  179.3041000  *    41    40    39
    43       C          1.53680000  *  111.9511000  * -179.8104000  *    42    41    40
    44       C          1.53440000  *  111.7964000  *  179.9377000  *    43    42    41
    45       C          1.35540000  *  122.5425000  *  177.2795000  *    11    10     9
    46       C          1.34400000  *  127.1053000  *   -0.8225000  *    45    11    12
    47       C          1.33580000  *  111.1475000  * -179.6980000  *    46    45    11
    48       C          1.34110000  *  110.1628000  *    0.0578000  *    47    46    45
    49       S          1.46990000  *  108.8971000  *    0.0000000  *    48    47    46
    50       C          1.35050000  *  127.2061000  *  179.9267000  *    48    47    46
    51       C          1.34980000  *  125.6074000  * -179.9544000  *    50    48    47
    52       C          1.33120000  *  108.0059000  *  179.9677000  *    51    50    48
    53       C          1.32670000  *  110.3275000  *    0.0000000  *    52    51    50
    54       S          1.45780000  *  112.4827000  *    0.0000000  *    53    52    51
    55       C          1.33730000  *  109.9391000  * -179.9819000  *    53    52    51
    56       C          1.34920000  *  109.2030000  *    0.0000000  *    55    53    52
    57       S          1.49970000  *  135.4913000  * -179.9797000  *    52    51    50
    58       C          1.34480000  *  129.5532000  *  179.9896000  *    56    55    53
    59       C          1.34740000  *  130.6712000  *    0.0000000  *    58    56    55
    60       C          1.36360000  *  117.9659000  * -179.9985000  *    59    58    56
    61       O          1.20960000  *  118.4324000  *  179.9994000  *    60    59    58
    62       O          1.33520000  *  124.4155000  *    0.0000000  *    60    59    58
    63       C          1.31890000  *  123.0214000  *    0.0000000  *    59    58    56
    64       N          1.15920000  *  179.7730000  * -179.7207000  *    63    59    58
    65       H          1.11470000  *  111.0270000  *  179.9959000  *     1     2     3
    66       H          1.11440000  *  111.1466000  *  -60.1465000  *     1     2     3
    67       H          1.11440000  *  111.1471000  *   60.1416000  *     1     2     3
    68       H          1.11620000  *  109.2248000  *   61.3064000  *     2     1    66
    69       H          1.11630000  *  109.2110000  *  178.4155000  *     2     1    66
    70       H          1.11590000  *  109.2855000  * -179.8511000  *     3     2    68
    71       H          1.11590000  *  109.3517000  *  -62.5660000  *     3     2    68
    72       H          1.11580000  *  109.4250000  *  179.9687000  *     4     3    70
    73       H          1.11600000  *  109.2887000  * -179.9563000  *     4     3    71
    74       H          1.11510000  *  108.3792000  * -179.2023000  *     5     4    72
    75       H          1.11580000  *  109.2395000  *  -62.4546000  *     5     4    72
    76       H          1.11050000  *  109.5158000  *  -66.0170000  *     6     5    74
    77       H          1.11430000  *  108.7295000  * -178.0127000  *     6     5    74
    78       H          1.10350000  *  120.9149000  * -178.9406000  *     9     8    13
    79       H          1.10290000  *  115.1848000  *  179.8044000  *    10     9     8
    80       H          1.09240000  *  119.5135000  *  176.4944000  *    12    11    10
    81       H          1.10440000  *  120.6682000  *  175.1277000  *    18    17    22
    82       H          1.10390000  *  120.0468000  *  179.1730000  *    19    18    17
    83       H          1.10370000  *  120.3113000  *  179.8013000  *    20    19    18
    84       H          1.10390000  *  119.8270000  *  179.5201000  *    21    20    19
    85       H          1.10400000  *  117.7161000  * -179.3512000  *    22    21    20
    86       H          1.10400000  *  120.8339000  *  179.7372000  *    27    26    31
    87       H          1.10390000  *  120.0359000  * -178.8907000  *    28    27    26
    88       H          1.10370000  *  120.3265000  *  179.5228000  *    29    28    27
    89       H          1.10390000  *  119.8962000  *  178.2952000  *    30    29    28
    90       H          1.10450000  *  117.7269000  *  176.8884000  *    31    30    29
    91       H          1.09800000  *  122.9636000  *  173.6308000  *    35    34    33
    92       H          1.10410000  *  119.8059000  * -179.4491000  *    36    35    34
    93       H          1.10380000  *  120.1431000  *  179.6777000  *    37    36    35
    94       H          1.10300000  *  121.4020000  *  179.1438000  *    38    33    34
    95       H          1.11410000  *  109.7514000  *   49.6398000  *    39    32    33
    96       H          1.11050000  *  110.9500000  *  162.8810000  *    39    32    33
    97       H          1.11510000  *  110.2885000  *  178.0577000  *    40    39    95
    98       H          1.11580000  *  109.6686000  * -175.7455000  *    40    39    96
    99       H          1.11580000  *  109.4285000  *  179.0449000  *    41    40    97
   100       H          1.11610000  *  109.2968000  *  -63.5177000  *    41    40    97
   101       H          1.11590000  *  109.3848000  * -179.9667000  *    42    41    99
   102       H          1.11590000  *  109.3743000  *  -62.6100000  *    42    41    99
   103       H          1.11620000  *  109.5843000  *  179.8478000  *    43    42   101
   104       H          1.11630000  *  109.5814000  * -179.9053000  *    43    42   102
   105       H          1.11470000  *  111.0277000  *   58.5423000  *    44    43   103
   106       H          1.11430000  *  111.1480000  *  178.3970000  *    44    43   103
   107       H          1.11440000  *  111.1465000  *  -61.3153000  *    44    43   103
   108       H          1.10200000  *  127.8800000  *    0.1249000  *    46    45    11
   109       H          1.10370000  *  122.9259000  *  179.9549000  *    47    46    45
   110       H          1.10270000  *  128.3202000  *    0.0000000  *    51    50    48
   111       H          1.09940000  *  123.0141000  *  179.9950000  *    55    53    52
   112       H          1.10280000  *  111.8810000  *  179.9963000  *    58    56    55
   113       H          0.97180000  *  106.6496000  *    0.0000000  *    62    60    61
 


          CARTESIAN COORDINATES 

    NO.       ATOM           X           Y           Z

     1         C          0.0000      0.0000      0.0000
     2         C          1.5344      0.0000      0.0000
     3         C          2.1050      1.4269      0.0000
     4         C          3.6422      1.4310     -0.0014
     5         C          4.2102      2.8597     -0.0051
     6         C          5.7500      2.8619     -0.0198
     7         N          6.3589      4.2204     -0.0281
     8         C          6.2269      4.8623      1.1527
     9         C          6.7075      4.4436      2.3287
    10         C          6.4051      5.1385      3.4365
    11         C          5.5941      6.2209      3.4141
    12         C          5.1423      6.5999      2.1974
    13         C          5.4937      5.9744      1.0626
    14         C          5.2620      6.1752     -0.2471
    15         C          5.8229      5.1291     -0.8886
    16         C          5.7380      4.9643     -2.2273
    17         C          6.2619      3.8640     -2.8081
    18         C          5.5280      3.1036     -3.6441
    19         C          6.0268      1.9863     -4.1959
    20         C          7.2796      1.6000     -3.9159
    21         C          8.0196      2.3314     -3.0705
    22         C          7.5092      3.4425     -2.5166
    23         C          5.0670      5.9240     -2.8973
    24         C          4.5099      6.9720     -2.2557
    25         C          4.5956      7.1379     -0.9173
    26         C          4.0817      8.2435     -0.3370
    27         C          2.8359      8.6728     -0.6234
    28         C          2.3340      9.7851     -0.0640
    29         C          3.0805     10.5093      0.7819
    30         C          4.3326     10.1163      1.0555
    31         C          4.8234      8.9988      0.4970
    32         N          3.9798      7.8845     -3.1153
    33         C          4.1000      7.2429     -4.2980
    34         C          4.8296      6.1239     -4.2058
    35         C          5.1687      5.4919     -5.3408
    36         C          4.6900      5.9237     -6.5199
    37         C          3.8903      6.9998     -6.5830
    38         C          3.6059      7.6834     -5.4645
    39         C          4.5986      9.2391     -3.1223
    40         C          6.1385      9.2317     -3.1190
    41         C          6.7154     10.6570     -3.1161
    42         C          8.2525     10.6517     -3.0955
    43         C          8.8318     12.0751     -3.0879
    44         C         10.3660     12.0658     -3.0658
    45         C          5.2435      6.8927      4.5378
    46         C          4.4575      7.9798      4.6207
    47         C          4.3281      8.3855      5.8868
    48         C          5.0265      7.5828      6.7031
    49         S          5.6839      6.5422      5.8996
    50         C          5.1362      7.6792      8.0457
    51         C          5.8506      6.8517      8.8373
    52         C          5.7156      7.2668     10.0949
    53         C          4.9354      8.3387     10.1451
    54         S          4.4599      8.7443      8.8281
    55         C          4.8054      8.7493     11.4112
    56         C          5.5144      7.9324     12.2176
    57         S          6.2271      6.8163     11.4307
    58         C          5.6680      7.9697     13.5531
    59         C          5.1683      8.8201     14.4710
    60         C          5.4964      8.6146     15.7785
    61         O          5.0524      9.3730     16.6097
    62         O          6.2812      7.6258     16.2133
    63         C          4.3827      9.8329     14.1602
    64         N          3.6921     10.7242     13.8914
    65         H         -0.4000     -1.0405     -0.0001
    66         H         -0.4020      0.5174      0.9014
    67         H         -0.4020      0.5175     -0.9014
    68         H          1.9019     -0.5500      0.8991
    69         H          1.9017     -0.5498     -0.8994
    70         H          1.7325      1.9729     -0.8991
    71         H          1.7342      1.9735      0.8994
    72         H          4.0156      0.8857      0.8977
    73         H          4.0115      0.8848     -0.9017
    74         H          3.8153      3.3927     -0.9014
    75         H          3.8420      3.4042      0.8965
    76         H          6.1136      2.2567     -0.8770
    77         H          6.1170      2.2931      0.8653
    78         H          7.3276      3.5332      2.3961
    79         H          6.8299      4.7382      4.3723
    80         H          4.4380      7.4313      2.1200
    81         H          4.4738      3.3556     -3.8557
    82         H          5.3997      1.3738     -4.8669
    83         H          7.6924      0.6802     -4.3650
    84         H          9.0495      2.0160     -2.8285
    85         H          8.1570      4.0205     -1.8347
    86         H          2.1822      8.0994     -1.3035
    87         H          1.3046     10.1062     -0.3004
    88         H          2.6735     11.4286      1.2373
    89         H          4.9645     10.7214      1.7286
    90         H          5.8760      8.7389      0.7073
    91         H          5.8473      4.6290     -5.3644
    92         H          4.9640      5.3956     -7.4500
    93         H          3.5069      7.3491     -7.5574
    94         H          2.9950      8.6001     -5.5203
    95         H          4.2474      9.8089     -4.0128
    96         H          4.2280      9.8493     -2.2717
    97         H          6.5207      8.6972     -2.2180
    98         H          6.5133      8.6841     -4.0160
    99         H          6.3580     11.2038     -4.0207
   100         H          6.3369     11.2062     -2.2213
   101         H          8.6089     10.1041     -2.1909
   102         H          8.6328     10.1023     -3.9893
   103         H          8.4806     12.6268     -3.9925
   104         H          8.4549     12.6277     -2.1942
   105         H         10.7723     13.1038     -3.0606
   106         H         10.7518     11.5465     -2.1585
   107         H         10.7778     11.5453     -3.9610
   108         H          3.9576      8.5175      3.7989
   109         H          3.7243      9.2627      6.1769
   110         H          6.4540      5.9766      8.5438
   111         H          4.2031      9.6229     11.6987
   112         H          6.3158      7.1540     13.9152
   113         H          6.3415      7.7220     17.1784

  H: (RM1): G.B. ROCHA, R.O. FREIRE, A.M.SIMAS, J.J.P. STEWART, J. COMP. CHEM. 27, 1101 (2006)
  C: (RM1): G.B. ROCHA, R.O. FREIRE, A.M.SIMAS, J.J.P. STEWART, J. COMP. CHEM. 27, 1101 (2006)
  N: (RM1): G.B. ROCHA, R.O. FREIRE, A.M.SIMAS, J.J.P. STEWART, J. COMP. CHEM. 27, 1101 (2006)
  O: (RM1): G.B. ROCHA, R.O. FREIRE, A.M.SIMAS, J.J.P. STEWART, J. COMP. CHEM. 27, 1101 (2006)
  S: (RM1): G.B. ROCHA, R.O. FREIRE, A.M.SIMAS, J.J.P. STEWART, J. COMP. CHEM. 27, 1101 (2006)

           Empirical Formula: C56 H49 N3 O2 S3  =   113 atoms



      MOLECULAR POINT GROUP   :   C1  


      RHF CALCULATION, NO. OF DOUBLY OCCUPIED LEVELS = 159


          Geometry optimization using L-BFGS
 CYCLE:     1 TIME:   1.270 TIME LEFT:  2.00D  GRAD.:  1884.826 HEAT:  458.4085
 CYCLE:     2 TIME:   0.508 TIME LEFT:  2.00D  GRAD.:  1633.567 HEAT:  425.3419
 CYCLE:     3 TIME:   0.695 TIME LEFT:  2.00D  GRAD.:   643.607 HEAT:  264.8691
 CYCLE:     4 TIME:   1.098 TIME LEFT:  2.00D  GRAD.:  1633.455 HEAT:  425.3393
 CYCLE:     5 TIME:   0.980 TIME LEFT:  2.00D  GRAD.:  1291.410 HEAT:  363.9445
 CYCLE:     6 TIME:   1.129 TIME LEFT:  2.00D  GRAD.:   608.093 HEAT:  210.8909
 CYCLE:     7 TIME:   1.035 TIME LEFT:  2.00D  GRAD.:   578.226 HEAT:  177.9325
 CYCLE:     8 TIME:   1.148 TIME LEFT:  2.00D  GRAD.:   376.352 HEAT:  164.5318
 CYCLE:     9 TIME:   0.859 TIME LEFT:  2.00D  GRAD.:   304.024 HEAT:  155.9053
 CYCLE:    10 TIME:   0.863 TIME LEFT:  2.00D  GRAD.:   245.995 HEAT:  143.9986
 CYCLE:    11 TIME:   0.840 TIME LEFT:  2.00D  GRAD.:   597.559 HEAT:  146.3752
 CYCLE:    12 TIME:   0.828 TIME LEFT:  2.00D  GRAD.:   120.168 HEAT:  140.2868
 CYCLE:    13 TIME:   0.734 TIME LEFT:  2.00D  GRAD.:    98.237 HEAT:  139.6959
 CYCLE:    14 TIME:   0.664 TIME LEFT:  2.00D  GRAD.:   133.081 HEAT:  138.2109
 CYCLE:    15 TIME:   0.746 TIME LEFT:  2.00D  GRAD.:   156.920 HEAT:  136.8892
 CYCLE:    16 TIME:   0.812 TIME LEFT:  2.00D  GRAD.:   179.279 HEAT:  135.3168
 CYCLE:    17 TIME:   0.703 TIME LEFT:  2.00D  GRAD.:    90.776 HEAT:  134.1387
 CYCLE:    18 TIME:   0.594 TIME LEFT:  2.00D  GRAD.:    56.689 HEAT:  133.7547
 CYCLE:    19 TIME:   0.605 TIME LEFT:  2.00D  GRAD.:    59.900 HEAT:  133.3510
 CYCLE:    20 TIME:   0.539 TIME LEFT:  2.00D  GRAD.:    85.761 HEAT:  132.7969
 CYCLE:    21 TIME:   0.594 TIME LEFT:  2.00D  GRAD.:   113.885 HEAT:  131.9368
 CYCLE:    22 TIME:   0.684 TIME LEFT:  2.00D  GRAD.:   134.135 HEAT:  131.3471
 CYCLE:    23 TIME:   0.645 TIME LEFT:  2.00D  GRAD.:    58.385 HEAT:  130.7114
 CYCLE:    24 TIME:   0.820 TIME LEFT:  2.00D  GRAD.:    51.499 HEAT:  130.3486
 CYCLE:    25 TIME:   0.605 TIME LEFT:  2.00D  GRAD.:    64.369 HEAT:  130.0661
 CYCLE:    26 TIME:   1.383 TIME LEFT:  2.00D  GRAD.:   103.703 HEAT:  129.5944
 CYCLE:    27 TIME:   0.824 TIME LEFT:  2.00D  GRAD.:    59.547 HEAT:  129.1943
 CYCLE:    28 TIME:   0.621 TIME LEFT:  2.00D  GRAD.:    39.819 HEAT:  129.0116
 CYCLE:    29 TIME:   0.793 TIME LEFT:  2.00D  GRAD.:    44.594 HEAT:  128.7823
 CYCLE:    30 TIME:   0.734 TIME LEFT:  2.00D  GRAD.:    58.448 HEAT:  128.5821
 CYCLE:    31 TIME:   0.656 TIME LEFT:  2.00D  GRAD.:    63.174 HEAT:  128.3347
 CYCLE:    32 TIME:   0.949 TIME LEFT:  2.00D  GRAD.:    37.178 HEAT:  128.1389
 CYCLE:    33 TIME:   0.551 TIME LEFT:  2.00D  GRAD.:    38.708 HEAT:  128.0098
 CYCLE:    34 TIME:   0.566 TIME LEFT:  2.00D  GRAD.:    54.472 HEAT:  127.8047
 CYCLE:    35 TIME:   0.602 TIME LEFT:  2.00D  GRAD.:    56.976 HEAT:  127.5413
 CYCLE:    36 TIME:   0.656 TIME LEFT:  2.00D  GRAD.:    56.672 HEAT:  127.3080
 CYCLE:    37 TIME:   0.523 TIME LEFT:  2.00D  GRAD.:    35.611 HEAT:  127.1183
 CYCLE:    38 TIME:   0.539 TIME LEFT:  2.00D  GRAD.:    40.273 HEAT:  126.9395
 CYCLE:    39 TIME:   0.520 TIME LEFT:  2.00D  GRAD.:    46.317 HEAT:  126.7944
 CYCLE:    40 TIME:   0.633 TIME LEFT:  2.00D  GRAD.:    52.430 HEAT:  126.4808
 CYCLE:    41 TIME:   0.664 TIME LEFT:  2.00D  GRAD.:    79.311 HEAT:  126.3060
 CYCLE:    42 TIME:   0.660 TIME LEFT:  2.00D  GRAD.:    32.602 HEAT:  126.0717
 CYCLE:    43 TIME:   0.531 TIME LEFT:  2.00D  GRAD.:    43.446 HEAT:  125.8818
 CYCLE:    44 TIME:   0.555 TIME LEFT:  2.00D  GRAD.:    55.685 HEAT:  125.6676
 CYCLE:    45 TIME:   0.684 TIME LEFT:  2.00D  GRAD.:    67.692 HEAT:  125.3124
 CYCLE:    46 TIME:   0.781 TIME LEFT:  2.00D  GRAD.:    93.906 HEAT:  125.1711
 CYCLE:    47 TIME:   0.703 TIME LEFT:  2.00D  GRAD.:    44.348 HEAT:  124.9196
 CYCLE:    48 TIME:   0.625 TIME LEFT:  2.00D  GRAD.:    32.548 HEAT:  124.7859
 CYCLE:    49 TIME:   0.586 TIME LEFT:  2.00D  GRAD.:    35.526 HEAT:  124.6581
 CYCLE:    50 TIME:   0.594 TIME LEFT:  2.00D  GRAD.:    40.620 HEAT:  124.4728
 CYCLE:    51 TIME:   0.645 TIME LEFT:  2.00D  GRAD.:   101.040 HEAT:  124.4335
 CYCLE:    52 TIME:   0.656 TIME LEFT:  2.00D  GRAD.:    33.975 HEAT:  124.2001
 CYCLE:    53 TIME:   0.547 TIME LEFT:  2.00D  GRAD.:    24.943 HEAT:  124.1084
 CYCLE:    54 TIME:   0.590 TIME LEFT:  2.00D  GRAD.:    36.508 HEAT:  123.9862
 CYCLE:    55 TIME:   0.637 TIME LEFT:  2.00D  GRAD.:    41.665 HEAT:  123.8188
 CYCLE:    56 TIME:   0.664 TIME LEFT:  2.00D  GRAD.:   116.607 HEAT:  123.8377
 CYCLE:    57 TIME:   0.664 TIME LEFT:  2.00D  GRAD.:    26.233 HEAT:  123.5331
 CYCLE:    58 TIME:   0.574 TIME LEFT:  2.00D  GRAD.:    22.233 HEAT:  123.4642
 CYCLE:    59 TIME:   0.586 TIME LEFT:  2.00D  GRAD.:    31.398 HEAT:  123.3352
 CYCLE:    60 TIME:   0.664 TIME LEFT:  2.00D  GRAD.:    30.158 HEAT:  123.2400
 CYCLE:    61 TIME:   0.637 TIME LEFT:  2.00D  GRAD.:    54.471 HEAT:  123.1972
 CYCLE:    62 TIME:   0.664 TIME LEFT:  2.00D  GRAD.:    18.828 HEAT:  123.1101
 CYCLE:    63 TIME:   0.480 TIME LEFT:  2.00D  GRAD.:    20.364 HEAT:  123.0784
 CYCLE:    64 TIME:   0.547 TIME LEFT:  2.00D  GRAD.:    26.100 HEAT:  123.0096
 CYCLE:    65 TIME:   0.621 TIME LEFT:  2.00D  GRAD.:    46.644 HEAT:  122.9304
 CYCLE:    66 TIME:   0.660 TIME LEFT:  2.00D  GRAD.:    23.359 HEAT:  122.8400
 CYCLE:    67 TIME:   0.613 TIME LEFT:  2.00D  GRAD.:    18.728 HEAT:  122.7853
 CYCLE:    68 TIME:   0.551 TIME LEFT:  2.00D  GRAD.:    30.585 HEAT:  122.7189
 CYCLE:    69 TIME:   0.535 TIME LEFT:  2.00D  GRAD.:    35.447 HEAT:  122.6494
 CYCLE:    70 TIME:   0.582 TIME LEFT:  2.00D  GRAD.:    33.424 HEAT:  122.5480
 CYCLE:    71 TIME:   0.680 TIME LEFT:  2.00D  GRAD.:    39.691 HEAT:  122.4804
 CYCLE:    72 TIME:   0.551 TIME LEFT:  2.00D  GRAD.:    23.539 HEAT:  122.4142
 CYCLE:    73 TIME:   0.543 TIME LEFT:  2.00D  GRAD.:    23.624 HEAT:  122.3572
 CYCLE:    74 TIME:   0.555 TIME LEFT:  2.00D  GRAD.:    23.905 HEAT:  122.3043
 CYCLE:    75 TIME:   0.625 TIME LEFT:  2.00D  GRAD.:    47.837 HEAT:  122.2825
 CYCLE:    76 TIME:   0.578 TIME LEFT:  2.00D  GRAD.:    17.483 HEAT:  122.2249
 CYCLE:    77 TIME:   0.531 TIME LEFT:  2.00D  GRAD.:    16.334 HEAT:  122.1980
 CYCLE:    78 TIME:   0.555 TIME LEFT:  2.00D  GRAD.:    22.277 HEAT:  122.1485
 CYCLE:    79 TIME:   0.516 TIME LEFT:  2.00D  GRAD.:    22.279 HEAT:  122.0863
 CYCLE:    80 TIME:   0.652 TIME LEFT:  2.00D  GRAD.:    77.898 HEAT:  122.1080
 CYCLE:    81 TIME:   0.645 TIME LEFT:  2.00D  GRAD.:    16.089 HEAT:  121.9883
 CYCLE:    82 TIME:   0.508 TIME LEFT:  2.00D  GRAD.:    12.457 HEAT:  121.9630
 CYCLE:    83 TIME:   0.574 TIME LEFT:  2.00D  GRAD.:    15.114 HEAT:  121.9149
 CYCLE:    84 TIME:   0.562 TIME LEFT:  2.00D  GRAD.:    33.336 HEAT:  121.8898
 CYCLE:    85 TIME:   0.535 TIME LEFT:  2.00D  GRAD.:    17.669 HEAT:  121.8532
 CYCLE:    86 TIME:   0.613 TIME LEFT:  2.00D  GRAD.:    12.725 HEAT:  121.8182
 CYCLE:    87 TIME:   0.555 TIME LEFT:  2.00D  GRAD.:    14.680 HEAT:  121.7961
 CYCLE:    88 TIME:   0.586 TIME LEFT:  2.00D  GRAD.:    39.371 HEAT:  121.7837
 CYCLE:    89 TIME:   0.512 TIME LEFT:  2.00D  GRAD.:    13.670 HEAT:  121.7493
 CYCLE:    90 TIME:   0.543 TIME LEFT:  2.00D  GRAD.:    11.557 HEAT:  121.7360
 CYCLE:    91 TIME:   0.582 TIME LEFT:  2.00D  GRAD.:    16.438 HEAT:  121.7119
 CYCLE:    92 TIME:   0.590 TIME LEFT:  2.00D  GRAD.:    16.867 HEAT:  121.6819
 CYCLE:    93 TIME:   0.613 TIME LEFT:  2.00D  GRAD.:    57.116 HEAT:  121.7057
 CYCLE:    94 TIME:   0.574 TIME LEFT:  2.00D  GRAD.:    11.060 HEAT:  121.6431
 CYCLE:    95 TIME:   0.480 TIME LEFT:  2.00D  GRAD.:     7.761 HEAT:  121.6355
 CYCLE:    96 TIME:   0.555 TIME LEFT:  2.00D  GRAD.:    10.131 HEAT:  121.6195
 CYCLE:    97 TIME:   0.562 TIME LEFT:  2.00D  GRAD.:    10.211 HEAT:  121.6068
 CYCLE:    98 TIME:   0.602 TIME LEFT:  2.00D  GRAD.:    39.997 HEAT:  121.6123
 CYCLE:    99 TIME:   0.480 TIME LEFT:  2.00D  GRAD.:     9.102 HEAT:  121.5791
 CYCLE:   100 TIME:   0.531 TIME LEFT:  2.00D  GRAD.:     5.224 HEAT:  121.5728
 CYCLE:   101 TIME:   0.586 TIME LEFT:  2.00D  GRAD.:     7.075 HEAT:  121.5646
 CYCLE:   102 TIME:   0.492 TIME LEFT:  2.00D  GRAD.:     9.382 HEAT:  121.5566
 CYCLE:   103 TIME:   0.547 TIME LEFT:  2.00D  GRAD.:     9.126 HEAT:  121.5435
 CYCLE:   104 TIME:   0.562 TIME LEFT:  2.00D  GRAD.:    11.393 HEAT:  121.5355
 CYCLE:   105 TIME:   0.465 TIME LEFT:  2.00D  GRAD.:     7.964 HEAT:  121.5295
 CYCLE:   106 TIME:   0.480 TIME LEFT:  2.00D  GRAD.:     6.552 HEAT:  121.5230
 CYCLE:   107 TIME:   0.543 TIME LEFT:  2.00D  GRAD.:     9.456 HEAT:  121.5174
 CYCLE:   108 TIME:   0.555 TIME LEFT:  2.00D  GRAD.:     7.717 HEAT:  121.5109
 CYCLE:   109 TIME:   0.523 TIME LEFT:  2.00D  GRAD.:     5.769 HEAT:  121.5051
 CYCLE:   110 TIME:   0.539 TIME LEFT:  2.00D  GRAD.:     5.836 HEAT:  121.5007
 CYCLE:   111 TIME:   0.543 TIME LEFT:  2.00D  GRAD.:     7.760 HEAT:  121.4949
 CYCLE:   112 TIME:   0.531 TIME LEFT:  2.00D  GRAD.:     6.579 HEAT:  121.4892
 CYCLE:   113 TIME:   0.504 TIME LEFT:  2.00D  GRAD.:     4.956 HEAT:  121.4849
 CYCLE:   114 TIME:   0.543 TIME LEFT:  2.00D  GRAD.:     5.642 HEAT:  121.4810
 CYCLE:   115 TIME:   0.578 TIME LEFT:  2.00D  GRAD.:     8.632 HEAT:  121.4754
 CYCLE:   116 TIME:   0.574 TIME LEFT:  2.00D  GRAD.:     6.940 HEAT:  121.4679
 CYCLE:   117 TIME:   0.621 TIME LEFT:  2.00D  GRAD.:     8.374 HEAT:  121.4586
 CYCLE:   118 TIME:   0.547 TIME LEFT:  2.00D  GRAD.:    15.462 HEAT:  121.4567
 CYCLE:   119 TIME:   0.625 TIME LEFT:  2.00D  GRAD.:     4.445 HEAT:  121.4507
 CYCLE:   120 TIME:   0.523 TIME LEFT:  2.00D  GRAD.:     4.091 HEAT:  121.4480
 CYCLE:   121 TIME:   0.555 TIME LEFT:  2.00D  GRAD.:    10.329 HEAT:  121.4429
 CYCLE:   122 TIME:   0.555 TIME LEFT:  2.00D  GRAD.:     7.250 HEAT:  121.4378
 CYCLE:   123 TIME:   0.500 TIME LEFT:  2.00D  GRAD.:     4.300 HEAT:  121.4352
 CYCLE:   124 TIME:   0.555 TIME LEFT:  2.00D  GRAD.:     7.993 HEAT:  121.4318
 CYCLE:   125 TIME:   0.508 TIME LEFT:  2.00D  GRAD.:     5.068 HEAT:  121.4284
 CYCLE:   126 TIME:   0.527 TIME LEFT:  2.00D  GRAD.:     3.944 HEAT:  121.4233
 CYCLE:   127 TIME:   0.562 TIME LEFT:  2.00D  GRAD.:     8.284 HEAT:  121.4198
 CYCLE:   128 TIME:   0.574 TIME LEFT:  2.00D  GRAD.:     6.690 HEAT:  121.4148
 CYCLE:   129 TIME:   0.582 TIME LEFT:  2.00D  GRAD.:     6.943 HEAT:  121.4090
 CYCLE:   130 TIME:   0.562 TIME LEFT:  2.00D  GRAD.:     4.903 HEAT:  121.4036
 CYCLE:   131 TIME:   0.547 TIME LEFT:  2.00D  GRAD.:     6.002 HEAT:  121.3972
 CYCLE:   132 TIME:   0.543 TIME LEFT:  2.00D  GRAD.:    11.067 HEAT:  121.3904
 CYCLE:   133 TIME:   0.512 TIME LEFT:  2.00D  GRAD.:     7.223 HEAT:  121.3842
 CYCLE:   134 TIME:   0.527 TIME LEFT:  2.00D  GRAD.:     4.608 HEAT:  121.3814
 CYCLE:   135 TIME:   0.551 TIME LEFT:  2.00D  GRAD.:     5.845 HEAT:  121.3770
 CYCLE:   136 TIME:   0.562 TIME LEFT:  2.00D  GRAD.:     7.173 HEAT:  121.3715
 CYCLE:   137 TIME:   0.566 TIME LEFT:  2.00D  GRAD.:    14.378 HEAT:  121.3682
 CYCLE:   138 TIME:   0.562 TIME LEFT:  2.00D  GRAD.:     5.914 HEAT:  121.3616
 CYCLE:   139 TIME:   0.555 TIME LEFT:  2.00D  GRAD.:     4.671 HEAT:  121.3579
 CYCLE:   140 TIME:   0.566 TIME LEFT:  2.00D  GRAD.:     6.146 HEAT:  121.3541
 CYCLE:   141 TIME:   0.625 TIME LEFT:  2.00D  GRAD.:    11.980 HEAT:  121.3465
 CYCLE:   142 TIME:   0.594 TIME LEFT:  2.00D  GRAD.:    12.407 HEAT:  121.3386
 CYCLE:   143 TIME:   0.496 TIME LEFT:  2.00D  GRAD.:     7.314 HEAT:  121.3315
 CYCLE:   144 TIME:   0.641 TIME LEFT:  2.00D  GRAD.:     8.670 HEAT:  121.3228
 CYCLE:   145 TIME:   0.574 TIME LEFT:  2.00D  GRAD.:     8.536 HEAT:  121.3171
 CYCLE:   146 TIME:   0.574 TIME LEFT:  2.00D  GRAD.:    21.671 HEAT:  121.3123
 CYCLE:   147 TIME:   0.629 TIME LEFT:  2.00D  GRAD.:     7.055 HEAT:  121.2965
 CYCLE:   148 TIME:   0.645 TIME LEFT:  2.00D  GRAD.:     6.401 HEAT:  121.2886
 CYCLE:   149 TIME:   0.664 TIME LEFT:  2.00D  GRAD.:     8.229 HEAT:  121.2785
 CYCLE:   150 TIME:   0.688 TIME LEFT:  2.00D  GRAD.:    18.701 HEAT:  121.2704
 CYCLE:   151 TIME:   0.625 TIME LEFT:  2.00D  GRAD.:    12.870 HEAT:  121.2520
 CYCLE:   152 TIME:   0.535 TIME LEFT:  2.00D  GRAD.:     8.645 HEAT:  121.2374
 CYCLE:   153 TIME:   0.504 TIME LEFT:  2.00D  GRAD.:     8.432 HEAT:  121.2213
 CYCLE:   154 TIME:   0.715 TIME LEFT:  2.00D  GRAD.:    18.132 HEAT:  121.2021
 CYCLE:   155 TIME:   0.664 TIME LEFT:  2.00D  GRAD.:    15.593 HEAT:  121.1815
 CYCLE:   156 TIME:   0.633 TIME LEFT:  2.00D  GRAD.:    11.961 HEAT:  121.1696
 CYCLE:   157 TIME:   0.738 TIME LEFT:  2.00D  GRAD.:    18.607 HEAT:  121.1487
 CYCLE:   158 TIME:   0.715 TIME LEFT:  2.00D  GRAD.:    15.380 HEAT:  121.1257
 CYCLE:   159 TIME:   0.562 TIME LEFT:  2.00D  GRAD.:    10.712 HEAT:  121.1068
 CYCLE:   160 TIME:   0.703 TIME LEFT:  2.00D  GRAD.:    12.031 HEAT:  121.0851
 CYCLE:   161 TIME:   0.730 TIME LEFT:  2.00D  GRAD.:    58.060 HEAT:  121.1166
 CYCLE:   162 TIME:   0.664 TIME LEFT:  2.00D  GRAD.:    13.050 HEAT:  121.0506
 CYCLE:   163 TIME:   0.574 TIME LEFT:  2.00D  GRAD.:     8.930 HEAT:  121.0417
 CYCLE:   164 TIME:   0.660 TIME LEFT:  2.00D  GRAD.:     9.682 HEAT:  121.0150
 CYCLE:   165 TIME:   0.746 TIME LEFT:  2.00D  GRAD.:    14.267 HEAT:  120.9907
 CYCLE:   166 TIME:   0.730 TIME LEFT:  2.00D  GRAD.:    44.315 HEAT:  120.9854
 CYCLE:   167 TIME:   0.621 TIME LEFT:  2.00D  GRAD.:    17.829 HEAT:  120.9384
 CYCLE:   168 TIME:   0.637 TIME LEFT:  2.00D  GRAD.:    11.009 HEAT:  120.9119
 CYCLE:   169 TIME:   0.684 TIME LEFT:  2.00D  GRAD.:    15.438 HEAT:  120.8886
 CYCLE:   170 TIME:   0.668 TIME LEFT:  2.00D  GRAD.:    21.143 HEAT:  120.8619
 CYCLE:   171 TIME:   0.621 TIME LEFT:  2.00D  GRAD.:    14.761 HEAT:  120.8343
 CYCLE:   172 TIME:   0.523 TIME LEFT:  2.00D  GRAD.:    11.198 HEAT:  120.8203
 CYCLE:   173 TIME:   0.520 TIME LEFT:  2.00D  GRAD.:    14.125 HEAT:  120.7996
 CYCLE:   174 TIME:   0.723 TIME LEFT:  2.00D  GRAD.:    18.921 HEAT:  120.7817
 CYCLE:   175 TIME:   0.660 TIME LEFT:  2.00D  GRAD.:    32.074 HEAT:  120.7794
 CYCLE:   176 TIME:   0.609 TIME LEFT:  2.00D  GRAD.:     9.499 HEAT:  120.7561
 CYCLE:   177 TIME:   0.535 TIME LEFT:  2.00D  GRAD.:     8.781 HEAT:  120.7486
 CYCLE:   178 TIME:   0.656 TIME LEFT:  2.00D  GRAD.:    15.021 HEAT:  120.7346
 CYCLE:   179 TIME:   0.562 TIME LEFT:  2.00D  GRAD.:    12.603 HEAT:  120.7178
 CYCLE:   180 TIME:   0.688 TIME LEFT:  2.00D  GRAD.:    36.994 HEAT:  120.7176
 CYCLE:   181 TIME:   0.613 TIME LEFT:  2.00D  GRAD.:     9.821 HEAT:  120.6899
 CYCLE:   182 TIME:   0.574 TIME LEFT:  2.00D  GRAD.:     8.554 HEAT:  120.6838
 CYCLE:   183 TIME:   0.574 TIME LEFT:  2.00D  GRAD.:    10.295 HEAT:  120.6678
 CYCLE:   184 TIME:   0.562 TIME LEFT:  2.00D  GRAD.:    10.781 HEAT:  120.6574
 CYCLE:   185 TIME:   0.566 TIME LEFT:  2.00D  GRAD.:     9.148 HEAT:  120.6494
 CYCLE:   186 TIME:   0.543 TIME LEFT:  2.00D  GRAD.:     5.993 HEAT:  120.6436
 CYCLE:   187 TIME:   0.555 TIME LEFT:  2.00D  GRAD.:     8.079 HEAT:  120.6361
 CYCLE:   188 TIME:   0.543 TIME LEFT:  2.00D  GRAD.:     7.405 HEAT:  120.6297
 CYCLE:   189 TIME:   0.656 TIME LEFT:  2.00D  GRAD.:    18.758 HEAT:  120.6247
 CYCLE:   190 TIME:   0.512 TIME LEFT:  2.00D  GRAD.:    15.698 HEAT:  120.6150
 CYCLE:   191 TIME:   0.535 TIME LEFT:  2.00D  GRAD.:     5.387 HEAT:  120.6082
 CYCLE:   192 TIME:   0.535 TIME LEFT:  2.00D  GRAD.:     4.038 HEAT:  120.6052
 CYCLE:   193 TIME:   0.555 TIME LEFT:  2.00D  GRAD.:     5.198 HEAT:  120.6003
 CYCLE:   194 TIME:   0.551 TIME LEFT:  2.00D  GRAD.:    12.547 HEAT:  120.5968
 CYCLE:   195 TIME:   0.574 TIME LEFT:  2.00D  GRAD.:     5.018 HEAT:  120.5918
 CYCLE:   196 TIME:   0.535 TIME LEFT:  2.00D  GRAD.:     4.624 HEAT:  120.5887
 CYCLE:   197 TIME:   0.523 TIME LEFT:  2.00D  GRAD.:     4.562 HEAT:  120.5856
 CYCLE:   198 TIME:   0.555 TIME LEFT:  2.00D  GRAD.:     5.954 HEAT:  120.5799
 CYCLE:   199 TIME:   0.539 TIME LEFT:  2.00D  GRAD.:    30.373 HEAT:  120.5942
 CYCLE:   200 TIME:   0.535 TIME LEFT:  2.00D  GRAD.:     4.604 HEAT:  120.5744
 CYCLE:   201 TIME:   0.547 TIME LEFT:  2.00D  GRAD.:     3.182 HEAT:  120.5726
 CYCLE:   202 TIME:   0.555 TIME LEFT:  2.00D  GRAD.:     2.995 HEAT:  120.5694
 CYCLE:   203 TIME:   0.543 TIME LEFT:  2.00D  GRAD.:    12.354 HEAT:  120.5691
 CYCLE:   204 TIME:   0.480 TIME LEFT:  2.00D  GRAD.:     4.376 HEAT:  120.5658
 CYCLE:   205 TIME:   0.535 TIME LEFT:  2.00D  GRAD.:     3.522 HEAT:  120.5644
 CYCLE:   206 TIME:   0.527 TIME LEFT:  2.00D  GRAD.:     3.338 HEAT:  120.5624
 CYCLE:   207 TIME:   0.582 TIME LEFT:  2.00D  GRAD.:     9.611 HEAT:  120.5606
 CYCLE:   208 TIME:   0.527 TIME LEFT:  2.00D  GRAD.:     4.297 HEAT:  120.5575
 CYCLE:   209 TIME:   0.453 TIME LEFT:  2.00D  GRAD.:     3.627 HEAT:  120.5564
 CYCLE:   210 TIME:   0.570 TIME LEFT:  2.00D  GRAD.:     6.499 HEAT:  120.5537
 CYCLE:   211 TIME:   0.555 TIME LEFT:  2.00D  GRAD.:     9.546 HEAT:  120.5532
 CYCLE:   212 TIME:   0.520 TIME LEFT:  2.00D  GRAD.:     2.922 HEAT:  120.5513
 CYCLE:   213 TIME:   0.523 TIME LEFT:  2.00D  GRAD.:     2.273 HEAT:  120.5506
 CYCLE:   214 TIME:   0.672 TIME LEFT:  2.00D  GRAD.:     5.442 HEAT:  120.5493
 CYCLE:   215 TIME:   0.484 TIME LEFT:  2.00D  GRAD.:     3.562 HEAT:  120.5482
 CYCLE:   216 TIME:   0.555 TIME LEFT:  2.00D  GRAD.:     5.359 HEAT:  120.5462
 CYCLE:   217 TIME:   0.539 TIME LEFT:  2.00D  GRAD.:     3.316 HEAT:  120.5451
 CYCLE:   218 TIME:   0.547 TIME LEFT:  2.00D  GRAD.:     2.414 HEAT:  120.5431
 CYCLE:   219 TIME:   0.504 TIME LEFT:  2.00D  GRAD.:     4.498 HEAT:  120.5413
 CYCLE:   220 TIME:   0.473 TIME LEFT:  2.00D  GRAD.:     5.102 HEAT:  120.5401
 CYCLE:   221 TIME:   0.527 TIME LEFT:  2.00D  GRAD.:     3.866 HEAT:  120.5391
 CYCLE:   222 TIME:   0.543 TIME LEFT:  2.00D  GRAD.:     4.451 HEAT:  120.5376
 CYCLE:   223 TIME:   0.441 TIME LEFT:  2.00D  GRAD.:     3.900 HEAT:  120.5363
 CYCLE:   224 TIME:   0.473 TIME LEFT:  2.00D  GRAD.:     4.299 HEAT:  120.5351
 CYCLE:   225 TIME:   0.496 TIME LEFT:  2.00D  GRAD.:     4.479 HEAT:  120.5340
 CYCLE:   226 TIME:   0.555 TIME LEFT:  2.00D  GRAD.:     3.084 HEAT:  120.5329
 CYCLE:   227 TIME:   0.484 TIME LEFT:  2.00D  GRAD.:     2.312 HEAT:  120.5320
 CYCLE:   228 TIME:   0.543 TIME LEFT:  2.00D  GRAD.:     3.461 HEAT:  120.5303
 CYCLE:   229 TIME:   0.520 TIME LEFT:  2.00D  GRAD.:     6.775 HEAT:  120.5301
 CYCLE:   230 TIME:   0.418 TIME LEFT:  2.00D  GRAD.:     2.816 HEAT:  120.5291
 CYCLE:   231 TIME:   0.508 TIME LEFT:  2.00D  GRAD.:     1.745 HEAT:  120.5286
 CYCLE:   232 TIME:   0.543 TIME LEFT:  2.00D  GRAD.:     2.400 HEAT:  120.5282
 CYCLE:   233 TIME:   0.535 TIME LEFT:  2.00D  GRAD.:     3.200 HEAT:  120.5275
 CYCLE:   234 TIME:   0.566 TIME LEFT:  2.00D  GRAD.:     2.036 HEAT:  120.5267
 CYCLE:   235 TIME:   0.543 TIME LEFT:  2.00D  GRAD.:     2.679 HEAT:  120.5262
 CYCLE:   236 TIME:   0.516 TIME LEFT:  2.00D  GRAD.:     1.854 HEAT:  120.5258
 CYCLE:   237 TIME:   0.555 TIME LEFT:  2.00D  GRAD.:     1.810 HEAT:  120.5252
 CYCLE:   238 TIME:   0.598 TIME LEFT:  2.00D  GRAD.:     2.270 HEAT:  120.5248
 CYCLE:   239 TIME:   0.562 TIME LEFT:  2.00D  GRAD.:     2.934 HEAT:  120.5243
 CYCLE:   240 TIME:   0.535 TIME LEFT:  2.00D  GRAD.:     1.653 HEAT:  120.5239
 CYCLE:   241 TIME:   0.543 TIME LEFT:  2.00D  GRAD.:     1.710 HEAT:  120.5236
 CYCLE:   242 TIME:   0.527 TIME LEFT:  2.00D  GRAD.:     1.757 HEAT:  120.5232
 CYCLE:   243 TIME:   0.594 TIME LEFT:  2.00D  GRAD.:     2.937 HEAT:  120.5225
 CYCLE:   244 TIME:   0.535 TIME LEFT:  2.00D  GRAD.:     4.333 HEAT:  120.5223
 CYCLE:   245 TIME:   0.492 TIME LEFT:  2.00D  GRAD.:     1.576 HEAT:  120.5217
 CYCLE:   246 TIME:   0.473 TIME LEFT:  2.00D  GRAD.:     1.297 HEAT:  120.5215
 CYCLE:   247 TIME:   0.562 TIME LEFT:  2.00D  GRAD.:     1.574 HEAT:  120.5212
 CYCLE:   248 TIME:   0.535 TIME LEFT:  2.00D  GRAD.:     3.609 HEAT:  120.5207
 CYCLE:   249 TIME:   0.527 TIME LEFT:  2.00D  GRAD.:     1.943 HEAT:  120.5201
 CYCLE:   250 TIME:   0.480 TIME LEFT:  2.00D  GRAD.:     1.377 HEAT:  120.5196
 CYCLE:   251 TIME:   0.504 TIME LEFT:  2.00D  GRAD.:     2.038 HEAT:  120.5192
 CYCLE:   252 TIME:   0.574 TIME LEFT:  2.00D  GRAD.:     5.630 HEAT:  120.5193
 CYCLE:   253 TIME:   0.445 TIME LEFT:  2.00D  GRAD.:     1.967 HEAT:  120.5186
 CYCLE:   254 TIME:   0.484 TIME LEFT:  2.00D  GRAD.:     0.984 HEAT:  120.5184
 CYCLE:   255 TIME:   0.598 TIME LEFT:  2.00D  GRAD.:     1.707 HEAT:  120.5180
 CYCLE:   256 TIME:   0.543 TIME LEFT:  2.00D  GRAD.:     1.459 HEAT:  120.5178
 CYCLE:   257 TIME:   0.543 TIME LEFT:  2.00D  GRAD.:     1.426 HEAT:  120.5174
 CYCLE:   258 TIME:   0.555 TIME LEFT:  2.00D  GRAD.:     5.189 HEAT:  120.5175
 CYCLE:   259 TIME:   0.543 TIME LEFT:  2.00D  GRAD.:     1.627 HEAT:  120.5170
 CYCLE:   260 TIME:   0.566 TIME LEFT:  2.00D  GRAD.:     0.929 HEAT:  120.5168
 CYCLE:   261 TIME:   0.559 TIME LEFT:  2.00D  GRAD.:     1.236 HEAT:  120.5165
 CYCLE:   262 TIME:   0.609 TIME LEFT:  2.00D  GRAD.:     1.611 HEAT:  120.5161
 CYCLE:   263 TIME:   0.578 TIME LEFT:  2.00D  GRAD.:     4.011 HEAT:  120.5159
 CYCLE:   264 TIME:   0.430 TIME LEFT:  2.00D  GRAD.:     1.593 HEAT:  120.5153
 CYCLE:   265 TIME:   0.523 TIME LEFT:  2.00D  GRAD.:     2.167 HEAT:  120.5150
 CYCLE:   266 TIME:   0.523 TIME LEFT:  2.00D  GRAD.:     2.177 HEAT:  120.5145
 CYCLE:   267 TIME:   0.754 TIME LEFT:  2.00D  GRAD.:     2.038 HEAT:  120.5137
 CYCLE:   268 TIME:   0.625 TIME LEFT:  2.00D  GRAD.:     5.771 HEAT:  120.5138
 CYCLE:   269 TIME:   0.496 TIME LEFT:  2.00D  GRAD.:     1.743 HEAT:  120.5132
 CYCLE:   270 TIME:   0.555 TIME LEFT:  2.00D  GRAD.:     1.258 HEAT:  120.5130
 CYCLE:   271 TIME:   0.637 TIME LEFT:  2.00D  GRAD.:     1.768 HEAT:  120.5126
 CYCLE:   272 TIME:   0.594 TIME LEFT:  2.00D  GRAD.:     2.488 HEAT:  120.5120
 CYCLE:   273 TIME:   0.637 TIME LEFT:  2.00D  GRAD.:     4.337 HEAT:  120.5118
 CYCLE:   274 TIME:   0.582 TIME LEFT:  2.00D  GRAD.:     1.809 HEAT:  120.5112
 CYCLE:   275 TIME:   0.676 TIME LEFT:  2.00D  GRAD.:     2.044 HEAT:  120.5110
 CYCLE:   276 TIME:   0.594 TIME LEFT:  2.00D  GRAD.:     1.443 HEAT:  120.5104
 CYCLE:   277 TIME:   0.566 TIME LEFT:  2.00D  GRAD.:     3.616 HEAT:  120.5096
 CYCLE:   278 TIME:   0.633 TIME LEFT:  2.00D  GRAD.:     3.552 HEAT:  120.5092
 CYCLE:   279 TIME:   0.566 TIME LEFT:  2.00D  GRAD.:     1.496 HEAT:  120.5089
 CYCLE:   280 TIME:   0.625 TIME LEFT:  2.00D  GRAD.:     1.341 HEAT:  120.5086
 CYCLE:   281 TIME:   0.652 TIME LEFT:  2.00D  GRAD.:     1.685 HEAT:  120.5082
 CYCLE:   282 TIME:   0.715 TIME LEFT:  2.00D  GRAD.:     2.632 HEAT:  120.5074
 CYCLE:   283 TIME:   0.680 TIME LEFT:  2.00D  GRAD.:     4.636 HEAT:  120.5072
 CYCLE:   284 TIME:   0.605 TIME LEFT:  2.00D  GRAD.:     4.769 HEAT:  120.5069
 CYCLE:   285 TIME:   0.613 TIME LEFT:  2.00D  GRAD.:     2.142 HEAT:  120.5061
 CYCLE:   286 TIME:   0.605 TIME LEFT:  2.00D  GRAD.:     3.247 HEAT:  120.5058
 CYCLE:   287 TIME:   0.625 TIME LEFT:  2.00D  GRAD.:     2.137 HEAT:  120.5053
 CYCLE:   288 TIME:   0.621 TIME LEFT:  2.00D  GRAD.:     1.798 HEAT:  120.5045
 CYCLE:   289 TIME:   0.668 TIME LEFT:  2.00D  GRAD.:     2.445 HEAT:  120.5036
 CYCLE:   290 TIME:   0.754 TIME LEFT:  2.00D  GRAD.:     5.442 HEAT:  120.5029
 CYCLE:   291 TIME:   0.598 TIME LEFT:  2.00D  GRAD.:     2.917 HEAT:  120.5017
 CYCLE:   292 TIME:   0.633 TIME LEFT:  2.00D  GRAD.:     2.009 HEAT:  120.5008
 CYCLE:   293 TIME:   0.738 TIME LEFT:  2.00D  GRAD.:     2.923 HEAT:  120.4999
 CYCLE:   294 TIME:   0.637 TIME LEFT:  2.00D  GRAD.:     4.658 HEAT:  120.4992
 CYCLE:   295 TIME:   0.531 TIME LEFT:  2.00D  GRAD.:     2.952 HEAT:  120.4981
 CYCLE:   296 TIME:   0.734 TIME LEFT:  2.00D  GRAD.:     3.282 HEAT:  120.4969
 CYCLE:   297 TIME:   0.637 TIME LEFT:  2.00D  GRAD.:     8.168 HEAT:  120.4966
 CYCLE:   298 TIME:   0.637 TIME LEFT:  2.00D  GRAD.:     3.684 HEAT:  120.4951
 CYCLE:   299 TIME:   0.555 TIME LEFT:  2.00D  GRAD.:     1.836 HEAT:  120.4939
 CYCLE:   300 TIME:   0.715 TIME LEFT:  2.00D  GRAD.:     3.413 HEAT:  120.4923
 CYCLE:   301 TIME:   0.609 TIME LEFT:  2.00D  GRAD.:     5.039 HEAT:  120.4903
 CYCLE:   302 TIME:   0.637 TIME LEFT:  2.00D  GRAD.:    10.309 HEAT:  120.4898
 CYCLE:   303 TIME:   0.617 TIME LEFT:  2.00D  GRAD.:     2.604 HEAT:  120.4877
 CYCLE:   304 TIME:   0.707 TIME LEFT:  2.00D  GRAD.:     5.381 HEAT:  120.4869
 CYCLE:   305 TIME:   0.602 TIME LEFT:  2.00D  GRAD.:     3.045 HEAT:  120.4854
 CYCLE:   306 TIME:   0.605 TIME LEFT:  2.00D  GRAD.:     2.782 HEAT:  120.4838
 CYCLE:   307 TIME:   0.695 TIME LEFT:  2.00D  GRAD.:     3.507 HEAT:  120.4823
 CYCLE:   308 TIME:   0.746 TIME LEFT:  2.00D  GRAD.:     4.328 HEAT:  120.4802
 CYCLE:   309 TIME:   0.676 TIME LEFT:  2.00D  GRAD.:     8.597 HEAT:  120.4782
 CYCLE:   310 TIME:   0.742 TIME LEFT:  2.00D  GRAD.:    17.354 HEAT:  120.4791
 CYCLE:   311 TIME:   0.617 TIME LEFT:  2.00D  GRAD.:    18.927 HEAT:  120.4811
 CYCLE:   312 TIME:   0.605 TIME LEFT:  2.00D  GRAD.:     4.194 HEAT:  120.4733
 CYCLE:   313 TIME:   0.727 TIME LEFT:  2.00D  GRAD.:     3.640 HEAT:  120.4714
 CYCLE:   314 TIME:   0.727 TIME LEFT:  2.00D  GRAD.:    25.764 HEAT:  120.4848
 CYCLE:   315 TIME:   0.602 TIME LEFT:  2.00D  GRAD.:    10.345 HEAT:  120.4651
 CYCLE:   316 TIME:   0.719 TIME LEFT:  2.00D  GRAD.:    15.988 HEAT:  120.4670
 CYCLE:   317 TIME:   0.676 TIME LEFT:  2.00D  GRAD.:     3.802 HEAT:  120.4594
 CYCLE:   318 TIME:   0.727 TIME LEFT:  2.00D  GRAD.:     8.816 HEAT:  120.4606
 CYCLE:   319 TIME:   0.754 TIME LEFT:  2.00D  GRAD.:    16.131 HEAT:  120.4613
 CYCLE:   320 TIME:   0.738 TIME LEFT:  2.00D  GRAD.:     4.869 HEAT:  120.4520
 CYCLE:   321 TIME:   0.668 TIME LEFT:  2.00D  GRAD.:     4.052 HEAT:  120.4482
 CYCLE:   322 TIME:   0.727 TIME LEFT:  2.00D  GRAD.:     5.971 HEAT:  120.4411
 CYCLE:   323 TIME:   0.805 TIME LEFT:  2.00D  GRAD.:     6.954 HEAT:  120.4321
 CYCLE:   324 TIME:   1.051 TIME LEFT:  2.00D  GRAD.:    10.821 HEAT:  120.4269
 CYCLE:   325 TIME:   1.504 TIME LEFT:  2.00D  GRAD.:    39.608 HEAT:  120.4583
 CYCLE:   326 TIME:   0.957 TIME LEFT:  2.00D  GRAD.:    11.048 HEAT:  120.4124
 CYCLE:   327 TIME:   0.965 TIME LEFT:  2.00D  GRAD.:     5.690 HEAT:  120.4130
 CYCLE:   328 TIME:   1.023 TIME LEFT:  2.00D  GRAD.:    18.330 HEAT:  120.4021
 CYCLE:   329 TIME:   0.910 TIME LEFT:  2.00D  GRAD.:    18.089 HEAT:  120.4154
 CYCLE:   330 TIME:   0.859 TIME LEFT:  2.00D  GRAD.:     8.062 HEAT:  120.3808
 CYCLE:   331 TIME:   0.824 TIME LEFT:  2.00D  GRAD.:    19.860 HEAT:  120.3867
 CYCLE:   332 TIME:   0.887 TIME LEFT:  2.00D  GRAD.:     9.671 HEAT:  120.3679
 CYCLE:   333 TIME:   0.887 TIME LEFT:  2.00D  GRAD.:    15.696 HEAT:  120.3607
 CYCLE:   334 TIME:   0.738 TIME LEFT:  2.00D  GRAD.:    10.567 HEAT:  120.3456
 CYCLE:   335 TIME:   0.949 TIME LEFT:  2.00D  GRAD.:    32.704 HEAT:  120.3749
 CYCLE:   336 TIME:   0.965 TIME LEFT:  2.00D  GRAD.:    13.736 HEAT:  120.3152
 CYCLE:   337 TIME:   0.949 TIME LEFT:  2.00D  GRAD.:    13.883 HEAT:  120.3051
 CYCLE:   338 TIME:   1.160 TIME LEFT:  2.00D  GRAD.:     8.558 HEAT:  120.2941
 CYCLE:   339 TIME:   1.078 TIME LEFT:  2.00D  GRAD.:    15.487 HEAT:  120.2817
 CYCLE:   340 TIME:   0.848 TIME LEFT:  2.00D  GRAD.:    12.192 HEAT:  120.2608
 CYCLE:   341 TIME:   1.332 TIME LEFT:  2.00D  GRAD.:    25.518 HEAT:  120.2459
 CYCLE:   342 TIME:   0.863 TIME LEFT:  2.00D  GRAD.:     9.521 HEAT:  120.2277
 CYCLE:   343 TIME:   0.785 TIME LEFT:  2.00D  GRAD.:    11.260 HEAT:  120.2189
 CYCLE:   344 TIME:   0.734 TIME LEFT:  2.00D  GRAD.:    10.824 HEAT:  120.2070
 CYCLE:   345 TIME:   0.840 TIME LEFT:  2.00D  GRAD.:    87.225 HEAT:  120.3293
 CYCLE:   346 TIME:   1.555 TIME LEFT:  2.00D  GRAD.:    10.081 HEAT:  120.1759
 CYCLE:   347 TIME:   1.207 TIME LEFT:  2.00D  GRAD.:     8.355 HEAT:  120.1681
 CYCLE:   348 TIME:   0.801 TIME LEFT:  2.00D  GRAD.:    10.922 HEAT:  120.1429
 CYCLE:   349 TIME:   0.719 TIME LEFT:  2.00D  GRAD.:    23.147 HEAT:  120.1345
 CYCLE:   350 TIME:   0.750 TIME LEFT:  2.00D  GRAD.:     8.630 HEAT:  120.1207
 CYCLE:   351 TIME:   0.645 TIME LEFT:  2.00D  GRAD.:     7.807 HEAT:  120.1116
 CYCLE:   352 TIME:   0.637 TIME LEFT:  2.00D  GRAD.:    10.197 HEAT:  120.0982
 CYCLE:   353 TIME:   0.738 TIME LEFT:  2.00D  GRAD.:    12.716 HEAT:  120.0795
 CYCLE:   354 TIME:   0.914 TIME LEFT:  2.00D  GRAD.:    32.717 HEAT:  120.0877
 CYCLE:   355 TIME:   0.852 TIME LEFT:  2.00D  GRAD.:     8.156 HEAT:  120.0618
 CYCLE:   356 TIME:   0.895 TIME LEFT:  2.00D  GRAD.:     7.144 HEAT:  120.0554
 CYCLE:   357 TIME:   0.668 TIME LEFT:  2.00D  GRAD.:    12.357 HEAT:  120.0408
 CYCLE:   358 TIME:   1.027 TIME LEFT:  2.00D  GRAD.:    11.323 HEAT:  120.0257
 CYCLE:   359 TIME:   0.715 TIME LEFT:  2.00D  GRAD.:    24.389 HEAT:  120.0047
 CYCLE:   360 TIME:   0.719 TIME LEFT:  2.00D  GRAD.:    15.350 HEAT:  119.9861
 CYCLE:   361 TIME:   0.930 TIME LEFT:  2.00D  GRAD.:     7.966 HEAT:  119.9769
 CYCLE:   362 TIME:   0.727 TIME LEFT:  2.00D  GRAD.:     7.114 HEAT:  119.9686
 CYCLE:   363 TIME:   0.781 TIME LEFT:  2.00D  GRAD.:    10.011 HEAT:  119.9563
 CYCLE:   364 TIME:   0.680 TIME LEFT:  2.00D  GRAD.:    23.094 HEAT:  119.9449
 CYCLE:   365 TIME:   0.695 TIME LEFT:  2.00D  GRAD.:     9.853 HEAT:  119.9280
 CYCLE:   366 TIME:   0.887 TIME LEFT:  2.00D  GRAD.:     7.882 HEAT:  119.9185
 CYCLE:   367 TIME:   0.645 TIME LEFT:  2.00D  GRAD.:    10.265 HEAT:  119.9079
 CYCLE:   368 TIME:   0.625 TIME LEFT:  2.00D  GRAD.:    18.922 HEAT:  119.8932
 CYCLE:   369 TIME:   0.664 TIME LEFT:  2.00D  GRAD.:    10.662 HEAT:  119.8732
 CYCLE:   370 TIME:   0.820 TIME LEFT:  2.00D  GRAD.:     7.190 HEAT:  119.8593
 CYCLE:   371 TIME:   0.664 TIME LEFT:  2.00D  GRAD.:    11.462 HEAT:  119.8483
 CYCLE:   372 TIME:   0.637 TIME LEFT:  2.00D  GRAD.:    12.099 HEAT:  119.8367
 CYCLE:   373 TIME:   0.605 TIME LEFT:  2.00D  GRAD.:     9.114 HEAT:  119.8246
 CYCLE:   374 TIME:   0.766 TIME LEFT:  2.00D  GRAD.:     6.616 HEAT:  119.8054
 CYCLE:   375 TIME:   0.754 TIME LEFT:  2.00D  GRAD.:    27.696 HEAT:  119.8067
 CYCLE:   376 TIME:   0.598 TIME LEFT:  2.00D  GRAD.:     7.911 HEAT:  119.7878
 CYCLE:   377 TIME:   0.602 TIME LEFT:  2.00D  GRAD.:     6.296 HEAT:  119.7812
 CYCLE:   378 TIME:   0.711 TIME LEFT:  2.00D  GRAD.:    13.255 HEAT:  119.7653
 CYCLE:   379 TIME:   1.059 TIME LEFT:  2.00D  GRAD.:    22.353 HEAT:  119.7672
 CYCLE:   380 TIME:   0.746 TIME LEFT:  2.00D  GRAD.:     5.184 HEAT:  119.7557
 CYCLE:   381 TIME:   0.738 TIME LEFT:  2.00D  GRAD.:     4.649 HEAT:  119.7535
 CYCLE:   382 TIME:   0.645 TIME LEFT:  2.00D  GRAD.:     8.537 HEAT:  119.7449
 CYCLE:   383 TIME:   0.695 TIME LEFT:  2.00D  GRAD.:     6.675 HEAT:  119.7359
 CYCLE:   384 TIME:   0.664 TIME LEFT:  2.00D  GRAD.:    19.256 HEAT:  119.7337
 CYCLE:   385 TIME:   0.609 TIME LEFT:  2.00D  GRAD.:     5.787 HEAT:  119.7260
 CYCLE:   386 TIME:   0.664 TIME LEFT:  2.00D  GRAD.:     4.402 HEAT:  119.7228
 CYCLE:   387 TIME:   0.871 TIME LEFT:  2.00D  GRAD.:     5.526 HEAT:  119.7189
 CYCLE:   388 TIME:   0.664 TIME LEFT:  2.00D  GRAD.:     8.370 HEAT:  119.7148
 CYCLE:   389 TIME:   0.637 TIME LEFT:  2.00D  GRAD.:     9.544 HEAT:  119.7106
 CYCLE:   390 TIME:   0.500 TIME LEFT:  2.00D  GRAD.:     4.834 HEAT:  119.7067
 CYCLE:   391 TIME:   0.598 TIME LEFT:  2.00D  GRAD.:     5.686 HEAT:  119.7025
 CYCLE:   392 TIME:   0.523 TIME LEFT:  2.00D  GRAD.:     4.844 HEAT:  119.6990
 CYCLE:   393 TIME:   0.645 TIME LEFT:  2.00D  GRAD.:    10.496 HEAT:  119.6938
 CYCLE:   394 TIME:   0.816 TIME LEFT:  2.00D  GRAD.:    19.590 HEAT:  119.6968
 CYCLE:   395 TIME:   0.613 TIME LEFT:  2.00D  GRAD.:     3.972 HEAT:  119.6890
 CYCLE:   396 TIME:   0.719 TIME LEFT:  2.00D  GRAD.:     3.563 HEAT:  119.6876
 CYCLE:   397 TIME:   1.008 TIME LEFT:  2.00D  GRAD.:     3.674 HEAT:  119.6827
 CYCLE:   398 TIME:   0.938 TIME LEFT:  2.00D  GRAD.:    13.387 HEAT:  119.6801
 CYCLE:   399 TIME:   0.637 TIME LEFT:  2.00D  GRAD.:     4.098 HEAT:  119.6753
 CYCLE:   400 TIME:   0.645 TIME LEFT:  2.00D  GRAD.:     3.687 HEAT:  119.6740
 CYCLE:   401 TIME:   0.730 TIME LEFT:  2.00D  GRAD.:     8.539 HEAT:  119.6697
 CYCLE:   402 TIME:   0.699 TIME LEFT:  2.00D  GRAD.:     9.812 HEAT:  119.6682
 CYCLE:   403 TIME:   0.656 TIME LEFT:  2.00D  GRAD.:     3.406 HEAT:  119.6658
 CYCLE:   404 TIME:   0.785 TIME LEFT:  2.00D  GRAD.:     2.645 HEAT:  119.6645
 CYCLE:   405 TIME:   0.633 TIME LEFT:  2.00D  GRAD.:     3.059 HEAT:  119.6629
 CYCLE:   406 TIME:   0.609 TIME LEFT:  2.00D  GRAD.:     4.769 HEAT:  119.6596
 CYCLE:   407 TIME:   0.637 TIME LEFT:  2.00D  GRAD.:    10.327 HEAT:  119.6586
 CYCLE:   408 TIME:   0.629 TIME LEFT:  2.00D  GRAD.:     2.844 HEAT:  119.6553
 CYCLE:   409 TIME:   0.914 TIME LEFT:  2.00D  GRAD.:     2.973 HEAT:  119.6545
 CYCLE:   410 TIME:   0.805 TIME LEFT:  2.00D  GRAD.:     4.073 HEAT:  119.6528
 CYCLE:   411 TIME:   0.746 TIME LEFT:  2.00D  GRAD.:    12.356 HEAT:  119.6529
 CYCLE:   412 TIME:   0.688 TIME LEFT:  2.00D  GRAD.:     3.303 HEAT:  119.6494
 CYCLE:   413 TIME:   0.715 TIME LEFT:  2.00D  GRAD.:     2.405 HEAT:  119.6483
 CYCLE:   414 TIME:   1.184 TIME LEFT:  2.00D  GRAD.:     3.001 HEAT:  119.6470
 CYCLE:   415 TIME:   0.887 TIME LEFT:  2.00D  GRAD.:     6.311 HEAT:  119.6454
 CYCLE:   416 TIME:   0.758 TIME LEFT:  2.00D  GRAD.:     7.897 HEAT:  119.6446
 CYCLE:   417 TIME:   0.699 TIME LEFT:  2.00D  GRAD.:     3.157 HEAT:  119.6428
 CYCLE:   418 TIME:   0.805 TIME LEFT:  2.00D  GRAD.:     2.661 HEAT:  119.6415
 CYCLE:   419 TIME:   0.688 TIME LEFT:  2.00D  GRAD.:     2.996 HEAT:  119.6404
 CYCLE:   420 TIME:   0.848 TIME LEFT:  2.00D  GRAD.:     7.105 HEAT:  119.6393
 CYCLE:   421 TIME:   0.633 TIME LEFT:  2.00D  GRAD.:     4.036 HEAT:  119.6374
 CYCLE:   422 TIME:   0.766 TIME LEFT:  2.00D  GRAD.:     3.500 HEAT:  119.6362
 CYCLE:   423 TIME:   0.637 TIME LEFT:  2.00D  GRAD.:     3.233 HEAT:  119.6347
 CYCLE:   424 TIME:   0.738 TIME LEFT:  2.00D  GRAD.:     3.241 HEAT:  119.6332
 CYCLE:   425 TIME:   1.082 TIME LEFT:  2.00D  GRAD.:     3.880 HEAT:  119.6312
 CYCLE:   426 TIME:   0.754 TIME LEFT:  2.00D  GRAD.:     3.805 HEAT:  119.6299
 CYCLE:   427 TIME:   0.762 TIME LEFT:  2.00D  GRAD.:     3.597 HEAT:  119.6287
 CYCLE:   428 TIME:   0.703 TIME LEFT:  2.00D  GRAD.:     4.348 HEAT:  119.6270
 CYCLE:   429 TIME:   0.750 TIME LEFT:  2.00D  GRAD.:     7.452 HEAT:  119.6252
 CYCLE:   430 TIME:   0.676 TIME LEFT:  2.00D  GRAD.:     3.853 HEAT:  119.6233
 CYCLE:   431 TIME:   0.918 TIME LEFT:  2.00D  GRAD.:     2.751 HEAT:  119.6214
 CYCLE:   432 TIME:   0.938 TIME LEFT:  2.00D  GRAD.:     4.484 HEAT:  119.6196
 CYCLE:   433 TIME:   0.781 TIME LEFT:  2.00D  GRAD.:     7.813 HEAT:  119.6170
 CYCLE:   434 TIME:   0.664 TIME LEFT:  2.00D  GRAD.:     3.822 HEAT:  119.6138
 CYCLE:   435 TIME:   0.777 TIME LEFT:  2.00D  GRAD.:     3.621 HEAT:  119.6118
 CYCLE:   436 TIME:   0.957 TIME LEFT:  2.00D  GRAD.:     3.624 HEAT:  119.6103
 CYCLE:   437 TIME:   0.785 TIME LEFT:  2.00D  GRAD.:     4.115 HEAT:  119.6079
 CYCLE:   438 TIME:   0.746 TIME LEFT:  2.00D  GRAD.:     6.429 HEAT:  119.6053
 CYCLE:   439 TIME:   0.680 TIME LEFT:  2.00D  GRAD.:     2.990 HEAT:  119.6031
 CYCLE:   440 TIME:   0.879 TIME LEFT:  2.00D  GRAD.:     5.579 HEAT:  119.6014
 CYCLE:   441 TIME:   0.695 TIME LEFT:  2.00D  GRAD.:     3.576 HEAT:  119.5998
 CYCLE:   442 TIME:   1.059 TIME LEFT:  2.00D  GRAD.:     4.972 HEAT:  119.5975
 CYCLE:   443 TIME:   0.605 TIME LEFT:  2.00D  GRAD.:     3.538 HEAT:  119.5960
 CYCLE:   444 TIME:   0.668 TIME LEFT:  2.00D  GRAD.:     4.126 HEAT:  119.5944
 CYCLE:   445 TIME:   0.684 TIME LEFT:  2.00D  GRAD.:     4.351 HEAT:  119.5929
 CYCLE:   446 TIME:   0.914 TIME LEFT:  2.00D  GRAD.:     2.974 HEAT:  119.5918
 CYCLE:   447 TIME:   0.898 TIME LEFT:  2.00D  GRAD.:     6.125 HEAT:  119.5906
 CYCLE:   448 TIME:   1.051 TIME LEFT:  2.00D  GRAD.:    22.939 HEAT:  119.6010
 CYCLE:   449 TIME:   1.234 TIME LEFT:  2.00D  GRAD.:     2.790 HEAT:  119.5887
 CYCLE:   450 TIME:   0.801 TIME LEFT:  2.00D  GRAD.:     2.238 HEAT:  119.5881
 CYCLE:   451 TIME:   0.941 TIME LEFT:  2.00D  GRAD.:    12.179 HEAT:  119.5907
 CYCLE:   452 TIME:   0.957 TIME LEFT:  2.00D  GRAD.:     3.230 HEAT:  119.5863
 CYCLE:   453 TIME:   0.758 TIME LEFT:  2.00D  GRAD.:     2.130 HEAT:  119.5855
 CYCLE:   454 TIME:   0.875 TIME LEFT:  2.00D  GRAD.:     3.568 HEAT:  119.5831
 CYCLE:   455 TIME:   0.711 TIME LEFT:  2.00D  GRAD.:     3.997 HEAT:  119.5813
 CYCLE:   456 TIME:   0.738 TIME LEFT:  2.00D  GRAD.:     8.342 HEAT:  119.5800
 CYCLE:   457 TIME:   0.613 TIME LEFT:  2.00D  GRAD.:     2.848 HEAT:  119.5780
 CYCLE:   458 TIME:   0.840 TIME LEFT:  2.00D  GRAD.:     6.058 HEAT:  119.5767
 CYCLE:   459 TIME:   0.641 TIME LEFT:  2.00D  GRAD.:     4.974 HEAT:  119.5754
 CYCLE:   460 TIME:   0.793 TIME LEFT:  2.00D  GRAD.:     4.642 HEAT:  119.5721
 CYCLE:   461 TIME:   2.000 TIME LEFT:  2.00D  GRAD.:    24.510 HEAT:  119.5803
 CYCLE:   462 TIME:   0.715 TIME LEFT:  2.00D  GRAD.:     3.450 HEAT:  119.5704
 CYCLE:   463 TIME:   0.953 TIME LEFT:  2.00D  GRAD.:     3.796 HEAT:  119.5695
 CYCLE:   464 TIME:   0.797 TIME LEFT:  2.00D  GRAD.:     5.106 HEAT:  119.5665
 CYCLE:   465 TIME:   0.730 TIME LEFT:  2.00D  GRAD.:     5.547 HEAT:  119.5644
 CYCLE:   466 TIME:   0.781 TIME LEFT:  2.00D  GRAD.:     3.111 HEAT:  119.5628
 CYCLE:   467 TIME:   0.938 TIME LEFT:  2.00D  GRAD.:     3.994 HEAT:  119.5609
 CYCLE:   468 TIME:   0.773 TIME LEFT:  2.00D  GRAD.:     3.761 HEAT:  119.5593
 CYCLE:   469 TIME:   1.766 TIME LEFT:  2.00D  GRAD.:     5.974 HEAT:  119.5567
 CYCLE:   470 TIME:   1.105 TIME LEFT:  2.00D  GRAD.:     3.576 HEAT:  119.5547
 CYCLE:   471 TIME:   0.707 TIME LEFT:  2.00D  GRAD.:     3.103 HEAT:  119.5538
 CYCLE:   472 TIME:   0.789 TIME LEFT:  2.00D  GRAD.:     2.951 HEAT:  119.5509
 CYCLE:   473 TIME:   0.906 TIME LEFT:  2.00D  GRAD.:    12.340 HEAT:  119.5509
 CYCLE:   474 TIME:   0.758 TIME LEFT:  2.00D  GRAD.:     3.587 HEAT:  119.5476
 CYCLE:   475 TIME:   0.688 TIME LEFT:  2.00D  GRAD.:     2.538 HEAT:  119.5465
 CYCLE:   476 TIME:   0.680 TIME LEFT:  2.00D  GRAD.:     2.687 HEAT:  119.5454
 CYCLE:   477 TIME:   0.852 TIME LEFT:  2.00D  GRAD.:     4.976 HEAT:  119.5435
 CYCLE:   478 TIME:   0.684 TIME LEFT:  2.00D  GRAD.:    13.432 HEAT:  119.5453
 CYCLE:   479 TIME:   0.785 TIME LEFT:  2.00D  GRAD.:     2.550 HEAT:  119.5421
 CYCLE:   480 TIME:   0.859 TIME LEFT:  2.00D  GRAD.:     2.187 HEAT:  119.5415
 CYCLE:   481 TIME:   0.727 TIME LEFT:  2.00D  GRAD.:     1.944 HEAT:  119.5404
 CYCLE:   482 TIME:   0.883 TIME LEFT:  2.00D  GRAD.:     2.932 HEAT:  119.5385
 CYCLE:   483 TIME:   0.797 TIME LEFT:  2.00D  GRAD.:    22.750 HEAT:  119.5474
 CYCLE:   484 TIME:   0.652 TIME LEFT:  2.00D  GRAD.:     2.865 HEAT:  119.5372
 CYCLE:   485 TIME:   0.867 TIME LEFT:  2.00D  GRAD.:     3.036 HEAT:  119.5374
 CYCLE:   486 TIME:   0.766 TIME LEFT:  2.00D  GRAD.:     4.807 HEAT:  119.5354
 CYCLE:   487 TIME:   0.617 TIME LEFT:  2.00D  GRAD.:     6.163 HEAT:  119.5350
 CYCLE:   488 TIME:   0.809 TIME LEFT:  2.00D  GRAD.:     2.249 HEAT:  119.5341
 CYCLE:   489 TIME:   1.379 TIME LEFT:  2.00D  GRAD.:     2.312 HEAT:  119.5337
 CYCLE:   490 TIME:   1.375 TIME LEFT:  2.00D  GRAD.:     2.043 HEAT:  119.5330
 CYCLE:   491 TIME:   0.902 TIME LEFT:  2.00D  GRAD.:     3.643 HEAT:  119.5314
 CYCLE:   492 TIME:   1.121 TIME LEFT:  2.00D  GRAD.:    12.471 HEAT:  119.5330
 CYCLE:   493 TIME:   0.859 TIME LEFT:  2.00D  GRAD.:     2.322 HEAT:  119.5299
 CYCLE:   494 TIME:   0.672 TIME LEFT:  2.00D  GRAD.:     1.872 HEAT:  119.5295
 CYCLE:   495 TIME:   0.754 TIME LEFT:  2.00D  GRAD.:     2.663 HEAT:  119.5280
 CYCLE:   496 TIME:   1.289 TIME LEFT:  2.00D  GRAD.:     5.164 HEAT:  119.5277
 CYCLE:   497 TIME:   0.543 TIME LEFT:  2.00D  GRAD.:     1.936 HEAT:  119.5270
 CYCLE:   498 TIME:   0.676 TIME LEFT:  2.00D  GRAD.:     2.145 HEAT:  119.5266
 CYCLE:   499 TIME:   1.195 TIME LEFT:  2.00D  GRAD.:     3.880 HEAT:  119.5262
 CYCLE:   500 TIME:   0.973 TIME LEFT:  2.00D  GRAD.:     2.887 HEAT:  119.5256
 CYCLE:   501 TIME:   0.840 TIME LEFT:  2.00D  GRAD.:     1.671 HEAT:  119.5249
 CYCLE:   502 TIME:   0.902 TIME LEFT:  2.00D  GRAD.:     2.323 HEAT:  119.5245
 CYCLE:   503 TIME:   0.758 TIME LEFT:  2.00D  GRAD.:     2.866 HEAT:  119.5241
 CYCLE:   504 TIME:   0.703 TIME LEFT:  2.00D  GRAD.:     2.294 HEAT:  119.5237
 CYCLE:   505 TIME:   0.812 TIME LEFT:  2.00D  GRAD.:     2.028 HEAT:  119.5231
 CYCLE:   506 TIME:   0.750 TIME LEFT:  2.00D  GRAD.:     8.048 HEAT:  119.5238
 CYCLE:   507 TIME:   0.645 TIME LEFT:  2.00D  GRAD.:     1.807 HEAT:  119.5227
 CYCLE:   508 TIME:   1.117 TIME LEFT:  2.00D  GRAD.:     1.432 HEAT:  119.5225
 CYCLE:   509 TIME:   0.828 TIME LEFT:  2.00D  GRAD.:     1.267 HEAT:  119.5219
 CYCLE:   510 TIME:   0.781 TIME LEFT:  2.00D  GRAD.:     3.727 HEAT:  119.5208
 CYCLE:   511 TIME:   0.695 TIME LEFT:  2.00D  GRAD.:     7.148 HEAT:  119.5211
 CYCLE:   512 TIME:   0.648 TIME LEFT:  2.00D  GRAD.:     2.088 HEAT:  119.5201
 CYCLE:   513 TIME:   0.617 TIME LEFT:  2.00D  GRAD.:     1.292 HEAT:  119.5198
 CYCLE:   514 TIME:   0.816 TIME LEFT:  2.00D  GRAD.:     3.190 HEAT:  119.5193
 CYCLE:   515 TIME:   0.617 TIME LEFT:  2.00D  GRAD.:     2.221 HEAT:  119.5189
 CYCLE:   516 TIME:   0.734 TIME LEFT:  2.00D  GRAD.:     2.068 HEAT:  119.5183
 CYCLE:   517 TIME:   1.348 TIME LEFT:  2.00D  GRAD.:    10.043 HEAT:  119.5199
 CYCLE:   518 TIME:   1.254 TIME LEFT:  2.00D  GRAD.:     2.173 HEAT:  119.5175
 CYCLE:   519 TIME:   0.805 TIME LEFT:  2.00D  GRAD.:     1.940 HEAT:  119.5173
 CYCLE:   520 TIME:   1.289 TIME LEFT:  2.00D  GRAD.:     2.399 HEAT:  119.5170
 CYCLE:   521 TIME:   1.191 TIME LEFT:  2.00D  GRAD.:     3.623 HEAT:  119.5168
 CYCLE:   522 TIME:   0.645 TIME LEFT:  2.00D  GRAD.:     1.223 HEAT:  119.5164
 CYCLE:   523 TIME:   0.801 TIME LEFT:  2.00D  GRAD.:     1.854 HEAT:  119.5161
 CYCLE:   524 TIME:   0.656 TIME LEFT:  2.00D  GRAD.:     1.554 HEAT:  119.5155
 CYCLE:   525 TIME:   0.883 TIME LEFT:  2.00D  GRAD.:     2.483 HEAT:  119.5147
 CYCLE:   526 TIME:   1.078 TIME LEFT:  2.00D  GRAD.:    12.597 HEAT:  119.5170
 CYCLE:   527 TIME:   0.809 TIME LEFT:  2.00D  GRAD.:     2.128 HEAT:  119.5141
 CYCLE:   528 TIME:   0.984 TIME LEFT:  2.00D  GRAD.:     2.003 HEAT:  119.5139
 CYCLE:   529 TIME:   0.652 TIME LEFT:  2.00D  GRAD.:     2.964 HEAT:  119.5129
 CYCLE:   530 TIME:   0.828 TIME LEFT:  2.00D  GRAD.:     1.828 HEAT:  119.5122
 CYCLE:   531 TIME:   1.484 TIME LEFT:  2.00D  GRAD.:     2.525 HEAT:  119.5118
 CYCLE:   532 TIME:   0.637 TIME LEFT:  2.00D  GRAD.:     1.983 HEAT:  119.5114
 CYCLE:   533 TIME:   0.652 TIME LEFT:  2.00D  GRAD.:     1.623 HEAT:  119.5109
 CYCLE:   534 TIME:   0.828 TIME LEFT:  2.00D  GRAD.:     1.934 HEAT:  119.5101
 CYCLE:   535 TIME:   0.836 TIME LEFT:  2.00D  GRAD.:     3.458 HEAT:  119.5098
 CYCLE:   536 TIME:   0.621 TIME LEFT:  2.00D  GRAD.:     1.439 HEAT:  119.5093
 CYCLE:   537 TIME:   0.805 TIME LEFT:  2.00D  GRAD.:     1.360 HEAT:  119.5091
 CYCLE:   538 TIME:   0.809 TIME LEFT:  2.00D  GRAD.:     2.261 HEAT:  119.5084
 CYCLE:   539 TIME:   1.020 TIME LEFT:  2.00D  GRAD.:     4.531 HEAT:  119.5079
 CYCLE:   540 TIME:   0.629 TIME LEFT:  2.00D  GRAD.:     1.268 HEAT:  119.5072
 CYCLE:   541 TIME:   0.836 TIME LEFT:  2.00D  GRAD.:     1.881 HEAT:  119.5070
 CYCLE:   542 TIME:   0.668 TIME LEFT:  2.00D  GRAD.:     1.596 HEAT:  119.5066
 CYCLE:   543 TIME:   0.828 TIME LEFT:  2.00D  GRAD.:     1.937 HEAT:  119.5062
 CYCLE:   544 TIME:   0.906 TIME LEFT:  2.00D  GRAD.:    26.792 HEAT:  119.5353
 CYCLE:   545 TIME:   0.820 TIME LEFT:  2.00D  GRAD.:     3.431 HEAT:  119.5059
 CYCLE:   546 TIME:   0.715 TIME LEFT:  2.00D  GRAD.:     2.643 HEAT:  119.5056
 CYCLE:   547 TIME:   0.816 TIME LEFT:  2.00D  GRAD.:     4.279 HEAT:  119.5056
 CYCLE:   548 TIME:   0.656 TIME LEFT:  2.00D  GRAD.:    10.465 HEAT:  119.5071
 CYCLE:   549 TIME:   0.691 TIME LEFT:  2.00D  GRAD.:     0.990 HEAT:  119.5048
 CYCLE:   550 TIME:   0.809 TIME LEFT:  2.00D  GRAD.:     1.398 HEAT:  119.5047
 CYCLE:   551 TIME:   0.656 TIME LEFT:  2.00D  GRAD.:     1.756 HEAT:  119.5042
 CYCLE:   552 TIME:   0.836 TIME LEFT:  2.00D  GRAD.:     2.943 HEAT:  119.5034
 CYCLE:   553 TIME:   0.676 TIME LEFT:  2.00D  GRAD.:     3.344 HEAT:  119.5030
 CYCLE:   554 TIME:   0.574 TIME LEFT:  2.00D  GRAD.:     1.446 HEAT:  119.5026
 CYCLE:   555 TIME:   0.816 TIME LEFT:  2.00D  GRAD.:     2.971 HEAT:  119.5024
 CYCLE:   556 TIME:   0.566 TIME LEFT:  2.00D  GRAD.:     2.182 HEAT:  119.5021
 CYCLE:   557 TIME:   0.746 TIME LEFT:  2.00D  GRAD.:     2.040 HEAT:  119.5016
 CYCLE:   558 TIME:   0.711 TIME LEFT:  2.00D  GRAD.:     1.417 HEAT:  119.5014
 CYCLE:   559 TIME:   0.797 TIME LEFT:  2.00D  GRAD.:     3.354 HEAT:  119.5010
 CYCLE:   560 TIME:   1.023 TIME LEFT:  2.00D  GRAD.:     2.773 HEAT:  119.5007
 CYCLE:   561 TIME:   0.777 TIME LEFT:  2.00D  GRAD.:     1.845 HEAT:  119.5003
 CYCLE:   562 TIME:   0.879 TIME LEFT:  2.00D  GRAD.:     2.706 HEAT:  119.4998
 CYCLE:   563 TIME:   0.832 TIME LEFT:  2.00D  GRAD.:     1.705 HEAT:  119.4994
 CYCLE:   564 TIME:   0.887 TIME LEFT:  2.00D  GRAD.:     1.995 HEAT:  119.4990
 CYCLE:   565 TIME:   0.727 TIME LEFT:  2.00D  GRAD.:     1.633 HEAT:  119.4987
 CYCLE:   566 TIME:   0.781 TIME LEFT:  2.00D  GRAD.:     2.702 HEAT:  119.4985
 CYCLE:   567 TIME:   0.809 TIME LEFT:  2.00D  GRAD.:     3.345 HEAT:  119.4981
 CYCLE:   568 TIME:   0.680 TIME LEFT:  2.00D  GRAD.:     1.126 HEAT:  119.4978
 CYCLE:   569 TIME:   0.820 TIME LEFT:  2.00D  GRAD.:     1.320 HEAT:  119.4975
 CYCLE:   570 TIME:   0.812 TIME LEFT:  2.00D  GRAD.:     1.447 HEAT:  119.4973
 CYCLE:   571 TIME:   0.855 TIME LEFT:  2.00D  GRAD.:     4.940 HEAT:  119.4972
 CYCLE:   572 TIME:   0.582 TIME LEFT:  2.00D  GRAD.:     1.513 HEAT:  119.4966
 CYCLE:   573 TIME:   0.859 TIME LEFT:  2.00D  GRAD.:     1.190 HEAT:  119.4964
 CYCLE:   574 TIME:   0.723 TIME LEFT:  2.00D  GRAD.:     1.239 HEAT:  119.4962
 CYCLE:   575 TIME:   1.059 TIME LEFT:  2.00D  GRAD.:     2.800 HEAT:  119.4959
 CYCLE:   576 TIME:   0.789 TIME LEFT:  2.00D  GRAD.:     5.435 HEAT:  119.4961
 CYCLE:   577 TIME:   0.770 TIME LEFT:  2.00D  GRAD.:     1.275 HEAT:  119.4955
 CYCLE:   578 TIME:   1.008 TIME LEFT:  2.00D  GRAD.:     3.230 HEAT:  119.4956
 CYCLE:   579 TIME:   0.668 TIME LEFT:  2.00D  GRAD.:     0.869 HEAT:  119.4952
 CYCLE:   580 TIME:   0.852 TIME LEFT:  2.00D  GRAD.:     0.905 HEAT:  119.4951
 CYCLE:   581 TIME:   0.719 TIME LEFT:  2.00D  GRAD.:     1.367 HEAT:  119.4949
 CYCLE:   582 TIME:   0.812 TIME LEFT:  2.00D  GRAD.:     2.651 HEAT:  119.4946
 CYCLE:   583 TIME:   0.738 TIME LEFT:  2.00D  GRAD.:     6.254 HEAT:  119.4949
 CYCLE:   584 TIME:   0.707 TIME LEFT:  2.00D  GRAD.:     1.671 HEAT:  119.4942
 CYCLE:   585 TIME:   0.816 TIME LEFT:  2.00D  GRAD.:     0.719 HEAT:  119.4941
 CYCLE:   586 TIME:   0.738 TIME LEFT:  2.00D  GRAD.:     1.139 HEAT:  119.4940
 CYCLE:   587 TIME:   0.941 TIME LEFT:  2.00D  GRAD.:     3.329 HEAT:  119.4941
 CYCLE:   588 TIME:   0.723 TIME LEFT:  2.00D  GRAD.:     0.897 HEAT:  119.4937
 CYCLE:   589 TIME:   1.008 TIME LEFT:  2.00D  GRAD.:     1.123 HEAT:  119.4935
 CYCLE:   590 TIME:   0.820 TIME LEFT:  2.00D  GRAD.:     3.305 HEAT:  119.4934
 CYCLE:   591 TIME:   0.895 TIME LEFT:  2.00D  GRAD.:     1.160 HEAT:  119.4931
 CYCLE:   592 TIME:   1.004 TIME LEFT:  2.00D  GRAD.:     1.879 HEAT:  119.4930
 CYCLE:   593 TIME:   0.953 TIME LEFT:  2.00D  GRAD.:     1.007 HEAT:  119.4928
 CYCLE:   594 TIME:   1.203 TIME LEFT:  2.00D  GRAD.:     0.983 HEAT:  119.4928
 CYCLE:   595 TIME:   0.715 TIME LEFT:  2.00D  GRAD.:     1.084 HEAT:  119.4927
 CYCLE:   596 TIME:   0.703 TIME LEFT:  2.00D  GRAD.:     1.974 HEAT:  119.4926
 CYCLE:   597 TIME:   0.723 TIME LEFT:  2.00D  GRAD.:     0.901 HEAT:  119.4925
 CYCLE:   598 TIME:   0.969 TIME LEFT:  2.00D  GRAD.:     2.288 HEAT:  119.4924
 CYCLE:   599 TIME:   0.742 TIME LEFT:  2.00D  GRAD.:     1.025 HEAT:  119.4923
 CYCLE:   600 TIME:   0.836 TIME LEFT:  2.00D  GRAD.:     1.592 HEAT:  119.4925
 CYCLE:   601 TIME:   0.832 TIME LEFT:  2.00D  GRAD.:     0.644 HEAT:  119.4922
 CYCLE:   602 TIME:   0.719 TIME LEFT:  2.00D  GRAD.:     0.979 HEAT:  119.4922
 CYCLE:   603 TIME:   0.922 TIME LEFT:  2.00D  GRAD.:     3.884 HEAT:  119.4924
 CYCLE:   604 TIME:   0.664 TIME LEFT:  2.00D  GRAD.:     0.709 HEAT:  119.4921
 CYCLE:   605 TIME:   0.887 TIME LEFT:  2.00D  GRAD.:     2.735 HEAT:  119.4921
 CYCLE:   606 TIME:   0.680 TIME LEFT:  2.00D  GRAD.:     1.325 HEAT:  119.4919
 CYCLE:   607 TIME:   0.836 TIME LEFT:  2.00D  GRAD.:     1.928 HEAT:  119.4921
 CYCLE:   608 TIME:   0.676 TIME LEFT:  2.00D  GRAD.:     0.432 HEAT:  119.4918
 CYCLE:   609 TIME:   0.637 TIME LEFT:  2.00D  GRAD.:     0.518 HEAT:  119.4918
 CYCLE:   610 TIME:   0.996 TIME LEFT:  1.99D  GRAD.:     7.318 HEAT:  119.4927
 CYCLE:   611 TIME:   0.902 TIME LEFT:  1.99D  GRAD.:     1.159 HEAT:  119.4917
 CYCLE:   612 TIME:   0.703 TIME LEFT:  1.99D  GRAD.:     1.239 HEAT:  119.4916
 CYCLE:   613 TIME:   0.699 TIME LEFT:  1.99D  GRAD.:     1.085 HEAT:  119.4915
 CYCLE:   614 TIME:   0.844 TIME LEFT:  1.99D  GRAD.:     1.342 HEAT:  119.4913
 CYCLE:   615 TIME:   0.906 TIME LEFT:  1.99D  GRAD.:     1.190 HEAT:  119.4912
 CYCLE:   616 TIME:   0.883 TIME LEFT:  1.99D  GRAD.:     1.074 HEAT:  119.4912
 CYCLE:   617 TIME:   1.395 TIME LEFT:  1.99D  GRAD.:     2.442 HEAT:  119.4913
 CYCLE:   618 TIME:   1.137 TIME LEFT:  1.99D  GRAD.:     0.969 HEAT:  119.4910
 CYCLE:   619 TIME:   0.664 TIME LEFT:  1.99D  GRAD.:     0.766 HEAT:  119.4909
 CYCLE:   620 TIME:   0.809 TIME LEFT:  1.99D  GRAD.:     1.130 HEAT:  119.4909
 CYCLE:   621 TIME:   0.648 TIME LEFT:  1.99D  GRAD.:     2.966 HEAT:  119.4909
 CYCLE:   622 TIME:   0.895 TIME LEFT:  1.99D  GRAD.:     0.818 HEAT:  119.4907
 CYCLE:   623 TIME:   0.988 TIME LEFT:  1.99D  GRAD.:     1.265 HEAT:  119.4907
 CYCLE:   624 TIME:   0.730 TIME LEFT:  1.99D  GRAD.:     0.603 HEAT:  119.4907
 CYCLE:   625 TIME:   1.172 TIME LEFT:  1.99D  GRAD.:     3.074 HEAT:  119.4908
 CYCLE:   626 TIME:   0.828 TIME LEFT:  1.99D  GRAD.:     1.469 HEAT:  119.4907
 CYCLE:   627 TIME:   0.840 TIME LEFT:  1.99D  GRAD.:     1.063 HEAT:  119.4906
 CYCLE:   628 TIME:   0.785 TIME LEFT:  1.99D  GRAD.:     0.617 HEAT:  119.4905
 CYCLE:   629 TIME:   0.730 TIME LEFT:  1.99D  GRAD.:     0.644 HEAT:  119.4905
 CYCLE:   630 TIME:   0.789 TIME LEFT:  1.99D  GRAD.:     1.168 HEAT:  119.4905
 CYCLE:   631 TIME:   0.656 TIME LEFT:  1.99D  GRAD.:     0.930 HEAT:  119.4905
 CYCLE:   632 TIME:   1.152 TIME LEFT:  1.99D  GRAD.:     3.120 HEAT:  119.4904
 CYCLE:   633 TIME:   1.262 TIME LEFT:  1.99D  GRAD.:     0.975 HEAT:  119.4903
 CYCLE:   634 TIME:   0.754 TIME LEFT:  1.99D  GRAD.:     0.522 HEAT:  119.4904
 CYCLE:   635 TIME:   0.758 TIME LEFT:  1.99D  GRAD.:     0.383 HEAT:  119.4903
 CYCLE:   636 TIME:   0.770 TIME LEFT:  1.99D  GRAD.:     0.974 HEAT:  119.4903
 CYCLE:   637 TIME:   0.973 TIME LEFT:  1.99D  GRAD.:     1.614 HEAT:  119.4903
 CYCLE:   638 TIME:   0.621 TIME LEFT:  1.99D  GRAD.:     0.979 HEAT:  119.4902
 CYCLE:   639 TIME:   0.656 TIME LEFT:  1.99D  GRAD.:     0.683 HEAT:  119.4901
 CYCLE:   640 TIME:   0.887 TIME LEFT:  1.99D  GRAD.:     1.258 HEAT:  119.4901
 CYCLE:   641 TIME:   0.727 TIME LEFT:  1.99D  GRAD.:     1.019 HEAT:  119.4900
 CYCLE:   642 TIME:   1.172 TIME LEFT:  1.99D  GRAD.:     0.864 HEAT:  119.4899
 CYCLE:   643 TIME:   0.746 TIME LEFT:  1.99D  GRAD.:     0.702 HEAT:  119.4899
 CYCLE:   644 TIME:   0.695 TIME LEFT:  1.99D  GRAD.:     0.708 HEAT:  119.4898
 CYCLE:   645 TIME:   0.637 TIME LEFT:  1.99D  GRAD.:     0.446 HEAT:  119.4898
 CYCLE:   646 TIME:   1.578 TIME LEFT:  1.99D  GRAD.:     2.607 HEAT:  119.4898
 CYCLE:   647 TIME:   0.816 TIME LEFT:  1.99D  GRAD.:     1.066 HEAT:  119.4898
 CYCLE:   648 TIME:   0.836 TIME LEFT:  1.99D  GRAD.:     0.708 HEAT:  119.4896
 CYCLE:   649 TIME:   0.781 TIME LEFT:  1.99D  GRAD.:     0.509 HEAT:  119.4896
 CYCLE:   650 TIME:   0.895 TIME LEFT:  1.99D  GRAD.:     0.732 HEAT:  119.4896
 CYCLE:   651 TIME:   0.809 TIME LEFT:  1.99D  GRAD.:     1.230 HEAT:  119.4895
 CYCLE:   652 TIME:   0.895 TIME LEFT:  1.99D  GRAD.:     0.355 HEAT:  119.4895
 CYCLE:   653 TIME:   1.246 TIME LEFT:  1.99D  GRAD.:     0.257 HEAT:  119.4895
 CYCLE:   654 TIME:   1.074 TIME LEFT:  1.99D  GRAD.:     0.350 HEAT:  119.4895
 CYCLE:   655 TIME:   0.715 TIME LEFT:  1.99D  GRAD.:     0.333 HEAT:  119.4894
 CYCLE:   656 TIME:   0.879 TIME LEFT:  1.99D  GRAD.:     1.413 HEAT:  119.4894
 CYCLE:   657 TIME:   0.805 TIME LEFT:  1.99D  GRAD.:     5.324 HEAT:  119.4899
 CYCLE:   658 TIME:   0.770 TIME LEFT:  1.99D  GRAD.:     0.437 HEAT:  119.4893
 CYCLE:   659 TIME:   0.797 TIME LEFT:  1.99D  GRAD.:     0.820 HEAT:  119.4893
 CYCLE:   660 TIME:   0.695 TIME LEFT:  1.99D  GRAD.:     3.317 HEAT:  119.4895
 CYCLE:   661 TIME:   0.809 TIME LEFT:  1.99D  GRAD.:     0.441 HEAT:  119.4892
 CYCLE:   662 TIME:   1.207 TIME LEFT:  1.99D  GRAD.:     0.400 HEAT:  119.4892
 CYCLE:   663 TIME:   0.930 TIME LEFT:  1.99D  GRAD.:     1.444 HEAT:  119.4892
 CYCLE:   664 TIME:   0.836 TIME LEFT:  1.99D  GRAD.:     3.454 HEAT:  119.4894
 CYCLE:   665 TIME:   0.676 TIME LEFT:  1.99D  GRAD.:     0.717 HEAT:  119.4892
 CYCLE:   666 TIME:   0.809 TIME LEFT:  1.99D  GRAD.:     0.784 HEAT:  119.4891
 CYCLE:   667 TIME:   0.688 TIME LEFT:  1.99D  GRAD.:     1.944 HEAT:  119.4891
 CYCLE:   668 TIME:   0.777 TIME LEFT:  1.99D  GRAD.:     0.709 HEAT:  119.4891
 CYCLE:   669 TIME:   0.723 TIME LEFT:  1.99D  GRAD.:     0.520 HEAT:  119.4890
 CYCLE:   670 TIME:   0.922 TIME LEFT:  1.99D  GRAD.:     0.661 HEAT:  119.4890
 CYCLE:   671 TIME:   0.766 TIME LEFT:  1.99D  GRAD.:     2.653 HEAT:  119.4892
 CYCLE:   672 TIME:   0.711 TIME LEFT:  1.99D  GRAD.:     0.624 HEAT:  119.4889
 CYCLE:   673 TIME:   0.934 TIME LEFT:  1.99D  GRAD.:     0.375 HEAT:  119.4889
 CYCLE:   674 TIME:   0.727 TIME LEFT:  1.99D  GRAD.:     0.433 HEAT:  119.4889
 CYCLE:   675 TIME:   0.770 TIME LEFT:  1.99D  GRAD.:     1.251 HEAT:  119.4890
 CYCLE:   676 TIME:   0.887 TIME LEFT:  1.99D  GRAD.:     1.386 HEAT:  119.4889
 CYCLE:   677 TIME:   0.672 TIME LEFT:  1.99D  GRAD.:     9.537 HEAT:  119.4906
 CYCLE:   678 TIME:   0.730 TIME LEFT:  1.99D  GRAD.:     0.862 HEAT:  119.4889
 CYCLE:   679 TIME:   0.820 TIME LEFT:  1.99D  GRAD.:     1.119 HEAT:  119.4889
 CYCLE:   680 TIME:   0.867 TIME LEFT:  1.99D  GRAD.:     2.696 HEAT:  119.4891
 CYCLE:   681 TIME:   0.949 TIME LEFT:  1.99D  GRAD.:     1.189 HEAT:  119.4888
 CYCLE:   682 TIME:   0.809 TIME LEFT:  1.99D  GRAD.:     1.293 HEAT:  119.4889
 CYCLE:   683 TIME:   0.664 TIME LEFT:  1.99D  GRAD.:     4.145 HEAT:  119.4892
 CYCLE:   684 TIME:   0.777 TIME LEFT:  1.99D  GRAD.:     0.528 HEAT:  119.4888
 CYCLE:   685 TIME:   1.062 TIME LEFT:  1.99D  GRAD.:     0.372 HEAT:  119.4888
 CYCLE:   686 TIME:   0.969 TIME LEFT:  1.99D  GRAD.:     1.832 HEAT:  119.4890
 CYCLE:   687 TIME:   0.793 TIME LEFT:  1.99D  GRAD.:     4.019 HEAT:  119.4891
 CYCLE:   688 TIME:   0.871 TIME LEFT:  1.99D  GRAD.:    19.821 HEAT:  119.4976
 CYCLE:   689 TIME:   0.719 TIME LEFT:  1.99D  GRAD.:     0.952 HEAT:  119.4887
 CYCLE:   690 TIME:   0.988 TIME LEFT:  1.99D  GRAD.:     4.259 HEAT:  119.4895
 CYCLE:   691 TIME:   0.840 TIME LEFT:  1.99D  GRAD.:     2.813 HEAT:  119.4889
 CYCLE:   692 TIME:   1.676 TIME LEFT:  1.99D  GRAD.:     3.402 HEAT:  119.4890
 CYCLE:   693 TIME:   0.715 TIME LEFT:  1.99D  GRAD.:     0.485 HEAT:  119.4888
 CYCLE:   694 TIME:   0.738 TIME LEFT:  1.99D  GRAD.:     0.384 HEAT:  119.4888
 CYCLE:   695 TIME:   0.641 TIME LEFT:  1.99D  GRAD.:     0.878 HEAT:  119.4888
 CYCLE:   696 TIME:   0.570 TIME LEFT:  1.99D  GRAD.:     0.355 HEAT:  119.4887
 CYCLE:   697 TIME:   0.688 TIME LEFT:  1.99D  GRAD.:     1.440 HEAT:  119.4888
 CYCLE:   698 TIME:   0.727 TIME LEFT:  1.99D  GRAD.:     0.797 HEAT:  119.4887
 CYCLE:   699 TIME:   0.711 TIME LEFT:  1.99D  GRAD.:     0.871 HEAT:  119.4887
 CYCLE:   700 TIME:   0.805 TIME LEFT:  1.99D  GRAD.:     0.233 HEAT:  119.4887
 CYCLE:   701 TIME:   0.766 TIME LEFT:  1.99D  GRAD.:     0.551 HEAT:  119.4887
 CYCLE:   702 TIME:   0.574 TIME LEFT:  1.99D  GRAD.:     0.411 HEAT:  119.4887
 CYCLE:   703 TIME:   0.684 TIME LEFT:  1.99D  GRAD.:     3.349 HEAT:  119.4890
 CYCLE:   704 TIME:   1.203 TIME LEFT:  1.99D  GRAD.:     0.401 HEAT:  119.4887
 CYCLE:   705 TIME:   1.641 TIME LEFT:  1.99D  GRAD.:     0.403 HEAT:  119.4887
 CYCLE:   706 TIME:   0.602 TIME LEFT:  1.99D  GRAD.:     0.233 HEAT:  119.4887
 CYCLE:   707 TIME:   0.828 TIME LEFT:  1.99D  GRAD.:     0.278 HEAT:  119.4887
 CYCLE:   708 TIME:   0.820 TIME LEFT:  1.99D  GRAD.:     0.589 HEAT:  119.4887
 CYCLE:   709 TIME:   0.777 TIME LEFT:  1.99D  GRAD.:     0.672 HEAT:  119.4886
 CYCLE:   710 TIME:   0.922 TIME LEFT:  1.99D  GRAD.:     0.591 HEAT:  119.4886
 CYCLE:   711 TIME:   1.336 TIME LEFT:  1.99D  GRAD.:     0.356 HEAT:  119.4886
 CYCLE:   712 TIME:   0.594 TIME LEFT:  1.99D  GRAD.:     0.366 HEAT:  119.4886
 CYCLE:   713 TIME:   1.141 TIME LEFT:  1.99D  GRAD.:     0.395 HEAT:  119.4886
 CYCLE:   714 TIME:   1.613 TIME LEFT:  1.99D  GRAD.:     0.901 HEAT:  119.4886
 CYCLE:   715 TIME:   1.164 TIME LEFT:  1.99D  GRAD.:     0.386 HEAT:  119.4886
 CYCLE:   716 TIME:   0.797 TIME LEFT:  1.99D  GRAD.:     0.404 HEAT:  119.4886
 CYCLE:   717 TIME:   0.711 TIME LEFT:  1.99D  GRAD.:     0.220 HEAT:  119.4886
 CYCLE:   718 TIME:   0.742 TIME LEFT:  1.99D  GRAD.:     0.178 HEAT:  119.4886
 CYCLE:   719 TIME:   0.594 TIME LEFT:  1.99D  GRAD.:     0.204 HEAT:  119.4886
 CYCLE:   720 TIME:   0.586 TIME LEFT:  1.99D  GRAD.:     0.197 HEAT:  119.4886
 CYCLE:   721 TIME:   0.574 TIME LEFT:  1.99D  GRAD.:     0.273 HEAT:  119.4886
 CYCLE:   722 TIME:   0.645 TIME LEFT:  1.99D  GRAD.:     0.432 HEAT:  119.4886
 CYCLE:   723 TIME:   0.562 TIME LEFT:  1.99D  GRAD.:     0.218 HEAT:  119.4886
 CYCLE:   724 TIME:   0.566 TIME LEFT:  1.99D  GRAD.:     0.194 HEAT:  119.4886
 CYCLE:   725 TIME:   0.676 TIME LEFT:  1.99D  GRAD.:     0.256 HEAT:  119.4886
 CYCLE:   726 TIME:   0.547 TIME LEFT:  1.99D  GRAD.:     0.262 HEAT:  119.4885
 CYCLE:   727 TIME:   0.582 TIME LEFT:  1.99D  GRAD.:     0.297 HEAT:  119.4885
 CYCLE:   728 TIME:   0.523 TIME LEFT:  1.99D  GRAD.:     0.219 HEAT:  119.4885
 CYCLE:   729 TIME:   0.590 TIME LEFT:  1.99D  GRAD.:     0.188 HEAT:  119.4885
 CYCLE:   730 TIME:   0.609 TIME LEFT:  1.99D  GRAD.:     0.220 HEAT:  119.4885
 CYCLE:   731 TIME:   0.684 TIME LEFT:  1.99D  GRAD.:     0.295 HEAT:  119.4885
 CYCLE:   732 TIME:   1.117 TIME LEFT:  1.99D  GRAD.:     0.406 HEAT:  119.4885
 CYCLE:   733 TIME:   0.801 TIME LEFT:  1.99D  GRAD.:     0.269 HEAT:  119.4885
 CYCLE:   734 TIME:   1.312 TIME LEFT:  1.99D  GRAD.:     0.213 HEAT:  119.4885
 CYCLE:   735 TIME:   1.430 TIME LEFT:  1.99D  GRAD.:     0.271 HEAT:  119.4885
 CYCLE:   736 TIME:   0.926 TIME LEFT:  1.99D  GRAD.:     0.309 HEAT:  119.4885
 CYCLE:   737 TIME:   1.031 TIME LEFT:  1.99D  GRAD.:     0.513 HEAT:  119.4885
 CYCLE:   738 TIME:   0.754 TIME LEFT:  1.99D  GRAD.:     0.399 HEAT:  119.4885
 CYCLE:   739 TIME:   1.434 TIME LEFT:  1.99D  GRAD.:     0.561 HEAT:  119.4885
 CYCLE:   740 TIME:   0.695 TIME LEFT:  1.99D  GRAD.:     0.407 HEAT:  119.4885
 CYCLE:   741 TIME:   0.797 TIME LEFT:  1.99D  GRAD.:     0.418 HEAT:  119.4884
 CYCLE:   742 TIME:   0.715 TIME LEFT:  1.99D  GRAD.:     0.567 HEAT:  119.4884
 CYCLE:   743 TIME:   0.789 TIME LEFT:  1.99D  GRAD.:     0.340 HEAT:  119.4884
 CYCLE:   744 TIME:   0.918 TIME LEFT:  1.99D  GRAD.:     0.632 HEAT:  119.4884
 CYCLE:   745 TIME:   3.035 TIME LEFT:  1.99D  GRAD.:     0.832 HEAT:  119.4884
 CYCLE:   746 TIME:   2.301 TIME LEFT:  1.99D  GRAD.:     0.932 HEAT:  119.4885
 CYCLE:   747 TIME:   1.141 TIME LEFT:  1.99D  GRAD.:     1.761 HEAT:  119.4885
 CYCLE:   748 TIME:   1.117 TIME LEFT:  1.99D  GRAD.:     0.490 HEAT:  119.4884
 CYCLE:   749 TIME:   0.855 TIME LEFT:  1.99D  GRAD.:     0.737 HEAT:  119.4884
 CYCLE:   750 TIME:   0.758 TIME LEFT:  1.99D  GRAD.:     0.536 HEAT:  119.4884
 CYCLE:   751 TIME:   1.082 TIME LEFT:  1.99D  GRAD.:     0.791 HEAT:  119.4884
[...]
   90          H           0.116901        0.8831     0.88310
   91          H           0.117476        0.8825     0.88252
   92          H           0.107712        0.8923     0.89229
   93          H           0.099553        0.9004     0.90045
   94          H           0.117840        0.8822     0.88216
   95          H           0.075779        0.9242     0.92422
   96          H           0.093465        0.9065     0.90653
   97          H           0.078759        0.9212     0.92124
   98          H           0.079260        0.9207     0.92074
   99          H           0.061362        0.9386     0.93864
  100          H           0.064946        0.9351     0.93505
  101          H           0.063606        0.9364     0.93639
  102          H           0.064377        0.9356     0.93562
  103          H           0.060012        0.9400     0.93999
  104          H           0.059518        0.9405     0.94048
  105          H           0.056321        0.9437     0.94368
  106          H           0.057961        0.9420     0.94204
  107          H           0.058452        0.9415     0.94155
  108          H           0.131442        0.8686     0.86856
  109          H           0.125889        0.8741     0.87411
  110          H           0.135192        0.8648     0.86481
  111          H           0.136368        0.8636     0.86363
  112          H           0.130600        0.8694     0.86940
 DIPOLE           X         Y         Z       TOTAL
 POINT-CHG.     2.960    -5.278    -1.395     6.210
 HYBRID         1.285     1.025     0.543     1.731
 SUM            4.244    -4.253    -0.852     6.069


          ATOMIC ORBITAL ELECTRON POPULATIONS

     Atom    s        px        py        pz   
    1  C   1.15571   0.96350   1.02854   1.02993
    2  C   1.16678   0.95400   0.96560   1.02587
    3  C   1.17069   0.94827   0.97161   1.03215
    4  C   1.16952   0.96240   0.95813   1.02943
    5  C   1.17969   0.95278   0.98401   1.05126
    6  C   1.16044   0.93104   0.81232   1.04763
    7  N   1.53516   1.59958   1.08635   1.05515
    8  C   1.15536   0.96025   0.89010   0.87469
    9  C   1.17055   1.08505   0.99714   0.91951
   10  C   1.17592   0.96915   0.92164   0.98171
   11  C   1.14911   1.07002   0.91703   0.92219
   12  C   1.17318   0.94646   0.98720   0.91278
   13  C   1.15950   1.08616   0.92955   0.92877
   14  C   1.15644   1.04733   0.91229   0.92072
   15  C   1.15175   1.02742   0.87727   0.86600
   16  C   1.14321   1.05688   0.92675   0.90509
   17  C   1.15818   0.94110   0.92604   0.98910
   18  C   1.17998   0.97566   0.96074   0.98475
   19  C   1.17932   0.98083   0.95203   0.99655
   20  C   1.17929   0.93876   0.99149   0.99623
   21  C   1.17943   0.97695   0.96243   0.99002
   22  C   1.18010   0.97936   0.94663   0.99212
   23  C   1.15727   1.04010   0.91115   0.92334
   24  C   1.15251   1.02418   0.87925   0.86731
   25  C   1.14312   1.05569   0.92551   0.90602
   26  C   1.15825   0.94135   0.92662   0.98901
   27  C   1.18029   0.97968   0.94606   0.99052
   28  C   1.17965   0.97717   0.96235   0.98811
   29  C   1.17931   0.93886   0.99120   0.99562
   30  C   1.17921   0.98086   0.95219   0.99920
   31  C   1.17989   0.97566   0.96115   0.98618
   32  N   1.54243   1.59224   1.08917   1.05308
   33  C   1.15583   0.96637   0.88940   0.87513
   34  C   1.15969   1.08682   0.93158   0.92587
   35  C   1.17247   0.95324   0.98153   0.92270
   36  C   1.17833   1.05493   0.96403   0.96871
   37  C   1.17640   0.96526   0.93129   0.97666
   38  C   1.17107   1.08476   0.99645   0.92025
   39  C   1.16049   0.92491   0.82031   1.04715
   40  C   1.17971   0.95342   0.98433   1.05070
   41  C   1.16949   0.96023   0.96025   1.02943
   42  C   1.17068   0.94808   0.97215   1.03168
   43  C   1.16680   0.95259   0.96698   1.02604
   44  C   1.15572   0.96385   1.02839   1.02952
   45  C   1.21394   1.01893   1.00623   1.01581
   46  C   1.18159   1.00502   0.94856   0.98829
   47  C   1.18175   0.95807   0.99545   0.94721
   48  C   1.20071   1.03915   1.03737   1.00875
   49  S   1.88654   1.29520   1.19102   1.18478
   50  C   1.20719   1.06259   0.99555   0.96454
   51  C   1.16797   1.00235   0.98210   0.90445
   52  C   1.22019   1.07688   0.97347   1.02558
   53  C   1.22102   1.13588   0.97960   1.04350
   54  S   1.88303   1.59665   1.00124   0.99382
   55  C   1.16967   0.91122   0.97434   0.87954
   56  C   1.21910   1.17329   1.02885   1.00329
   57  S   1.88103   1.60356   0.98483   1.01117
   58  C   1.17050   0.85882   0.86721   0.96139
   59  C   1.14271   1.05536   1.05581   0.88724
   60  C   1.18032   0.78974   0.79528   0.83484
   61  O   1.90986   1.29124   1.28074   1.87020
   62  O   1.83964   1.65943   1.65368   1.18274
   63  C   1.19707   0.92086   0.92163   0.91698
   64  N   1.84814   1.09226   1.09096   1.11133
   65  H   0.94355
   66  H   0.94138
   67  H   0.94157
   68  H   0.94033
   69  H   0.94036
   70  H   0.93568
   71  H   0.93558
   72  H   0.93904
   73  H   0.93458
   74  H   0.91992
   75  H   0.92122
   76  H   0.90519
   77  H   0.92494
   78  H   0.87953
   79  H   0.89329
   80  H   0.87390
   81  H   0.88248
   82  H   0.89231
   83  H   0.89387
   84  H   0.89235
   85  H   0.88114
   86  H   0.88016
   87  H   0.89107
   88  H   0.89366
   89  H   0.89323
   90  H   0.88310
   91  H   0.88252
   92  H   0.89229
   93  H   0.90045
   94  H   0.88216
   95  H   0.92422
   96  H   0.90653
   97  H   0.92124
   98  H   0.92074
   99  H   0.93864
  100  H   0.93505
  101  H   0.93639
  102  H   0.93562
  103  H   0.93999
  104  H   0.94048
  105  H   0.94368
  106  H   0.94204
  107  H   0.94155
  108  H   0.86856
  109  H   0.87411
  110  H   0.86481
  111  H   0.86363
  112  H   0.86940
  113  H   0.75336
 ******************** TDHF POLARIZABILITIES ********************



          MOLECULAR WEIGHT =  892.20



          ROTATIONAL CONSTANTS IN CM(-1)

          A =    0.00151324   B =    0.00039978   C =    0.00033439



           PRINCIPAL MOMENTS OF INERTIA IN UNITS OF 10**(-40)*GRAM-CM**2

          A =    18498.5279   B =    70020.1088   C =    83712.8892


 ROTATION MATRIX FOR ORIENTATION OF MOLECULE:

         0.258479    0.508323    0.821460
        -0.405721    0.828847   -0.385231
        -0.876686   -0.233710    0.420477


          CARTESIAN COORDINATES 

    NO.       ATOM         X         Y         Z

     1         C        3.5178   -8.8818   -2.3074
     2         C        3.9107   -8.1092   -1.0588
     3         C        3.4711   -6.6509   -1.1648
     4         C        3.8655   -5.8742    0.0893
     5         C        3.4259   -4.4172   -0.0222
     6         C        3.8246   -3.6488    1.2460
     7         N        3.3889   -2.2516    1.2026
     8         C        2.0170   -1.9211    1.2501
     9         C        0.9591   -2.6586    1.7791
    10         C       -0.2961   -2.0755    1.7712
    11         C       -0.5001   -0.7908    1.2473
    12         C        0.5562   -0.0546    0.7152
    13         C        1.8191   -0.6218    0.7128
    14         C        3.1035   -0.1621    0.2398
    15         C        4.0452   -1.2048    0.5017
    16         C        5.3875   -1.0727    0.1568
    17         C        6.3912   -2.1022    0.4066
    18         C        6.7102   -3.0183   -0.5934
    19         C        7.6817   -3.9831   -0.3573
    20         C        8.3339   -4.0320    0.8691
    21         C        8.0168   -3.1135    1.8629
    22         C        7.0466   -2.1454    1.6352
    23         C        5.7591    0.1173   -0.4498
    24         C        4.8173    1.1613   -0.7112
    25         C        3.4759    1.0291   -0.3660
    26         C        2.4727    2.0591   -0.6155
    27         C        1.8241    2.1090   -1.8474
    28         C        0.8552    3.0785   -2.0753
    29         C        0.5337    3.9924   -1.0788
    30         C        1.1797    3.9375    0.1507
    31         C        2.1491    2.9707    0.3872
    32         N        5.4698    2.2051   -1.4210
    33         C        6.8456    1.8720   -1.4676
    34         C        7.0426    0.5749   -0.9276
    35         C        8.3070    0.0073   -0.9361
    36         C        9.3580    0.7368   -1.4733
    37         C        9.1554    2.0161   -1.9966
    38         C        7.9010    2.6063   -2.0024
    39         C        5.0489    3.6082   -1.4212
    40         C        5.4589    4.3367   -0.1332
    41         C        5.0288    5.7992   -0.1993
    42         C        5.4359    6.5363    1.0744
    43         C        5.0056    7.9998    1.0141
    44         C        5.4109    8.7327    2.2825
    45         C       -1.8196   -0.2055    1.2618
    46         C       -2.1169    1.0891    1.5744
    47         C       -3.5206    1.3588    1.4787
    48         C       -4.2292    0.2558    1.0961
    49         S       -3.2163   -1.1073    0.8426
    50         C       -5.6417    0.1711    0.9065
    51         C       -6.4750   -0.7807    1.4315
    52         C       -7.8151   -0.5429    1.0258
    53         C       -7.9378    0.5811    0.2078
    54         S       -6.4590    1.3373   -0.0707
    55         C       -9.2761    0.8153   -0.2019
    56         C      -10.1116   -0.1391    0.3194
    57         S       -9.2917   -1.2994    1.3038
    58         C      -11.5325   -0.2296    0.1528
    59         C      -12.1679    0.1061   -0.9864
    60         C      -13.6272    0.0454   -1.1499
    61         O      -14.2709    0.3175   -2.1498
    62         O      -14.2852   -0.3597   -0.0390
    63         C      -11.4759    0.5255   -2.1524
    64         N      -10.9264    0.8681   -3.1105
    65         H        3.8261   -9.9358   -2.2502
    66         H        2.4309   -8.8804   -2.4741
    67         H        3.9782   -8.4680   -3.2162
    68         H        3.4668   -8.5854   -0.1590
    69         H        5.0077   -8.1746   -0.8980
    70         H        3.9156   -6.1804   -2.0672
    71         H        2.3743   -6.5914   -1.3287
    72         H        3.4194   -6.3459    0.9905
    73         H        4.9626   -5.9354    0.2519
    74         H        3.8780   -3.9392   -0.9172
    75         H        2.3295   -4.3501   -0.1878
    76         H        4.9233   -3.6949    1.4173
    77         H        3.3808   -4.1195    2.1549
    78         H        1.1036   -3.6596    2.1899
    79         H       -1.1438   -2.6288    2.1886
    80         H        0.3897    0.9432    0.2987
    81         H        6.2015   -2.9723   -1.5611
    82         H        7.9347   -4.7040   -1.1403
    83         H        9.0990   -4.7921    1.0513
    84         H        8.5336   -3.1502    2.8264
    85         H        6.7979   -1.4181    2.4139
    86         H        2.0775    1.3863   -2.6290
    87         H        0.3431    3.1199   -3.0412
    88         H       -0.2297    4.7542   -1.2616
    89         H        0.9249    4.6562    0.9349
    90         H        2.6542    2.9209    1.3566
    91         H        8.4758   -0.9924   -0.5268
    92         H       10.3628    0.3058   -1.4876
    93         H       10.0073    2.5652   -2.4100
    94         H        7.7580    3.6066   -2.4146
    95         H        5.4951    4.0998   -2.3176
    96         H        3.9503    3.6702   -1.5881
    97         H        5.0082    3.8355    0.7498
    98         H        6.5556    4.2573    0.0242
    99         H        5.4728    6.2940   -1.0891
   100         H        3.9311    5.8727   -0.3534
   101         H        4.9940    6.0423    1.9655
   102         H        6.5333    6.4648    1.2295
   103         H        5.4474    8.4995    0.1261
   104         H        3.9081    8.0773    0.8619
   105         H        5.1093    9.7899    2.2583
   106         H        4.9532    8.2953    3.1815
   107         H        6.4988    8.7194    2.4424
   108         H       -1.3929    1.8424    1.8751
   109         H       -3.9481    2.3335    1.7010
   110         H       -6.1725   -1.6025    2.0751
   111         H       -9.5722    1.6615   -0.8192
   112         H      -12.0914   -0.6030    1.0239
   113         H      -15.2406   -0.3851   -0.1919


 ENERGY OF "REORIENTED" SYSTEM WITHOUT FIELD:      119.4879637074


  NFREQ=  3  IWFLB=  0  IBET=  1  IGAM=  1
  ATOL= 0.10000D-02  BTOL= 0.10000D-02    MAXITU=  500    MAXITA=  150


 *****************************************************************
 CALCULATION OF STATIC FIELD QUANTITIES
 *****************************************************************

 +++++ ALPHA AT       0.00000 EV.

                           COMPONENTS OF ALPHA

                     *X           *Y           *Z
           *=X:    1011.5303     -38.2106      10.9506
           *=Y:     -38.2270     573.6016     -98.4154
           *=Z:      10.9703     -98.4237     393.7638

  ISOTROPIC AVERAGE ALPHA =     659.63186 A.U. =     97.74736 ANG.**3

 +++++ BETA (SECOND HARMONIC GENERATION) AT       0.00000 EV.

                              COMPONENTS OF BETA
            *XX         *XY         *YY         *XZ         *YZ         *ZZ
   *=X 10073.11131  -712.94736  -162.84211  1270.38322   222.57025   -22.61226
   *=Y  -713.34713  -162.79640   -37.05136   222.55492    -0.16894   -43.57940
   *=Z  1270.79987   222.59917    -0.17852   -22.62424   -43.57567   -42.25562


 AVERAGE BETAX(SHG) VALUE AT   0.00000 EV =       5932.6077 a.u. =  0.512543E-28 ESU
 AVERAGE BETAY(SHG) VALUE AT   0.00000 EV =       -476.2253 a.u. = -0.411431E-29 ESU
 AVERAGE BETAZ(SHG) VALUE AT   0.00000 EV =        736.8566 a.u. =  0.636601E-29 ESU



 AVERAGE BETA (SHG) VALUE AT   0.00000 EV =       5997.1311 a.u. =  0.518117E-28 ESU
   (1 a.u. = 8.639418X10-33 esu)



 +++++ ALPHA AT       0.00000 EV.

                           COMPONENTS OF ALPHA

                     *X           *Y           *Z
           *=X:    1011.5303     -38.2106      10.9506
           *=Y:     -38.2270     573.6016     -98.4154
           *=Z:      10.9703     -98.4237     393.7638

  ISOTROPIC AVERAGE ALPHA =     659.63188 A.U. =     97.74736 ANG.**3


 GAMMA (THIRD HARMONIC GENERATION) AT    0.00000 EV.


 GAMMA(X,X,X,X) =       3900064.24004
 GAMMA(Y,Y,Y,Y) =         85213.76095
 GAMMA(Z,Z,Z,Z) =         16030.58171
 GAMMA(X,X,Y,Y) =         79609.55270
 GAMMA(X,X,Z,Z) =        115542.67362
 GAMMA(Y,Y,X,X) =         79608.94129
 GAMMA(Y,Y,Z,Z) =         13616.41131
 GAMMA(Z,Z,X,X) =        115542.17878
 GAMMA(Z,Z,Y,Y) =         13616.64421


 AVERAGE GAMMA VALUE AT    0.00000 =        883768.99692 a.u. =       445128.15868 ESU (X10-39)




 **********************************************************************
 CALCULATION FOR A FREQUENCY OF    0.25000 EV  =       0.00919 A.U. 
                  WAVELENGTH OF    4959.37 NM  =    2016.38525 CM(-1)
 **********************************************************************

 +++++ ALPHA AT       0.25000 EV.

                           COMPONENTS OF ALPHA

                     *X           *Y           *Z
           *=X:    1016.0227     -38.2120      11.1076
           *=Y:     -38.2244     574.7224     -98.7174
           *=Z:      11.1238     -98.7247     394.4143

  ISOTROPIC AVERAGE ALPHA =     661.71980 A.U. =     98.05676 ANG.**3

 +++++ BETA (SECOND HARMONIC GENERATION) AT       0.25000 EV.

                              COMPONENTS OF BETA
            *XX         *XY         *YY         *XZ         *YZ         *ZZ
   *=X 10584.41197  -739.27092  -175.57266  1336.18115   235.01061   -22.13404
   *=Y  -738.02270  -166.64069   -36.47321   229.31315     1.66306   -46.35222
   *=Z  1336.92001   229.50842     0.64410   -14.63489   -44.82772   -39.50314


 AVERAGE BETAX(SHG) VALUE AT   0.25000 EV =       6238.5956 a.u. =  0.538978E-28 ESU
 AVERAGE BETAY(SHG) VALUE AT   0.25000 EV =       -492.3984 a.u. = -0.425404E-29 ESU
 AVERAGE BETAZ(SHG) VALUE AT   0.25000 EV =        778.9486 a.u. =  0.672966E-29 ESU



 AVERAGE BETA (SHG) VALUE AT   0.25000 EV =       6306.2899 a.u. =  0.544827E-28 ESU
   (1 a.u. = 8.639418X10-33 esu)



 +++++ ALPHA AT       0.75000 EV.

                           COMPONENTS OF ALPHA

                     *X           *Y           *Z
           *=X:    1054.7062     -38.2069      12.5238
           *=Y:     -38.2204     584.0133    -101.2413
           *=Z:      12.5436    -101.2485     399.7998

  ISOTROPIC AVERAGE ALPHA =     679.50644 A.U. =    100.69246 ANG.**3


 GAMMA (THIRD HARMONIC GENERATION) AT    0.25000 EV.


 GAMMA(X,X,X,X) =       4352300.32111
 GAMMA(Y,Y,Y,Y) =         88654.89700
 GAMMA(Z,Z,Z,Z) =         16958.55454
 GAMMA(X,X,Y,Y) =         82706.22598
 GAMMA(X,X,Z,Z) =        126277.25046
 GAMMA(Y,Y,X,X) =         86591.42078
 GAMMA(Y,Y,Z,Z) =         14609.47735
 GAMMA(Z,Z,X,X) =        127292.06858
 GAMMA(Z,Z,Y,Y) =         14244.60260


 AVERAGE GAMMA VALUE AT    0.25000 =        981926.96368 a.u. =       494567.40712 ESU (X10-39)




 **********************************************************************
 CALCULATION FOR A FREQUENCY OF    0.50000 EV  =       0.01837 A.U. 
                  WAVELENGTH OF    2479.68 NM  =    4032.77050 CM(-1)
 **********************************************************************

 +++++ ALPHA AT       0.50000 EV.

                           COMPONENTS OF ALPHA

                     *X           *Y           *Z
           *=X:    1029.9515     -38.2096      11.6015
           *=Y:     -38.2217     578.1358     -99.6395
           *=Z:      11.6165     -99.6456     396.3945

  ISOTROPIC AVERAGE ALPHA =     668.16059 A.U. =     99.01118 ANG.**3

 +++++ BETA (SECOND HARMONIC GENERATION) AT       0.50000 EV.

                              COMPONENTS OF BETA
            *XX         *XY         *YY         *XZ         *YZ         *ZZ
   *=X 12410.52088  -830.14819  -222.29682  1571.27317   280.01114   -20.43389
   *=Y  -821.58438  -179.58689   -34.22545   252.13830     8.14206   -56.09375
   *=Z  1572.79797   252.32907     3.33141    14.97175   -48.93316   -29.52810


 AVERAGE BETAX(SHG) VALUE AT   0.50000 EV =       7331.9203 a.u. =  0.633435E-28 ESU
 AVERAGE BETAY(SHG) VALUE AT   0.50000 EV =       -547.7034 a.u. = -0.473184E-29 ESU
 AVERAGE BETAZ(SHG) VALUE AT   0.50000 EV =        929.2751 a.u. =  0.802840E-29 ESU



 AVERAGE BETA (SHG) VALUE AT   0.50000 EV =       7410.8425 a.u. =  0.640254E-28 ESU
   (1 a.u. = 8.639418X10-33 esu)



 +++++ ALPHA AT       1.50000 EV.

                           COMPONENTS OF ALPHA

                     *X           *Y           *Z
           *=X:    1237.4558     -38.6314      21.3980
           *=Y:     -38.6560     621.0157    -111.8374
           *=Z:      21.4330    -111.8447     421.1684

  ISOTROPIC AVERAGE ALPHA =     759.87997 A.U. =    112.60259 ANG.**3


 GAMMA (THIRD HARMONIC GENERATION) AT    0.50000 EV.


 GAMMA(X,X,X,X) =       6433901.98375
 GAMMA(Y,Y,Y,Y) =        101151.76441
 GAMMA(Z,Z,Z,Z) =         20547.08447
 GAMMA(X,X,Y,Y) =         91309.58864
 GAMMA(X,X,Z,Z) =        172915.44113
 GAMMA(Y,Y,X,X) =        114892.26569
 GAMMA(Y,Y,Z,Z) =         18538.83178
 GAMMA(Z,Z,X,X) =        178187.74446
 GAMMA(Z,Z,Y,Y) =         16409.30498


 AVERAGE GAMMA VALUE AT    0.50000 =       1429570.80186 a.u. =       720032.29459 ESU (X10-39)



 **********************
 *                    *
 * JOB ENDED NORMALLY *
 *                    *
 **********************



 TOTAL JOB TIME:          1319.37 SECONDS

 == MOPAC DONE ==
