 *******************************************************************************
 ** Site#: 37966        For non-commercial use only           Version 21.186W **
 *******************************************************************************
 ** Cite this program as: MOPAC2016, Version: 21.186W, James J. P. Stewart,   **
 ** Stewart Computational Chemistry, web: HTTP://OpenMOPAC.net. Days left: 254**
 *******************************************************************************
 **                                                                           **
 **                                MOPAC2016                                  **
 **                                                                           **
 *******************************************************************************

                              RM1 CALCULATION RESULTS

 *******************************************************************************
 *  CALCULATION DONE:                                Sun Oct 24 14:54:29 2021  *
 *  RM1        - The RM1 Hamiltonian to be used
 *  POLAR      - CALCULATE FIRST, SECOND AND THIRD-ORDER POLARIZABILITIES
 *  PRECISE    - TIGHTER CRITERIA TO BE USED
 *  T=         - A TIME OF 172800.0 SECONDS REQUESTED
 *  DUMP=N     - RESTART FILE WRITTEN EVERY 7200.0 SECONDS REQUESTED
 *  GNORM      - EXIT WHEN GRADIENT NORM DROPS BELOW 0.100
 *******************************************************************************
RM1 PRECISE POLAR GNORM=0.1


  ATOM    CHEMICAL      BOND LENGTH      BOND ANGLE     TWIST ANGLE 
 NUMBER    SYMBOL       (ANGSTROMS)      (DEGREES)       (DEGREES) 
   (I)                     NA:I           NB:NA:I       NC:NB:NA:I       NA    NB    NC 
     1       N          0.00000000       0.0000000       0.0000000        0     0     0
     2       C          1.15910000  *    0.0000000       0.0000000        1     0     0
     3       C          1.31760000  *  178.6435000  *    0.0000000        2     1     0
     4       C          1.35050000  *  123.0078000  *  179.9968000  *     3     2     1
     5       C          1.34940000  *  129.6332000  *    0.0000000  *     4     3     2
     6       C          1.33930000  *  129.8241000  *    0.0000000  *     5     4     3
     7       C          1.33630000  *  110.3174000  *  179.9603000  *     6     5     4
     8       C          1.34300000  *  111.1541000  *    0.0000000  *     7     6     5
     9       S          1.47230000  *  121.4887000  *  179.9872000  *     5     4     3
    10       C          1.35370000  *  126.8816000  * -179.9235000  *     8     7     6
    11       C          1.35000000  *  123.4681000  * -164.1402000  *    10     8     7
    12       C          1.34590000  *  123.6239000  * -179.8930000  *    11    10     8
    13       C          1.34530000  *  122.3407000  *    0.2131000  *    12    11    10
    14       C          1.34540000  *  113.1271000  *   -0.8555000  *    13    12    11
    15       C          1.33980000  *  125.5249000  *    0.9881000  *    14    13    12
    16       C          1.33210000  *  106.2411000  * -179.1463000  *    14    13    12
    17       C          1.33770000  *  131.5922000  *    0.7712000  *    16    14    15
    18       C          1.34030000  *  117.2814000  *  179.0527000  *    17    16    14
    19       C          1.34270000  *  119.9392000  *    1.1555000  *    18    17    16
    20       C          1.34790000  *  122.1089000  *   -0.0734000  *    19    18    17
    21       C          1.33820000  *  104.8809000  * -179.4146000  *    16    14    15
    22       N          1.28070000  *  112.3113000  *   -1.6185000  *    21    16    14
    23       C          1.28810000  *  120.0863000  * -177.3448000  *    22    21    16
    24       C          1.35070000  *  123.7746000  *  175.9067000  *    23    22    21
    25       C          1.34060000  *  124.8878000  * -179.4318000  *    24    23    22
    26       C          1.33410000  *  119.2362000  *    0.1613000  *    25    24    23
    27       C          1.33670000  *  117.7038000  *    0.2297000  *    26    25    24
    28       C          1.34990000  *  123.0221000  *    0.1294000  *    27    26    25
    29       C          1.50960000  *  123.5384000  *  176.8578000  *    20    19    18
    30       C          1.55060000  *  109.4820000  * -128.8053000  *    29    20    21
    31       C          1.53670000  *  113.3468000  *   62.1588000  *    30    29    20
    32       C          1.55510000  *  110.0707000  *  107.0725000  *    29    20    21
    33       C          1.53510000  *  118.4658000  *   59.6093000  *    32    29    20
    34       C          1.36490000  *  117.4088000  *  179.9933000  *     3     2     4
    35       O          1.21070000  *  122.9215000  * -179.9890000  *    34     3     2
    36       O          1.33630000  *  120.9127000  *    0.0000000  *    34     3     2
    37       H          1.10560000  *  115.3851000  *  179.9987000  *     4     3     2
    38       H          1.09940000  *  127.7964000  *    0.0000000  *     6     5     4
    39       H          1.10200000  *  121.3616000  * -179.9597000  *     7     6     5
    40       H          1.10380000  *  120.9245000  * -179.2445000  *    11    10    15
    41       H          1.09410000  *  113.4443000  * -178.8408000  *    12    11    10
    42       H          1.09920000  *  117.3545000  *   -0.1441000  *    15    14    16
    43       H          1.10250000  *  122.3431000  *   -0.1245000  *    17    16    14
    44       H          1.10400000  *  119.8571000  * -179.3491000  *    18    17    16
    45       H          1.10080000  *  117.0511000  *  179.4015000  *    19    18    17
    46       H          1.08900000  *  123.5383000  *   -0.8680000  *    24    23    22
    47       H          1.10480000  *  121.0694000  *  179.7443000  *    25    24    23
    48       H          1.10410000  *  120.9197000  * -179.8440000  *    26    25    24
    49       H          1.10090000  *  115.6651000  * -179.5131000  *    27    26    25
    50       H          1.11370000  *  111.2484000  * -174.9947000  *    30    29    20
    51       H          1.11320000  *  111.0907000  *  -59.9154000  *    30    29    20
    52       H          1.11470000  *  110.8994000  *   56.4895000  *    31    30    50
    53       H          1.11390000  *  111.6416000  *   63.9989000  *    31    30    51
    54       H          1.11380000  *  111.7418000  * -175.1324000  *    31    30    51
    55       H          1.11470000  *  109.4893000  * -178.7089000  *    32    29    20
    56       H          1.11680000  *  108.5761000  *  -63.1751000  *    32    29    20
    57       H          1.11500000  *  110.5422000  *   49.4008000  *    33    32    55
    58       H          1.11300000  *  112.1695000  *  167.1899000  *    33    32    55
    59       H          1.11330000  *  112.0886000  *  -69.5550000  *    33    32    55
    60       H          0.97160000  *  106.6940000  *    0.0000000  *    36    34    35
 


          CARTESIAN COORDINATES 

    NO.       ATOM           X           Y           Z

     1         N          0.0000      0.0000      0.0000
     2         C          1.1591      0.0000      0.0000
     3         C          2.4763      0.0312      0.0000
     4         C          3.2386     -1.0836      0.0001
     5         C          2.8666     -2.3807      0.0001
     6         C          1.6414     -2.9216      0.0002
     7         C          1.7231     -4.2554     -0.0006
     8         C          3.0029     -4.6626     -0.0012
     9         S          3.8615     -3.4661     -0.0001
    10         C          3.4488     -5.9408     -0.0035
    11         C          4.7168     -6.2875      0.3038
    12         C          5.1640     -7.5569      0.3004
    13         C          4.3732     -8.5977     -0.0179
    14         C          3.1108     -8.2331     -0.3070
    15         C          2.6450     -6.9769     -0.3119
    16         C          2.4516     -9.3579     -0.5805
    17         C          1.1827     -9.5779     -0.9422
    18         C          0.8197    -10.8482     -1.1683
    19         C          1.7114    -11.8389     -1.0061
    20         C          2.9810    -11.6039     -0.6193
    21         C          3.3549    -10.3326     -0.4231
    22         N          4.5106     -9.8785     -0.1096
    23         C          5.5057    -10.6847      0.0281
    24         C          6.7702    -10.2811      0.2781
    25         C          7.8234    -11.0992      0.4146
    26         C          7.6450    -12.4161      0.2977
    27         C          6.4087    -12.8555      0.0424
    28         C          5.3500    -12.0306     -0.1021
    29         C          3.9901    -12.6966     -0.3610
    30         C          4.0618    -13.6359     -1.5926
    31         C          4.5315    -12.9271     -2.8726
    32         C          3.6300    -13.4573      0.9467
    33         C          2.2664    -14.1568      1.0345
    34         C          3.0758      1.2574     -0.0002
    35         O          4.2778      1.4022     -0.0004
    36         O          2.3473      2.3777     -0.0004
    37         H          4.3307     -0.9110      0.0000
    38         H          0.6742     -2.3990      0.0001
    39         H          0.8189     -4.8854     -0.0014
    40         H          5.4617     -5.5229      0.5848
    41         H          6.2137     -7.6494      0.5949
    42         H          1.5875     -6.8314     -0.5741
    43         H          0.4547     -8.7595     -1.0676
    44         H         -0.2144    -11.0773     -1.4794
    45         H          1.3598    -12.8648     -1.1949
    46         H          7.0607     -9.2357      0.3716
    47         H          8.8337    -10.6994      0.6149
    48         H          8.4924    -13.1154      0.4074
    49         H          6.2982    -13.9478     -0.0392
    50         H          4.7315    -14.5045     -1.3992
    51         H          3.0728    -14.1041     -1.7974
    52         H          4.5554    -13.6351     -3.7332
    53         H          3.8519    -12.0898     -3.1515
    54         H          5.5582    -12.5104     -2.7603
    55         H          4.3936    -14.2458      1.1405
    56         H          3.6953    -12.7433      1.8031
    57         H          2.1977    -14.7645      1.9668
    58         H          1.4243    -13.4307      1.0838
    59         H          2.0983    -14.8547      0.1835
    60         H          2.9753      3.1190     -0.0007

  H: (RM1): G.B. ROCHA, R.O. FREIRE, A.M.SIMAS, J.J.P. STEWART, J. COMP. CHEM. 27, 1101 (2006)
  C: (RM1): G.B. ROCHA, R.O. FREIRE, A.M.SIMAS, J.J.P. STEWART, J. COMP. CHEM. 27, 1101 (2006)
  N: (RM1): G.B. ROCHA, R.O. FREIRE, A.M.SIMAS, J.J.P. STEWART, J. COMP. CHEM. 27, 1101 (2006)
  O: (RM1): G.B. ROCHA, R.O. FREIRE, A.M.SIMAS, J.J.P. STEWART, J. COMP. CHEM. 27, 1101 (2006)
  S: (RM1): G.B. ROCHA, R.O. FREIRE, A.M.SIMAS, J.J.P. STEWART, J. COMP. CHEM. 27, 1101 (2006)

           Empirical Formula: C31 H24 N2 O2 S  =    60 atoms



      MOLECULAR POINT GROUP   :   C1  


      RHF CALCULATION, NO. OF DOUBLY OCCUPIED LEVELS = 88


          Geometry optimization using L-BFGS
 CYCLE:     1 TIME:   0.582 TIME LEFT:  2.00D  GRAD.:  1448.471 HEAT:  233.9346
 CYCLE:     2 TIME:   0.121 TIME LEFT:  2.00D  GRAD.:  1236.560 HEAT:  214.5459
 CYCLE:     3 TIME:   0.180 TIME LEFT:  2.00D  GRAD.:   614.477 HEAT:  131.4916
 CYCLE:     4 TIME:   0.164 TIME LEFT:  2.00D  GRAD.:  1236.826 HEAT:  214.5446
 CYCLE:     5 TIME:   0.195 TIME LEFT:  2.00D  GRAD.:   614.432 HEAT:  131.4830
 CYCLE:     6 TIME:   0.191 TIME LEFT:  2.00D  GRAD.:  5903.603 HEAT:  182.6038
 CYCLE:     7 TIME:   0.133 TIME LEFT:  2.00D  GRAD.:   481.740 HEAT:  105.4375
 CYCLE:     8 TIME:   0.109 TIME LEFT:  2.00D  GRAD.:   499.221 HEAT:  100.9823
 CYCLE:     9 TIME:   0.141 TIME LEFT:  2.00D  GRAD.:   566.511 HEAT:  76.90385
 CYCLE:    10 TIME:   0.133 TIME LEFT:  2.00D  GRAD.:   824.697 HEAT:  71.15855
 CYCLE:    11 TIME:   0.125 TIME LEFT:  2.00D  GRAD.:   228.143 HEAT:  56.23554
 CYCLE:    12 TIME:   0.125 TIME LEFT:  2.00D  GRAD.:   140.129 HEAT:  54.83750
 CYCLE:    13 TIME:   0.121 TIME LEFT:  2.00D  GRAD.:    93.192 HEAT:  53.52379
 CYCLE:    14 TIME:   0.180 TIME LEFT:  2.00D  GRAD.:   111.854 HEAT:  52.74887
 CYCLE:    15 TIME:   0.121 TIME LEFT:  2.00D  GRAD.:   158.211 HEAT:  50.87546
 CYCLE:    16 TIME:   0.129 TIME LEFT:  2.00D  GRAD.:   258.772 HEAT:  49.98814
 CYCLE:    17 TIME:   0.125 TIME LEFT:  2.00D  GRAD.:   123.716 HEAT:  48.80380
 CYCLE:    18 TIME:   0.109 TIME LEFT:  2.00D  GRAD.:    56.655 HEAT:  48.38082
 CYCLE:    19 TIME:   0.113 TIME LEFT:  2.00D  GRAD.:    78.038 HEAT:  48.12993
 CYCLE:    20 TIME:   0.109 TIME LEFT:  2.00D  GRAD.:    72.089 HEAT:  47.93170
 CYCLE:    21 TIME:   0.109 TIME LEFT:  2.00D  GRAD.:   203.871 HEAT:  47.72253
 CYCLE:    22 TIME:   0.102 TIME LEFT:  2.00D  GRAD.:    75.705 HEAT:  47.39965
 CYCLE:    23 TIME:   0.121 TIME LEFT:  2.00D  GRAD.:    47.778 HEAT:  47.20165
 CYCLE:    24 TIME:   0.102 TIME LEFT:  2.00D  GRAD.:    54.576 HEAT:  47.12459
 CYCLE:    25 TIME:   0.102 TIME LEFT:  2.00D  GRAD.:    63.662 HEAT:  46.78279
 CYCLE:    26 TIME:   0.129 TIME LEFT:  2.00D  GRAD.:   130.204 HEAT:  46.60478
 CYCLE:    27 TIME:   0.121 TIME LEFT:  2.00D  GRAD.:    34.812 HEAT:  46.13540
 CYCLE:    28 TIME:   0.102 TIME LEFT:  2.00D  GRAD.:    26.831 HEAT:  46.04412
 CYCLE:    29 TIME:   0.105 TIME LEFT:  2.00D  GRAD.:    41.579 HEAT:  45.92757
 CYCLE:    30 TIME:   0.109 TIME LEFT:  2.00D  GRAD.:    38.084 HEAT:  45.80723
 CYCLE:    31 TIME:   0.121 TIME LEFT:  2.00D  GRAD.:    47.555 HEAT:  45.69073
 CYCLE:    32 TIME:   0.109 TIME LEFT:  2.00D  GRAD.:    86.574 HEAT:  45.74850
 CYCLE:    33 TIME:   0.113 TIME LEFT:  2.00D  GRAD.:    21.618 HEAT:  45.58960
 CYCLE:    34 TIME:   0.098 TIME LEFT:  2.00D  GRAD.:    19.723 HEAT:  45.56532
 CYCLE:    35 TIME:   0.102 TIME LEFT:  2.00D  GRAD.:    22.456 HEAT:  45.48453
 CYCLE:    36 TIME:   0.121 TIME LEFT:  2.00D  GRAD.:   125.397 HEAT:  45.50730
 CYCLE:    37 TIME:   0.090 TIME LEFT:  2.00D  GRAD.:    25.231 HEAT:  45.42585
 CYCLE:    38 TIME:   0.109 TIME LEFT:  2.00D  GRAD.:    14.662 HEAT:  45.41072
 CYCLE:    39 TIME:   0.094 TIME LEFT:  2.00D  GRAD.:    16.436 HEAT:  45.38690
 CYCLE:    40 TIME:   0.109 TIME LEFT:  2.00D  GRAD.:    15.350 HEAT:  45.35476
 CYCLE:    41 TIME:   0.121 TIME LEFT:  2.00D  GRAD.:    44.950 HEAT:  45.34920
 CYCLE:    42 TIME:   0.121 TIME LEFT:  2.00D  GRAD.:     9.946 HEAT:  45.29874
 CYCLE:    43 TIME:   0.102 TIME LEFT:  2.00D  GRAD.:     9.531 HEAT:  45.28925
 CYCLE:    44 TIME:   0.105 TIME LEFT:  2.00D  GRAD.:    14.635 HEAT:  45.26481
 CYCLE:    45 TIME:   0.109 TIME LEFT:  2.00D  GRAD.:    14.361 HEAT:  45.24765
 CYCLE:    46 TIME:   0.117 TIME LEFT:  2.00D  GRAD.:    13.989 HEAT:  45.22445
 CYCLE:    47 TIME:   0.105 TIME LEFT:  2.00D  GRAD.:    10.756 HEAT:  45.20366
 CYCLE:    48 TIME:   0.105 TIME LEFT:  2.00D  GRAD.:    13.456 HEAT:  45.18512
 CYCLE:    49 TIME:   0.113 TIME LEFT:  2.00D  GRAD.:    34.365 HEAT:  45.18080
 CYCLE:    50 TIME:   0.113 TIME LEFT:  2.00D  GRAD.:    14.809 HEAT:  45.15710
 CYCLE:    51 TIME:   0.109 TIME LEFT:  2.00D  GRAD.:    16.111 HEAT:  45.14874
 CYCLE:    52 TIME:   0.102 TIME LEFT:  2.00D  GRAD.:    12.614 HEAT:  45.14037
 CYCLE:    53 TIME:   0.109 TIME LEFT:  2.00D  GRAD.:    12.344 HEAT:  45.13313
 CYCLE:    54 TIME:   0.121 TIME LEFT:  2.00D  GRAD.:    16.502 HEAT:  45.10963
 CYCLE:    55 TIME:   0.113 TIME LEFT:  2.00D  GRAD.:    14.479 HEAT:  45.08606
 CYCLE:    56 TIME:   0.109 TIME LEFT:  2.00D  GRAD.:    14.793 HEAT:  45.05886
 CYCLE:    57 TIME:   0.105 TIME LEFT:  2.00D  GRAD.:    12.616 HEAT:  45.02764
 CYCLE:    58 TIME:   0.121 TIME LEFT:  2.00D  GRAD.:    16.908 HEAT:  44.99624
 CYCLE:    59 TIME:   0.121 TIME LEFT:  2.00D  GRAD.:    14.174 HEAT:  44.95864
 CYCLE:    60 TIME:   0.121 TIME LEFT:  2.00D  GRAD.:    21.298 HEAT:  44.92285
 CYCLE:    61 TIME:   0.121 TIME LEFT:  2.00D  GRAD.:    15.888 HEAT:  44.88591
 CYCLE:    62 TIME:   0.117 TIME LEFT:  2.00D  GRAD.:    19.994 HEAT:  44.86083
 CYCLE:    63 TIME:   0.121 TIME LEFT:  2.00D  GRAD.:   117.809 HEAT:  44.95303
 CYCLE:    64 TIME:   0.121 TIME LEFT:  2.00D  GRAD.:    38.840 HEAT:  44.81445
 CYCLE:    65 TIME:   0.113 TIME LEFT:  2.00D  GRAD.:   121.290 HEAT:  44.90962
 CYCLE:    66 TIME:   0.121 TIME LEFT:  2.00D  GRAD.:    17.741 HEAT:  44.79577
 CYCLE:    67 TIME:   0.129 TIME LEFT:  2.00D  GRAD.:    54.413 HEAT:  44.80268
 CYCLE:    68 TIME:   0.121 TIME LEFT:  2.00D  GRAD.:    52.483 HEAT:  44.81711
 CYCLE:    69 TIME:   0.121 TIME LEFT:  2.00D  GRAD.:    20.434 HEAT:  44.77549
 CYCLE:    70 TIME:   0.129 TIME LEFT:  2.00D  GRAD.:    34.877 HEAT:  44.78095
 CYCLE:    71 TIME:   0.121 TIME LEFT:  2.00D  GRAD.:     7.330 HEAT:  44.76047
 CYCLE:    72 TIME:   0.105 TIME LEFT:  2.00D  GRAD.:     7.560 HEAT:  44.75699
 CYCLE:    73 TIME:   0.109 TIME LEFT:  2.00D  GRAD.:    18.947 HEAT:  44.72971
 CYCLE:    74 TIME:   0.102 TIME LEFT:  2.00D  GRAD.:    38.688 HEAT:  44.71995
 CYCLE:    75 TIME:   0.121 TIME LEFT:  2.00D  GRAD.:    14.889 HEAT:  44.69531
 CYCLE:    76 TIME:   0.129 TIME LEFT:  2.00D  GRAD.:     8.587 HEAT:  44.68613
 CYCLE:    77 TIME:   0.102 TIME LEFT:  2.00D  GRAD.:     9.540 HEAT:  44.67708
 CYCLE:    78 TIME:   0.113 TIME LEFT:  2.00D  GRAD.:    12.862 HEAT:  44.66270
 CYCLE:    79 TIME:   0.117 TIME LEFT:  2.00D  GRAD.:    18.070 HEAT:  44.63953
 CYCLE:    80 TIME:   0.109 TIME LEFT:  2.00D  GRAD.:    20.714 HEAT:  44.62016
 CYCLE:    81 TIME:   0.113 TIME LEFT:  2.00D  GRAD.:     9.183 HEAT:  44.60842
 CYCLE:    82 TIME:   0.102 TIME LEFT:  2.00D  GRAD.:    11.348 HEAT:  44.60082
 CYCLE:    83 TIME:   0.105 TIME LEFT:  2.00D  GRAD.:    12.982 HEAT:  44.59280
 CYCLE:    84 TIME:   0.098 TIME LEFT:  2.00D  GRAD.:    30.817 HEAT:  44.57591
 CYCLE:    85 TIME:   0.113 TIME LEFT:  2.00D  GRAD.:    15.116 HEAT:  44.56192
 CYCLE:    86 TIME:   0.105 TIME LEFT:  2.00D  GRAD.:     8.496 HEAT:  44.55394
 CYCLE:    87 TIME:   0.094 TIME LEFT:  2.00D  GRAD.:    11.893 HEAT:  44.54826
 CYCLE:    88 TIME:   0.090 TIME LEFT:  2.00D  GRAD.:    19.048 HEAT:  44.53718
 CYCLE:    89 TIME:   0.094 TIME LEFT:  2.00D  GRAD.:    19.231 HEAT:  44.52434
 CYCLE:    90 TIME:   0.098 TIME LEFT:  2.00D  GRAD.:    46.173 HEAT:  44.52044
 CYCLE:    91 TIME:   0.102 TIME LEFT:  2.00D  GRAD.:    16.673 HEAT:  44.48743
 CYCLE:    92 TIME:   0.102 TIME LEFT:  2.00D  GRAD.:     7.046 HEAT:  44.47834
 CYCLE:    93 TIME:   0.082 TIME LEFT:  2.00D  GRAD.:    12.784 HEAT:  44.47216
 CYCLE:    94 TIME:   0.078 TIME LEFT:  2.00D  GRAD.:    10.489 HEAT:  44.46577
 CYCLE:    95 TIME:   0.070 TIME LEFT:  2.00D  GRAD.:    10.744 HEAT:  44.45727
 CYCLE:    96 TIME:   0.090 TIME LEFT:  2.00D  GRAD.:    13.680 HEAT:  44.44781
 CYCLE:    97 TIME:   0.094 TIME LEFT:  2.00D  GRAD.:     6.051 HEAT:  44.44182
 CYCLE:    98 TIME:   0.078 TIME LEFT:  2.00D  GRAD.:     6.104 HEAT:  44.43737
 CYCLE:    99 TIME:   0.082 TIME LEFT:  2.00D  GRAD.:    16.181 HEAT:  44.43333
 CYCLE:   100 TIME:   0.070 TIME LEFT:  2.00D  GRAD.:     9.667 HEAT:  44.42860
 CYCLE:   101 TIME:   0.082 TIME LEFT:  2.00D  GRAD.:     5.530 HEAT:  44.42302
 CYCLE:   102 TIME:   0.078 TIME LEFT:  2.00D  GRAD.:     5.688 HEAT:  44.41901
 CYCLE:   103 TIME:   0.082 TIME LEFT:  2.00D  GRAD.:     6.282 HEAT:  44.41303
 CYCLE:   104 TIME:   0.090 TIME LEFT:  2.00D  GRAD.:    19.844 HEAT:  44.41006
 CYCLE:   105 TIME:   0.082 TIME LEFT:  2.00D  GRAD.:     7.522 HEAT:  44.40017
 CYCLE:   106 TIME:   0.078 TIME LEFT:  2.00D  GRAD.:     4.823 HEAT:  44.39461
 CYCLE:   107 TIME:   0.070 TIME LEFT:  2.00D  GRAD.:     8.195 HEAT:  44.39006
 CYCLE:   108 TIME:   0.086 TIME LEFT:  2.00D  GRAD.:     9.163 HEAT:  44.38692
 CYCLE:   109 TIME:   0.078 TIME LEFT:  2.00D  GRAD.:     5.348 HEAT:  44.38410
 CYCLE:   110 TIME:   0.086 TIME LEFT:  2.00D  GRAD.:     5.815 HEAT:  44.37918
 CYCLE:   111 TIME:   0.074 TIME LEFT:  2.00D  GRAD.:     5.272 HEAT:  44.37600
 CYCLE:   112 TIME:   0.082 TIME LEFT:  2.00D  GRAD.:    28.327 HEAT:  44.37939
 CYCLE:   113 TIME:   0.086 TIME LEFT:  2.00D  GRAD.:     4.921 HEAT:  44.37152
 CYCLE:   114 TIME:   0.074 TIME LEFT:  2.00D  GRAD.:     4.159 HEAT:  44.37085
 CYCLE:   115 TIME:   0.082 TIME LEFT:  2.00D  GRAD.:     8.849 HEAT:  44.37007
 CYCLE:   116 TIME:   0.090 TIME LEFT:  2.00D  GRAD.:     6.518 HEAT:  44.36803
 CYCLE:   117 TIME:   0.070 TIME LEFT:  2.00D  GRAD.:     4.247 HEAT:  44.36599
 CYCLE:   118 TIME:   0.086 TIME LEFT:  2.00D  GRAD.:     3.616 HEAT:  44.36319
 CYCLE:   119 TIME:   0.070 TIME LEFT:  2.00D  GRAD.:     3.996 HEAT:  44.36084
 CYCLE:   120 TIME:   0.082 TIME LEFT:  2.00D  GRAD.:    11.284 HEAT:  44.35908
 CYCLE:   121 TIME:   0.086 TIME LEFT:  2.00D  GRAD.:     3.312 HEAT:  44.35655
 CYCLE:   122 TIME:   0.082 TIME LEFT:  2.00D  GRAD.:     3.542 HEAT:  44.35485
 CYCLE:   123 TIME:   0.074 TIME LEFT:  2.00D  GRAD.:     3.815 HEAT:  44.35240
 CYCLE:   124 TIME:   0.090 TIME LEFT:  2.00D  GRAD.:    19.359 HEAT:  44.35964
 CYCLE:   125 TIME:   0.082 TIME LEFT:  2.00D  GRAD.:     2.848 HEAT:  44.34946
 CYCLE:   126 TIME:   0.078 TIME LEFT:  2.00D  GRAD.:     3.795 HEAT:  44.34870
 CYCLE:   127 TIME:   0.082 TIME LEFT:  2.00D  GRAD.:     5.131 HEAT:  44.34712
 CYCLE:   128 TIME:   0.078 TIME LEFT:  2.00D  GRAD.:     6.849 HEAT:  44.34581
 CYCLE:   129 TIME:   0.074 TIME LEFT:  2.00D  GRAD.:     4.254 HEAT:  44.34450
 CYCLE:   130 TIME:   0.078 TIME LEFT:  2.00D  GRAD.:     4.125 HEAT:  44.34235
 CYCLE:   131 TIME:   0.078 TIME LEFT:  2.00D  GRAD.:     3.022 HEAT:  44.34088
 CYCLE:   132 TIME:   0.082 TIME LEFT:  2.00D  GRAD.:     4.688 HEAT:  44.33889
 CYCLE:   133 TIME:   0.090 TIME LEFT:  2.00D  GRAD.:     6.241 HEAT:  44.33680
 CYCLE:   134 TIME:   0.074 TIME LEFT:  2.00D  GRAD.:     6.315 HEAT:  44.33477
 CYCLE:   135 TIME:   0.078 TIME LEFT:  2.00D  GRAD.:    12.405 HEAT:  44.33371
 CYCLE:   136 TIME:   0.070 TIME LEFT:  2.00D  GRAD.:    15.478 HEAT:  44.33466
 CYCLE:   137 TIME:   0.090 TIME LEFT:  2.00D  GRAD.:     2.589 HEAT:  44.33039
 CYCLE:   138 TIME:   0.074 TIME LEFT:  2.00D  GRAD.:     2.977 HEAT:  44.32969
 CYCLE:   139 TIME:   0.090 TIME LEFT:  2.00D  GRAD.:     4.640 HEAT:  44.32785
 CYCLE:   140 TIME:   0.078 TIME LEFT:  2.00D  GRAD.:     2.929 HEAT:  44.32520
 CYCLE:   141 TIME:   0.082 TIME LEFT:  2.00D  GRAD.:    12.646 HEAT:  44.32343
 CYCLE:   142 TIME:   0.070 TIME LEFT:  2.00D  GRAD.:     4.156 HEAT:  44.32198
 CYCLE:   143 TIME:   0.086 TIME LEFT:  2.00D  GRAD.:     2.706 HEAT:  44.32157
 CYCLE:   144 TIME:   0.090 TIME LEFT:  2.00D  GRAD.:     4.999 HEAT:  44.32148
 CYCLE:   145 TIME:   0.086 TIME LEFT:  2.00D  GRAD.:     3.281 HEAT:  44.32021
 CYCLE:   146 TIME:   0.074 TIME LEFT:  2.00D  GRAD.:     5.231 HEAT:  44.31883
 CYCLE:   147 TIME:   0.082 TIME LEFT:  2.00D  GRAD.:     3.680 HEAT:  44.31779
 CYCLE:   148 TIME:   0.078 TIME LEFT:  2.00D  GRAD.:     3.603 HEAT:  44.31696
 CYCLE:   149 TIME:   0.090 TIME LEFT:  2.00D  GRAD.:     4.389 HEAT:  44.31545
 CYCLE:   150 TIME:   0.082 TIME LEFT:  2.00D  GRAD.:     3.480 HEAT:  44.31434
 CYCLE:   151 TIME:   0.070 TIME LEFT:  2.00D  GRAD.:     3.243 HEAT:  44.31334
 CYCLE:   152 TIME:   0.082 TIME LEFT:  2.00D  GRAD.:     3.424 HEAT:  44.31220
 CYCLE:   153 TIME:   0.078 TIME LEFT:  2.00D  GRAD.:     4.730 HEAT:  44.31099
 CYCLE:   154 TIME:   0.070 TIME LEFT:  2.00D  GRAD.:     1.988 HEAT:  44.31010
 CYCLE:   155 TIME:   0.082 TIME LEFT:  2.00D  GRAD.:     2.368 HEAT:  44.30948
 CYCLE:   156 TIME:   0.082 TIME LEFT:  2.00D  GRAD.:    12.345 HEAT:  44.30995
 CYCLE:   157 TIME:   0.070 TIME LEFT:  2.00D  GRAD.:     2.996 HEAT:  44.30903
 CYCLE:   158 TIME:   0.082 TIME LEFT:  2.00D  GRAD.:     1.868 HEAT:  44.30884
 CYCLE:   159 TIME:   0.090 TIME LEFT:  2.00D  GRAD.:     2.383 HEAT:  44.30856
 CYCLE:   160 TIME:   0.090 TIME LEFT:  2.00D  GRAD.:     2.248 HEAT:  44.30808
 CYCLE:   161 TIME:   0.090 TIME LEFT:  2.00D  GRAD.:    13.798 HEAT:  44.31016
 CYCLE:   162 TIME:   0.082 TIME LEFT:  2.00D  GRAD.:     3.745 HEAT:  44.30770
 CYCLE:   163 TIME:   0.082 TIME LEFT:  2.00D  GRAD.:     1.615 HEAT:  44.30724
 CYCLE:   164 TIME:   0.082 TIME LEFT:  2.00D  GRAD.:     1.958 HEAT:  44.30713
 CYCLE:   165 TIME:   0.090 TIME LEFT:  2.00D  GRAD.:     2.351 HEAT:  44.30659
 CYCLE:   166 TIME:   0.090 TIME LEFT:  2.00D  GRAD.:     3.032 HEAT:  44.30629
 CYCLE:   167 TIME:   0.082 TIME LEFT:  2.00D  GRAD.:     4.096 HEAT:  44.30580
 CYCLE:   168 TIME:   0.078 TIME LEFT:  2.00D  GRAD.:     1.624 HEAT:  44.30536
 CYCLE:   169 TIME:   0.102 TIME LEFT:  2.00D  GRAD.:     3.449 HEAT:  44.30525
 CYCLE:   170 TIME:   0.078 TIME LEFT:  2.00D  GRAD.:     1.818 HEAT:  44.30494
 CYCLE:   171 TIME:   0.094 TIME LEFT:  2.00D  GRAD.:     4.815 HEAT:  44.30539
 CYCLE:   172 TIME:   0.082 TIME LEFT:  2.00D  GRAD.:     3.088 HEAT:  44.30455
 CYCLE:   173 TIME:   0.094 TIME LEFT:  2.00D  GRAD.:    11.729 HEAT:  44.30520
 CYCLE:   174 TIME:   0.090 TIME LEFT:  2.00D  GRAD.:     1.287 HEAT:  44.30431
 CYCLE:   175 TIME:   0.082 TIME LEFT:  2.00D  GRAD.:     1.204 HEAT:  44.30424
 CYCLE:   176 TIME:   0.078 TIME LEFT:  2.00D  GRAD.:     1.966 HEAT:  44.30401
 CYCLE:   177 TIME:   0.090 TIME LEFT:  2.00D  GRAD.:     1.819 HEAT:  44.30365
 CYCLE:   178 TIME:   0.094 TIME LEFT:  2.00D  GRAD.:     5.423 HEAT:  44.30401
 CYCLE:   179 TIME:   0.078 TIME LEFT:  2.00D  GRAD.:     1.162 HEAT:  44.30306
 CYCLE:   180 TIME:   0.082 TIME LEFT:  2.00D  GRAD.:     1.110 HEAT:  44.30296
 CYCLE:   181 TIME:   0.090 TIME LEFT:  2.00D  GRAD.:     2.171 HEAT:  44.30274
 CYCLE:   182 TIME:   0.082 TIME LEFT:  2.00D  GRAD.:     1.881 HEAT:  44.30242
 CYCLE:   183 TIME:   0.090 TIME LEFT:  2.00D  GRAD.:     2.769 HEAT:  44.30209
 CYCLE:   184 TIME:   0.082 TIME LEFT:  2.00D  GRAD.:     2.567 HEAT:  44.30174
 CYCLE:   185 TIME:   0.090 TIME LEFT:  2.00D  GRAD.:     2.363 HEAT:  44.30092
 CYCLE:   186 TIME:   0.078 TIME LEFT:  2.00D  GRAD.:     2.988 HEAT:  44.30027
 CYCLE:   187 TIME:   0.090 TIME LEFT:  2.00D  GRAD.:     3.793 HEAT:  44.29948
 CYCLE:   188 TIME:   0.082 TIME LEFT:  2.00D  GRAD.:     4.775 HEAT:  44.29911
 CYCLE:   189 TIME:   0.078 TIME LEFT:  2.00D  GRAD.:     2.399 HEAT:  44.29876
 CYCLE:   190 TIME:   0.082 TIME LEFT:  2.00D  GRAD.:     1.838 HEAT:  44.29867
 CYCLE:   191 TIME:   0.082 TIME LEFT:  2.00D  GRAD.:     1.342 HEAT:  44.29840
 CYCLE:   192 TIME:   0.086 TIME LEFT:  2.00D  GRAD.:     2.943 HEAT:  44.29796
 CYCLE:   193 TIME:   0.090 TIME LEFT:  2.00D  GRAD.:     3.156 HEAT:  44.29758
 CYCLE:   194 TIME:   0.078 TIME LEFT:  2.00D  GRAD.:     3.439 HEAT:  44.29665
 CYCLE:   195 TIME:   0.094 TIME LEFT:  2.00D  GRAD.:     6.556 HEAT:  44.29675
 CYCLE:   196 TIME:   0.078 TIME LEFT:  2.00D  GRAD.:     1.458 HEAT:  44.29550
 CYCLE:   197 TIME:   0.082 TIME LEFT:  2.00D  GRAD.:     1.271 HEAT:  44.29524
 CYCLE:   198 TIME:   0.090 TIME LEFT:  2.00D  GRAD.:     2.197 HEAT:  44.29480
 CYCLE:   199 TIME:   0.102 TIME LEFT:  2.00D  GRAD.:    11.250 HEAT:  44.29599
 CYCLE:   200 TIME:   0.078 TIME LEFT:  2.00D  GRAD.:     2.586 HEAT:  44.29388
 CYCLE:   201 TIME:   0.074 TIME LEFT:  2.00D  GRAD.:     1.467 HEAT:  44.29338
 CYCLE:   202 TIME:   0.090 TIME LEFT:  2.00D  GRAD.:     4.422 HEAT:  44.29251
 CYCLE:   203 TIME:   0.082 TIME LEFT:  2.00D  GRAD.:     9.385 HEAT:  44.29253
 CYCLE:   204 TIME:   0.078 TIME LEFT:  2.00D  GRAD.:     2.892 HEAT:  44.29193
 CYCLE:   205 TIME:   0.070 TIME LEFT:  2.00D  GRAD.:     1.929 HEAT:  44.29166
 CYCLE:   206 TIME:   0.090 TIME LEFT:  2.00D  GRAD.:     7.981 HEAT:  44.29121
 CYCLE:   207 TIME:   0.082 TIME LEFT:  2.00D  GRAD.:     4.761 HEAT:  44.29081
 CYCLE:   208 TIME:   0.090 TIME LEFT:  2.00D  GRAD.:     2.018 HEAT:  44.29037
 CYCLE:   209 TIME:   0.082 TIME LEFT:  2.00D  GRAD.:     2.133 HEAT:  44.29008
 CYCLE:   210 TIME:   0.090 TIME LEFT:  2.00D  GRAD.:     2.920 HEAT:  44.28984
 CYCLE:   211 TIME:   0.102 TIME LEFT:  2.00D  GRAD.:    21.295 HEAT:  44.29741
 CYCLE:   212 TIME:   0.082 TIME LEFT:  2.00D  GRAD.:     6.493 HEAT:  44.28726
 CYCLE:   213 TIME:   0.086 TIME LEFT:  2.00D  GRAD.:     5.075 HEAT:  44.28627
 CYCLE:   214 TIME:   0.082 TIME LEFT:  2.00D  GRAD.:     3.540 HEAT:  44.28484
 CYCLE:   215 TIME:   0.094 TIME LEFT:  2.00D  GRAD.:     9.713 HEAT:  44.28411
 CYCLE:   216 TIME:   0.078 TIME LEFT:  2.00D  GRAD.:    25.349 HEAT:  44.28748
 CYCLE:   217 TIME:   0.090 TIME LEFT:  2.00D  GRAD.:     8.174 HEAT:  44.28221
 CYCLE:   218 TIME:   0.090 TIME LEFT:  2.00D  GRAD.:    10.885 HEAT:  44.28248
 CYCLE:   219 TIME:   0.086 TIME LEFT:  2.00D  GRAD.:     8.036 HEAT:  44.28151
 CYCLE:   220 TIME:   0.090 TIME LEFT:  2.00D  GRAD.:    18.498 HEAT:  44.28115
 CYCLE:   221 TIME:   0.098 TIME LEFT:  2.00D  GRAD.:    57.989 HEAT:  44.32118
 CYCLE:   222 TIME:   0.090 TIME LEFT:  2.00D  GRAD.:    25.477 HEAT:  44.28868
 CYCLE:   223 TIME:   0.094 TIME LEFT:  2.00D  GRAD.:    17.422 HEAT:  44.27701
 CYCLE:   224 TIME:   0.090 TIME LEFT:  2.00D  GRAD.:   158.313 HEAT:  44.54071
 CYCLE:   225 TIME:   0.102 TIME LEFT:  2.00D  GRAD.:    11.509 HEAT:  44.28025
 CYCLE:   226 TIME:   0.090 TIME LEFT:  2.00D  GRAD.:    53.874 HEAT:  44.30188
 CYCLE:   227 TIME:   0.102 TIME LEFT:  2.00D  GRAD.:    28.598 HEAT:  44.28535
 CYCLE:   228 TIME:   0.102 TIME LEFT:  2.00D  GRAD.:    19.693 HEAT:  44.27539
 CYCLE:   229 TIME:   0.090 TIME LEFT:  2.00D  GRAD.:     8.345 HEAT:  44.27386
 CYCLE:   230 TIME:   0.082 TIME LEFT:  2.00D  GRAD.:     8.613 HEAT:  44.27059
 CYCLE:   231 TIME:   0.090 TIME LEFT:  2.00D  GRAD.:     3.470 HEAT:  44.26851
 CYCLE:   232 TIME:   0.082 TIME LEFT:  2.00D  GRAD.:     3.626 HEAT:  44.26779
 CYCLE:   233 TIME:   0.102 TIME LEFT:  2.00D  GRAD.:    28.431 HEAT:  44.30666
 CYCLE:   234 TIME:   0.090 TIME LEFT:  2.00D  GRAD.:    12.606 HEAT:  44.26913
 CYCLE:   235 TIME:   0.102 TIME LEFT:  2.00D  GRAD.:    23.002 HEAT:  44.26804
 CYCLE:   236 TIME:   0.078 TIME LEFT:  2.00D  GRAD.:     7.697 HEAT:  44.25967
 CYCLE:   237 TIME:   0.082 TIME LEFT:  2.00D  GRAD.:     5.780 HEAT:  44.25820
 CYCLE:   238 TIME:   0.102 TIME LEFT:  2.00D  GRAD.:    72.737 HEAT:  44.41276
 CYCLE:   239 TIME:   0.102 TIME LEFT:  2.00D  GRAD.:     7.941 HEAT:  44.25612
 CYCLE:   240 TIME:   0.090 TIME LEFT:  2.00D  GRAD.:    10.833 HEAT:  44.25052
 CYCLE:   241 TIME:   0.102 TIME LEFT:  2.00D  GRAD.:     8.560 HEAT:  44.24861
 CYCLE:   242 TIME:   0.098 TIME LEFT:  2.00D  GRAD.:    10.528 HEAT:  44.24285
 CYCLE:   243 TIME:   0.102 TIME LEFT:  2.00D  GRAD.:    14.832 HEAT:  44.22768
 CYCLE:   244 TIME:   0.102 TIME LEFT:  2.00D  GRAD.:    61.677 HEAT:  44.35309
 CYCLE:   245 TIME:   0.098 TIME LEFT:  2.00D  GRAD.:    13.181 HEAT:  44.21987
 CYCLE:   246 TIME:   0.094 TIME LEFT:  2.00D  GRAD.:    10.562 HEAT:  44.20634
 CYCLE:   247 TIME:   0.102 TIME LEFT:  2.00D  GRAD.:    10.604 HEAT:  44.20401
 CYCLE:   248 TIME:   0.090 TIME LEFT:  2.00D  GRAD.:    18.968 HEAT:  44.16141
 CYCLE:   249 TIME:   0.102 TIME LEFT:  2.00D  GRAD.:    96.006 HEAT:  44.20015
 CYCLE:   250 TIME:   0.090 TIME LEFT:  2.00D  GRAD.:    11.245 HEAT:  44.13606
 CYCLE:   251 TIME:   0.090 TIME LEFT:  2.00D  GRAD.:    10.499 HEAT:  44.13198
 CYCLE:   252 TIME:   0.094 TIME LEFT:  2.00D  GRAD.:    36.591 HEAT:  44.13961
 CYCLE:   253 TIME:   0.090 TIME LEFT:  2.00D  GRAD.:    13.696 HEAT:  44.08622
 CYCLE:   254 TIME:   0.090 TIME LEFT:  2.00D  GRAD.:    12.380 HEAT:  44.07522
 CYCLE:   255 TIME:   0.090 TIME LEFT:  2.00D  GRAD.:     9.456 HEAT:  44.06775
 CYCLE:   256 TIME:   0.094 TIME LEFT:  2.00D  GRAD.:     9.860 HEAT:  44.05987
 CYCLE:   257 TIME:   0.090 TIME LEFT:  2.00D  GRAD.:    10.254 HEAT:  44.02769
 CYCLE:   258 TIME:   0.090 TIME LEFT:  2.00D  GRAD.:    16.565 HEAT:  44.00522
 CYCLE:   259 TIME:   0.094 TIME LEFT:  2.00D  GRAD.:    13.501 HEAT:  43.98849
 CYCLE:   260 TIME:   0.098 TIME LEFT:  2.00D  GRAD.:     8.987 HEAT:  43.97525
 CYCLE:   261 TIME:   0.086 TIME LEFT:  2.00D  GRAD.:    11.364 HEAT:  43.95994
 CYCLE:   262 TIME:   0.098 TIME LEFT:  2.00D  GRAD.:    10.252 HEAT:  43.94836
 CYCLE:   263 TIME:   0.070 TIME LEFT:  2.00D  GRAD.:    19.966 HEAT:  43.94269
 CYCLE:   264 TIME:   0.094 TIME LEFT:  2.00D  GRAD.:    10.839 HEAT:  43.93576
 CYCLE:   265 TIME:   0.086 TIME LEFT:  2.00D  GRAD.:    11.384 HEAT:  43.92860
 CYCLE:   266 TIME:   0.094 TIME LEFT:  2.00D  GRAD.:    14.193 HEAT:  43.92137
 CYCLE:   267 TIME:   0.090 TIME LEFT:  2.00D  GRAD.:     8.783 HEAT:  43.90940
 CYCLE:   268 TIME:   0.082 TIME LEFT:  2.00D  GRAD.:     7.867 HEAT:  43.89630
 CYCLE:   269 TIME:   0.082 TIME LEFT:  2.00D  GRAD.:     7.421 HEAT:  43.88786
 CYCLE:   270 TIME:   0.098 TIME LEFT:  2.00D  GRAD.:    34.712 HEAT:  43.88089
 CYCLE:   271 TIME:   0.094 TIME LEFT:  2.00D  GRAD.:     9.113 HEAT:  43.86502
 CYCLE:   272 TIME:   0.078 TIME LEFT:  2.00D  GRAD.:     8.677 HEAT:  43.85880
 CYCLE:   273 TIME:   0.094 TIME LEFT:  2.00D  GRAD.:    15.498 HEAT:  43.84553
 CYCLE:   274 TIME:   0.086 TIME LEFT:  2.00D  GRAD.:    14.793 HEAT:  43.83616
 CYCLE:   275 TIME:   0.082 TIME LEFT:  2.00D  GRAD.:     7.218 HEAT:  43.82811
 CYCLE:   276 TIME:   0.094 TIME LEFT:  2.00D  GRAD.:     8.450 HEAT:  43.82062
 CYCLE:   277 TIME:   0.090 TIME LEFT:  2.00D  GRAD.:     7.481 HEAT:  43.81336
 CYCLE:   278 TIME:   0.090 TIME LEFT:  2.00D  GRAD.:    42.581 HEAT:  43.81250
 CYCLE:   279 TIME:   0.090 TIME LEFT:  2.00D  GRAD.:    13.999 HEAT:  43.79458
 CYCLE:   280 TIME:   0.082 TIME LEFT:  2.00D  GRAD.:     7.660 HEAT:  43.79080
 CYCLE:   281 TIME:   0.082 TIME LEFT:  2.00D  GRAD.:     8.783 HEAT:  43.78731
 CYCLE:   282 TIME:   0.090 TIME LEFT:  2.00D  GRAD.:    10.971 HEAT:  43.77811
 CYCLE:   283 TIME:   0.090 TIME LEFT:  2.00D  GRAD.:     8.905 HEAT:  43.76914
 CYCLE:   284 TIME:   0.090 TIME LEFT:  2.00D  GRAD.:    16.857 HEAT:  43.76140
 CYCLE:   285 TIME:   0.094 TIME LEFT:  2.00D  GRAD.:    33.824 HEAT:  43.76527
 CYCLE:   286 TIME:   0.102 TIME LEFT:  2.00D  GRAD.:    18.526 HEAT:  43.76081
 CYCLE:   287 TIME:   0.090 TIME LEFT:  2.00D  GRAD.:     6.213 HEAT:  43.75252
 CYCLE:   288 TIME:   0.086 TIME LEFT:  2.00D  GRAD.:     7.864 HEAT:  43.75045
 CYCLE:   289 TIME:   0.094 TIME LEFT:  2.00D  GRAD.:    19.257 HEAT:  43.74954
 CYCLE:   290 TIME:   0.102 TIME LEFT:  2.00D  GRAD.:     8.419 HEAT:  43.74026
 CYCLE:   291 TIME:   0.090 TIME LEFT:  2.00D  GRAD.:     5.951 HEAT:  43.73483
 CYCLE:   292 TIME:   0.094 TIME LEFT:  2.00D  GRAD.:    10.728 HEAT:  43.72749
 CYCLE:   293 TIME:   0.082 TIME LEFT:  2.00D  GRAD.:    28.923 HEAT:  43.72077
 CYCLE:   294 TIME:   0.090 TIME LEFT:  2.00D  GRAD.:    14.500 HEAT:  43.71143
 CYCLE:   295 TIME:   0.094 TIME LEFT:  2.00D  GRAD.:     8.253 HEAT:  43.70350
 CYCLE:   296 TIME:   0.090 TIME LEFT:  2.00D  GRAD.:     6.962 HEAT:  43.69999
 CYCLE:   297 TIME:   0.090 TIME LEFT:  2.00D  GRAD.:     6.997 HEAT:  43.69369
 CYCLE:   298 TIME:   0.082 TIME LEFT:  2.00D  GRAD.:    11.082 HEAT:  43.68633
 CYCLE:   299 TIME:   0.086 TIME LEFT:  2.00D  GRAD.:     5.325 HEAT:  43.68049
 CYCLE:   300 TIME:   0.086 TIME LEFT:  2.00D  GRAD.:     4.493 HEAT:  43.67714
 CYCLE:   301 TIME:   0.090 TIME LEFT:  2.00D  GRAD.:     8.874 HEAT:  43.67324
 CYCLE:   302 TIME:   0.082 TIME LEFT:  2.00D  GRAD.:     6.111 HEAT:  43.66850
 CYCLE:   303 TIME:   0.094 TIME LEFT:  2.00D  GRAD.:     5.449 HEAT:  43.66494
 CYCLE:   304 TIME:   0.090 TIME LEFT:  2.00D  GRAD.:     6.457 HEAT:  43.66107
 CYCLE:   305 TIME:   0.082 TIME LEFT:  2.00D  GRAD.:     5.403 HEAT:  43.65736
 CYCLE:   306 TIME:   0.090 TIME LEFT:  2.00D  GRAD.:    12.893 HEAT:  43.65143
 CYCLE:   307 TIME:   0.086 TIME LEFT:  2.00D  GRAD.:    15.372 HEAT:  43.64950
 CYCLE:   308 TIME:   0.086 TIME LEFT:  2.00D  GRAD.:     4.477 HEAT:  43.64628
 CYCLE:   309 TIME:   0.090 TIME LEFT:  2.00D  GRAD.:     4.405 HEAT:  43.64532
 CYCLE:   310 TIME:   0.078 TIME LEFT:  2.00D  GRAD.:     4.371 HEAT:  43.64244
 CYCLE:   311 TIME:   0.094 TIME LEFT:  2.00D  GRAD.:    17.862 HEAT:  43.64123
 CYCLE:   312 TIME:   0.078 TIME LEFT:  2.00D  GRAD.:     5.757 HEAT:  43.63557
 CYCLE:   313 TIME:   0.094 TIME LEFT:  2.00D  GRAD.:     3.959 HEAT:  43.63404
 CYCLE:   314 TIME:   0.078 TIME LEFT:  2.00D  GRAD.:     4.283 HEAT:  43.63288
 CYCLE:   315 TIME:   0.090 TIME LEFT:  2.00D  GRAD.:     5.299 HEAT:  43.62948
 CYCLE:   316 TIME:   0.082 TIME LEFT:  2.00D  GRAD.:     8.121 HEAT:  43.62583
 CYCLE:   317 TIME:   0.094 TIME LEFT:  2.00D  GRAD.:     6.579 HEAT:  43.62236
 CYCLE:   318 TIME:   0.078 TIME LEFT:  2.00D  GRAD.:     4.164 HEAT:  43.62032
 CYCLE:   319 TIME:   0.090 TIME LEFT:  2.00D  GRAD.:     5.532 HEAT:  43.61800
 CYCLE:   320 TIME:   0.090 TIME LEFT:  2.00D  GRAD.:     4.551 HEAT:  43.61486
 CYCLE:   321 TIME:   0.094 TIME LEFT:  2.00D  GRAD.:     8.587 HEAT:  43.61158
 CYCLE:   322 TIME:   0.090 TIME LEFT:  2.00D  GRAD.:    15.777 HEAT:  43.61129
 CYCLE:   323 TIME:   0.090 TIME LEFT:  2.00D  GRAD.:     7.933 HEAT:  43.60976
 CYCLE:   324 TIME:   0.102 TIME LEFT:  2.00D  GRAD.:     2.907 HEAT:  43.60830
 CYCLE:   325 TIME:   0.078 TIME LEFT:  2.00D  GRAD.:     2.796 HEAT:  43.60787
 CYCLE:   326 TIME:   0.105 TIME LEFT:  2.00D  GRAD.:     5.930 HEAT:  43.60810
 CYCLE:   327 TIME:   0.102 TIME LEFT:  2.00D  GRAD.:    44.365 HEAT:  43.64063
 CYCLE:   328 TIME:   0.094 TIME LEFT:  2.00D  GRAD.:    31.917 HEAT:  43.62492
 CYCLE:   329 TIME:   0.098 TIME LEFT:  2.00D  GRAD.:    11.795 HEAT:  43.60935
 CYCLE:   330 TIME:   0.090 TIME LEFT:  2.00D  GRAD.:     8.950 HEAT:  43.60859
 CYCLE:   331 TIME:   0.102 TIME LEFT:  2.00D  GRAD.:     7.413 HEAT:  43.60444
 CYCLE:   332 TIME:   0.094 TIME LEFT:  2.00D  GRAD.:    10.666 HEAT:  43.60349
 CYCLE:   333 TIME:   0.078 TIME LEFT:  2.00D  GRAD.:     2.134 HEAT:  43.60222
 CYCLE:   334 TIME:   0.070 TIME LEFT:  2.00D  GRAD.:     2.134 HEAT:  43.60196
 CYCLE:   335 TIME:   0.094 TIME LEFT:  2.00D  GRAD.:     2.920 HEAT:  43.60082
 CYCLE:   336 TIME:   0.090 TIME LEFT:  2.00D  GRAD.:    20.378 HEAT:  43.60282
 CYCLE:   337 TIME:   0.070 TIME LEFT:  2.00D  GRAD.:     4.449 HEAT:  43.59888
 CYCLE:   338 TIME:   0.090 TIME LEFT:  2.00D  GRAD.:     2.952 HEAT:  43.59829
 CYCLE:   339 TIME:   0.090 TIME LEFT:  2.00D  GRAD.:    13.491 HEAT:  43.60681
 CYCLE:   340 TIME:   0.113 TIME LEFT:  2.00D  GRAD.:     2.376 HEAT:  43.59720
 CYCLE:   341 TIME:   0.098 TIME LEFT:  2.00D  GRAD.:     2.226 HEAT:  43.59669
 CYCLE:   342 TIME:   0.109 TIME LEFT:  2.00D  GRAD.:     3.241 HEAT:  43.59642
 CYCLE:   343 TIME:   0.086 TIME LEFT:  2.00D  GRAD.:     3.006 HEAT:  43.59494
 CYCLE:   344 TIME:   0.090 TIME LEFT:  2.00D  GRAD.:     3.351 HEAT:  43.59287
 CYCLE:   345 TIME:   0.090 TIME LEFT:  2.00D  GRAD.:     6.392 HEAT:  43.59240
 CYCLE:   346 TIME:   0.082 TIME LEFT:  2.00D  GRAD.:     5.875 HEAT:  43.59148
 CYCLE:   347 TIME:   0.082 TIME LEFT:  2.00D  GRAD.:     1.693 HEAT:  43.59103
 CYCLE:   348 TIME:   0.078 TIME LEFT:  2.00D  GRAD.:     1.770 HEAT:  43.59057
 CYCLE:   349 TIME:   0.102 TIME LEFT:  2.00D  GRAD.:     7.674 HEAT:  43.59314
 CYCLE:   350 TIME:   0.090 TIME LEFT:  2.00D  GRAD.:     8.475 HEAT:  43.58941
 CYCLE:   351 TIME:   0.094 TIME LEFT:  2.00D  GRAD.:    33.259 HEAT:  43.59871
 CYCLE:   352 TIME:   0.078 TIME LEFT:  2.00D  GRAD.:     1.530 HEAT:  43.58844
 CYCLE:   353 TIME:   0.094 TIME LEFT:  2.00D  GRAD.:     1.483 HEAT:  43.58837
 CYCLE:   354 TIME:   0.078 TIME LEFT:  2.00D  GRAD.:     2.840 HEAT:  43.58799
 CYCLE:   355 TIME:   0.090 TIME LEFT:  2.00D  GRAD.:     2.348 HEAT:  43.58718
 CYCLE:   356 TIME:   0.094 TIME LEFT:  2.00D  GRAD.:     2.334 HEAT:  43.58622
 CYCLE:   357 TIME:   0.086 TIME LEFT:  2.00D  GRAD.:     2.014 HEAT:  43.58576
 CYCLE:   358 TIME:   0.086 TIME LEFT:  2.00D  GRAD.:     2.168 HEAT:  43.58507
 CYCLE:   359 TIME:   0.102 TIME LEFT:  2.00D  GRAD.:    11.310 HEAT:  43.59034
 CYCLE:   360 TIME:   0.098 TIME LEFT:  2.00D  GRAD.:     9.978 HEAT:  43.58490
 CYCLE:   361 TIME:   0.105 TIME LEFT:  2.00D  GRAD.:   264.051 HEAT:  44.16076
 CYCLE:   362 TIME:   0.102 TIME LEFT:  2.00D  GRAD.:    86.269 HEAT:  43.64781
 CYCLE:   363 TIME:   0.090 TIME LEFT:  2.00D  GRAD.:    60.279 HEAT:  43.61302
 CYCLE:   364 TIME:   0.102 TIME LEFT:  2.00D  GRAD.:   134.409 HEAT:  43.72282
 CYCLE:   365 TIME:   0.090 TIME LEFT:  2.00D  GRAD.:    83.120 HEAT:  43.63132
 CYCLE:   366 TIME:   0.090 TIME LEFT:  2.00D  GRAD.:   149.709 HEAT:  43.75566
 CYCLE:   367 TIME:   0.102 TIME LEFT:  2.00D  GRAD.:     9.332 HEAT:  43.58465
 CYCLE:   368 TIME:   0.102 TIME LEFT:  2.00D  GRAD.:    14.898 HEAT:  43.58945
 CYCLE:   369 TIME:   0.090 TIME LEFT:  2.00D  GRAD.:     2.250 HEAT:  43.58327
 CYCLE:   370 TIME:   0.082 TIME LEFT:  2.00D  GRAD.:     4.369 HEAT:  43.58332
 CYCLE:   371 TIME:   0.078 TIME LEFT:  2.00D  GRAD.:     1.401 HEAT:  43.58311
 CYCLE:   372 TIME:   0.094 TIME LEFT:  2.00D  GRAD.:     2.215 HEAT:  43.58304
 CYCLE:   373 TIME:   0.098 TIME LEFT:  2.00D  GRAD.:     3.958 HEAT:  43.58336
 CYCLE:   374 TIME:   0.094 TIME LEFT:  2.00D  GRAD.:     2.642 HEAT:  43.58252
 CYCLE:   375 TIME:   0.082 TIME LEFT:  2.00D  GRAD.:     2.111 HEAT:  43.58223
 CYCLE:   376 TIME:   0.090 TIME LEFT:  2.00D  GRAD.:     1.350 HEAT:  43.58184
 CYCLE:   377 TIME:   0.098 TIME LEFT:  2.00D  GRAD.:     1.822 HEAT:  43.58142
 CYCLE:   378 TIME:   0.090 TIME LEFT:  2.00D  GRAD.:     5.246 HEAT:  43.58096
 CYCLE:   379 TIME:   0.082 TIME LEFT:  2.00D  GRAD.:     2.868 HEAT:  43.58024
 CYCLE:   380 TIME:   0.082 TIME LEFT:  2.00D  GRAD.:     1.828 HEAT:  43.57952
 CYCLE:   381 TIME:   0.090 TIME LEFT:  2.00D  GRAD.:     2.526 HEAT:  43.57923
 CYCLE:   382 TIME:   0.094 TIME LEFT:  2.00D  GRAD.:     2.132 HEAT:  43.57890
 CYCLE:   383 TIME:   0.102 TIME LEFT:  2.00D  GRAD.:     1.131 HEAT:  43.57835
 CYCLE:   384 TIME:   0.090 TIME LEFT:  2.00D  GRAD.:     1.265 HEAT:  43.57786
 CYCLE:   385 TIME:   0.102 TIME LEFT:  2.00D  GRAD.:     2.930 HEAT:  43.57753
 CYCLE:   386 TIME:   0.098 TIME LEFT:  2.00D  GRAD.:    95.104 HEAT:  43.65977
 CYCLE:   387 TIME:   0.094 TIME LEFT:  2.00D  GRAD.:    26.539 HEAT:  43.58376
 CYCLE:   388 TIME:   0.098 TIME LEFT:  2.00D  GRAD.:    18.271 HEAT:  43.58010
 CYCLE:   389 TIME:   0.082 TIME LEFT:  2.00D  GRAD.:    27.960 HEAT:  43.58313
 CYCLE:   390 TIME:   0.094 TIME LEFT:  2.00D  GRAD.:     2.539 HEAT:  43.57693
 CYCLE:   391 TIME:   0.109 TIME LEFT:  2.00D  GRAD.:     3.420 HEAT:  43.57805
 CYCLE:   392 TIME:   0.098 TIME LEFT:  2.00D  GRAD.:     2.586 HEAT:  43.57650
 CYCLE:   393 TIME:   0.086 TIME LEFT:  2.00D  GRAD.:    11.055 HEAT:  43.57871
 CYCLE:   394 TIME:   0.094 TIME LEFT:  2.00D  GRAD.:     1.762 HEAT:  43.57611
 CYCLE:   395 TIME:   0.086 TIME LEFT:  2.00D  GRAD.:     1.552 HEAT:  43.57600
 CYCLE:   396 TIME:   0.086 TIME LEFT:  2.00D  GRAD.:     1.974 HEAT:  43.57587
 CYCLE:   397 TIME:   0.090 TIME LEFT:  2.00D  GRAD.:     3.111 HEAT:  43.57534
 CYCLE:   398 TIME:   0.090 TIME LEFT:  2.00D  GRAD.:     6.674 HEAT:  43.57611
 CYCLE:   399 TIME:   0.090 TIME LEFT:  2.00D  GRAD.:     1.019 HEAT:  43.57500
 CYCLE:   400 TIME:   0.090 TIME LEFT:  2.00D  GRAD.:     0.947 HEAT:  43.57493
 CYCLE:   401 TIME:   0.082 TIME LEFT:  2.00D  GRAD.:     0.976 HEAT:  43.57459
 CYCLE:   402 TIME:   0.102 TIME LEFT:  2.00D  GRAD.:     5.832 HEAT:  43.57480
 CYCLE:   403 TIME:   0.082 TIME LEFT:  2.00D  GRAD.:     2.190 HEAT:  43.57392
 CYCLE:   404 TIME:   0.086 TIME LEFT:  2.00D  GRAD.:     1.918 HEAT:  43.57369
 CYCLE:   405 TIME:   0.094 TIME LEFT:  2.00D  GRAD.:     2.392 HEAT:  43.57359
 CYCLE:   406 TIME:   0.082 TIME LEFT:  2.00D  GRAD.:     2.669 HEAT:  43.57296
 CYCLE:   407 TIME:   0.090 TIME LEFT:  2.00D  GRAD.:     2.122 HEAT:  43.57248
 CYCLE:   408 TIME:   0.090 TIME LEFT:  2.00D  GRAD.:     1.227 HEAT:  43.57230
 CYCLE:   409 TIME:   0.102 TIME LEFT:  2.00D  GRAD.:     3.117 HEAT:  43.57234
 CYCLE:   410 TIME:   0.090 TIME LEFT:  2.00D  GRAD.:     4.973 HEAT:  43.57233
 CYCLE:   411 TIME:   0.094 TIME LEFT:  2.00D  GRAD.:     5.851 HEAT:  43.57236
 CYCLE:   412 TIME:   0.090 TIME LEFT:  2.00D  GRAD.:     6.395 HEAT:  43.57254
 CYCLE:   413 TIME:   0.082 TIME LEFT:  2.00D  GRAD.:     6.126 HEAT:  43.57207
 CYCLE:   414 TIME:   0.090 TIME LEFT:  2.00D  GRAD.:     6.974 HEAT:  43.57305
 CYCLE:   415 TIME:   0.102 TIME LEFT:  2.00D  GRAD.:    87.488 HEAT:  43.67254
 CYCLE:   416 TIME:   0.090 TIME LEFT:  2.00D  GRAD.:    45.429 HEAT:  43.60029
 CYCLE:   417 TIME:   0.102 TIME LEFT:  2.00D  GRAD.:    29.739 HEAT:  43.58717
 CYCLE:   418 TIME:   0.098 TIME LEFT:  2.00D  GRAD.:     6.539 HEAT:  43.57402
 CYCLE:   419 TIME:   0.090 TIME LEFT:  2.00D  GRAD.:    12.377 HEAT:  43.57975
 CYCLE:   420 TIME:   0.086 TIME LEFT:  2.00D  GRAD.:     2.227 HEAT:  43.57141
 CYCLE:   421 TIME:   0.090 TIME LEFT:  2.00D  GRAD.:     2.861 HEAT:  43.57137
 CYCLE:   422 TIME:   0.086 TIME LEFT:  2.00D  GRAD.:     1.016 HEAT:  43.57127
 CYCLE:   423 TIME:   0.094 TIME LEFT:  2.00D  GRAD.:     3.516 HEAT:  43.57136
 CYCLE:   424 TIME:   0.082 TIME LEFT:  2.00D  GRAD.:     1.614 HEAT:  43.57119
 CYCLE:   425 TIME:   0.082 TIME LEFT:  2.00D  GRAD.:     1.525 HEAT:  43.57115
 CYCLE:   426 TIME:   0.090 TIME LEFT:  2.00D  GRAD.:     0.851 HEAT:  43.57111
 CYCLE:   427 TIME:   0.094 TIME LEFT:  2.00D  GRAD.:     3.552 HEAT:  43.57107
 CYCLE:   428 TIME:   0.086 TIME LEFT:  2.00D  GRAD.:     1.195 HEAT:  43.57093
 CYCLE:   429 TIME:   0.094 TIME LEFT:  2.00D  GRAD.:     4.553 HEAT:  43.57121
 CYCLE:   430 TIME:   0.082 TIME LEFT:  2.00D  GRAD.:     1.467 HEAT:  43.57090
 CYCLE:   431 TIME:   0.098 TIME LEFT:  2.00D  GRAD.:     5.344 HEAT:  43.57127
 CYCLE:   432 TIME:   0.082 TIME LEFT:  2.00D  GRAD.:     2.434 HEAT:  43.57088
 CYCLE:   433 TIME:   0.094 TIME LEFT:  2.00D  GRAD.:     0.884 HEAT:  43.57081
 CYCLE:   434 TIME:   0.090 TIME LEFT:  2.00D  GRAD.:     0.456 HEAT:  43.57078
 CYCLE:   435 TIME:   0.102 TIME LEFT:  2.00D  GRAD.:     1.906 HEAT:  43.57078
 CYCLE:   436 TIME:   0.090 TIME LEFT:  2.00D  GRAD.:     1.036 HEAT:  43.57072
 CYCLE:   437 TIME:   0.090 TIME LEFT:  2.00D  GRAD.:     0.475 HEAT:  43.57069
 CYCLE:   438 TIME:   0.102 TIME LEFT:  2.00D  GRAD.:     2.088 HEAT:  43.57075
 CYCLE:   439 TIME:   0.090 TIME LEFT:  2.00D  GRAD.:     1.149 HEAT:  43.57066
 CYCLE:   440 TIME:   0.082 TIME LEFT:  2.00D  GRAD.:     1.038 HEAT:  43.57063
 CYCLE:   441 TIME:   0.102 TIME LEFT:  2.00D  GRAD.:     4.030 HEAT:  43.57100
 CYCLE:   442 TIME:   0.090 TIME LEFT:  2.00D  GRAD.:     1.377 HEAT:  43.57067
 CYCLE:   443 TIME:   0.082 TIME LEFT:  2.00D  GRAD.:     0.503 HEAT:  43.57062
 CYCLE:   444 TIME:   0.102 TIME LEFT:  2.00D  GRAD.:     5.898 HEAT:  43.57125
 CYCLE:   445 TIME:   0.086 TIME LEFT:  2.00D  GRAD.:     0.608 HEAT:  43.57054
 CYCLE:   446 TIME:   0.086 TIME LEFT:  2.00D  GRAD.:     0.853 HEAT:  43.57052
 CYCLE:   447 TIME:   0.098 TIME LEFT:  2.00D  GRAD.:     1.835 HEAT:  43.57058
 CYCLE:   448 TIME:   0.094 TIME LEFT:  2.00D  GRAD.:     1.938 HEAT:  43.57044
 CYCLE:   449 TIME:   0.102 TIME LEFT:  2.00D  GRAD.:     4.612 HEAT:  43.57104
 CYCLE:   450 TIME:   0.078 TIME LEFT:  2.00D  GRAD.:     6.982 HEAT:  43.57065
 CYCLE:   451 TIME:   0.102 TIME LEFT:  2.00D  GRAD.:    12.235 HEAT:  43.57197
 CYCLE:   452 TIME:   0.090 TIME LEFT:  2.00D  GRAD.:     5.844 HEAT:  43.57064
 CYCLE:   453 TIME:   0.082 TIME LEFT:  2.00D  GRAD.:     1.699 HEAT:  43.57036
 CYCLE:   454 TIME:   0.090 TIME LEFT:  2.00D  GRAD.:     3.495 HEAT:  43.57041
 CYCLE:   455 TIME:   0.094 TIME LEFT:  2.00D  GRAD.:     1.309 HEAT:  43.57040
 CYCLE:   456 TIME:   0.090 TIME LEFT:  2.00D  GRAD.:     1.421 HEAT:  43.57035
 CYCLE:   457 TIME:   0.098 TIME LEFT:  2.00D  GRAD.:     7.490 HEAT:  43.57061
 CYCLE:   458 TIME:   0.082 TIME LEFT:  2.00D  GRAD.:     1.953 HEAT:  43.57030
 CYCLE:   459 TIME:   0.090 TIME LEFT:  2.00D  GRAD.:     1.348 HEAT:  43.57028
 CYCLE:   460 TIME:   0.102 TIME LEFT:  2.00D  GRAD.:    20.151 HEAT:  43.57296
 CYCLE:   461 TIME:   0.098 TIME LEFT:  2.00D  GRAD.:     1.785 HEAT:  43.57020
 CYCLE:   462 TIME:   0.086 TIME LEFT:  2.00D  GRAD.:     2.698 HEAT:  43.57023
 CYCLE:   463 TIME:   0.082 TIME LEFT:  2.00D  GRAD.:     1.997 HEAT:  43.57019
 CYCLE:   464 TIME:   0.090 TIME LEFT:  2.00D  GRAD.:     1.067 HEAT:  43.57015
 CYCLE:   465 TIME:   0.090 TIME LEFT:  2.00D  GRAD.:     0.882 HEAT:  43.57014
 CYCLE:   466 TIME:   0.086 TIME LEFT:  2.00D  GRAD.:     0.802 HEAT:  43.57011
 CYCLE:   467 TIME:   0.082 TIME LEFT:  2.00D  GRAD.:     0.961 HEAT:  43.57008
 CYCLE:   468 TIME:   0.094 TIME LEFT:  2.00D  GRAD.:     2.761 HEAT:  43.57009
 CYCLE:   469 TIME:   0.070 TIME LEFT:  2.00D  GRAD.:     1.664 HEAT:  43.56998
 CYCLE:   470 TIME:   0.090 TIME LEFT:  2.00D  GRAD.:     1.194 HEAT:  43.56993
 CYCLE:   471 TIME:   0.082 TIME LEFT:  2.00D  GRAD.:     0.607 HEAT:  43.56987
 CYCLE:   472 TIME:   0.090 TIME LEFT:  2.00D  GRAD.:     1.470 HEAT:  43.56988
 CYCLE:   473 TIME:   0.082 TIME LEFT:  2.00D  GRAD.:     0.925 HEAT:  43.56983
 CYCLE:   474 TIME:   0.090 TIME LEFT:  2.00D  GRAD.:     2.859 HEAT:  43.56991
 CYCLE:   475 TIME:   0.090 TIME LEFT:  2.00D  GRAD.:     2.162 HEAT:  43.56983
 CYCLE:   476 TIME:   0.094 TIME LEFT:  2.00D  GRAD.:     3.697 HEAT:  43.56985
 CYCLE:   477 TIME:   0.086 TIME LEFT:  2.00D  GRAD.:     0.635 HEAT:  43.56972
 CYCLE:   478 TIME:   0.086 TIME LEFT:  2.00D  GRAD.:     1.385 HEAT:  43.56975
 CYCLE:   479 TIME:   0.078 TIME LEFT:  2.00D  GRAD.:     2.192 HEAT:  43.56969
 CYCLE:   480 TIME:   0.082 TIME LEFT:  2.00D  GRAD.:     1.090 HEAT:  43.56964
 CYCLE:   481 TIME:   0.082 TIME LEFT:  2.00D  GRAD.:     0.849 HEAT:  43.56962
 CYCLE:   482 TIME:   0.090 TIME LEFT:  2.00D  GRAD.:     1.049 HEAT:  43.56959
 CYCLE:   483 TIME:   0.090 TIME LEFT:  2.00D  GRAD.:     1.489 HEAT:  43.56957
 CYCLE:   484 TIME:   0.082 TIME LEFT:  2.00D  GRAD.:     1.127 HEAT:  43.56953
 CYCLE:   485 TIME:   0.078 TIME LEFT:  2.00D  GRAD.:     1.287 HEAT:  43.56948
 CYCLE:   486 TIME:   0.094 TIME LEFT:  2.00D  GRAD.:     0.793 HEAT:  43.56942
 CYCLE:   487 TIME:   0.078 TIME LEFT:  2.00D  GRAD.:     1.715 HEAT:  43.56940
 CYCLE:   488 TIME:   0.094 TIME LEFT:  2.00D  GRAD.:     0.777 HEAT:  43.56931
 CYCLE:   489 TIME:   0.090 TIME LEFT:  2.00D  GRAD.:     1.464 HEAT:  43.56936
 CYCLE:   490 TIME:   0.090 TIME LEFT:  2.00D  GRAD.:     0.525 HEAT:  43.56927
 CYCLE:   491 TIME:   0.090 TIME LEFT:  2.00D  GRAD.:     1.213 HEAT:  43.56929
 CYCLE:   492 TIME:   0.090 TIME LEFT:  2.00D  GRAD.:     0.728 HEAT:  43.56923
 CYCLE:   493 TIME:   0.094 TIME LEFT:  2.00D  GRAD.:     2.121 HEAT:  43.56930
 CYCLE:   494 TIME:   0.090 TIME LEFT:  2.00D  GRAD.:     0.732 HEAT:  43.56919
 CYCLE:   495 TIME:   0.090 TIME LEFT:  2.00D  GRAD.:     0.737 HEAT:  43.56915
 CYCLE:   496 TIME:   0.094 TIME LEFT:  2.00D  GRAD.:     1.413 HEAT:  43.56911
 CYCLE:   497 TIME:   0.082 TIME LEFT:  2.00D  GRAD.:     2.665 HEAT:  43.56907
 CYCLE:   498 TIME:   0.090 TIME LEFT:  2.00D  GRAD.:     0.811 HEAT:  43.56903
 CYCLE:   499 TIME:   0.090 TIME LEFT:  2.00D  GRAD.:     0.505 HEAT:  43.56900
 CYCLE:   500 TIME:   0.082 TIME LEFT:  2.00D  GRAD.:     0.526 HEAT:  43.56895
 CYCLE:   501 TIME:   0.090 TIME LEFT:  2.00D  GRAD.:     0.624 HEAT:  43.56892
 CYCLE:   502 TIME:   0.090 TIME LEFT:  2.00D  GRAD.:     1.941 HEAT:  43.56894
 CYCLE:   503 TIME:   0.074 TIME LEFT:  2.00D  GRAD.:     0.782 HEAT:  43.56884
 CYCLE:   504 TIME:   0.090 TIME LEFT:  2.00D  GRAD.:     1.039 HEAT:  43.56883
 CYCLE:   505 TIME:   0.090 TIME LEFT:  2.00D  GRAD.:     0.439 HEAT:  43.56878
 CYCLE:   506 TIME:   0.102 TIME LEFT:  2.00D  GRAD.:     2.904 HEAT:  43.56898
 CYCLE:   507 TIME:   0.090 TIME LEFT:  2.00D  GRAD.:     0.541 HEAT:  43.56874
 CYCLE:   508 TIME:   0.082 TIME LEFT:  2.00D  GRAD.:     0.518 HEAT:  43.56875
 CYCLE:   509 TIME:   0.090 TIME LEFT:  2.00D  GRAD.:     0.354 HEAT:  43.56872
 CYCLE:   510 TIME:   0.102 TIME LEFT:  2.00D  GRAD.:     1.831 HEAT:  43.56872
 CYCLE:   511 TIME:   0.090 TIME LEFT:  2.00D  GRAD.:     4.632 HEAT:  43.56885
 CYCLE:   512 TIME:   0.094 TIME LEFT:  2.00D  GRAD.:     8.882 HEAT:  43.56913
 CYCLE:   513 TIME:   0.082 TIME LEFT:  2.00D  GRAD.:     2.857 HEAT:  43.56867
 CYCLE:   514 TIME:   0.090 TIME LEFT:  2.00D  GRAD.:     0.756 HEAT:  43.56870
 CYCLE:   515 TIME:   0.094 TIME LEFT:  2.00D  GRAD.:     0.388 HEAT:  43.56861
 CYCLE:   516 TIME:   0.086 TIME LEFT:  2.00D  GRAD.:     1.269 HEAT:  43.56865
 CYCLE:   517 TIME:   0.094 TIME LEFT:  2.00D  GRAD.:     0.946 HEAT:  43.56858
 CYCLE:   518 TIME:   0.090 TIME LEFT:  2.00D  GRAD.:     1.385 HEAT:  43.56878
 CYCLE:   519 TIME:   0.090 TIME LEFT:  2.00D  GRAD.:     0.517 HEAT:  43.56855
 CYCLE:   520 TIME:   0.102 TIME LEFT:  2.00D  GRAD.:     3.287 HEAT:  43.56878
 CYCLE:   521 TIME:   0.082 TIME LEFT:  2.00D  GRAD.:     0.328 HEAT:  43.56852
 CYCLE:   522 TIME:   0.082 TIME LEFT:  2.00D  GRAD.:     0.262 HEAT:  43.56851
 CYCLE:   523 TIME:   0.078 TIME LEFT:  2.00D  GRAD.:     0.364 HEAT:  43.56850
 CYCLE:   524 TIME:   0.094 TIME LEFT:  2.00D  GRAD.:     0.524 HEAT:  43.56848
 CYCLE:   525 TIME:   0.086 TIME LEFT:  2.00D  GRAD.:     0.650 HEAT:  43.56844
 CYCLE:   526 TIME:   0.094 TIME LEFT:  2.00D  GRAD.:     4.172 HEAT:  43.56847
 CYCLE:   527 TIME:   0.070 TIME LEFT:  2.00D  GRAD.:     0.703 HEAT:  43.56837
 CYCLE:   528 TIME:   0.090 TIME LEFT:  2.00D  GRAD.:     0.555 HEAT:  43.56836
 CYCLE:   529 TIME:   0.082 TIME LEFT:  2.00D  GRAD.:     0.443 HEAT:  43.56834
 CYCLE:   530 TIME:   0.094 TIME LEFT:  2.00D  GRAD.:     2.260 HEAT:  43.56838
 CYCLE:   531 TIME:   0.078 TIME LEFT:  2.00D  GRAD.:     0.600 HEAT:  43.56829
 CYCLE:   532 TIME:   0.090 TIME LEFT:  2.00D  GRAD.:     0.368 HEAT:  43.56827
 CYCLE:   533 TIME:   0.082 TIME LEFT:  2.00D  GRAD.:     0.551 HEAT:  43.56824
 CYCLE:   534 TIME:   0.090 TIME LEFT:  2.00D  GRAD.:     0.781 HEAT:  43.56827
 CYCLE:   535 TIME:   0.094 TIME LEFT:  2.00D  GRAD.:     3.707 HEAT:  43.56855
 CYCLE:   536 TIME:   0.078 TIME LEFT:  2.00D  GRAD.:     0.743 HEAT:  43.56822
 CYCLE:   537 TIME:   0.094 TIME LEFT:  2.00D  GRAD.:     0.349 HEAT:  43.56820
 CYCLE:   538 TIME:   0.078 TIME LEFT:  2.00D  GRAD.:     1.081 HEAT:  43.56830
 CYCLE:   539 TIME:   0.090 TIME LEFT:  2.00D  GRAD.:     0.527 HEAT:  43.56819
 CYCLE:   540 TIME:   0.094 TIME LEFT:  2.00D  GRAD.:     2.307 HEAT:  43.56826
 CYCLE:   541 TIME:   0.090 TIME LEFT:  2.00D  GRAD.:     3.035 HEAT:  43.56826
 CYCLE:   542 TIME:   0.090 TIME LEFT:  2.00D  GRAD.:    17.464 HEAT:  43.57001
 CYCLE:   543 TIME:   0.082 TIME LEFT:  2.00D  GRAD.:     7.021 HEAT:  43.56843
 CYCLE:   544 TIME:   0.090 TIME LEFT:  2.00D  GRAD.:     2.261 HEAT:  43.56829
 CYCLE:   545 TIME:   0.090 TIME LEFT:  2.00D  GRAD.:     1.271 HEAT:  43.56814
 CYCLE:   546 TIME:   0.094 TIME LEFT:  2.00D  GRAD.:     0.719 HEAT:  43.56812
 CYCLE:   547 TIME:   0.078 TIME LEFT:  2.00D  GRAD.:     0.276 HEAT:  43.56812
 CYCLE:   548 TIME:   0.082 TIME LEFT:  2.00D  GRAD.:     1.982 HEAT:  43.56813
 CYCLE:   549 TIME:   0.082 TIME LEFT:  2.00D  GRAD.:     0.862 HEAT:  43.56810
 CYCLE:   550 TIME:   0.090 TIME LEFT:  2.00D  GRAD.:     0.298 HEAT:  43.56808
 CYCLE:   551 TIME:   0.090 TIME LEFT:  2.00D  GRAD.:     0.438 HEAT:  43.56807
 CYCLE:   552 TIME:   0.090 TIME LEFT:  2.00D  GRAD.:     0.983 HEAT:  43.56810
 CYCLE:   553 TIME:   0.082 TIME LEFT:  2.00D  GRAD.:     0.746 HEAT:  43.56807
 CYCLE:   554 TIME:   0.102 TIME LEFT:  2.00D  GRAD.:     2.739 HEAT:  43.56821
 CYCLE:   555 TIME:   0.090 TIME LEFT:  2.00D  GRAD.:     0.876 HEAT:  43.56804
 CYCLE:   556 TIME:   0.090 TIME LEFT:  2.00D  GRAD.:     0.691 HEAT:  43.56800
 CYCLE:   557 TIME:   0.094 TIME LEFT:  2.00D  GRAD.:     0.661 HEAT:  43.56801
 CYCLE:   558 TIME:   0.086 TIME LEFT:  2.00D  GRAD.:     0.854 HEAT:  43.56800
 CYCLE:   559 TIME:   0.086 TIME LEFT:  2.00D  GRAD.:     0.419 HEAT:  43.56798
 CYCLE:   560 TIME:   0.090 TIME LEFT:  2.00D  GRAD.:     1.961 HEAT:  43.56802
 CYCLE:   561 TIME:   0.090 TIME LEFT:  2.00D  GRAD.:     1.008 HEAT:  43.56797
 CYCLE:   562 TIME:   0.102 TIME LEFT:  2.00D  GRAD.:     3.065 HEAT:  43.56821
 CYCLE:   563 TIME:   0.090 TIME LEFT:  2.00D  GRAD.:     1.333 HEAT:  43.56798
 CYCLE:   564 TIME:   0.105 TIME LEFT:  2.00D  GRAD.:     3.833 HEAT:  43.56834
 CYCLE:   565 TIME:   0.090 TIME LEFT:  2.00D  GRAD.:     1.860 HEAT:  43.56801
 CYCLE:   566 TIME:   0.102 TIME LEFT:  2.00D  GRAD.:     4.718 HEAT:  43.56849
 CYCLE:   567 TIME:   0.090 TIME LEFT:  2.00D  GRAD.:     0.195 HEAT:  43.56794
 CYCLE:   568 TIME:   0.082 TIME LEFT:  2.00D  GRAD.:     0.280 HEAT:  43.56794
 CYCLE:   569 TIME:   0.078 TIME LEFT:  2.00D  GRAD.:     0.306 HEAT:  43.56793
 CYCLE:   570 TIME:   0.094 TIME LEFT:  2.00D  GRAD.:     0.883 HEAT:  43.56792
 CYCLE:   571 TIME:   0.078 TIME LEFT:  2.00D  GRAD.:     0.534 HEAT:  43.56791
 CYCLE:   572 TIME:   0.082 TIME LEFT:  2.00D  GRAD.:     1.009 HEAT:  43.56791
 CYCLE:   573 TIME:   0.078 TIME LEFT:  2.00D  GRAD.:     0.576 HEAT:  43.56790
 CYCLE:   574 TIME:   0.074 TIME LEFT:  2.00D  GRAD.:     0.361 HEAT:  43.56790
 CYCLE:   575 TIME:   0.086 TIME LEFT:  2.00D  GRAD.:     0.236 HEAT:  43.56789
 CYCLE:   576 TIME:   0.086 TIME LEFT:  2.00D  GRAD.:     0.376 HEAT:  43.56787
 CYCLE:   577 TIME:   0.090 TIME LEFT:  2.00D  GRAD.:     1.175 HEAT:  43.56787
 CYCLE:   578 TIME:   0.082 TIME LEFT:  2.00D  GRAD.:     0.442 HEAT:  43.56785
 CYCLE:   579 TIME:   0.078 TIME LEFT:  2.00D  GRAD.:     0.433 HEAT:  43.56784
 CYCLE:   580 TIME:   0.082 TIME LEFT:  2.00D  GRAD.:     0.580 HEAT:  43.56781
 CYCLE:   581 TIME:   0.090 TIME LEFT:  2.00D  GRAD.:     1.049 HEAT:  43.56780
 CYCLE:   582 TIME:   0.082 TIME LEFT:  2.00D  GRAD.:     0.309 HEAT:  43.56779
 CYCLE:   583 TIME:   0.078 TIME LEFT:  2.00D  GRAD.:     0.329 HEAT:  43.56778
 CYCLE:   584 TIME:   0.082 TIME LEFT:  2.00D  GRAD.:     0.364 HEAT:  43.56777
 CYCLE:   585 TIME:   0.070 TIME LEFT:  2.00D  GRAD.:     0.309 HEAT:  43.56776
 CYCLE:   586 TIME:   0.090 TIME LEFT:  2.00D  GRAD.:     0.331 HEAT:  43.56773
 CYCLE:   587 TIME:   0.082 TIME LEFT:  2.00D  GRAD.:     1.487 HEAT:  43.56773
 CYCLE:   588 TIME:   0.070 TIME LEFT:  2.00D  GRAD.:     0.467 HEAT:  43.56771
 CYCLE:   589 TIME:   0.082 TIME LEFT:  2.00D  GRAD.:     0.237 HEAT:  43.56770
 CYCLE:   590 TIME:   0.090 TIME LEFT:  2.00D  GRAD.:     0.547 HEAT:  43.56768
 CYCLE:   591 TIME:   0.082 TIME LEFT:  2.00D  GRAD.:     0.568 HEAT:  43.56767
 CYCLE:   592 TIME:   0.090 TIME LEFT:  2.00D  GRAD.:     0.651 HEAT:  43.56764
 CYCLE:   593 TIME:   0.082 TIME LEFT:  2.00D  GRAD.:     0.999 HEAT:  43.56762
 CYCLE:   594 TIME:   0.098 TIME LEFT:  2.00D  GRAD.:     0.828 HEAT:  43.56760
 CYCLE:   595 TIME:   0.082 TIME LEFT:  2.00D  GRAD.:     0.844 HEAT:  43.56759
 CYCLE:   596 TIME:   0.090 TIME LEFT:  2.00D  GRAD.:     1.479 HEAT:  43.56758
 CYCLE:   597 TIME:   0.090 TIME LEFT:  2.00D  GRAD.:     1.567 HEAT:  43.56761
 CYCLE:   598 TIME:   0.090 TIME LEFT:  2.00D  GRAD.:     0.679 HEAT:  43.56755
 CYCLE:   599 TIME:   0.086 TIME LEFT:  2.00D  GRAD.:     0.608 HEAT:  43.56757
 CYCLE:   600 TIME:   0.090 TIME LEFT:  2.00D  GRAD.:     0.685 HEAT:  43.56753
 CYCLE:   601 TIME:   0.094 TIME LEFT:  2.00D  GRAD.:     0.678 HEAT:  43.56757
 CYCLE:   602 TIME:   0.098 TIME LEFT:  2.00D  GRAD.:    14.540 HEAT:  43.57019
 CYCLE:   603 TIME:   0.086 TIME LEFT:  2.00D  GRAD.:     5.766 HEAT:  43.56787
 CYCLE:   604 TIME:   0.090 TIME LEFT:  2.00D  GRAD.:     2.930 HEAT:  43.56774
 CYCLE:   605 TIME:   0.090 TIME LEFT:  2.00D  GRAD.:    17.698 HEAT:  43.57076
 CYCLE:   606 TIME:   0.090 TIME LEFT:  2.00D  GRAD.:     6.129 HEAT:  43.56787
 CYCLE:   607 TIME:   0.090 TIME LEFT:  2.00D  GRAD.:    20.808 HEAT:  43.57208
 CYCLE:   608 TIME:   0.090 TIME LEFT:  2.00D  GRAD.:     3.537 HEAT:  43.56774
 CYCLE:   609 TIME:   0.094 TIME LEFT:  2.00D  GRAD.:     4.655 HEAT:  43.56809
 CYCLE:   610 TIME:   0.090 TIME LEFT:  2.00D  GRAD.:     6.659 HEAT:  43.56868
 CYCLE:   611 TIME:   0.090 TIME LEFT:  2.00D  GRAD.:    13.374 HEAT:  43.57220
 CYCLE:   612 TIME:   0.094 TIME LEFT:  2.00D  GRAD.:    27.332 HEAT:  43.59378
 CYCLE:   613 TIME:   0.090 TIME LEFT:  2.00D  GRAD.:    10.079 HEAT:  43.57227
 CYCLE:   614 TIME:   0.098 TIME LEFT:  2.00D  GRAD.:    17.795 HEAT:  43.57403
 CYCLE:   615 TIME:   0.082 TIME LEFT:  2.00D  GRAD.:    17.395 HEAT:  43.56972
 CYCLE:   616 TIME:   0.094 TIME LEFT:  2.00D  GRAD.:    12.611 HEAT:  43.56975
 CYCLE:   617 TIME:   0.078 TIME LEFT:  2.00D  GRAD.:     4.022 HEAT:  43.56789
 CYCLE:   618 TIME:   0.086 TIME LEFT:  2.00D  GRAD.:     5.377 HEAT:  43.56824
 CYCLE:   619 TIME:   0.078 TIME LEFT:  2.00D  GRAD.:     0.496 HEAT:  43.56746
 CYCLE:   620 TIME:   0.090 TIME LEFT:  2.00D  GRAD.:     0.611 HEAT:  43.56747
 CYCLE:   621 TIME:   0.094 TIME LEFT:  2.00D  GRAD.:     0.414 HEAT:  43.56746
 CYCLE:   622 TIME:   0.086 TIME LEFT:  2.00D  GRAD.:     0.488 HEAT:  43.56745
 CYCLE:   623 TIME:   0.094 TIME LEFT:  2.00D  GRAD.:     4.738 HEAT:  43.57017
 CYCLE:   624 TIME:   0.094 TIME LEFT:  2.00D  GRAD.:     0.791 HEAT:  43.56741
 CYCLE:   625 TIME:   0.090 TIME LEFT:  2.00D  GRAD.:     2.559 HEAT:  43.56758
 CYCLE:   626 TIME:   0.078 TIME LEFT:  2.00D  GRAD.:     0.617 HEAT:  43.56745
 CYCLE:   627 TIME:   0.094 TIME LEFT:  2.00D  GRAD.:     0.388 HEAT:  43.56742
 CYCLE:   628 TIME:   0.086 TIME LEFT:  2.00D  GRAD.:     0.356 HEAT:  43.56743
 CYCLE:   629 TIME:   0.086 TIME LEFT:  2.00D  GRAD.:     0.854 HEAT:  43.56742
 CYCLE:   630 TIME:   0.090 TIME LEFT:  2.00D  GRAD.:     0.501 HEAT:  43.56741
 CYCLE:   631 TIME:   0.090 TIME LEFT:  2.00D  GRAD.:     0.217 HEAT:  43.56741
 CYCLE:   632 TIME:   0.082 TIME LEFT:  2.00D  GRAD.:     0.200 HEAT:  43.56741
 CYCLE:   633 TIME:   0.090 TIME LEFT:  2.00D  GRAD.:     0.470 HEAT:  43.56740
 CYCLE:   634 TIME:   0.082 TIME LEFT:  2.00D  GRAD.:     0.413 HEAT:  43.56739
 CYCLE:   635 TIME:   0.090 TIME LEFT:  2.00D  GRAD.:     1.106 HEAT:  43.56739
 CYCLE:   636 TIME:   0.082 TIME LEFT:  2.00D  GRAD.:     0.278 HEAT:  43.56738
 CYCLE:   637 TIME:   0.070 TIME LEFT:  2.00D  GRAD.:     0.180 HEAT:  43.56738
 CYCLE:   638 TIME:   0.078 TIME LEFT:  2.00D  GRAD.:     0.284 HEAT:  43.56738
 CYCLE:   639 TIME:   0.082 TIME LEFT:  2.00D  GRAD.:     0.215 HEAT:  43.56738
 CYCLE:   640 TIME:   0.082 TIME LEFT:  2.00D  GRAD.:     0.500 HEAT:  43.56737
 CYCLE:   641 TIME:   0.078 TIME LEFT:  2.00D  GRAD.:     0.224 HEAT:  43.56737
 CYCLE:   642 TIME:   0.082 TIME LEFT:  2.00D  GRAD.:     0.164 HEAT:  43.56737
 CYCLE:   643 TIME:   0.078 TIME LEFT:  2.00D  GRAD.:     0.178 HEAT:  43.56736
 CYCLE:   644 TIME:   0.090 TIME LEFT:  2.00D  GRAD.:     0.335 HEAT:  43.56736
 CYCLE:   645 TIME:   0.086 TIME LEFT:  2.00D  GRAD.:     0.337 HEAT:  43.56735
 CYCLE:   646 TIME:   0.078 TIME LEFT:  2.00D  GRAD.:     0.383 HEAT:  43.56735
 CYCLE:   647 TIME:   0.082 TIME LEFT:  2.00D  GRAD.:     0.342 HEAT:  43.56735
 CYCLE:   648 TIME:   0.090 TIME LEFT:  2.00D  GRAD.:     0.543 HEAT:  43.56735
 CYCLE:   649 TIME:   0.082 TIME LEFT:  2.00D  GRAD.:     0.239 HEAT:  43.56734
 CYCLE:   650 TIME:   0.082 TIME LEFT:  2.00D  GRAD.:     0.161 HEAT:  43.56734
 CYCLE:   651 TIME:   0.078 TIME LEFT:  2.00D  GRAD.:     0.103 HEAT:  43.56734
 CYCLE:   652 TIME:   0.070 TIME LEFT:  2.00D  GRAD.:     0.175 HEAT:  43.56733
 CYCLE:   653 TIME:   0.082 TIME LEFT:  2.00D  GRAD.:     0.102 HEAT:  43.56733
 CYCLE:   654 TIME:   0.082 TIME LEFT:  2.00D  GRAD.:     0.171 HEAT:  43.56733
 CYCLE:   655 TIME:   0.078 TIME LEFT:  2.00D  GRAD.:     0.940 HEAT:  43.56733
 CYCLE:   656 TIME:   0.082 TIME LEFT:  2.00D  GRAD.:     0.244 HEAT:  43.56732
 CYCLE:   657 TIME:   0.082 TIME LEFT:  2.00D  GRAD.:     0.154 HEAT:  43.56732
 CYCLE:   658 TIME:   0.078 TIME LEFT:  2.00D  GRAD.:     0.136 HEAT:  43.56732
 CYCLE:   659 TIME:   0.074 TIME LEFT:  2.00D  GRAD.:     0.237 HEAT:  43.56732
 CYCLE:   660 TIME:   0.078 TIME LEFT:  2.00D  GRAD.:     0.135 HEAT:  43.56731
 CYCLE:   661 TIME:   0.090 TIME LEFT:  2.00D  GRAD.:     0.161 HEAT:  43.56731
 CYCLE:   662 TIME:   0.074 TIME LEFT:  2.00D  GRAD.:     0.390 HEAT:  43.56731
 CYCLE:   663 TIME:   0.078 TIME LEFT:  2.00D  GRAD.:     0.159 HEAT:  43.56731
 CYCLE:   664 TIME:   0.082 TIME LEFT:  2.00D  GRAD.:     0.126 HEAT:  43.56730
 CYCLE:   665 TIME:   0.082 TIME LEFT:  2.00D  GRAD.:     0.329 HEAT:  43.56730
 CYCLE:   666 TIME:   0.074 TIME LEFT:  2.00D  GRAD.:     0.372 HEAT:  43.56730
 CYCLE:   667 TIME:   0.078 TIME LEFT:  2.00D  GRAD.:     0.199 HEAT:  43.56730
 CYCLE:   668 TIME:   0.090 TIME LEFT:  2.00D  GRAD.:     0.133 HEAT:  43.56730
 CYCLE:   669 TIME:   0.070 TIME LEFT:  2.00D  GRAD.:     0.227 HEAT:  43.56729
 CYCLE:   670 TIME:   0.082 TIME LEFT:  2.00D  GRAD.:     0.087 HEAT:  43.56729

 -------------------------------------------------------------------------------
 RM1 PRECISE POLAR GNORM=0.1




     HERBERTS TEST WAS SATISFIED IN BFGS                      
     SCF FIELD WAS ACHIEVED                                   


                              RM1 CALCULATION
                                                       MOPAC2016 (Version: 21.186W)
                                                       Sun Oct 24 14:55:30 2021
                                                       No. of days remaining = 254




          FINAL HEAT OF FORMATION =         43.56729 KCAL/MOL =     182.28555 KJ/MOL


          TOTAL ENERGY            =      -5460.49195 EV
          ELECTRONIC ENERGY       =     -48707.65483 EV  POINT GROUP:     C1  
          CORE-CORE REPULSION     =      43247.16288 EV
          COSMO AREA              =        470.04 SQUARE ANGSTROMS
          COSMO VOLUME            =        561.74 CUBIC ANGSTROMS

          GRADIENT NORM           =          0.08696 = 0.01123 PER ATOM
          IONIZATION POTENTIAL    =          8.023451 EV
          HOMO LUMO ENERGIES (EV) =         -8.023 -1.209
          NO. OF FILLED LEVELS    =         88
          MOLECULAR WEIGHT        =        488.6028

          MOLECULAR DIMENSIONS (Angstroms)

            Atom       Atom       Distance
            H    60    H    50    18.18627
            H    47    H    44     9.41121
            H    57    H    52     6.07752


          SCF CALCULATIONS        =        671
 
          WALL-CLOCK TIME         =  1 MINUTE AND  1.852 SECONDS
          COMPUTATION TIME        =  1 MINUTE AND 57.750 SECONDS




  ATOM    CHEMICAL      BOND LENGTH      BOND ANGLE     TWIST ANGLE 
 NUMBER    SYMBOL       (ANGSTROMS)      (DEGREES)       (DEGREES) 
   (I)                     NA:I           NB:NA:I       NC:NB:NA:I       NA    NB    NC 
     1       N          0.00000000       0.0000000       0.0000000        0     0     0
     2       C          1.15652245  *    0.0000000       0.0000000        1     0     0
     3       C          1.41688250  *  179.1792019  *    0.0000000        2     1     0
     4       C          1.34796519  *  123.0685698  * -179.1143101  *     3     2     1
     5       C          1.43250529  *  123.4866414  *   -2.7635439  *     4     3     2
     6       C          1.36946601  *  127.3567474  *  -35.5307564  *     5     4     3
     7       C          1.42983952  *  111.8810128  * -178.8595548  *     6     5     4
     8       C          1.36743101  *  112.0567175  *    0.0613750  *     7     6     5
     9       S          1.71298787  *  120.5062123  *  146.0560046  *     5     4     3
    10       C          1.44349460  *  125.6076799  * -178.6092421  *     8     7     6
    11       C          1.40063317  *  120.2428695  * -137.8329926  *    10     8     7
    12       C          1.38601576  *  121.5267579  *  179.5605295  *    11    10     8
    13       C          1.39110335  *  118.0023089  *    0.3604295  *    12    11    10
    14       C          1.42889349  *  120.5578787  *   -0.7712072  *    13    12    11
    15       C          1.38133255  *  120.7079278  *    0.5622152  *    14    13    12
    16       C          1.44316514  *  107.7116582  * -179.1386277  *    14    13    12
    17       C          1.38518740  *  134.9121862  *    2.2486782  *    16    14    15
    18       C          1.38925466  *  117.9241842  *  178.2246307  *    17    16    14
    19       C          1.40091941  *  122.1554755  *    0.8448617  *    18    17    16
    20       C          1.38874017  *  121.1514233  *    0.4588627  *    19    18    17
    21       C          1.41130519  *  106.2079408  * -178.6419803  *    16    14    15
    22       N          1.41059372  *  110.3805718  *   -0.1215208  *    21    16    14
    23       C          1.40856457  *  118.5302928  * -167.4646453  *    22    21    16
    24       C          1.39728248  *  121.1019007  *  168.1646178  *    23    22    21
    25       C          1.38693151  *  119.7103732  *  179.4753807  *    24    23    22
    26       C          1.38722613  *  120.2341904  *    0.2985733  *    25    24    23
    27       C          1.38874605  *  119.8064253  *   -0.1273238  *    26    25    24
    28       C          1.39150270  *  121.5582954  *    0.1409144  *    27    26    25
    29       C          1.49604629  *  125.9926426  *  177.0726854  *    20    19    18
    30       C          1.53760033  *  109.4870645  * -138.2974437  *    29    20    21
    31       C          1.51893727  *  111.2596658  *   61.2964031  *    30    29    20
    32       C          1.54520368  *  109.3017842  *   99.7137280  *    29    20    21
    33       C          1.51710678  *  114.4391737  *   53.6887858  *    32    29    20
    34       C          1.46898634  *  117.4344905  *  178.6360055  *     3     2     4
    35       O          1.22299384  *  126.5077192  * -178.4166321  *    34     3     2
    36       O          1.34801038  *  113.9740474  *    1.7026184  *    34     3     2
    37       H          1.10153457  *  120.1829440  *  176.8687082  *     4     3     2
    38       H          1.08857716  *  125.7421526  *   -0.6845564  *     6     5     4
    39       H          1.08761850  *  122.8155245  *  179.5207202  *     7     6     5
    40       H          1.09513960  *  119.5709718  * -179.0393108  *    11    10    15
    41       H          1.09459401  *  120.4320468  * -179.3130975  *    12    11    10
    42       H          1.09359976  *  120.1868370  *   -0.7408906  *    15    14    16
    43       H          1.09244165  *  120.6547778  *   -1.3639724  *    17    16    14
    44       H          1.09421441  *  119.1283151  * -179.1860866  *    18    17    16
    45       H          1.09441514  *  118.2557958  * -179.3732126  *    19    18    17
    46       H          1.09476871  *  121.4647183  *   -0.5803277  *    24    23    22
    47       H          1.09439223  *  119.6653569  * -179.8131734  *    25    24    23
    48       H          1.09336585  *  120.1887456  *  179.9631988  *    26    25    24
    49       H          1.09805507  *  118.7618784  *  179.7772439  *    27    26    25
    50       H          1.11349719  *  110.3168880  * -176.2106333  *    30    29    20
    51       H          1.10940136  *  111.1846548  *  -61.7933402  *    30    29    20
    52       H          1.10009744  *  111.6309043  *   56.6785747  *    31    30    50
    53       H          1.09972710  *  112.4422273  *   62.7337109  *    31    30    51
    54       H          1.09966781  *  112.4681897  * -176.7272115  *    31    30    51
    55       H          1.11130501  *  109.6626720  *  177.1502210  *    32    29    20
    56       H          1.11186197  *  109.0973683  *  -68.9433966  *    32    29    20
    57       H          1.10147946  *  111.0229706  *   50.9353755  *    33    32    55
    58       H          1.09937484  *  112.8345459  *  169.5336170  *    33    32    55
    59       H          1.09862442  *  113.2952301  *  -68.2101202  *    33    32    55
    60       H          0.96828556  *  111.0651574  *    0.2152430  *    36    34    35

                             CARTESIAN COORDINATES

   1    N        0.000000000     0.000000000     0.000000000
   2    C        1.156522453     0.000000000     0.000000000
   3    C        2.573259567     0.020297040     0.000000000
   4    C        3.324870996    -1.098535170    -0.017461190
   5    C        2.774976119    -2.420766721     0.019831622
   6    C        1.664233880    -2.839832620     0.702526715
   7    C        1.427752629    -4.239109826     0.527766979
   8    C        2.367131658    -4.822082285    -0.276955166
   9    S        3.537489742    -3.703688084    -0.821009152
  10    C        2.392460270    -6.210989134    -0.669348972
  11    C        3.601289717    -6.918324945    -0.682791020
  12    C        3.654984811    -8.254755516    -1.046260216
  13    C        2.467007605    -8.881290447    -1.408658707
  14    C        1.231431146    -8.163916833    -1.387152325
  15    C        1.194599330    -6.833396371    -1.017776746
  16    C        0.187365324    -9.075612118    -1.788978032
  17    C       -1.179144080    -8.970292831    -1.989736672
  18    C       -1.861605585   -10.099160542    -2.425549142
  19    C       -1.215371102   -11.322509315    -2.645489961
  20    C        0.148612521   -11.464089618    -2.426166092
  21    C        0.816008796   -10.318308760    -2.017658536
  22    N        2.202660579   -10.218692356    -1.778811219
  23    C        3.036298237   -11.270352671    -2.206728257
  24    C        4.426251878   -11.128427476    -2.223593391
  25    C        5.220249903   -12.186550335    -2.640153310
  26    C        4.638707273   -13.379296720    -3.044579523
  27    C        3.256546489   -13.513494848    -3.029151361
  28    C        2.428436696   -12.473606760    -2.617876886
  29    C        0.934931778   -12.729128531    -2.565926882
  30    C        0.496404344   -13.467392395    -3.841416961
  31    C        0.756430474   -12.628194336    -5.080490591
  32    C        0.719318238   -13.605726453    -1.311837056
  33    C       -0.735516689   -13.879188126    -0.979742134
  34    C        3.231326080     1.333594754    -0.010883829
  35    O        4.435798405     1.543672076    -0.039656436
  36    O        2.375962213     2.375089691     0.016918136
  37    H        4.422910022    -1.027322671    -0.068622544
  38    H        1.034148613    -2.217135717     1.335173029
  39    H        0.596411844    -4.759600963     0.997740885
  40    H        4.527070143    -6.411922310    -0.389844387
  41    H        4.607931120    -8.793259032    -1.039676223
  42    H        0.245039252    -6.290961769    -1.009979387
  43    H       -1.696433665    -8.024010701    -1.815408315
  44    H       -2.939329667   -10.034444690    -2.603391291
  45    H       -1.813417637   -12.168201069    -2.998888166
  46    H        4.909213781   -10.195714778    -1.914864795
  47    H        6.308960618   -12.075630083    -2.650154906
  48    H        5.265327841   -14.212767897    -3.373397627
  49    H        2.814293780   -14.463804988    -3.356333440
  50    H        1.024148382   -14.444449570    -3.923401745
  51    H       -0.574781849   -13.751772799    -3.791825569
  52    H        0.456228348   -13.155801967    -5.997945359
  53    H        0.201317859   -11.678925714    -5.068710565
  54    H        1.819275204   -12.372218774    -5.199263023
  55    H        1.259544011   -14.569443998    -1.431851356
  56    H        1.207924821   -13.119251595    -0.439573994
  57    H       -0.822911314   -14.585328479    -0.138918138
  58    H       -1.279551152   -12.975500340    -0.669903576
  59    H       -1.294086368   -14.328766591    -1.812121089
  60    H        2.853037152     3.217630233     0.006825481


           Empirical Formula: C31 H24 N2 O2 S  =    60 atoms



      MOLECULAR POINT GROUP   :   C1  


                  EIGENVALUES  
 -40.38786 -39.16213 -37.90557 -37.09310 -36.62910 -36.38138 -35.54587 -35.19234
 -34.47829 -33.25292 -31.81658 -31.34997 -30.81085 -29.74675 -29.45344 -28.85755
 -28.02514 -27.60010 -25.91155 -25.45078 -24.14211 -23.46569 -23.32305 -22.83298
 -22.50267 -22.37354 -21.94899 -20.97084 -20.82102 -20.13458 -19.55816 -18.89802
 -18.66162 -18.20276 -18.03119 -17.53501 -17.26167 -16.50317 -16.33233 -16.27267
 -16.16423 -16.03814 -15.89403 -15.79451 -15.57487 -15.39680 -15.11508 -15.07781
 -14.80573 -14.79940 -14.59520 -14.58008 -14.43040 -14.35555 -14.17301 -14.14253
 -13.88311 -13.76572 -13.69618 -13.41162 -13.33407 -13.27015 -13.15432 -13.08816
 -13.08125 -12.89908 -12.80254 -12.64569 -12.48750 -12.42586 -12.23359 -12.15247
 -12.09287 -11.81670 -11.77460 -11.69100 -11.65246 -11.37063 -11.25582 -11.19608
 -10.56187 -10.08787  -9.72382  -9.67126  -9.63197  -9.30065  -8.77738  -8.02345
  -1.20882  -0.37060  -0.13912   0.23916   0.28648   0.35301   0.77800   0.99008
   1.07702   1.26522   1.31439   1.45011   1.57389   1.61673   2.24916   2.47588
   2.61186   2.86783   2.99946   3.00840   3.48014   3.50740   3.57962   3.67852
   3.78638   3.82963   3.85293   3.93094   4.00285   4.03646   4.06426   4.13212
   4.17068   4.20193   4.22550   4.28300   4.31098   4.36536   4.42793   4.46097
   4.48743   4.54335   4.61124   4.63284   4.66906   4.71674   4.72657   4.75112
   4.80063   4.83511   4.89420   4.93679   4.96285   4.99402   5.00777   5.03310
   5.06937   5.09828   5.11929   5.15547   5.19348   5.27082   5.30118   5.34158
   5.39231   5.48852   5.54049   5.57740   5.61916   5.64330   5.70884   5.77092
   5.84111   5.89071   5.92442   6.02106   6.26284   6.27725   6.53356   6.56652


              NET ATOMIC CHARGES AND DIPOLE CONTRIBUTIONS

  ATOM NO.   TYPE          CHARGE      No. of ELECS.   s-Pop       p-Pop       
   35          O          -0.377906        6.3779     1.91039     4.46752
   34          C           0.402490        3.5975     1.18043     2.41708
   36          O          -0.310957        6.3110     1.83993     4.47102
   60          H           0.244936        0.7551     0.75506
    2          C           0.053901        3.9461     1.19469     2.75141
    1          N          -0.150271        5.1503     1.84822     3.30205
    3          C          -0.145560        4.1456     1.14215     3.00341
    4          C           0.140631        3.8594     1.17180     2.68757
    5          C          -0.419231        4.4192     1.21471     3.20452
    6          C          -0.012682        4.0127     1.18448     2.82821
    7          C          -0.141837        4.1418     1.18387     2.95796
    8          C          -0.243101        4.2431     1.21632     3.02678
    9          S           0.484855        5.5151     1.88443     3.63071
   10          C          -0.056515        4.0565     1.14879     2.90772
   11          C          -0.050430        4.0504     1.17568     2.87475
   12          C          -0.167298        4.1673     1.17246     2.99483
   13          C           0.140727        3.8593     1.15132     2.70795
   14          C          -0.087580        4.0876     1.16092     2.92666
   15          C          -0.022100        4.0221     1.17052     2.85158
   16          C          -0.079937        4.0799     1.15632     2.92362
   17          C          -0.042131        4.0421     1.16971     2.87242
   18          C          -0.147596        4.1476     1.17956     2.96804
   19          C          -0.059524        4.0595     1.17636     2.88316
   20          C          -0.088619        4.0886     1.16844     2.92018
   21          C           0.090545        3.9095     1.15198     2.75747
   22          N          -0.238706        5.2387     1.48609     3.75262
   23          C           0.172371        3.8276     1.14135     2.68628
   24          C          -0.188292        4.1883     1.17825     3.01004
   25          C          -0.052009        4.0520     1.17557     2.87644
   26          C          -0.149021        4.1490     1.17829     2.97073
   27          C          -0.060494        4.0605     1.17817     2.88232
   28          C          -0.121847        4.1218     1.18221     2.93964
   29          C           0.093555        3.9064     1.16139     2.74505
   30          C          -0.120528        4.1205     1.17138     2.94915
   31          C          -0.181665        4.1817     1.15566     3.02600
   32          C          -0.121533        4.1215     1.17364     2.94789
   33          C          -0.180591        4.1806     1.15555     3.02504
   37          H           0.132889        0.8671     0.86711
   38          H           0.135985        0.8640     0.86401
   39          H           0.138359        0.8616     0.86164
   40          H           0.109528        0.8905     0.89047
   41          H           0.127605        0.8724     0.87239
   42          H           0.119542        0.8805     0.88046
   43          H           0.110824        0.8892     0.88918
   44          H           0.109378        0.8906     0.89062
   45          H           0.111186        0.8888     0.88881
   46          H           0.125706        0.8743     0.87429
   47          H           0.105709        0.8943     0.89429
   48          H           0.112160        0.8878     0.88784
   49          H           0.113015        0.8870     0.88699
   50          H           0.064018        0.9360     0.93598
   51          H           0.068051        0.9319     0.93195
   52          H           0.055039        0.9450     0.94496
   53          H           0.067746        0.9323     0.93225
   54          H           0.066623        0.9334     0.93338
   55          H           0.064582        0.9354     0.93542
   56          H           0.073285        0.9267     0.92671
   57          H           0.056976        0.9430     0.94302
   58          H           0.068154        0.9318     0.93185
   59          H           0.057590        0.9424     0.94241
 DIPOLE           X         Y         Z       TOTAL
 POINT-CHG.     2.002    -5.179    -1.477     5.746
 HYBRID        -0.400     0.575     0.956     1.185
 SUM            1.602    -4.605    -0.521     4.903


          ATOMIC ORBITAL ELECTRON POPULATIONS

     Atom    s        px        py        pz   
    1  N   1.84822   1.11259   1.08815   1.10132
    2  C   1.19469   0.91158   0.91893   0.92089
    3  C   1.14215   0.89049   0.93376   1.17916
    4  C   1.17180   0.98911   0.88768   0.81078
    5  C   1.21471   1.05945   1.00239   1.14268
    6  C   1.18448   0.92428   0.95161   0.95232
    7  C   1.18387   1.00521   0.94390   1.00885
    8  C   1.21632   1.01568   0.98436   1.02674
    9  S   1.88443   1.23746   0.91682   1.47644
   10  C   1.14879   0.94304   0.90797   1.05671
   11  C   1.17568   0.96453   0.93952   0.97070
   12  C   1.17246   0.96989   0.96169   1.06325
   13  C   1.15132   0.94356   0.79735   0.96704
   14  C   1.16092   0.92216   0.94171   1.06279
   15  C   1.17052   0.96928   0.92983   0.95247
   16  C   1.15632   0.93739   0.92486   1.06137
   17  C   1.16971   0.92511   0.97774   0.96957
   18  C   1.17956   0.99699   0.93899   1.03206
   19  C   1.17636   0.93354   0.97177   0.97785
   20  C   1.16844   0.94506   0.93570   1.03941
   21  C   1.15198   0.81507   0.95147   0.99093
   22  N   1.48609   1.06957   1.10954   1.57351
   23  C   1.14135   0.88646   0.84863   0.95119
   24  C   1.17825   0.92711   1.01163   1.07131
   25  C   1.17557   0.98472   0.93191   0.95982
   26  C   1.17829   0.95613   0.98337   1.03123
   27  C   1.17817   0.93772   0.97580   0.96880
   28  C   1.18221   0.95745   0.93689   1.04530
   29  C   1.16139   0.88244   0.91764   0.94498
   30  C   1.17138   1.02407   0.98409   0.94099
   31  C   1.15566   1.03787   1.01429   0.97384
   32  C   1.17364   0.96959   1.00076   0.97754
   33  C   1.15555   0.96919   1.03196   1.02389
   34  C   1.18043   0.84454   0.85028   0.72226
   35  O   1.91039   1.15959   1.85411   1.45382
   36  O   1.83993   1.41970   1.18631   1.86501
   37  H   0.86711
   38  H   0.86401
   39  H   0.86164
   40  H   0.89047
   41  H   0.87239
   42  H   0.88046
   43  H   0.88918
   44  H   0.89062
   45  H   0.88881
   46  H   0.87429
   47  H   0.89429
   48  H   0.88784
   49  H   0.88699
   50  H   0.93598
   51  H   0.93195
   52  H   0.94496
   53  H   0.93225
   54  H   0.93338
   55  H   0.93542
   56  H   0.92671
   57  H   0.94302
   58  H   0.93185
   59  H   0.94241
   60  H   0.75506
 ******************** TDHF POLARIZABILITIES ********************



          MOLECULAR WEIGHT =  488.60



          ROTATIONAL CONSTANTS IN CM(-1)

          A =    0.00980589   B =    0.00121449   C =    0.00112122



           PRINCIPAL MOMENTS OF INERTIA IN UNITS OF 10**(-40)*GRAM-CM**2

          A =     2854.6910   B =    23049.0057   C =    24966.4524


 ROTATION MATRIX FOR ORIENTATION OF MOLECULE:

         0.093580   -0.995390    0.021025
         0.973300    0.087016   -0.212403
         0.209594    0.040341    0.976956


          CARTESIAN COORDINATES 

    NO.       ATOM         X         Y         Z

     1         N        7.2331    2.6259   -0.2418
     2         C        7.3413    1.4747   -0.2174
     3         C        7.4936    0.0663   -0.1920
     4         C        6.4714   -0.7799    0.0444
     5         C        5.1408   -0.3461    0.3501
     6         C        4.7721    0.7506    1.0828
     7         C        3.3514    0.8572    1.2043
     8         C        2.7032   -0.1611    0.5617
     9         S        3.7872   -1.2507   -0.1828
    10         C        1.2715   -0.3230    0.4739
    11         C        0.6934   -1.5883    0.6364
    12         C       -0.6785   -1.7727    0.5663
    13         C       -1.4755   -0.6594    0.3203
    14         C       -0.8884    0.6338    0.1630
    15         C        0.4806    0.8011    0.2405
    16         C       -1.9576    1.5775   -0.0579
    17         C       -2.0251    2.9388   -0.3051
    18         C       -3.2790    3.5023   -0.5055
    19         C       -4.4553    2.7437   -0.4469
    20         C       -4.4195    1.3826   -0.1739
    21         C       -3.1563    0.8344   -0.0041
    22         N       -2.8795   -0.5275    0.2372
    23         C       -3.9147   -1.4661    0.0601
    24         C       -3.6501   -2.8380    0.0427
    25         C       -4.6929   -3.7372   -0.1229
    26         C       -5.9930   -3.2784   -0.2768
    27         C       -6.2497   -1.9137   -0.2623
    28         C       -5.2289   -0.9823   -0.0988
    29         C       -5.6065    0.4841   -0.0252
    30         C       -6.6334    0.8050   -1.1237
    31         C       -6.0520    0.5692   -2.5070
    32         C       -6.2170    0.6731    1.3817
    33         C       -6.5497    2.1108    1.7336
    34         C        8.8312   -0.4749   -0.4677
    35         O        9.1423   -1.6567   -0.5151
    36         O        9.7707    0.4683   -0.6797
    37         H        6.6327   -1.8688    0.0024
    38         H        5.4518    1.4575    1.5553
    39         H        2.8655    1.6583    1.7565
    40         H        1.3343   -2.4540    0.8345
    41         H       -1.1121   -2.7679    0.7071
    42         H        0.9213    1.7938    0.1129
    43         H       -1.1159    3.5431   -0.3467
    44         H       -3.3542    4.5735   -0.7156
    45         H       -5.4085    3.2512   -0.6251
    46         H       -2.6323   -3.2251    0.1563
    47         H       -4.4852   -4.8116   -0.1333
    48         H       -6.8145   -3.9880   -0.4079
    49         H       -7.2846   -1.5694   -0.3894
    50         H       -7.5522    0.1913   -0.9852
    51         H       -7.0000    1.8485   -1.0374
    52         H       -6.7859    0.7851   -3.2976
    53         H       -5.1775    1.2048   -2.7088
    54         H       -5.7283   -0.4713   -2.6551
    55         H       -7.1296    0.0466    1.4805
    56         H       -5.5150    0.2642    2.1408
    57         H       -7.0689    2.1703    2.7032
    58         H       -5.6561    2.7435    1.8329
    59         H       -7.2140    2.5941    1.0041
    60         H       10.6332    0.0663   -0.8585


 ENERGY OF "REORIENTED" SYSTEM WITHOUT FIELD:       43.5672921457


  NFREQ=  3  IWFLB=  0  IBET=  1  IGAM=  1
  ATOL= 0.10000D-02  BTOL= 0.10000D-02    MAXITU=  500    MAXITA=  150


 *****************************************************************
 CALCULATION OF STATIC FIELD QUANTITIES
 *****************************************************************

 +++++ ALPHA AT       0.00000 EV.

                           COMPONENTS OF ALPHA

                     *X           *Y           *Z
           *=X:     583.8694      20.1979       2.7412
           *=Y:      20.1628     362.6069       2.8119
           *=Z:       2.7230       2.8053     111.8505

  ISOTROPIC AVERAGE ALPHA =     352.77562 A.U. =     52.27595 ANG.**3

 +++++ BETA (SECOND HARMONIC GENERATION) AT       0.00000 EV.

                              COMPONENTS OF BETA
            *XX         *XY         *YY         *XZ         *YZ         *ZZ
   *=X -7864.17927   800.52373   774.03551   355.60828    -1.50704   -31.64754
   *=Y   801.09839   773.77682  -141.31639    -1.56579    55.80899   -19.32102
   *=Z   356.06121    -1.61018    55.69318   -31.65256   -19.31595   -33.33029


 AVERAGE BETAX(SHG) VALUE AT   0.00000 EV =      -4273.1803 a.u. = -0.369178E-28 ESU
 AVERAGE BETAY(SHG) VALUE AT   0.00000 EV =        384.0488 a.u. =  0.331796E-29 ESU
 AVERAGE BETAZ(SHG) VALUE AT   0.00000 EV =        226.9196 a.u. =  0.196045E-29 ESU



 AVERAGE BETA (SHG) VALUE AT   0.00000 EV =       4296.4003 a.u. =  0.371184E-28 ESU
   (1 a.u. = 8.639418X10-33 esu)



 +++++ ALPHA AT       0.00000 EV.

                           COMPONENTS OF ALPHA

                     *X           *Y           *Z
           *=X:     583.8693      20.1979       2.7412
           *=Y:      20.1628     362.6069       2.8119
           *=Z:       2.7230       2.8053     111.8505

  ISOTROPIC AVERAGE ALPHA =     352.77558 A.U. =     52.27595 ANG.**3


 GAMMA (THIRD HARMONIC GENERATION) AT    0.00000 EV.


 GAMMA(X,X,X,X) =       2060738.80097
 GAMMA(Y,Y,Y,Y) =         57967.56168
 GAMMA(Z,Z,Z,Z) =          5643.54122
 GAMMA(X,X,Y,Y) =         40025.18119
 GAMMA(X,X,Z,Z) =         12748.45375
 GAMMA(Y,Y,X,X) =         40024.84711
 GAMMA(Y,Y,Z,Z) =          3847.17105
 GAMMA(Z,Z,X,X) =         12748.15765
 GAMMA(Z,Z,Y,Y) =          3847.32802


 AVERAGE GAMMA VALUE AT    0.00000 =        447518.20853 a.u. =       225401.61154 ESU (X10-39)




 **********************************************************************
 CALCULATION FOR A FREQUENCY OF    0.25000 EV  =       0.00919 A.U. 
                  WAVELENGTH OF    4959.37 NM  =    2016.38525 CM(-1)
 **********************************************************************

 +++++ ALPHA AT       0.25000 EV.

                           COMPONENTS OF ALPHA

                     *X           *Y           *Z
           *=X:     586.2794      20.3711       2.6907
           *=Y:      20.3407     363.2191       2.8075
           *=Z:       2.6761       2.8020     111.9890

  ISOTROPIC AVERAGE ALPHA =     353.82920 A.U. =     52.43208 ANG.**3

 +++++ BETA (SECOND HARMONIC GENERATION) AT       0.25000 EV.

                              COMPONENTS OF BETA
            *XX         *XY         *YY         *XZ         *YZ         *ZZ
   *=X -8214.53258   828.06189   802.71814   374.01380    -1.47706   -32.95962
   *=Y   799.03638   793.54939  -140.91390     0.00201    57.11342   -19.88835
   *=Z   367.93358    -2.16367    55.84927   -33.35021   -19.59065   -33.33187


 AVERAGE BETAX(SHG) VALUE AT   0.25000 EV =      -4470.6882 a.u. = -0.386241E-28 ESU
 AVERAGE BETAY(SHG) VALUE AT   0.25000 EV =        394.6698 a.u. =  0.340972E-29 ESU
 AVERAGE BETAZ(SHG) VALUE AT   0.25000 EV =        237.2083 a.u. =  0.204934E-29 ESU



 AVERAGE BETA (SHG) VALUE AT   0.25000 EV =       4494.3392 a.u. =  0.388285E-28 ESU
   (1 a.u. = 8.639418X10-33 esu)



 +++++ ALPHA AT       0.75000 EV.

                           COMPONENTS OF ALPHA

                     *X           *Y           *Z
           *=X:     606.8195      21.9204       2.2717
           *=Y:      21.8875     368.2620       2.7763
           *=Z:       2.2553       2.7705     113.1228

  ISOTROPIC AVERAGE ALPHA =     362.73478 A.U. =     53.75175 ANG.**3


 GAMMA (THIRD HARMONIC GENERATION) AT    0.25000 EV.


 GAMMA(X,X,X,X) =       2288363.99927
 GAMMA(Y,Y,Y,Y) =         61560.78925
 GAMMA(Z,Z,Z,Z) =          5754.17174
 GAMMA(X,X,Y,Y) =         41725.72007
 GAMMA(X,X,Z,Z) =         13623.35128
 GAMMA(Y,Y,X,X) =         42465.60689
 GAMMA(Y,Y,Z,Z) =          4015.90809
 GAMMA(Z,Z,X,X) =         13640.10440
 GAMMA(Z,Z,Y,Y) =          3937.98963


 AVERAGE GAMMA VALUE AT    0.25000 =        495017.52813 a.u. =       249325.60610 ESU (X10-39)




 **********************************************************************
 CALCULATION FOR A FREQUENCY OF    0.50000 EV  =       0.01837 A.U. 
                  WAVELENGTH OF    2479.68 NM  =    4032.77050 CM(-1)
 **********************************************************************

 +++++ ALPHA AT       0.50000 EV.

                           COMPONENTS OF ALPHA

                     *X           *Y           *Z
           *=X:     593.7091      20.9213       2.5439
           *=Y:      20.8937     365.0787       2.7964
           *=Z:       2.5282       2.7909     112.4082

  ISOTROPIC AVERAGE ALPHA =     357.06535 A.U. =     52.91162 ANG.**3

 +++++ BETA (SECOND HARMONIC GENERATION) AT       0.50000 EV.

                              COMPONENTS OF BETA
            *XX         *XY         *YY         *XZ         *YZ         *ZZ
   *=X -9438.65651   923.15288   903.02802   438.40837    -1.32007   -37.51321
   *=Y   782.11992   859.24420  -138.43131     5.71394    61.46755   -21.75759
   *=Z   409.52665    -4.15780    55.90043   -39.16693   -20.45996   -33.27347


 AVERAGE BETAX(SHG) VALUE AT   0.50000 EV =      -5162.0600 a.u. = -0.445972E-28 ESU
 AVERAGE BETAY(SHG) VALUE AT   0.50000 EV =        430.0908 a.u. =  0.371573E-29 ESU
 AVERAGE BETAZ(SHG) VALUE AT   0.50000 EV =        273.0717 a.u. =  0.235918E-29 ESU



 AVERAGE BETA (SHG) VALUE AT   0.50000 EV =       5187.1389 a.u. =  0.448139E-28 ESU
   (1 a.u. = 8.639418X10-33 esu)



 +++++ ALPHA AT       1.50000 EV.

                           COMPONENTS OF ALPHA

                     *X           *Y           *Z
           *=X:     699.9767      29.6339      -0.0550
           *=Y:      29.5863     387.6615       2.6248
           *=Z:      -0.0845       2.6168     117.3920

  ISOTROPIC AVERAGE ALPHA =     401.67673 A.U. =     59.52235 ANG.**3


 GAMMA (THIRD HARMONIC GENERATION) AT    0.50000 EV.


 GAMMA(X,X,X,X) =       3293969.24456
 GAMMA(Y,Y,Y,Y) =         75127.80083
 GAMMA(Z,Z,Z,Z) =          6125.87994
 GAMMA(X,X,Y,Y) =         46942.08087
 GAMMA(X,X,Z,Z) =         17184.59361
 GAMMA(Y,Y,X,X) =         51616.94955
 GAMMA(Y,Y,Z,Z) =          4631.82800
 GAMMA(Z,Z,X,X) =         17191.79131
 GAMMA(Z,Z,Y,Y) =          4239.79430


 AVERAGE GAMMA VALUE AT    0.50000 =        703405.99260 a.u. =       354284.67776 ESU (X10-39)



 **********************
 *                    *
 * JOB ENDED NORMALLY *
 *                    *
 **********************



 TOTAL JOB TIME:            97.15 SECONDS

 == MOPAC DONE ==
