 *******************************************************************************
 ** Site#: 4824         For non-commercial use only    Version 21.013L 64BITS **
 *******************************************************************************
 ** Cite this program as: MOPAC2016, Version: 21.013L, James J. P. Stewart,   **
 ** Stewart Computational Chemistry, web: HTTP://OpenMOPAC.net. Days left:  88**
 *******************************************************************************
 **                                                                           **
 **                                MOPAC2016                                  **
 **                                                                           **
 *******************************************************************************

                              RM1 CALCULATION RESULTS

 *******************************************************************************
 *  CALCULATION DONE:                                Sun Oct 17 08:14:23 2021  *
 *  RM1        - The RM1 Hamiltonian to be used
 *  POLAR      - CALCULATE FIRST, SECOND AND THIRD-ORDER POLARIZABILITIES
 *  PRECISE    - TIGHTER CRITERIA TO BE USED
 *  T=         - A TIME OF 172800.0 SECONDS REQUESTED
 *  DUMP=N     - RESTART FILE WRITTEN EVERY 7200.0 SECONDS REQUESTED
 *  GNORM      - EXIT WHEN GRADIENT NORM DROPS BELOW 0.100
 *******************************************************************************
RM1 PRECISE POLAR GNORM=0.1


  ATOM    CHEMICAL      BOND LENGTH      BOND ANGLE     TWIST ANGLE 
 NUMBER    SYMBOL       (ANGSTROMS)      (DEGREES)       (DEGREES) 
   (I)                     NA:I           NB:NA:I       NC:NB:NA:I       NA    NB    NC 
     1       C          0.00000000       0.0000000       0.0000000        0     0     0
     2       C          1.54770000  *    0.0000000       0.0000000        1     0     0
     3       C          1.55110000  *  111.4356000  *    0.0000000        2     1     0
     4       C          1.55240000  *  111.4943000  * -179.5136000  *     3     2     1
     5       C          1.55100000  *  110.8820000  * -179.9571000  *     4     3     2
     6       C          1.55260000  *  111.9890000  * -179.4517000  *     5     4     3
     7       C          1.55080000  *  110.2424000  * -179.4329000  *     6     5     4
     8       C          1.55290000  *  112.7232000  *  179.9736000  *     7     6     5
     9       C          1.55080000  *  109.4664000  * -177.7014000  *     8     7     6
    10       C          1.55310000  *  113.5214000  *  179.6606000  *     9     8     7
    11       C          1.55160000  *  108.6645000  * -176.2696000  *    10     9     8
    12       C          1.54820000  *  114.1732000  * -179.4189000  *    11    10     9
    13       N          1.46510000  *  115.0251000  *  179.4126000  *    12    11    10
    14       C          1.42990000  *  128.4477000  *  -17.5180000  *    13    12    11
    15       C          1.34270000  *  132.2406000  *   36.6423000  *    14    13    12
    16       C          1.47220000  *  118.9241000  *  172.2849000  *    15    14    13
    17       C          1.35210000  *  121.5841000  *   -1.8222000  *    16    15    14
    18       C          1.48030000  *  119.1387000  *    1.5485000  *    17    16    15
    19       C          1.34140000  *  118.2272000  *   -0.2521000  *    18    17    16
    20       C          1.45560000  *  130.6076000  * -170.5330000  *    19    18    17
    21       C          1.34490000  *  107.9381000  *  168.3303000  *    20    19    18
    22       C          1.46480000  *  119.2660000  * -164.1268000  *    21    20    19
    23       C          1.34810000  *  118.9795000  *    2.0039000  *    22    21    20
    24       C          1.48630000  *  121.5655000  *   -4.9922000  *    23    22    21
    25       C          1.35030000  *  118.4673000  *    2.1908000  *    24    23    22
    26       N          1.42460000  *  121.1273000  * -178.2713000  *    24    23    22
    27       C          1.43460000  *  126.0505000  *   38.9183000  *    26    24    25
    28       C          1.34290000  *  131.3402000  *    0.4660000  *    27    26    24
    29       C          1.47560000  *  119.0716000  * -175.9510000  *    28    27    26
    30       C          1.35540000  *  122.1610000  *   -2.2012000  *    29    28    27
    31       C          1.48600000  *  117.8862000  *   -1.8958000  *    30    29    28
    32       C          1.34020000  *  119.0275000  *    2.2608000  *    31    30    29
    33       C          1.45410000  *  130.6402000  * -178.8288000  *    32    31    30
    34       C          1.43230000  *  126.9786000  * -145.0086000  *    26    24    25
    35       C          1.34220000  *  131.3685000  *    4.7710000  *    34    26    24
    36       C          1.47700000  *  118.9642000  * -175.6296000  *    35    34    26
    37       C          1.35600000  *  122.2633000  *   -2.3450000  *    36    35    34
    38       C          1.34000000  *  130.4272000  *    5.6685000  *    33    32    31
    39       C          1.53820000  *  122.1692000  *  174.9501000  *    37    36    35
    40       C          1.56270000  *  111.4382000  *  146.4226000  *    39    37    36
    41       C          1.56260000  *  112.7754000  *   26.3505000  *    39    37    36
    42       C          1.55950000  *  108.0384000  *  -93.8936000  *    39    37    36
    43       C          1.53730000  *  122.4943000  *  175.5803000  *    30    29    28
    44       C          1.56270000  *  113.1489000  *   17.9660000  *    43    30    29
    45       C          1.56200000  *  110.7585000  *  138.0839000  *    43    30    29
    46       C          1.55960000  *  108.1871000  * -102.0876000  *    43    30    29
    47       C          1.47050000  *  120.5002000  * -172.4174000  *    17    16    15
    48       C          1.35020000  *  127.3205000  *  -19.1767000  *    47    17    16
    49       C          1.48410000  *  116.0993000  *  173.9506000  *    48    47    17
    50       C          1.34760000  *  115.8260000  *    0.0490000  *    49    48    47
    51       S          1.82040000  *  107.2080000  *    0.6367000  *    50    49    48
    52       C          1.45690000  *  126.1241000  * -176.4399000  *    50    49    48
    53       C          1.34790000  *  127.4125000  * -178.0092000  *    52    50    49
    54       C          1.48830000  *  115.7139000  * -177.8466000  *    53    52    50
    55       C          1.34990000  *  115.9953000  *    0.1885000  *    54    53    52
    56       S          1.81910000  *  125.2969000  *    4.4006000  *    52    50    49
    57       C          1.46910000  *  127.7758000  *  178.6140000  *    55    54    53
    58       C          1.47570000  *  120.9938000  *  -22.4995000  *    57    55    54
    59       C          1.34510000  *  120.5168000  * -177.9361000  *    58    57    55
    60       C          1.47260000  *  120.5030000  *   -0.1838000  *    59    58    57
    61       C          1.34700000  *  118.9761000  *   -1.3249000  *    60    59    58
    62       C          1.34800000  *  120.2973000  *  158.8734000  *    57    55    54
    63       C          1.47360000  *  119.1726000  * -177.9889000  *    60    59    58
    64       C          1.34970000  *  124.3066000  *   52.5271000  *    63    60    61
    65       C          1.47430000  *  120.9291000  * -179.3338000  *    64    63    60
    66       O          1.23220000  *  121.1153000  *   -0.0340000  *    65    64    63
    67       O          1.35550000  *  119.8434000  *  177.4351000  *    65    64    63
    68       C          1.43000000  *  121.3746000  *    1.9472000  *    64    63    60
    69       N          1.15840000  *  179.9858000  *  179.6788000  *    68    64    63
    70       H          1.05330000  *  116.9181000  * -128.8894000  *    63    60    61
    71       H          1.09110000  *  110.0589000  *   60.2524000  *     1     2     3
    72       H          1.09110000  *  109.4869000  *  179.9943000  *     1     2     3
    73       H          1.09110000  *  110.0717000  *  -60.2451000  *     1     2     3
    74       H          1.09230000  *  108.8689000  * -178.9602000  *     2     1    71
    75       H          1.09230000  *  108.8450000  *  178.9810000  *     2     1    73
    76       H          1.09270000  *  109.1155000  * -179.3578000  *     3     2    74
    77       H          1.09270000  *  109.1127000  * -179.7530000  *     3     2    75
    78       H          1.09240000  *  109.2784000  *  179.8907000  *     4     3    76
    79       H          1.09230000  *  109.2625000  *  -61.0244000  *     4     3    76
    80       H          1.09290000  *  109.0360000  * -179.1926000  *     5     4    78
    81       H          1.09280000  *  108.9716000  * -179.7303000  *     5     4    79
    82       H          1.09230000  *  109.3869000  * -179.9302000  *     6     5    80
    83       H          1.09200000  *  109.4302000  * -179.1085000  *     6     5    81
    84       H          1.09300000  *  108.9329000  * -179.3432000  *     7     6    82
    85       H          1.09310000  *  108.7230000  *  179.5074000  *     7     6    83
    86       H          1.09190000  *  109.5429000  * -178.6946000  *     8     7    84
    87       H          1.09180000  *  109.6077000  *  -58.9680000  *     8     7    84
    88       H          1.09330000  *  108.8086000  * -179.1949000  *     9     8    86
    89       H          1.09340000  *  108.4877000  *  178.9579000  *     9     8    87
    90       H          1.09170000  *  109.7537000  * -177.7135000  *    10     9    88
    91       H          1.09160000  *  109.6851000  *  -57.6411000  *    10     9    88
    92       H          1.09250000  *  108.1449000  * -178.1109000  *    11    10    90
    93       H          1.09220000  *  107.7280000  * -179.7321000  *    11    10    91
    94       H          1.09290000  *  108.2792000  *  179.5229000  *    12    11    92
    95       H          1.09330000  *  108.5562000  *  177.7955000  *    12    11    93
    96       H          1.04620000  *  122.0862000  *   -2.6171000  *    15    14    13
    97       H          1.05090000  *  117.7827000  * -177.1147000  *    16    15    14
    98       H          1.05000000  *  121.0171000  * -176.3907000  *    18    17    16
    99       H          1.05030000  *  120.5248000  *  176.6213000  *    22    21    20
   100       H          1.05040000  *  118.5970000  *  174.7628000  *    23    22    21
   101       H          1.04930000  *  121.1902000  *    2.9837000  *    25    24    26
   102       H          1.04860000  *  121.6082000  *    1.4257000  *    28    27    26
   103       H          1.04970000  *  117.0827000  *  174.9090000  *    29    28    27
   104       H          1.04900000  *  121.1345000  * -177.8817000  *    31    30    29
   105       H          1.04860000  *  121.4507000  *    1.5744000  *    35    34    26
   106       H          1.04980000  *  117.1349000  *  174.4416000  *    36    35    34
   107       H          1.04870000  *  119.6901000  *    0.4695000  *    38    33    32
   108       H          1.09150000  *  110.0566000  *  -53.8209000  *    40    39    37
   109       H          1.09060000  *  110.9576000  *   67.0055000  *    40    39    37
   110       H          1.09210000  *  110.2273000  * -173.7015000  *    40    39    37
   111       H          1.09160000  *  110.1050000  *   54.4943000  *    41    39    37
   112       H          1.09210000  *  110.1917000  *  174.2907000  *    41    39    37
   113       H          1.09090000  *  110.8247000  *  -66.4294000  *    41    39    37
   114       H          1.09170000  *  110.2985000  * -179.7122000  *    42    39    37
   115       H          1.09180000  *  110.2624000  *  -59.6562000  *    42    39    37
   116       H          1.09180000  *  110.1407000  *   60.2379000  *    42    39    37
   117       H          1.09130000  *  110.6822000  *  -65.3166000  *    44    43    30
   118       H          1.09170000  *  110.1901000  *   55.6017000  *    44    43    30
   119       H          1.09210000  *  110.1956000  *  175.3647000  *    44    43    30
   120       H          1.09040000  *  110.9710000  *   66.4883000  *    45    43    30
   121       H          1.09190000  *  110.2254000  * -174.0633000  *    45    43    30
   122       H          1.09160000  *  109.9963000  *  -54.1709000  *    45    43    30
   123       H          1.09200000  *  110.0526000  *   59.9671000  *    46    43    30
   124       H          1.09170000  *  110.2841000  *  179.9467000  *    46    43    30
   125       H          1.09150000  *  110.4091000  *  -59.9647000  *    46    43    30
   126       H          1.04860000  *  122.9146000  *   -3.4016000  *    48    47    17
   127       H          1.04900000  *  121.4414000  * -177.6174000  *    49    48    47
   128       H          1.04900000  *  122.6536000  *    1.1830000  *    53    52    50
   129       H          1.04880000  *  121.2624000  *  179.9776000  *    54    53    52
   130       H          1.05090000  *  120.2816000  *  179.8666000  *    58    57    62
   131       H          1.05160000  *  119.5744000  *  179.4820000  *    59    58    57
   132       H          1.05120000  *  120.5572000  * -177.3002000  *    61    60    59
   133       H          1.05110000  *  120.6156000  *   -1.3282000  *    62    57    55
   134       H          0.94060000  *  121.0504000  *   -0.4657000  *    67    65    66
 


          CARTESIAN COORDINATES 

    NO.       ATOM           X           Y           Z

     1         C          0.0000      0.0000      0.0000
     2         C          1.5477      0.0000      0.0000
     3         C          2.1146      1.4438      0.0000
     4         C          3.6669      1.4454     -0.0123
     5         C          4.2183      2.8951     -0.0110
     6         C          5.7703      2.9268     -0.0370
     7         C          6.2775      4.3922     -0.0205
     8         C          7.8270      4.4911     -0.0445
     9         C          8.2511      5.9808      0.0324
    10         C          9.7903      6.1883      0.0232
    11         C         10.0884      7.7008      0.1989
    12         C         11.5956      8.0547      0.1936
    13         N         11.8980      9.4803      0.3448
    14         C         11.0271     10.5987      0.1572
    15         C          9.7236     10.7820      0.4218
    16         C          9.1477     12.1279      0.2653
    17         C          9.9069     13.1847     -0.1019
    18         C         11.3445     12.9755     -0.3858
    19         C         11.8419     11.7359     -0.2613
    20         C         13.2171     11.2596     -0.2907
    21         C         13.2222      9.9828      0.1320
    22         C         14.4888      9.3670      0.5349
    23         C         15.6133     10.1101      0.5104
    24         C         15.6163     11.4996     -0.0173
    25         C         14.4483     12.0309     -0.4379
    26         N         16.8173     12.2638     -0.0725
    27         C         16.9422     13.6625      0.2206
    28         C         16.0335     14.5722      0.6080
    29         C         16.4460     15.9817      0.7513
    30         C         17.7242     16.3837      0.5470
    31         C         18.7334     15.3466      0.2092
    32         C         18.3375     14.0732      0.0753
    33         C         19.0992     12.8710     -0.2230
    34         C         18.1355     11.7780     -0.3514
    35         C         18.5759     10.5602     -0.7044
    36         C         20.0299     10.3351     -0.8335
    37         C         20.9351     11.3285     -0.6529
    38         C         20.4208     12.6883     -0.3478
    39         C         22.4511     11.0692     -0.6754
    40         C         23.2295     12.2842     -1.2751
    41         C         22.8384      9.8194     -1.5296
    42         C         22.9235     10.8392      0.7929
    43         C         18.1430     17.8621      0.5968
    44         C         17.1005     18.7717      1.3233
    45         C         19.4992     18.0281      1.3537
    46         C         18.3031     18.3722     -0.8683
    47         C          9.3480     14.5448     -0.0908
    48         C          8.0437     14.8940     -0.0947
    49         C          7.7549     16.3415      0.0593
    50         C          8.8298     17.1446      0.1848
    51         S         10.3072     16.0850      0.0936
    52         C          8.8052     18.5822      0.4198
    53         C          9.8609     19.4150      0.5125
    54         C          9.5374     20.8373      0.8083
    55         C          8.2273     21.1283      0.9532
    56         S          7.3079     19.5750      0.7055
    57         C          7.6243     22.4292      1.2732
    58         C          8.4054     23.4829      1.9495
    59         C          7.8321     24.6554      2.2751
    60         C          6.4164     24.9086      1.9585
    61         C          5.7118     23.9587      1.3138
    62         C          6.3319     22.6712      0.9764
    63         C          5.8301     26.2198      2.2881
    64         C          4.6640     26.3877      2.9467
    65         C          4.1385     27.7368      3.2251
    66         O          4.7489     28.7448      2.8650
    67         O          2.9400     27.8798      3.8420
    68         C          3.9097     25.2697      3.4221
    69         N          3.2985     24.3642      3.8072
    70         H          6.3788     27.0726      2.0035
    71         H         -0.3742      0.5085     -0.8899
    72         H         -0.3640     -1.0286     -0.0001
    73         H         -0.3745      0.5086      0.8897
    74         H          1.9010     -0.5291      0.8879
    75         H          1.9005     -0.5289     -0.8882
    76         H          1.7489      1.9718     -0.8840
    77         H          1.7621      1.9665      0.8925
    78         H          4.0351      0.9198      0.8717
    79         H          4.0207      0.9265     -0.9059
    80         H          3.8365      3.4224     -0.8889
    81         H          3.8657      3.4085      0.8869
    82         H          6.1584      2.4000      0.8377
    83         H          6.1288      2.4289     -0.9403
    84         H          5.8760      4.9162     -0.8916
    85         H          5.9053      4.8822      0.8830
    86         H          8.2408      3.9508      0.8094
    87         H          8.2081      4.0485     -0.9670
    88         H          7.8198      6.5145     -0.8187
    89         H          7.8448      6.4099      0.9524
    90         H         10.2430      5.6285      0.8438
    91         H         10.2031      5.8365     -0.9241
    92         H          9.5974      8.2411     -0.6139
    93         H          9.6660      8.0141      1.1561
    94         H         12.0768      7.5171      1.0144
    95         H         12.0313      7.7073     -0.7470
    96         H          9.1225     10.0186      0.8098
    97         H          8.1372     12.2611      0.5215
    98         H         11.9733     13.7836     -0.6184
    99         H         14.5085      8.3892      0.9179
   100         H         16.5022      9.6891      0.8790
   101         H         14.4078     12.9932     -0.8543
   102         H         15.0308     14.3124      0.7714
   103         H         15.6943     16.6793      0.9754
   104         H         19.7431     15.5963      0.0731
   105         H         17.9143      9.7593     -0.8471
   106         H         20.3474      9.3525     -1.0227
   107         H         21.0721     13.4995     -0.2157
   108         H         22.8259     12.5398     -2.2565
   109         H         23.1570     13.1547     -0.6222
   110         H         24.2877     12.0376     -1.3852
   111         H         22.4299      9.9126     -2.5376
   112         H         23.9248      9.7331     -1.6003
   113         H         22.4596      8.9044     -1.0722
   114         H         23.9993     10.6561      0.8204
   115         H         22.7023     11.7171      1.4032
   116         H         22.4096      9.9770      1.2225
   117         H         16.1634     18.8059      0.7649
   118         H         16.9062     18.3934      2.3287
   119         H         17.4816     19.7920      1.4035
   120         H         20.3152     17.5645      0.7986
   121         H         19.7360     19.0869      1.4761
   122         H         19.4346     17.5668      2.3409
   123         H         17.3574     18.2725     -1.4050
   124         H         18.6002     19.4228     -0.8729
   125         H         19.0647     17.7919     -1.3923
   126         H          7.2664     14.1931     -0.1588
   127         H          6.7706     16.7013      0.1048
   128         H         10.8514     19.0880      0.4006
   129         H         10.2924     21.5596      0.8994
   130         H          9.4143     23.3201      2.1944
   131         H          8.4003     25.3929      2.7640
   132         H          4.7120     24.1296      1.0381
   133         H          5.7476     21.9419      0.4952
   134         H          2.5756     28.7319      4.0026

  H: (RM1): G.B. ROCHA, R.O. FREIRE, A.M.SIMAS, J.J.P. STEWART, J. COMP. CHEM. 27, 1101 (2006)
  C: (RM1): G.B. ROCHA, R.O. FREIRE, A.M.SIMAS, J.J.P. STEWART, J. COMP. CHEM. 27, 1101 (2006)
  N: (RM1): G.B. ROCHA, R.O. FREIRE, A.M.SIMAS, J.J.P. STEWART, J. COMP. CHEM. 27, 1101 (2006)
  O: (RM1): G.B. ROCHA, R.O. FREIRE, A.M.SIMAS, J.J.P. STEWART, J. COMP. CHEM. 27, 1101 (2006)
  S: (RM1): G.B. ROCHA, R.O. FREIRE, A.M.SIMAS, J.J.P. STEWART, J. COMP. CHEM. 27, 1101 (2006)

           Empirical Formula: C62 H65 N3 O2 S2  =   134 atoms



      MOLECULAR POINT GROUP   :   C1  


      RHF CALCULATION, NO. OF DOUBLY OCCUPIED LEVELS = 176


          Geometry optimization using L-BFGS
 CYCLE:     1 TIME:   0.748 TIME LEFT:  2.00D  GRAD.:   825.059 HEAT:  146.6043
 CYCLE:     2 TIME:   0.533 TIME LEFT:  2.00D  GRAD.:   549.529 HEAT:  142.4754
 CYCLE:     3 TIME:   0.521 TIME LEFT:  2.00D  GRAD.:   575.642 HEAT:  139.3940
 CYCLE:     4 TIME:   0.500 TIME LEFT:  2.00D  GRAD.:   548.653 HEAT:  142.4752
 CYCLE:     5 TIME:   0.482 TIME LEFT:  2.00D  GRAD.:   580.178 HEAT:  139.3891
 CYCLE:     6 TIME:   0.602 TIME LEFT:  2.00D  GRAD.:   681.208 HEAT:  128.2621
 CYCLE:     7 TIME:   0.490 TIME LEFT:  2.00D  GRAD.:   681.290 HEAT:  118.0788
 CYCLE:     8 TIME:   0.605 TIME LEFT:  2.00D  GRAD.:   991.204 HEAT:  104.1030
 CYCLE:     9 TIME:   0.479 TIME LEFT:  2.00D  GRAD.:   822.934 HEAT:  91.77415
 CYCLE:    10 TIME:   0.434 TIME LEFT:  2.00D  GRAD.:   486.598 HEAT:  86.63709
 CYCLE:    11 TIME:   0.396 TIME LEFT:  2.00D  GRAD.:   347.579 HEAT:  79.18027
 CYCLE:    12 TIME:   0.406 TIME LEFT:  2.00D  GRAD.:   379.641 HEAT:  71.97480
 CYCLE:    13 TIME:   0.432 TIME LEFT:  2.00D  GRAD.:   225.182 HEAT:  65.75710
 CYCLE:    14 TIME:   0.416 TIME LEFT:  2.00D  GRAD.:   144.098 HEAT:  63.66794
 CYCLE:    15 TIME:   0.471 TIME LEFT:  2.00D  GRAD.:   145.073 HEAT:  62.20157
 CYCLE:    16 TIME:   0.482 TIME LEFT:  2.00D  GRAD.:   133.862 HEAT:  60.37283
 CYCLE:    17 TIME:   0.469 TIME LEFT:  2.00D  GRAD.:   549.367 HEAT:  59.91761
 CYCLE:    18 TIME:   0.439 TIME LEFT:  2.00D  GRAD.:   158.496 HEAT:  58.58265
 CYCLE:    19 TIME:   0.393 TIME LEFT:  2.00D  GRAD.:    88.201 HEAT:  58.03365
 CYCLE:    20 TIME:   0.426 TIME LEFT:  2.00D  GRAD.:   111.150 HEAT:  57.60979
 CYCLE:    21 TIME:   0.436 TIME LEFT:  2.00D  GRAD.:   118.333 HEAT:  56.78063
 CYCLE:    22 TIME:   0.457 TIME LEFT:  2.00D  GRAD.:   239.205 HEAT:  55.58649
 CYCLE:    23 TIME:   0.434 TIME LEFT:  2.00D  GRAD.:   463.132 HEAT:  55.90548
 CYCLE:    24 TIME:   0.461 TIME LEFT:  2.00D  GRAD.:    89.808 HEAT:  54.74577
 CYCLE:    25 TIME:   0.389 TIME LEFT:  2.00D  GRAD.:    72.492 HEAT:  54.61094
 CYCLE:    26 TIME:   0.418 TIME LEFT:  2.00D  GRAD.:   103.855 HEAT:  54.15401
 CYCLE:    27 TIME:   0.406 TIME LEFT:  2.00D  GRAD.:   123.669 HEAT:  53.53998
 CYCLE:    28 TIME:   0.434 TIME LEFT:  2.00D  GRAD.:   368.784 HEAT:  53.76152
 CYCLE:    29 TIME:   0.479 TIME LEFT:  2.00D  GRAD.:    84.253 HEAT:  52.64596
 CYCLE:    30 TIME:   0.432 TIME LEFT:  2.00D  GRAD.:    47.592 HEAT:  52.46387
 CYCLE:    31 TIME:   0.426 TIME LEFT:  2.00D  GRAD.:    55.014 HEAT:  52.30040
 CYCLE:    32 TIME:   0.488 TIME LEFT:  2.00D  GRAD.:   533.752 HEAT:  53.04107
 CYCLE:    33 TIME:   0.551 TIME LEFT:  2.00D  GRAD.:   110.829 HEAT:  52.07622
 CYCLE:    34 TIME:   0.396 TIME LEFT:  2.00D  GRAD.:    74.564 HEAT:  51.95335
 CYCLE:    35 TIME:   0.443 TIME LEFT:  2.00D  GRAD.:   102.623 HEAT:  51.32459
 CYCLE:    36 TIME:   0.432 TIME LEFT:  2.00D  GRAD.:    67.791 HEAT:  51.15361
 CYCLE:    37 TIME:   0.469 TIME LEFT:  2.00D  GRAD.:    45.591 HEAT:  51.01570
 CYCLE:    38 TIME:   0.492 TIME LEFT:  2.00D  GRAD.:   124.368 HEAT:  50.88718
 CYCLE:    39 TIME:   0.418 TIME LEFT:  2.00D  GRAD.:   103.355 HEAT:  50.76749
 CYCLE:    40 TIME:   0.422 TIME LEFT:  2.00D  GRAD.:    75.566 HEAT:  50.57449
 CYCLE:    41 TIME:   0.379 TIME LEFT:  2.00D  GRAD.:    59.429 HEAT:  50.43597
 CYCLE:    42 TIME:   0.393 TIME LEFT:  2.00D  GRAD.:    43.738 HEAT:  50.26061
 CYCLE:    43 TIME:   0.377 TIME LEFT:  2.00D  GRAD.:    75.323 HEAT:  50.12576
 CYCLE:    44 TIME:   0.426 TIME LEFT:  2.00D  GRAD.:    48.514 HEAT:  50.00942
 CYCLE:    45 TIME:   0.385 TIME LEFT:  2.00D  GRAD.:    37.638 HEAT:  49.92761
 CYCLE:    46 TIME:   0.404 TIME LEFT:  2.00D  GRAD.:    54.587 HEAT:  49.79944
 CYCLE:    47 TIME:   0.402 TIME LEFT:  2.00D  GRAD.:    49.884 HEAT:  49.77097
 CYCLE:    48 TIME:   0.453 TIME LEFT:  2.00D  GRAD.:    25.954 HEAT:  49.72233
 CYCLE:    49 TIME:   0.477 TIME LEFT:  2.00D  GRAD.:    22.875 HEAT:  49.68804
 CYCLE:    50 TIME:   0.496 TIME LEFT:  2.00D  GRAD.:    29.701 HEAT:  49.60814
 CYCLE:    51 TIME:   0.391 TIME LEFT:  2.00D  GRAD.:    51.086 HEAT:  49.55560
 CYCLE:    52 TIME:   0.428 TIME LEFT:  2.00D  GRAD.:    60.469 HEAT:  49.48384
 CYCLE:    53 TIME:   0.438 TIME LEFT:  2.00D  GRAD.:    54.320 HEAT:  49.42279
 CYCLE:    54 TIME:   0.389 TIME LEFT:  2.00D  GRAD.:    42.568 HEAT:  49.35768
 CYCLE:    55 TIME:   0.445 TIME LEFT:  2.00D  GRAD.:    36.729 HEAT:  49.21899
 CYCLE:    56 TIME:   0.424 TIME LEFT:  2.00D  GRAD.:    29.315 HEAT:  49.11099
 CYCLE:    57 TIME:   0.459 TIME LEFT:  2.00D  GRAD.:    89.270 HEAT:  49.02808
 CYCLE:    58 TIME:   0.457 TIME LEFT:  2.00D  GRAD.:    49.333 HEAT:  48.91733
 CYCLE:    59 TIME:   0.385 TIME LEFT:  2.00D  GRAD.:    35.573 HEAT:  48.86761
 CYCLE:    60 TIME:   0.410 TIME LEFT:  2.00D  GRAD.:    30.463 HEAT:  48.77585
 CYCLE:    61 TIME:   0.432 TIME LEFT:  2.00D  GRAD.:    87.099 HEAT:  48.72148
 CYCLE:    62 TIME:   0.439 TIME LEFT:  2.00D  GRAD.:    57.172 HEAT:  48.63576
 CYCLE:    63 TIME:   0.475 TIME LEFT:  2.00D  GRAD.:    27.660 HEAT:  48.49209
 CYCLE:    64 TIME:   0.395 TIME LEFT:  2.00D  GRAD.:    29.485 HEAT:  48.43830
 CYCLE:    65 TIME:   0.393 TIME LEFT:  2.00D  GRAD.:    39.759 HEAT:  48.38111
 CYCLE:    66 TIME:   0.396 TIME LEFT:  2.00D  GRAD.:   163.645 HEAT:  48.43246
 CYCLE:    67 TIME:   0.469 TIME LEFT:  2.00D  GRAD.:    28.578 HEAT:  48.30943
 CYCLE:    68 TIME:   0.559 TIME LEFT:  2.00D  GRAD.:    23.473 HEAT:  48.29527
 CYCLE:    69 TIME:   0.570 TIME LEFT:  2.00D  GRAD.:    34.968 HEAT:  48.26805
 CYCLE:    70 TIME:   0.494 TIME LEFT:  2.00D  GRAD.:    38.883 HEAT:  48.23009
 CYCLE:    71 TIME:   0.576 TIME LEFT:  2.00D  GRAD.:    39.549 HEAT:  48.12850
 CYCLE:    72 TIME:   0.674 TIME LEFT:  2.00D  GRAD.:   171.347 HEAT:  48.29876
 CYCLE:    73 TIME:   0.627 TIME LEFT:  2.00D  GRAD.:   141.626 HEAT:  48.26846
 CYCLE:    74 TIME:   0.596 TIME LEFT:  2.00D  GRAD.:    13.903 HEAT:  48.07025
 CYCLE:    75 TIME:   0.617 TIME LEFT:  2.00D  GRAD.:    14.422 HEAT:  48.06427
 CYCLE:    76 TIME:   0.658 TIME LEFT:  2.00D  GRAD.:    34.013 HEAT:  48.03963
 CYCLE:    77 TIME:   0.539 TIME LEFT:  2.00D  GRAD.:    59.173 HEAT:  48.02514
 CYCLE:    78 TIME:   0.590 TIME LEFT:  2.00D  GRAD.:    25.385 HEAT:  48.00134
 CYCLE:    79 TIME:   0.531 TIME LEFT:  2.00D  GRAD.:    16.981 HEAT:  47.98475
 CYCLE:    80 TIME:   0.545 TIME LEFT:  2.00D  GRAD.:    19.595 HEAT:  47.97492
 CYCLE:    81 TIME:   0.676 TIME LEFT:  2.00D  GRAD.:    47.367 HEAT:  47.95144
 CYCLE:    82 TIME:   0.623 TIME LEFT:  2.00D  GRAD.:    33.644 HEAT:  47.91443
 CYCLE:    83 TIME:   0.695 TIME LEFT:  2.00D  GRAD.:    25.013 HEAT:  47.87601
 CYCLE:    84 TIME:   0.660 TIME LEFT:  2.00D  GRAD.:    44.020 HEAT:  47.84006
 CYCLE:    85 TIME:   0.615 TIME LEFT:  2.00D  GRAD.:    26.420 HEAT:  47.81713
 CYCLE:    86 TIME:   0.660 TIME LEFT:  2.00D  GRAD.:    16.395 HEAT:  47.78968
 CYCLE:    87 TIME:   0.592 TIME LEFT:  2.00D  GRAD.:    20.687 HEAT:  47.76079
 CYCLE:    88 TIME:   0.611 TIME LEFT:  2.00D  GRAD.:    22.013 HEAT:  47.73139
 CYCLE:    89 TIME:   0.682 TIME LEFT:  2.00D  GRAD.:    86.804 HEAT:  47.74408
 CYCLE:    90 TIME:   0.559 TIME LEFT:  2.00D  GRAD.:    19.972 HEAT:  47.69208
 CYCLE:    91 TIME:   0.514 TIME LEFT:  2.00D  GRAD.:    15.603 HEAT:  47.68123
 CYCLE:    92 TIME:   0.613 TIME LEFT:  2.00D  GRAD.:   116.545 HEAT:  47.70885
 CYCLE:    93 TIME:   0.693 TIME LEFT:  2.00D  GRAD.:    17.461 HEAT:  47.65267
 CYCLE:    94 TIME:   0.658 TIME LEFT:  2.00D  GRAD.:    14.278 HEAT:  47.64733
 CYCLE:    95 TIME:   0.662 TIME LEFT:  2.00D  GRAD.:    17.480 HEAT:  47.62732
 CYCLE:    96 TIME:   0.633 TIME LEFT:  2.00D  GRAD.:    21.349 HEAT:  47.60969
 CYCLE:    97 TIME:   0.535 TIME LEFT:  2.00D  GRAD.:    70.533 HEAT:  47.61013
 CYCLE:    98 TIME:   0.594 TIME LEFT:  2.00D  GRAD.:    24.490 HEAT:  47.58959
 CYCLE:    99 TIME:   0.619 TIME LEFT:  2.00D  GRAD.:    13.067 HEAT:  47.58225
 CYCLE:   100 TIME:   0.561 TIME LEFT:  2.00D  GRAD.:    20.664 HEAT:  47.57023
 CYCLE:   101 TIME:   0.699 TIME LEFT:  2.00D  GRAD.:    23.860 HEAT:  47.55952
 CYCLE:   102 TIME:   0.525 TIME LEFT:  2.00D  GRAD.:    26.828 HEAT:  47.53078
 CYCLE:   103 TIME:   0.541 TIME LEFT:  2.00D  GRAD.:    30.936 HEAT:  47.50404
 CYCLE:   104 TIME:   0.652 TIME LEFT:  2.00D  GRAD.:    18.774 HEAT:  47.48069
 CYCLE:   105 TIME:   0.613 TIME LEFT:  2.00D  GRAD.:    16.654 HEAT:  47.46251
 CYCLE:   106 TIME:   0.576 TIME LEFT:  2.00D  GRAD.:    48.661 HEAT:  47.43506
 CYCLE:   107 TIME:   0.592 TIME LEFT:  2.00D  GRAD.:    24.289 HEAT:  47.41081
 CYCLE:   108 TIME:   0.701 TIME LEFT:  2.00D  GRAD.:    16.168 HEAT:  47.39591
 CYCLE:   109 TIME:   0.582 TIME LEFT:  2.00D  GRAD.:    20.788 HEAT:  47.37952
 CYCLE:   110 TIME:   0.705 TIME LEFT:  2.00D  GRAD.:    18.686 HEAT:  47.36266
 CYCLE:   111 TIME:   0.627 TIME LEFT:  2.00D  GRAD.:    17.033 HEAT:  47.32673
 CYCLE:   112 TIME:   0.543 TIME LEFT:  2.00D  GRAD.:    31.995 HEAT:  47.30529
 CYCLE:   113 TIME:   0.627 TIME LEFT:  2.00D  GRAD.:    24.055 HEAT:  47.27743
 CYCLE:   114 TIME:   0.600 TIME LEFT:  2.00D  GRAD.:    18.652 HEAT:  47.26001
 CYCLE:   115 TIME:   0.650 TIME LEFT:  2.00D  GRAD.:    14.980 HEAT:  47.24750
 CYCLE:   116 TIME:   0.674 TIME LEFT:  2.00D  GRAD.:    14.476 HEAT:  47.22679
 CYCLE:   117 TIME:   0.688 TIME LEFT:  2.00D  GRAD.:   101.262 HEAT:  47.25137
 CYCLE:   118 TIME:   0.568 TIME LEFT:  2.00D  GRAD.:    20.822 HEAT:  47.18342
 CYCLE:   119 TIME:   0.494 TIME LEFT:  2.00D  GRAD.:    13.224 HEAT:  47.17393
 CYCLE:   120 TIME:   0.566 TIME LEFT:  2.00D  GRAD.:    16.686 HEAT:  47.16175
 CYCLE:   121 TIME:   0.654 TIME LEFT:  2.00D  GRAD.:    89.693 HEAT:  47.17207
 CYCLE:   122 TIME:   0.773 TIME LEFT:  2.00D  GRAD.:    23.801 HEAT:  47.14591
 CYCLE:   123 TIME:   0.756 TIME LEFT:  2.00D  GRAD.:    15.481 HEAT:  47.13686
 CYCLE:   124 TIME:   0.607 TIME LEFT:  2.00D  GRAD.:    17.756 HEAT:  47.11438
 CYCLE:   125 TIME:   0.568 TIME LEFT:  2.00D  GRAD.:    21.088 HEAT:  47.08371
 CYCLE:   126 TIME:   0.576 TIME LEFT:  2.00D  GRAD.:    25.775 HEAT:  47.04517
 CYCLE:   127 TIME:   0.744 TIME LEFT:  2.00D  GRAD.:    78.552 HEAT:  47.03428
 CYCLE:   128 TIME:   0.479 TIME LEFT:  2.00D  GRAD.:    36.339 HEAT:  47.00472
 CYCLE:   129 TIME:   0.547 TIME LEFT:  2.00D  GRAD.:    18.868 HEAT:  46.99231
 CYCLE:   130 TIME:   0.631 TIME LEFT:  2.00D  GRAD.:    14.880 HEAT:  46.98345
 CYCLE:   131 TIME:   0.531 TIME LEFT:  2.00D  GRAD.:    23.292 HEAT:  46.96596
 CYCLE:   132 TIME:   0.541 TIME LEFT:  2.00D  GRAD.:    28.188 HEAT:  46.95990
 CYCLE:   133 TIME:   0.631 TIME LEFT:  2.00D  GRAD.:    12.725 HEAT:  46.95077
 CYCLE:   134 TIME:   0.584 TIME LEFT:  2.00D  GRAD.:    15.127 HEAT:  46.94081
 CYCLE:   135 TIME:   0.652 TIME LEFT:  2.00D  GRAD.:    17.348 HEAT:  46.93210
 CYCLE:   136 TIME:   0.545 TIME LEFT:  2.00D  GRAD.:    67.730 HEAT:  46.93333
 CYCLE:   137 TIME:   0.662 TIME LEFT:  2.00D  GRAD.:    13.144 HEAT:  46.91454
 CYCLE:   138 TIME:   0.498 TIME LEFT:  2.00D  GRAD.:    10.563 HEAT:  46.91025
 CYCLE:   139 TIME:   0.510 TIME LEFT:  2.00D  GRAD.:    14.056 HEAT:  46.90299
 CYCLE:   140 TIME:   0.539 TIME LEFT:  2.00D  GRAD.:    16.631 HEAT:  46.88957
 CYCLE:   141 TIME:   0.756 TIME LEFT:  2.00D  GRAD.:    19.657 HEAT:  46.87072
 CYCLE:   142 TIME:   0.750 TIME LEFT:  2.00D  GRAD.:    17.485 HEAT:  46.85335
 CYCLE:   143 TIME:   0.605 TIME LEFT:  2.00D  GRAD.:    25.068 HEAT:  46.84273
 CYCLE:   144 TIME:   0.607 TIME LEFT:  2.00D  GRAD.:    14.124 HEAT:  46.83107
 CYCLE:   145 TIME:   0.695 TIME LEFT:  2.00D  GRAD.:    13.687 HEAT:  46.81930
 CYCLE:   146 TIME:   0.668 TIME LEFT:  2.00D  GRAD.:    32.865 HEAT:  46.81351
 CYCLE:   147 TIME:   0.584 TIME LEFT:  2.00D  GRAD.:    10.723 HEAT:  46.79743
 CYCLE:   148 TIME:   0.512 TIME LEFT:  2.00D  GRAD.:    13.694 HEAT:  46.78788
 CYCLE:   149 TIME:   0.498 TIME LEFT:  2.00D  GRAD.:    11.802 HEAT:  46.77940
 CYCLE:   150 TIME:   0.518 TIME LEFT:  2.00D  GRAD.:    60.107 HEAT:  46.78140
 CYCLE:   151 TIME:   0.477 TIME LEFT:  2.00D  GRAD.:    29.595 HEAT:  46.76680
 CYCLE:   152 TIME:   0.629 TIME LEFT:  2.00D  GRAD.:    11.835 HEAT:  46.75983
 CYCLE:   153 TIME:   0.516 TIME LEFT:  2.00D  GRAD.:    13.333 HEAT:  46.75455
 CYCLE:   154 TIME:   0.748 TIME LEFT:  2.00D  GRAD.:    11.961 HEAT:  46.74886
 CYCLE:   155 TIME:   0.695 TIME LEFT:  2.00D  GRAD.:    10.646 HEAT:  46.73655
 CYCLE:   156 TIME:   0.547 TIME LEFT:  2.00D  GRAD.:    56.433 HEAT:  46.74074
 CYCLE:   157 TIME:   0.662 TIME LEFT:  2.00D  GRAD.:    11.910 HEAT:  46.72158
 CYCLE:   158 TIME:   0.658 TIME LEFT:  2.00D  GRAD.:     9.914 HEAT:  46.71947
 CYCLE:   159 TIME:   0.562 TIME LEFT:  2.00D  GRAD.:    11.788 HEAT:  46.70989
 CYCLE:   160 TIME:   0.680 TIME LEFT:  2.00D  GRAD.:    15.069 HEAT:  46.70175
 CYCLE:   161 TIME:   0.527 TIME LEFT:  2.00D  GRAD.:    26.982 HEAT:  46.68752
 CYCLE:   162 TIME:   0.510 TIME LEFT:  2.00D  GRAD.:    29.172 HEAT:  46.67512
 CYCLE:   163 TIME:   0.523 TIME LEFT:  2.00D  GRAD.:    10.183 HEAT:  46.66698
 CYCLE:   164 TIME:   0.666 TIME LEFT:  2.00D  GRAD.:    17.491 HEAT:  46.66225
 CYCLE:   165 TIME:   0.471 TIME LEFT:  2.00D  GRAD.:    12.188 HEAT:  46.65920
 CYCLE:   166 TIME:   0.615 TIME LEFT:  2.00D  GRAD.:    12.020 HEAT:  46.65227
 CYCLE:   167 TIME:   0.656 TIME LEFT:  2.00D  GRAD.:    15.708 HEAT:  46.64179
 CYCLE:   168 TIME:   0.580 TIME LEFT:  2.00D  GRAD.:    20.429 HEAT:  46.63293
 CYCLE:   169 TIME:   0.531 TIME LEFT:  2.00D  GRAD.:    20.882 HEAT:  46.62494
 CYCLE:   170 TIME:   0.510 TIME LEFT:  2.00D  GRAD.:    11.020 HEAT:  46.62157
 CYCLE:   171 TIME:   0.662 TIME LEFT:  2.00D  GRAD.:     9.662 HEAT:  46.61702
 CYCLE:   172 TIME:   0.574 TIME LEFT:  2.00D  GRAD.:    14.238 HEAT:  46.61263
 CYCLE:   173 TIME:   0.715 TIME LEFT:  2.00D  GRAD.:    17.344 HEAT:  46.60008
 CYCLE:   174 TIME:   0.584 TIME LEFT:  2.00D  GRAD.:    18.796 HEAT:  46.58132
 CYCLE:   175 TIME:   0.555 TIME LEFT:  2.00D  GRAD.:    31.068 HEAT:  46.57087
 CYCLE:   176 TIME:   0.510 TIME LEFT:  2.00D  GRAD.:    30.606 HEAT:  46.56127
 CYCLE:   177 TIME:   0.469 TIME LEFT:  2.00D  GRAD.:    13.970 HEAT:  46.55394
 CYCLE:   178 TIME:   0.639 TIME LEFT:  2.00D  GRAD.:    13.754 HEAT:  46.54945
 CYCLE:   179 TIME:   0.611 TIME LEFT:  2.00D  GRAD.:    17.345 HEAT:  46.54257
 CYCLE:   180 TIME:   0.660 TIME LEFT:  2.00D  GRAD.:    17.090 HEAT:  46.52641
 CYCLE:   181 TIME:   0.602 TIME LEFT:  2.00D  GRAD.:    73.760 HEAT:  46.53427
 CYCLE:   182 TIME:   0.572 TIME LEFT:  2.00D  GRAD.:    13.760 HEAT:  46.50496
 CYCLE:   183 TIME:   0.617 TIME LEFT:  2.00D  GRAD.:    13.741 HEAT:  46.50070
 CYCLE:   184 TIME:   0.684 TIME LEFT:  2.00D  GRAD.:    19.095 HEAT:  46.49111
 CYCLE:   185 TIME:   0.631 TIME LEFT:  2.00D  GRAD.:    41.387 HEAT:  46.48546
 CYCLE:   186 TIME:   0.570 TIME LEFT:  2.00D  GRAD.:    16.234 HEAT:  46.47382
 CYCLE:   187 TIME:   0.709 TIME LEFT:  2.00D  GRAD.:    15.624 HEAT:  46.46525
 CYCLE:   188 TIME:   0.643 TIME LEFT:  2.00D  GRAD.:    14.258 HEAT:  46.45980
 CYCLE:   189 TIME:   0.557 TIME LEFT:  2.00D  GRAD.:    12.800 HEAT:  46.44039
 CYCLE:   190 TIME:   0.689 TIME LEFT:  2.00D  GRAD.:    36.248 HEAT:  46.43954
 CYCLE:   191 TIME:   0.805 TIME LEFT:  2.00D  GRAD.:    22.244 HEAT:  46.41676
 CYCLE:   192 TIME:   0.609 TIME LEFT:  2.00D  GRAD.:    13.124 HEAT:  46.40675
 CYCLE:   193 TIME:   0.605 TIME LEFT:  2.00D  GRAD.:    15.742 HEAT:  46.39465
 CYCLE:   194 TIME:   0.738 TIME LEFT:  2.00D  GRAD.:    17.406 HEAT:  46.36962
 CYCLE:   195 TIME:   0.738 TIME LEFT:  2.00D  GRAD.:   166.688 HEAT:  46.48059
 CYCLE:   196 TIME:   0.613 TIME LEFT:  2.00D  GRAD.:    23.881 HEAT:  46.33793
 CYCLE:   197 TIME:   0.633 TIME LEFT:  2.00D  GRAD.:    16.129 HEAT:  46.33036
 CYCLE:   198 TIME:   0.607 TIME LEFT:  2.00D  GRAD.:    17.086 HEAT:  46.31528
 CYCLE:   199 TIME:   0.701 TIME LEFT:  2.00D  GRAD.:    18.898 HEAT:  46.30706
 CYCLE:   200 TIME:   0.791 TIME LEFT:  2.00D  GRAD.:    83.036 HEAT:  46.32342
 CYCLE:   201 TIME:   0.508 TIME LEFT:  2.00D  GRAD.:    20.197 HEAT:  46.27322
 CYCLE:   202 TIME:   0.572 TIME LEFT:  2.00D  GRAD.:    13.649 HEAT:  46.26338
 CYCLE:   203 TIME:   0.855 TIME LEFT:  2.00D  GRAD.:    28.350 HEAT:  46.24132
 CYCLE:   204 TIME:   0.566 TIME LEFT:  2.00D  GRAD.:    31.277 HEAT:  46.22128
 CYCLE:   205 TIME:   0.596 TIME LEFT:  2.00D  GRAD.:    23.115 HEAT:  46.20843
 CYCLE:   206 TIME:   0.496 TIME LEFT:  2.00D  GRAD.:    14.891 HEAT:  46.20014
 CYCLE:   207 TIME:   0.570 TIME LEFT:  2.00D  GRAD.:    13.617 HEAT:  46.18572
 CYCLE:   208 TIME:   0.646 TIME LEFT:  2.00D  GRAD.:    14.337 HEAT:  46.17033
 CYCLE:   209 TIME:   0.576 TIME LEFT:  2.00D  GRAD.:    37.492 HEAT:  46.14370
 CYCLE:   210 TIME:   0.529 TIME LEFT:  2.00D  GRAD.:    57.392 HEAT:  46.13677
 CYCLE:   211 TIME:   0.531 TIME LEFT:  2.00D  GRAD.:    15.759 HEAT:  46.11259
 CYCLE:   212 TIME:   0.477 TIME LEFT:  2.00D  GRAD.:    12.981 HEAT:  46.10147
 CYCLE:   213 TIME:   0.504 TIME LEFT:  2.00D  GRAD.:    16.663 HEAT:  46.07728
 CYCLE:   214 TIME:   0.580 TIME LEFT:  2.00D  GRAD.:    46.588 HEAT:  46.06239
 CYCLE:   215 TIME:   0.613 TIME LEFT:  2.00D  GRAD.:    20.670 HEAT:  46.04101
 CYCLE:   216 TIME:   0.607 TIME LEFT:  2.00D  GRAD.:    17.889 HEAT:  46.02345
 CYCLE:   217 TIME:   0.725 TIME LEFT:  2.00D  GRAD.:    22.140 HEAT:  46.00715
 CYCLE:   218 TIME:   0.586 TIME LEFT:  2.00D  GRAD.:    19.831 HEAT:  45.98019
 CYCLE:   219 TIME:   0.553 TIME LEFT:  2.00D  GRAD.:    89.027 HEAT:  45.99995
 CYCLE:   220 TIME:   0.631 TIME LEFT:  2.00D  GRAD.:    17.751 HEAT:  45.94482
 CYCLE:   221 TIME:   0.553 TIME LEFT:  2.00D  GRAD.:    14.553 HEAT:  45.93674
 CYCLE:   222 TIME:   0.717 TIME LEFT:  2.00D  GRAD.:    21.468 HEAT:  45.91508
 CYCLE:   223 TIME:   0.658 TIME LEFT:  2.00D  GRAD.:    21.741 HEAT:  45.89269
 CYCLE:   224 TIME:   0.674 TIME LEFT:  2.00D  GRAD.:    53.688 HEAT:  45.88215
 CYCLE:   225 TIME:   0.682 TIME LEFT:  2.00D  GRAD.:    25.449 HEAT:  45.85757
 CYCLE:   226 TIME:   0.531 TIME LEFT:  2.00D  GRAD.:    14.445 HEAT:  45.84960
 CYCLE:   227 TIME:   0.533 TIME LEFT:  2.00D  GRAD.:    20.352 HEAT:  45.84213
 CYCLE:   228 TIME:   0.545 TIME LEFT:  2.00D  GRAD.:    17.602 HEAT:  45.83361
 CYCLE:   229 TIME:   0.701 TIME LEFT:  2.00D  GRAD.:    52.529 HEAT:  45.82597
 CYCLE:   230 TIME:   0.756 TIME LEFT:  2.00D  GRAD.:    16.744 HEAT:  45.80561
 CYCLE:   231 TIME:   0.666 TIME LEFT:  2.00D  GRAD.:    18.712 HEAT:  45.79461
 CYCLE:   232 TIME:   0.553 TIME LEFT:  2.00D  GRAD.:    24.379 HEAT:  45.77925
 CYCLE:   233 TIME:   0.588 TIME LEFT:  2.00D  GRAD.:    22.525 HEAT:  45.74841
 CYCLE:   234 TIME:   0.686 TIME LEFT:  2.00D  GRAD.:    18.300 HEAT:  45.72179
 CYCLE:   235 TIME:   0.676 TIME LEFT:  2.00D  GRAD.:    55.424 HEAT:  45.71606
 CYCLE:   236 TIME:   0.609 TIME LEFT:  2.00D  GRAD.:    26.374 HEAT:  45.68696
 CYCLE:   237 TIME:   0.697 TIME LEFT:  2.00D  GRAD.:    16.190 HEAT:  45.67454
 CYCLE:   238 TIME:   0.656 TIME LEFT:  2.00D  GRAD.:    16.403 HEAT:  45.65526
 CYCLE:   239 TIME:   0.742 TIME LEFT:  2.00D  GRAD.:    29.438 HEAT:  45.64102
 CYCLE:   240 TIME:   0.730 TIME LEFT:  2.00D  GRAD.:    24.285 HEAT:  45.62572
 CYCLE:   241 TIME:   0.670 TIME LEFT:  2.00D  GRAD.:    15.732 HEAT:  45.61402
 CYCLE:   242 TIME:   0.658 TIME LEFT:  2.00D  GRAD.:    18.918 HEAT:  45.59742
 CYCLE:   243 TIME:   0.633 TIME LEFT:  2.00D  GRAD.:    25.123 HEAT:  45.57599
 CYCLE:   244 TIME:   0.664 TIME LEFT:  2.00D  GRAD.:    50.108 HEAT:  45.55198
 CYCLE:   245 TIME:   0.621 TIME LEFT:  2.00D  GRAD.:    27.470 HEAT:  45.52702
 CYCLE:   246 TIME:   0.559 TIME LEFT:  2.00D  GRAD.:    15.148 HEAT:  45.51497
 CYCLE:   247 TIME:   0.572 TIME LEFT:  2.00D  GRAD.:    16.444 HEAT:  45.50597
 CYCLE:   248 TIME:   0.648 TIME LEFT:  2.00D  GRAD.:    20.316 HEAT:  45.49022
 CYCLE:   249 TIME:   0.672 TIME LEFT:  2.00D  GRAD.:    28.540 HEAT:  45.44444
 CYCLE:   250 TIME:   0.781 TIME LEFT:  2.00D  GRAD.:   101.389 HEAT:  45.47686
 CYCLE:   251 TIME:   0.752 TIME LEFT:  2.00D  GRAD.:    89.061 HEAT:  45.44205
 CYCLE:   252 TIME:   0.709 TIME LEFT:  2.00D  GRAD.:    15.378 HEAT:  45.37633
 CYCLE:   253 TIME:   0.564 TIME LEFT:  2.00D  GRAD.:    17.491 HEAT:  45.36560
 CYCLE:   254 TIME:   0.662 TIME LEFT:  2.00D  GRAD.:    64.114 HEAT:  45.35106
 CYCLE:   255 TIME:   0.695 TIME LEFT:  2.00D  GRAD.:    20.687 HEAT:  45.31553
 CYCLE:   256 TIME:   0.537 TIME LEFT:  2.00D  GRAD.:    22.080 HEAT:  45.30452
 CYCLE:   257 TIME:   0.674 TIME LEFT:  2.00D  GRAD.:    25.998 HEAT:  45.27722
 CYCLE:   258 TIME:   0.715 TIME LEFT:  2.00D  GRAD.:    77.077 HEAT:  45.26360
 CYCLE:   259 TIME:   0.652 TIME LEFT:  2.00D  GRAD.:    29.942 HEAT:  45.23347
 CYCLE:   260 TIME:   0.613 TIME LEFT:  2.00D  GRAD.:    35.659 HEAT:  45.21436
 CYCLE:   261 TIME:   0.750 TIME LEFT:  2.00D  GRAD.:    30.300 HEAT:  45.19881
 CYCLE:   262 TIME:   0.766 TIME LEFT:  2.00D  GRAD.:    33.409 HEAT:  45.15947
 CYCLE:   263 TIME:   0.689 TIME LEFT:  2.00D  GRAD.:    30.659 HEAT:  45.12740
 CYCLE:   264 TIME:   0.590 TIME LEFT:  2.00D  GRAD.:    28.562 HEAT:  45.09221
 CYCLE:   265 TIME:   0.584 TIME LEFT:  2.00D  GRAD.:    41.665 HEAT:  45.06452
 CYCLE:   266 TIME:   0.607 TIME LEFT:  2.00D  GRAD.:    37.427 HEAT:  45.03404
 CYCLE:   267 TIME:   0.723 TIME LEFT:  2.00D  GRAD.:    37.272 HEAT:  45.00476
 CYCLE:   268 TIME:   0.787 TIME LEFT:  2.00D  GRAD.:    63.891 HEAT:  44.94369
 CYCLE:   269 TIME:   0.787 TIME LEFT:  2.00D  GRAD.:    86.620 HEAT:  44.88988
 CYCLE:   270 TIME:   0.729 TIME LEFT:  2.00D  GRAD.:   105.360 HEAT:  44.86690
 CYCLE:   271 TIME:   0.838 TIME LEFT:  2.00D  GRAD.:    93.297 HEAT:  44.68609
 CYCLE:   272 TIME:   0.797 TIME LEFT:  2.00D  GRAD.:  1366.519 HEAT:  51.27092
 CYCLE:   273 TIME:   0.896 TIME LEFT:  2.00D  GRAD.:   693.555 HEAT:  47.42537
 CYCLE:   274 TIME:   0.639 TIME LEFT:  2.00D  GRAD.:   624.758 HEAT:  46.33653
 CYCLE:   275 TIME:   0.695 TIME LEFT:  2.00D  GRAD.:   599.311 HEAT:  46.09593
 CYCLE:   276 TIME:   0.711 TIME LEFT:  2.00D  GRAD.:   192.698 HEAT:  45.09237
 CYCLE:   277 TIME:   0.904 TIME LEFT:  2.00D  GRAD.:   264.913 HEAT:  45.37518
 CYCLE:   278 TIME:   0.822 TIME LEFT:  2.00D  GRAD.:   251.308 HEAT:  45.19980
 CYCLE:   279 TIME:   0.924 TIME LEFT:  2.00D  GRAD.:   679.928 HEAT:  50.01283
 CYCLE:   280 TIME:   0.738 TIME LEFT:  2.00D  GRAD.:   291.440 HEAT:  45.31005
 CYCLE:   281 TIME:   0.887 TIME LEFT:  2.00D  GRAD.:   458.315 HEAT:  46.50914
 CYCLE:   282 TIME:   0.951 TIME LEFT:  2.00D  GRAD.:   182.970 HEAT:  44.93573
 CYCLE:   283 TIME:   0.865 TIME LEFT:  2.00D  GRAD.:   158.426 HEAT:  44.76748
 CYCLE:   284 TIME:   0.562 TIME LEFT:  2.00D  GRAD.:    24.498 HEAT:  44.31969
 CYCLE:   285 TIME:   0.566 TIME LEFT:  2.00D  GRAD.:    34.359 HEAT:  44.29998
 CYCLE:   286 TIME:   0.607 TIME LEFT:  2.00D  GRAD.:    46.706 HEAT:  44.27745
 CYCLE:   287 TIME:   0.609 TIME LEFT:  2.00D  GRAD.:   139.712 HEAT:  44.21602
 CYCLE:   288 TIME:   0.615 TIME LEFT:  2.00D  GRAD.:    79.037 HEAT:  44.13337
 CYCLE:   289 TIME:   0.586 TIME LEFT:  2.00D  GRAD.:    62.650 HEAT:  44.09305
 CYCLE:   290 TIME:   0.541 TIME LEFT:  2.00D  GRAD.:    29.643 HEAT:  44.03819
 CYCLE:   291 TIME:   0.594 TIME LEFT:  2.00D  GRAD.:    52.840 HEAT:  44.02841
 CYCLE:   292 TIME:   0.580 TIME LEFT:  2.00D  GRAD.:    24.631 HEAT:  43.97618
 CYCLE:   293 TIME:   0.795 TIME LEFT:  2.00D  GRAD.:    39.234 HEAT:  43.94507
 CYCLE:   294 TIME:   0.660 TIME LEFT:  2.00D  GRAD.:    32.010 HEAT:  43.90496
 CYCLE:   295 TIME:   0.855 TIME LEFT:  2.00D  GRAD.:    46.854 HEAT:  43.82816
 CYCLE:   296 TIME:   0.723 TIME LEFT:  2.00D  GRAD.:   209.964 HEAT:  44.06672
 CYCLE:   297 TIME:   0.887 TIME LEFT:  2.00D  GRAD.:    29.697 HEAT:  43.77202
 CYCLE:   298 TIME:   0.730 TIME LEFT:  2.00D  GRAD.:    21.088 HEAT:  43.75288
 CYCLE:   299 TIME:   0.588 TIME LEFT:  2.00D  GRAD.:    33.635 HEAT:  43.70082
 CYCLE:   300 TIME:   0.496 TIME LEFT:  2.00D  GRAD.:    28.907 HEAT:  43.66714
 CYCLE:   301 TIME:   0.504 TIME LEFT:  2.00D  GRAD.:   153.414 HEAT:  43.69700
 CYCLE:   302 TIME:   0.592 TIME LEFT:  2.00D  GRAD.:    35.668 HEAT:  43.62806
 CYCLE:   303 TIME:   0.604 TIME LEFT:  2.00D  GRAD.:    23.166 HEAT:  43.61803
 CYCLE:   304 TIME:   0.607 TIME LEFT:  2.00D  GRAD.:    22.563 HEAT:  43.59840
 CYCLE:   305 TIME:   0.572 TIME LEFT:  2.00D  GRAD.:    20.302 HEAT:  43.57564
 CYCLE:   306 TIME:   0.738 TIME LEFT:  2.00D  GRAD.:    22.080 HEAT:  43.54605
 CYCLE:   307 TIME:   0.717 TIME LEFT:  2.00D  GRAD.:    49.169 HEAT:  43.52515
 CYCLE:   308 TIME:   0.660 TIME LEFT:  2.00D  GRAD.:    18.275 HEAT:  43.47997
 CYCLE:   309 TIME:   0.553 TIME LEFT:  2.00D  GRAD.:    14.892 HEAT:  43.46164
 CYCLE:   310 TIME:   0.521 TIME LEFT:  2.00D  GRAD.:    20.166 HEAT:  43.44266
 CYCLE:   311 TIME:   0.525 TIME LEFT:  2.00D  GRAD.:    19.957 HEAT:  43.41139
 CYCLE:   312 TIME:   0.623 TIME LEFT:  2.00D  GRAD.:    36.168 HEAT:  43.38702
 CYCLE:   313 TIME:   0.537 TIME LEFT:  2.00D  GRAD.:    17.221 HEAT:  43.36860
 CYCLE:   314 TIME:   0.596 TIME LEFT:  2.00D  GRAD.:    13.155 HEAT:  43.35765
 CYCLE:   315 TIME:   0.605 TIME LEFT:  2.00D  GRAD.:    15.991 HEAT:  43.34039
 CYCLE:   316 TIME:   0.555 TIME LEFT:  2.00D  GRAD.:    90.984 HEAT:  43.35950
 CYCLE:   317 TIME:   0.473 TIME LEFT:  2.00D  GRAD.:    13.564 HEAT:  43.32719
 CYCLE:   318 TIME:   0.584 TIME LEFT:  2.00D  GRAD.:    16.270 HEAT:  43.32565
 CYCLE:   319 TIME:   0.627 TIME LEFT:  2.00D  GRAD.:    12.654 HEAT:  43.31934
 CYCLE:   320 TIME:   0.793 TIME LEFT:  2.00D  GRAD.:    21.384 HEAT:  43.29973
 CYCLE:   321 TIME:   0.559 TIME LEFT:  2.00D  GRAD.:    14.735 HEAT:  43.29190
 CYCLE:   322 TIME:   0.598 TIME LEFT:  2.00D  GRAD.:    14.630 HEAT:  43.27717
 CYCLE:   323 TIME:   0.666 TIME LEFT:  2.00D  GRAD.:    15.693 HEAT:  43.27054
 CYCLE:   324 TIME:   0.859 TIME LEFT:  2.00D  GRAD.:    22.114 HEAT:  43.25085
 CYCLE:   325 TIME:   0.615 TIME LEFT:  2.00D  GRAD.:    56.077 HEAT:  43.27268
 CYCLE:   326 TIME:   0.525 TIME LEFT:  2.00D  GRAD.:    14.647 HEAT:  43.23933
 CYCLE:   327 TIME:   0.545 TIME LEFT:  2.00D  GRAD.:     9.259 HEAT:  43.23674
 CYCLE:   328 TIME:   0.535 TIME LEFT:  2.00D  GRAD.:    14.343 HEAT:  43.23340
 CYCLE:   329 TIME:   0.652 TIME LEFT:  2.00D  GRAD.:    22.154 HEAT:  43.22632
 CYCLE:   330 TIME:   0.559 TIME LEFT:  2.00D  GRAD.:    19.933 HEAT:  43.21859
 CYCLE:   331 TIME:   0.633 TIME LEFT:  2.00D  GRAD.:    23.112 HEAT:  43.21135
 CYCLE:   332 TIME:   0.668 TIME LEFT:  2.00D  GRAD.:    10.417 HEAT:  43.20663
 CYCLE:   333 TIME:   0.525 TIME LEFT:  2.00D  GRAD.:    25.103 HEAT:  43.20309
 CYCLE:   334 TIME:   0.645 TIME LEFT:  2.00D  GRAD.:    17.833 HEAT:  43.19978
 CYCLE:   335 TIME:   0.533 TIME LEFT:  2.00D  GRAD.:     9.711 HEAT:  43.19242
 CYCLE:   336 TIME:   0.693 TIME LEFT:  2.00D  GRAD.:    13.390 HEAT:  43.18717
 CYCLE:   337 TIME:   0.750 TIME LEFT:  2.00D  GRAD.:    17.215 HEAT:  43.17776
 CYCLE:   338 TIME:   0.740 TIME LEFT:  2.00D  GRAD.:    16.571 HEAT:  43.16635
 CYCLE:   339 TIME:   0.672 TIME LEFT:  2.00D  GRAD.:    30.069 HEAT:  43.15409
 CYCLE:   340 TIME:   0.627 TIME LEFT:  2.00D  GRAD.:    18.803 HEAT:  43.14485
 CYCLE:   341 TIME:   0.656 TIME LEFT:  2.00D  GRAD.:    12.053 HEAT:  43.13903
 CYCLE:   342 TIME:   0.648 TIME LEFT:  2.00D  GRAD.:     9.458 HEAT:  43.13417
 CYCLE:   343 TIME:   0.744 TIME LEFT:  2.00D  GRAD.:    18.544 HEAT:  43.12831
 CYCLE:   344 TIME:   0.615 TIME LEFT:  2.00D  GRAD.:     9.091 HEAT:  43.12289
 CYCLE:   345 TIME:   0.588 TIME LEFT:  2.00D  GRAD.:    11.551 HEAT:  43.11956
 CYCLE:   346 TIME:   0.578 TIME LEFT:  2.00D  GRAD.:    15.823 HEAT:  43.11546
 CYCLE:   347 TIME:   0.699 TIME LEFT:  2.00D  GRAD.:    30.291 HEAT:  43.10835
 CYCLE:   348 TIME:   0.822 TIME LEFT:  2.00D  GRAD.:    18.156 HEAT:  43.09873
 CYCLE:   349 TIME:   0.664 TIME LEFT:  2.00D  GRAD.:     9.385 HEAT:  43.09166
 CYCLE:   350 TIME:   0.506 TIME LEFT:  2.00D  GRAD.:     9.311 HEAT:  43.08851
 CYCLE:   351 TIME:   0.512 TIME LEFT:  2.00D  GRAD.:    12.229 HEAT:  43.08331
 CYCLE:   352 TIME:   0.598 TIME LEFT:  2.00D  GRAD.:    11.316 HEAT:  43.07711
 CYCLE:   353 TIME:   0.658 TIME LEFT:  2.00D  GRAD.:    34.183 HEAT:  43.07253
 CYCLE:   354 TIME:   0.639 TIME LEFT:  2.00D  GRAD.:    24.804 HEAT:  43.06347
 CYCLE:   355 TIME:   0.672 TIME LEFT:  2.00D  GRAD.:    21.387 HEAT:  43.05817
 CYCLE:   356 TIME:   0.701 TIME LEFT:  2.00D  GRAD.:    13.661 HEAT:  43.05061
 CYCLE:   357 TIME:   0.596 TIME LEFT:  2.00D  GRAD.:     7.715 HEAT:  43.04591
 CYCLE:   358 TIME:   0.615 TIME LEFT:  2.00D  GRAD.:    17.367 HEAT:  43.03997
 CYCLE:   359 TIME:   0.508 TIME LEFT:  2.00D  GRAD.:    14.689 HEAT:  43.03514
 CYCLE:   360 TIME:   0.568 TIME LEFT:  2.00D  GRAD.:    21.597 HEAT:  43.02545
 CYCLE:   361 TIME:   0.547 TIME LEFT:  2.00D  GRAD.:     8.048 HEAT:  43.01885
 CYCLE:   362 TIME:   0.744 TIME LEFT:  2.00D  GRAD.:    10.082 HEAT:  43.01416
 CYCLE:   363 TIME:   0.533 TIME LEFT:  2.00D  GRAD.:    38.963 HEAT:  43.01295
 CYCLE:   364 TIME:   0.471 TIME LEFT:  2.00D  GRAD.:    16.592 HEAT:  43.00671
 CYCLE:   365 TIME:   0.525 TIME LEFT:  2.00D  GRAD.:     8.673 HEAT:  43.00189
 CYCLE:   366 TIME:   0.717 TIME LEFT:  2.00D  GRAD.:    12.003 HEAT:  42.99892
 CYCLE:   367 TIME:   0.561 TIME LEFT:  2.00D  GRAD.:    14.287 HEAT:  42.99277
 CYCLE:   368 TIME:   0.531 TIME LEFT:  2.00D  GRAD.:    55.490 HEAT:  43.00604
 CYCLE:   369 TIME:   0.531 TIME LEFT:  2.00D  GRAD.:    20.112 HEAT:  42.97526
 CYCLE:   370 TIME:   0.531 TIME LEFT:  2.00D  GRAD.:     8.172 HEAT:  42.96817
 CYCLE:   371 TIME:   0.514 TIME LEFT:  2.00D  GRAD.:    10.444 HEAT:  42.96242
 CYCLE:   372 TIME:   0.529 TIME LEFT:  2.00D  GRAD.:    16.118 HEAT:  42.95538
 CYCLE:   373 TIME:   0.537 TIME LEFT:  2.00D  GRAD.:    14.330 HEAT:  42.94471
 CYCLE:   374 TIME:   0.686 TIME LEFT:  2.00D  GRAD.:    22.481 HEAT:  42.93728
 CYCLE:   375 TIME:   0.641 TIME LEFT:  2.00D  GRAD.:    27.035 HEAT:  42.93405
 CYCLE:   376 TIME:   0.695 TIME LEFT:  2.00D  GRAD.:    12.379 HEAT:  42.92211
 CYCLE:   377 TIME:   0.695 TIME LEFT:  2.00D  GRAD.:     8.084 HEAT:  42.91835
 CYCLE:   378 TIME:   0.775 TIME LEFT:  2.00D  GRAD.:    15.742 HEAT:  42.91203
 CYCLE:   379 TIME:   0.617 TIME LEFT:  2.00D  GRAD.:    12.515 HEAT:  42.90491
 CYCLE:   380 TIME:   0.670 TIME LEFT:  2.00D  GRAD.:    60.720 HEAT:  42.90610
 CYCLE:   381 TIME:   0.750 TIME LEFT:  2.00D  GRAD.:    17.729 HEAT:  42.89118
 CYCLE:   382 TIME:   0.691 TIME LEFT:  2.00D  GRAD.:     9.877 HEAT:  42.88825
 CYCLE:   383 TIME:   0.643 TIME LEFT:  2.00D  GRAD.:    13.615 HEAT:  42.88503
 CYCLE:   384 TIME:   0.742 TIME LEFT:  2.00D  GRAD.:    16.296 HEAT:  42.87954
 CYCLE:   385 TIME:   0.543 TIME LEFT:  2.00D  GRAD.:    26.030 HEAT:  42.87617
 CYCLE:   386 TIME:   0.488 TIME LEFT:  2.00D  GRAD.:     8.597 HEAT:  42.87171
 CYCLE:   387 TIME:   0.555 TIME LEFT:  2.00D  GRAD.:     8.582 HEAT:  42.87015
 CYCLE:   388 TIME:   0.539 TIME LEFT:  2.00D  GRAD.:    11.897 HEAT:  42.86642
 CYCLE:   389 TIME:   0.703 TIME LEFT:  2.00D  GRAD.:    15.298 HEAT:  42.85943
 CYCLE:   390 TIME:   0.846 TIME LEFT:  2.00D  GRAD.:    19.275 HEAT:  42.85157
 CYCLE:   391 TIME:   0.604 TIME LEFT:  2.00D  GRAD.:    19.186 HEAT:  42.85057
 CYCLE:   392 TIME:   0.580 TIME LEFT:  2.00D  GRAD.:    12.302 HEAT:  42.84476
 CYCLE:   393 TIME:   0.805 TIME LEFT:  2.00D  GRAD.:     7.431 HEAT:  42.84192
 CYCLE:   394 TIME:   0.566 TIME LEFT:  2.00D  GRAD.:    17.845 HEAT:  42.83976
 CYCLE:   395 TIME:   0.492 TIME LEFT:  2.00D  GRAD.:    13.421 HEAT:  42.83791
 CYCLE:   396 TIME:   0.568 TIME LEFT:  2.00D  GRAD.:    11.324 HEAT:  42.83460
 CYCLE:   397 TIME:   0.604 TIME LEFT:  2.00D  GRAD.:    20.027 HEAT:  42.83693
 CYCLE:   398 TIME:   0.795 TIME LEFT:  2.00D  GRAD.:     9.267 HEAT:  42.82907
 CYCLE:   399 TIME:   0.598 TIME LEFT:  2.00D  GRAD.:     6.920 HEAT:  42.82731
 CYCLE:   400 TIME:   0.559 TIME LEFT:  2.00D  GRAD.:    30.823 HEAT:  42.82756
 CYCLE:   401 TIME:   0.758 TIME LEFT:  2.00D  GRAD.:    12.710 HEAT:  42.82361
 CYCLE:   402 TIME:   0.543 TIME LEFT:  2.00D  GRAD.:     5.779 HEAT:  42.82061
 CYCLE:   403 TIME:   0.596 TIME LEFT:  2.00D  GRAD.:     7.737 HEAT:  42.81983
 CYCLE:   404 TIME:   0.539 TIME LEFT:  2.00D  GRAD.:    13.660 HEAT:  42.81528
 CYCLE:   405 TIME:   0.699 TIME LEFT:  2.00D  GRAD.:    19.777 HEAT:  42.81467
 CYCLE:   406 TIME:   0.574 TIME LEFT:  2.00D  GRAD.:    24.204 HEAT:  42.81603
 CYCLE:   407 TIME:   0.639 TIME LEFT:  2.00D  GRAD.:     7.396 HEAT:  42.80692
 CYCLE:   408 TIME:   0.525 TIME LEFT:  2.00D  GRAD.:     6.241 HEAT:  42.80547
 CYCLE:   409 TIME:   0.605 TIME LEFT:  2.00D  GRAD.:    49.829 HEAT:  42.81549
 CYCLE:   410 TIME:   0.525 TIME LEFT:  2.00D  GRAD.:     7.166 HEAT:  42.79912
 CYCLE:   411 TIME:   0.510 TIME LEFT:  2.00D  GRAD.:     5.700 HEAT:  42.79769
 CYCLE:   412 TIME:   0.594 TIME LEFT:  2.00D  GRAD.:    13.000 HEAT:  42.79422
 CYCLE:   413 TIME:   0.516 TIME LEFT:  2.00D  GRAD.:    12.797 HEAT:  42.79266
 CYCLE:   414 TIME:   0.682 TIME LEFT:  2.00D  GRAD.:     8.047 HEAT:  42.79131
 CYCLE:   415 TIME:   0.707 TIME LEFT:  2.00D  GRAD.:    14.238 HEAT:  42.78934
 CYCLE:   416 TIME:   0.572 TIME LEFT:  2.00D  GRAD.:     8.733 HEAT:  42.78687
 CYCLE:   417 TIME:   0.545 TIME LEFT:  2.00D  GRAD.:    13.968 HEAT:  42.78678
 CYCLE:   418 TIME:   0.547 TIME LEFT:  2.00D  GRAD.:     4.604 HEAT:  42.78425
 CYCLE:   419 TIME:   0.574 TIME LEFT:  2.00D  GRAD.:     8.266 HEAT:  42.78316
 CYCLE:   420 TIME:   0.484 TIME LEFT:  2.00D  GRAD.:    10.379 HEAT:  42.78100
 CYCLE:   421 TIME:   0.477 TIME LEFT:  2.00D  GRAD.:    11.750 HEAT:  42.77600
 CYCLE:   422 TIME:   0.518 TIME LEFT:  2.00D  GRAD.:     8.701 HEAT:  42.77403
 CYCLE:   423 TIME:   0.689 TIME LEFT:  2.00D  GRAD.:    11.795 HEAT:  42.76953
 CYCLE:   424 TIME:   0.646 TIME LEFT:  2.00D  GRAD.:     8.300 HEAT:  42.76694
 CYCLE:   425 TIME:   0.678 TIME LEFT:  2.00D  GRAD.:     5.530 HEAT:  42.76533
 CYCLE:   426 TIME:   0.693 TIME LEFT:  2.00D  GRAD.:     5.617 HEAT:  42.76263
 CYCLE:   427 TIME:   0.732 TIME LEFT:  2.00D  GRAD.:    27.788 HEAT:  42.76247
 CYCLE:   428 TIME:   0.580 TIME LEFT:  2.00D  GRAD.:     7.869 HEAT:  42.75892
 CYCLE:   429 TIME:   0.703 TIME LEFT:  2.00D  GRAD.:     4.840 HEAT:  42.75741
 CYCLE:   430 TIME:   0.846 TIME LEFT:  2.00D  GRAD.:    10.202 HEAT:  42.75517
 CYCLE:   431 TIME:   0.670 TIME LEFT:  2.00D  GRAD.:    10.668 HEAT:  42.75360
 CYCLE:   432 TIME:   0.611 TIME LEFT:  2.00D  GRAD.:    12.559 HEAT:  42.75101
 CYCLE:   433 TIME:   0.588 TIME LEFT:  2.00D  GRAD.:     9.872 HEAT:  42.74681
 CYCLE:   434 TIME:   0.713 TIME LEFT:  2.00D  GRAD.:     6.142 HEAT:  42.74464
 CYCLE:   435 TIME:   0.650 TIME LEFT:  2.00D  GRAD.:    12.175 HEAT:  42.74231
 CYCLE:   436 TIME:   0.770 TIME LEFT:  2.00D  GRAD.:    13.920 HEAT:  42.73973
 CYCLE:   437 TIME:   0.562 TIME LEFT:  2.00D  GRAD.:    14.505 HEAT:  42.73576
 CYCLE:   438 TIME:   0.652 TIME LEFT:  2.00D  GRAD.:    16.914 HEAT:  42.73483
 CYCLE:   439 TIME:   0.562 TIME LEFT:  2.00D  GRAD.:     5.005 HEAT:  42.73293
 CYCLE:   440 TIME:   0.510 TIME LEFT:  2.00D  GRAD.:     4.550 HEAT:  42.73230
 CYCLE:   441 TIME:   0.570 TIME LEFT:  2.00D  GRAD.:     6.420 HEAT:  42.73108
 CYCLE:   442 TIME:   0.652 TIME LEFT:  2.00D  GRAD.:     7.631 HEAT:  42.72759
 CYCLE:   443 TIME:   0.592 TIME LEFT:  2.00D  GRAD.:    42.406 HEAT:  42.72936
 CYCLE:   444 TIME:   0.521 TIME LEFT:  2.00D  GRAD.:    12.889 HEAT:  42.72346
 CYCLE:   445 TIME:   0.480 TIME LEFT:  2.00D  GRAD.:     6.325 HEAT:  42.72167
 CYCLE:   446 TIME:   0.494 TIME LEFT:  2.00D  GRAD.:     7.727 HEAT:  42.71915
 CYCLE:   447 TIME:   0.535 TIME LEFT:  2.00D  GRAD.:     8.500 HEAT:  42.71777
 CYCLE:   448 TIME:   0.633 TIME LEFT:  2.00D  GRAD.:    13.031 HEAT:  42.71753
 CYCLE:   449 TIME:   0.539 TIME LEFT:  2.00D  GRAD.:    16.874 HEAT:  42.71497
 CYCLE:   450 TIME:   0.680 TIME LEFT:  2.00D  GRAD.:     4.632 HEAT:  42.71211
 CYCLE:   451 TIME:   0.748 TIME LEFT:  2.00D  GRAD.:     7.404 HEAT:  42.71064
 CYCLE:   452 TIME:   0.695 TIME LEFT:  2.00D  GRAD.:    11.219 HEAT:  42.70888
 CYCLE:   453 TIME:   0.607 TIME LEFT:  2.00D  GRAD.:     9.130 HEAT:  42.70677
 CYCLE:   454 TIME:   0.633 TIME LEFT:  2.00D  GRAD.:     5.153 HEAT:  42.70562
 CYCLE:   455 TIME:   0.656 TIME LEFT:  2.00D  GRAD.:     5.873 HEAT:  42.70440
 CYCLE:   456 TIME:   0.660 TIME LEFT:  2.00D  GRAD.:     7.060 HEAT:  42.70282
 CYCLE:   457 TIME:   0.682 TIME LEFT:  2.00D  GRAD.:    10.451 HEAT:  42.69924
 CYCLE:   458 TIME:   0.639 TIME LEFT:  2.00D  GRAD.:    53.684 HEAT:  42.71104
 CYCLE:   459 TIME:   0.570 TIME LEFT:  2.00D  GRAD.:     6.618 HEAT:  42.69589
 CYCLE:   460 TIME:   0.576 TIME LEFT:  2.00D  GRAD.:     5.679 HEAT:  42.69521
 CYCLE:   461 TIME:   0.533 TIME LEFT:  2.00D  GRAD.:     5.439 HEAT:  42.69246
 CYCLE:   462 TIME:   0.537 TIME LEFT:  2.00D  GRAD.:     5.015 HEAT:  42.68934
 CYCLE:   463 TIME:   0.639 TIME LEFT:  2.00D  GRAD.:    12.692 HEAT:  42.68832
 CYCLE:   464 TIME:   0.627 TIME LEFT:  2.00D  GRAD.:     5.747 HEAT:  42.68666
 CYCLE:   465 TIME:   0.521 TIME LEFT:  2.00D  GRAD.:     4.756 HEAT:  42.68555
 CYCLE:   466 TIME:   0.484 TIME LEFT:  2.00D  GRAD.:     4.809 HEAT:  42.68462
 CYCLE:   467 TIME:   0.637 TIME LEFT:  2.00D  GRAD.:     6.582 HEAT:  42.68355
 CYCLE:   468 TIME:   0.541 TIME LEFT:  2.00D  GRAD.:    17.195 HEAT:  42.68317
 CYCLE:   469 TIME:   0.533 TIME LEFT:  2.00D  GRAD.:     4.565 HEAT:  42.68144
 CYCLE:   470 TIME:   0.635 TIME LEFT:  2.00D  GRAD.:     3.992 HEAT:  42.68065
 CYCLE:   471 TIME:   0.473 TIME LEFT:  2.00D  GRAD.:     8.554 HEAT:  42.67928
 CYCLE:   472 TIME:   0.504 TIME LEFT:  2.00D  GRAD.:    12.978 HEAT:  42.67816
 CYCLE:   473 TIME:   0.627 TIME LEFT:  2.00D  GRAD.:     8.637 HEAT:  42.67601
 CYCLE:   474 TIME:   0.496 TIME LEFT:  2.00D  GRAD.:     4.692 HEAT:  42.67404
 CYCLE:   475 TIME:   0.580 TIME LEFT:  2.00D  GRAD.:     6.390 HEAT:  42.67259
 CYCLE:   476 TIME:   0.756 TIME LEFT:  2.00D  GRAD.:     8.026 HEAT:  42.67069
 CYCLE:   477 TIME:   0.627 TIME LEFT:  2.00D  GRAD.:     7.381 HEAT:  42.66785
 CYCLE:   478 TIME:   0.564 TIME LEFT:  2.00D  GRAD.:    12.451 HEAT:  42.66605
 CYCLE:   479 TIME:   0.510 TIME LEFT:  2.00D  GRAD.:     8.280 HEAT:  42.66444
 CYCLE:   480 TIME:   0.516 TIME LEFT:  2.00D  GRAD.:     4.932 HEAT:  42.66360
 CYCLE:   481 TIME:   0.691 TIME LEFT:  2.00D  GRAD.:     4.471 HEAT:  42.66274
 CYCLE:   482 TIME:   0.643 TIME LEFT:  2.00D  GRAD.:     4.419 HEAT:  42.66098
 CYCLE:   483 TIME:   0.736 TIME LEFT:  2.00D  GRAD.:    11.756 HEAT:  42.65830
 CYCLE:   484 TIME:   0.664 TIME LEFT:  2.00D  GRAD.:     7.716 HEAT:  42.65673
 CYCLE:   485 TIME:   0.650 TIME LEFT:  2.00D  GRAD.:     5.896 HEAT:  42.65578
 CYCLE:   486 TIME:   0.652 TIME LEFT:  2.00D  GRAD.:     2.911 HEAT:  42.65543
 CYCLE:   487 TIME:   0.699 TIME LEFT:  2.00D  GRAD.:     4.230 HEAT:  42.65435
 CYCLE:   488 TIME:   0.629 TIME LEFT:  2.00D  GRAD.:     9.844 HEAT:  42.65270
 CYCLE:   489 TIME:   0.580 TIME LEFT:  2.00D  GRAD.:    19.288 HEAT:  42.65374
 CYCLE:   490 TIME:   0.688 TIME LEFT:  2.00D  GRAD.:     4.550 HEAT:  42.65136
 CYCLE:   491 TIME:   0.609 TIME LEFT:  2.00D  GRAD.:     3.782 HEAT:  42.65095
 CYCLE:   492 TIME:   0.662 TIME LEFT:  2.00D  GRAD.:     6.008 HEAT:  42.64902
 CYCLE:   493 TIME:   0.621 TIME LEFT:  2.00D  GRAD.:     6.769 HEAT:  42.64712
 CYCLE:   494 TIME:   0.766 TIME LEFT:  2.00D  GRAD.:    31.705 HEAT:  42.64989
 CYCLE:   495 TIME:   0.566 TIME LEFT:  2.00D  GRAD.:     5.794 HEAT:  42.64402
 CYCLE:   496 TIME:   0.500 TIME LEFT:  2.00D  GRAD.:     4.305 HEAT:  42.64316
 CYCLE:   497 TIME:   0.682 TIME LEFT:  2.00D  GRAD.:     8.545 HEAT:  42.64450
 CYCLE:   498 TIME:   0.627 TIME LEFT:  2.00D  GRAD.:    18.049 HEAT:  42.64157
 CYCLE:   499 TIME:   0.629 TIME LEFT:  2.00D  GRAD.:     5.873 HEAT:  42.63984
 CYCLE:   500 TIME:   0.561 TIME LEFT:  2.00D  GRAD.:     4.616 HEAT:  42.63908
 CYCLE:   501 TIME:   0.658 TIME LEFT:  2.00D  GRAD.:     5.583 HEAT:  42.63728
 CYCLE:   502 TIME:   0.635 TIME LEFT:  2.00D  GRAD.:     8.667 HEAT:  42.63440
 CYCLE:   503 TIME:   0.646 TIME LEFT:  2.00D  GRAD.:    20.008 HEAT:  42.63451
 CYCLE:   504 TIME:   0.516 TIME LEFT:  2.00D  GRAD.:     4.512 HEAT:  42.63159
 CYCLE:   505 TIME:   0.445 TIME LEFT:  2.00D  GRAD.:     4.200 HEAT:  42.63107
 CYCLE:   506 TIME:   0.570 TIME LEFT:  2.00D  GRAD.:    22.677 HEAT:  42.63606
 CYCLE:   507 TIME:   0.531 TIME LEFT:  2.00D  GRAD.:     7.543 HEAT:  42.63096
 CYCLE:   508 TIME:   0.705 TIME LEFT:  2.00D  GRAD.:     3.581 HEAT:  42.62899
 CYCLE:   509 TIME:   0.674 TIME LEFT:  2.00D  GRAD.:     4.544 HEAT:  42.62825
 CYCLE:   510 TIME:   0.625 TIME LEFT:  2.00D  GRAD.:     5.581 HEAT:  42.62599
 CYCLE:   511 TIME:   0.656 TIME LEFT:  2.00D  GRAD.:    17.598 HEAT:  42.62577
 CYCLE:   512 TIME:   0.580 TIME LEFT:  2.00D  GRAD.:     6.792 HEAT:  42.62402
 CYCLE:   513 TIME:   0.482 TIME LEFT:  2.00D  GRAD.:     4.257 HEAT:  42.62351
 CYCLE:   514 TIME:   0.676 TIME LEFT:  2.00D  GRAD.:     3.236 HEAT:  42.62249
 CYCLE:   515 TIME:   0.676 TIME LEFT:  2.00D  GRAD.:     4.897 HEAT:  42.62151
 CYCLE:   516 TIME:   0.709 TIME LEFT:  2.00D  GRAD.:     4.521 HEAT:  42.62054
 CYCLE:   517 TIME:   0.715 TIME LEFT:  2.00D  GRAD.:    21.827 HEAT:  42.62173
 CYCLE:   518 TIME:   0.727 TIME LEFT:  2.00D  GRAD.:     3.817 HEAT:  42.61914
 CYCLE:   519 TIME:   0.654 TIME LEFT:  2.00D  GRAD.:     2.460 HEAT:  42.61869
 CYCLE:   520 TIME:   0.570 TIME LEFT:  2.00D  GRAD.:     9.679 HEAT:  42.61762
 CYCLE:   521 TIME:   0.629 TIME LEFT:  2.00D  GRAD.:     3.960 HEAT:  42.61631
 CYCLE:   522 TIME:   0.521 TIME LEFT:  2.00D  GRAD.:     3.300 HEAT:  42.61567
 CYCLE:   523 TIME:   0.658 TIME LEFT:  2.00D  GRAD.:     4.146 HEAT:  42.61502
 CYCLE:   524 TIME:   0.762 TIME LEFT:  2.00D  GRAD.:     4.144 HEAT:  42.61398
 CYCLE:   525 TIME:   0.686 TIME LEFT:  2.00D  GRAD.:    20.349 HEAT:  42.61380
 CYCLE:   526 TIME:   0.551 TIME LEFT:  2.00D  GRAD.:     3.757 HEAT:  42.61238
 CYCLE:   527 TIME:   0.584 TIME LEFT:  2.00D  GRAD.:    28.064 HEAT:  42.61569
 CYCLE:   528 TIME:   0.518 TIME LEFT:  2.00D  GRAD.:     2.879 HEAT:  42.61200
 CYCLE:   529 TIME:   0.533 TIME LEFT:  2.00D  GRAD.:     3.888 HEAT:  42.61182
 CYCLE:   530 TIME:   0.549 TIME LEFT:  2.00D  GRAD.:     3.773 HEAT:  42.61117
 CYCLE:   531 TIME:   0.688 TIME LEFT:  2.00D  GRAD.:     3.732 HEAT:  42.61010
 CYCLE:   532 TIME:   0.721 TIME LEFT:  2.00D  GRAD.:    36.940 HEAT:  42.61842
 CYCLE:   533 TIME:   0.566 TIME LEFT:  2.00D  GRAD.:    21.154 HEAT:  42.61281
 CYCLE:   534 TIME:   0.793 TIME LEFT:  2.00D  GRAD.:     2.986 HEAT:  42.60923
 CYCLE:   535 TIME:   0.637 TIME LEFT:  2.00D  GRAD.:     3.068 HEAT:  42.60900
 CYCLE:   536 TIME:   0.562 TIME LEFT:  2.00D  GRAD.:     8.245 HEAT:  42.60768
 CYCLE:   537 TIME:   0.561 TIME LEFT:  2.00D  GRAD.:     7.867 HEAT:  42.60694
 CYCLE:   538 TIME:   0.623 TIME LEFT:  2.00D  GRAD.:     3.718 HEAT:  42.60633
 CYCLE:   539 TIME:   0.695 TIME LEFT:  2.00D  GRAD.:     2.786 HEAT:  42.60592
 CYCLE:   540 TIME:   0.639 TIME LEFT:  2.00D  GRAD.:     4.048 HEAT:  42.60556
 CYCLE:   541 TIME:   0.648 TIME LEFT:  2.00D  GRAD.:     4.748 HEAT:  42.60467
 CYCLE:   542 TIME:   0.723 TIME LEFT:  2.00D  GRAD.:    29.818 HEAT:  42.60528
 CYCLE:   543 TIME:   0.641 TIME LEFT:  2.00D  GRAD.:     5.839 HEAT:  42.60246
 CYCLE:   544 TIME:   0.654 TIME LEFT:  2.00D  GRAD.:    10.564 HEAT:  42.60277
 CYCLE:   545 TIME:   0.494 TIME LEFT:  2.00D  GRAD.:    12.659 HEAT:  42.60064
 CYCLE:   546 TIME:   0.480 TIME LEFT:  2.00D  GRAD.:     5.217 HEAT:  42.59929
 CYCLE:   547 TIME:   0.490 TIME LEFT:  2.00D  GRAD.:     5.175 HEAT:  42.59837
 CYCLE:   548 TIME:   0.648 TIME LEFT:  2.00D  GRAD.:     6.848 HEAT:  42.59730
 CYCLE:   549 TIME:   0.775 TIME LEFT:  2.00D  GRAD.:     6.839 HEAT:  42.59656
 CYCLE:   550 TIME:   0.689 TIME LEFT:  2.00D  GRAD.:    37.283 HEAT:  42.60081
 CYCLE:   551 TIME:   0.648 TIME LEFT:  2.00D  GRAD.:     5.472 HEAT:  42.59581
 CYCLE:   552 TIME:   0.592 TIME LEFT:  2.00D  GRAD.:     4.472 HEAT:  42.59557
 CYCLE:   553 TIME:   0.777 TIME LEFT:  2.00D  GRAD.:    49.145 HEAT:  42.60408
 CYCLE:   554 TIME:   0.770 TIME LEFT:  2.00D  GRAD.:     4.160 HEAT:  42.59410
 CYCLE:   555 TIME:   0.643 TIME LEFT:  2.00D  GRAD.:     5.067 HEAT:  42.59342
 CYCLE:   556 TIME:   0.719 TIME LEFT:  2.00D  GRAD.:     7.225 HEAT:  42.59272
 CYCLE:   557 TIME:   0.576 TIME LEFT:  2.00D  GRAD.:     3.644 HEAT:  42.59216
 CYCLE:   558 TIME:   0.645 TIME LEFT:  2.00D  GRAD.:     2.830 HEAT:  42.59135
 CYCLE:   559 TIME:   0.531 TIME LEFT:  2.00D  GRAD.:     8.403 HEAT:  42.59092
 CYCLE:   560 TIME:   0.574 TIME LEFT:  2.00D  GRAD.:     3.375 HEAT:  42.58998
 CYCLE:   561 TIME:   0.529 TIME LEFT:  2.00D  GRAD.:     2.323 HEAT:  42.58930
 CYCLE:   562 TIME:   0.527 TIME LEFT:  2.00D  GRAD.:     3.156 HEAT:  42.58861
 CYCLE:   563 TIME:   0.492 TIME LEFT:  2.00D  GRAD.:     2.897 HEAT:  42.58778
 CYCLE:   564 TIME:   0.631 TIME LEFT:  2.00D  GRAD.:    21.947 HEAT:  42.58928
 CYCLE:   565 TIME:   0.531 TIME LEFT:  2.00D  GRAD.:     3.116 HEAT:  42.58660
 CYCLE:   566 TIME:   0.717 TIME LEFT:  2.00D  GRAD.:     2.855 HEAT:  42.58633
 CYCLE:   567 TIME:   0.631 TIME LEFT:  2.00D  GRAD.:     3.890 HEAT:  42.58549
 CYCLE:   568 TIME:   0.627 TIME LEFT:  2.00D  GRAD.:    23.973 HEAT:  42.58605
 CYCLE:   569 TIME:   0.527 TIME LEFT:  2.00D  GRAD.:     5.263 HEAT:  42.58398
 CYCLE:   570 TIME:   0.549 TIME LEFT:  2.00D  GRAD.:     3.573 HEAT:  42.58344
 CYCLE:   571 TIME:   0.609 TIME LEFT:  2.00D  GRAD.:     7.547 HEAT:  42.58243
 CYCLE:   572 TIME:   0.678 TIME LEFT:  2.00D  GRAD.:     6.249 HEAT:  42.58178
 CYCLE:   573 TIME:   0.582 TIME LEFT:  2.00D  GRAD.:     6.862 HEAT:  42.58037
 CYCLE:   574 TIME:   0.553 TIME LEFT:  2.00D  GRAD.:     5.156 HEAT:  42.57945
 CYCLE:   575 TIME:   0.539 TIME LEFT:  2.00D  GRAD.:     2.380 HEAT:  42.57857
 CYCLE:   576 TIME:   0.652 TIME LEFT:  2.00D  GRAD.:     3.944 HEAT:  42.57801
 CYCLE:   577 TIME:   0.619 TIME LEFT:  2.00D  GRAD.:     5.360 HEAT:  42.57738
 CYCLE:   578 TIME:   0.607 TIME LEFT:  2.00D  GRAD.:     5.536 HEAT:  42.57637
 CYCLE:   579 TIME:   0.646 TIME LEFT:  2.00D  GRAD.:     8.557 HEAT:  42.57581
 CYCLE:   580 TIME:   0.721 TIME LEFT:  2.00D  GRAD.:     3.239 HEAT:  42.57488
 CYCLE:   581 TIME:   0.609 TIME LEFT:  2.00D  GRAD.:     5.609 HEAT:  42.57420
 CYCLE:   582 TIME:   0.479 TIME LEFT:  2.00D  GRAD.:     4.911 HEAT:  42.57341
 CYCLE:   583 TIME:   0.637 TIME LEFT:  2.00D  GRAD.:    14.570 HEAT:  42.57326
 CYCLE:   584 TIME:   0.600 TIME LEFT:  2.00D  GRAD.:     4.178 HEAT:  42.57213
 CYCLE:   585 TIME:   0.486 TIME LEFT:  2.00D  GRAD.:     2.574 HEAT:  42.57198
 CYCLE:   586 TIME:   0.461 TIME LEFT:  2.00D  GRAD.:     2.234 HEAT:  42.57175
 CYCLE:   587 TIME:   0.498 TIME LEFT:  2.00D  GRAD.:     2.528 HEAT:  42.57091
 CYCLE:   588 TIME:   0.518 TIME LEFT:  2.00D  GRAD.:     7.029 HEAT:  42.57047
 CYCLE:   589 TIME:   0.490 TIME LEFT:  2.00D  GRAD.:     3.738 HEAT:  42.56955
 CYCLE:   590 TIME:   0.498 TIME LEFT:  2.00D  GRAD.:     3.526 HEAT:  42.56888
 CYCLE:   591 TIME:   0.609 TIME LEFT:  2.00D  GRAD.:     3.742 HEAT:  42.56746
 CYCLE:   592 TIME:   0.488 TIME LEFT:  2.00D  GRAD.:     6.044 HEAT:  42.56637
 CYCLE:   593 TIME:   0.498 TIME LEFT:  2.00D  GRAD.:     5.585 HEAT:  42.56474
 CYCLE:   594 TIME:   0.510 TIME LEFT:  2.00D  GRAD.:     8.625 HEAT:  42.56388
 CYCLE:   595 TIME:   0.713 TIME LEFT:  2.00D  GRAD.:     4.079 HEAT:  42.56282
 CYCLE:   596 TIME:   0.596 TIME LEFT:  2.00D  GRAD.:     4.208 HEAT:  42.56218
 CYCLE:   597 TIME:   0.506 TIME LEFT:  2.00D  GRAD.:     6.723 HEAT:  42.56093
 CYCLE:   598 TIME:   0.535 TIME LEFT:  2.00D  GRAD.:    24.931 HEAT:  42.56158
 CYCLE:   599 TIME:   0.660 TIME LEFT:  2.00D  GRAD.:     6.981 HEAT:  42.55953
 CYCLE:   600 TIME:   0.570 TIME LEFT:  2.00D  GRAD.:     3.948 HEAT:  42.55907
 CYCLE:   601 TIME:   0.621 TIME LEFT:  2.00D  GRAD.:     5.705 HEAT:  42.55874
 CYCLE:   602 TIME:   0.646 TIME LEFT:  2.00D  GRAD.:     5.157 HEAT:  42.55778
 CYCLE:   603 TIME:   0.793 TIME LEFT:  2.00D  GRAD.:    13.911 HEAT:  42.55488
 CYCLE:   604 TIME:   0.705 TIME LEFT:  2.00D  GRAD.:     8.939 HEAT:  42.55372
 CYCLE:   605 TIME:   0.594 TIME LEFT:  2.00D  GRAD.:     4.197 HEAT:  42.55286
 CYCLE:   606 TIME:   0.588 TIME LEFT:  2.00D  GRAD.:     3.196 HEAT:  42.55221
 CYCLE:   607 TIME:   0.613 TIME LEFT:  2.00D  GRAD.:     4.710 HEAT:  42.55090
 CYCLE:   608 TIME:   0.625 TIME LEFT:  2.00D  GRAD.:     5.654 HEAT:  42.54991
 CYCLE:   609 TIME:   0.486 TIME LEFT:  2.00D  GRAD.:     6.454 HEAT:  42.54928
 CYCLE:   610 TIME:   0.631 TIME LEFT:  2.00D  GRAD.:     3.267 HEAT:  42.54850
 CYCLE:   611 TIME:   0.723 TIME LEFT:  2.00D  GRAD.:     6.443 HEAT:  42.54753
 CYCLE:   612 TIME:   0.689 TIME LEFT:  2.00D  GRAD.:     7.774 HEAT:  42.54657
 CYCLE:   613 TIME:   0.555 TIME LEFT:  2.00D  GRAD.:    24.724 HEAT:  42.54669
 CYCLE:   614 TIME:   0.590 TIME LEFT:  2.00D  GRAD.:     4.060 HEAT:  42.54423
 CYCLE:   615 TIME:   0.619 TIME LEFT:  2.00D  GRAD.:     3.433 HEAT:  42.54390
 CYCLE:   616 TIME:   0.664 TIME LEFT:  2.00D  GRAD.:     5.947 HEAT:  42.54326
 CYCLE:   617 TIME:   0.623 TIME LEFT:  2.00D  GRAD.:     6.013 HEAT:  42.54251
 CYCLE:   618 TIME:   0.646 TIME LEFT:  2.00D  GRAD.:     5.547 HEAT:  42.54080
 CYCLE:   619 TIME:   0.547 TIME LEFT:  2.00D  GRAD.:    21.306 HEAT:  42.54411
 CYCLE:   620 TIME:   0.658 TIME LEFT:  2.00D  GRAD.:    11.894 HEAT:  42.54156
 CYCLE:   621 TIME:   0.648 TIME LEFT:  2.00D  GRAD.:     7.702 HEAT:  42.53943
 CYCLE:   622 TIME:   0.590 TIME LEFT:  2.00D  GRAD.:     3.354 HEAT:  42.53874
 CYCLE:   623 TIME:   0.629 TIME LEFT:  2.00D  GRAD.:     2.983 HEAT:  42.53831
 CYCLE:   624 TIME:   0.525 TIME LEFT:  2.00D  GRAD.:     4.540 HEAT:  42.53745
 CYCLE:   625 TIME:   0.629 TIME LEFT:  2.00D  GRAD.:     6.117 HEAT:  42.53632
 CYCLE:   626 TIME:   0.549 TIME LEFT:  2.00D  GRAD.:    14.640 HEAT:  42.53590
 CYCLE:   627 TIME:   0.623 TIME LEFT:  2.00D  GRAD.:     4.660 HEAT:  42.53489
 CYCLE:   628 TIME:   0.504 TIME LEFT:  2.00D  GRAD.:     4.697 HEAT:  42.53454
 CYCLE:   629 TIME:   0.521 TIME LEFT:  2.00D  GRAD.:     4.773 HEAT:  42.53370
 CYCLE:   630 TIME:   0.783 TIME LEFT:  2.00D  GRAD.:    10.907 HEAT:  42.53278
 CYCLE:   631 TIME:   0.631 TIME LEFT:  2.00D  GRAD.:     5.164 HEAT:  42.53172
 CYCLE:   632 TIME:   0.586 TIME LEFT:  2.00D  GRAD.:     6.820 HEAT:  42.53071
 CYCLE:   633 TIME:   0.545 TIME LEFT:  2.00D  GRAD.:     7.813 HEAT:  42.52972
 CYCLE:   634 TIME:   0.500 TIME LEFT:  2.00D  GRAD.:     5.425 HEAT:  42.52859
 CYCLE:   635 TIME:   0.564 TIME LEFT:  2.00D  GRAD.:     3.458 HEAT:  42.52755
 CYCLE:   636 TIME:   0.598 TIME LEFT:  2.00D  GRAD.:     3.837 HEAT:  42.52674
 CYCLE:   637 TIME:   0.617 TIME LEFT:  2.00D  GRAD.:     5.558 HEAT:  42.52529
 CYCLE:   638 TIME:   0.686 TIME LEFT:  2.00D  GRAD.:    11.052 HEAT:  42.52526
 CYCLE:   639 TIME:   0.643 TIME LEFT:  2.00D  GRAD.:     3.509 HEAT:  42.52386
 CYCLE:   640 TIME:   0.449 TIME LEFT:  2.00D  GRAD.:     2.913 HEAT:  42.52342
 CYCLE:   641 TIME:   0.594 TIME LEFT:  2.00D  GRAD.:     4.960 HEAT:  42.52294
 CYCLE:   642 TIME:   0.568 TIME LEFT:  2.00D  GRAD.:    10.385 HEAT:  42.52264
 CYCLE:   643 TIME:   0.535 TIME LEFT:  2.00D  GRAD.:     5.717 HEAT:  42.52208
 CYCLE:   644 TIME:   0.664 TIME LEFT:  2.00D  GRAD.:     3.403 HEAT:  42.52149
 CYCLE:   645 TIME:   0.570 TIME LEFT:  2.00D  GRAD.:     3.889 HEAT:  42.52123
 CYCLE:   646 TIME:   0.488 TIME LEFT:  2.00D  GRAD.:     7.335 HEAT:  42.52066
 CYCLE:   647 TIME:   0.545 TIME LEFT:  2.00D  GRAD.:     5.985 HEAT:  42.52039
 CYCLE:   648 TIME:   0.504 TIME LEFT:  2.00D  GRAD.:     2.908 HEAT:  42.51999
 CYCLE:   649 TIME:   0.656 TIME LEFT:  2.00D  GRAD.:     2.522 HEAT:  42.51970
 CYCLE:   650 TIME:   0.730 TIME LEFT:  2.00D  GRAD.:     4.092 HEAT:  42.51901
 CYCLE:   651 TIME:   0.521 TIME LEFT:  2.00D  GRAD.:     5.294 HEAT:  42.51791
 CYCLE:   652 TIME:   0.500 TIME LEFT:  2.00D  GRAD.:     6.628 HEAT:  42.51706
 CYCLE:   653 TIME:   0.508 TIME LEFT:  2.00D  GRAD.:     5.374 HEAT:  42.51601
 CYCLE:   654 TIME:   0.680 TIME LEFT:  2.00D  GRAD.:     6.733 HEAT:  42.51538
 CYCLE:   655 TIME:   0.549 TIME LEFT:  2.00D  GRAD.:     4.674 HEAT:  42.51475
 CYCLE:   656 TIME:   0.551 TIME LEFT:  2.00D  GRAD.:     9.184 HEAT:  42.51438
 CYCLE:   657 TIME:   0.619 TIME LEFT:  2.00D  GRAD.:     3.597 HEAT:  42.51386
 CYCLE:   658 TIME:   0.564 TIME LEFT:  2.00D  GRAD.:     3.732 HEAT:  42.51334
 CYCLE:   659 TIME:   0.537 TIME LEFT:  2.00D  GRAD.:     2.999 HEAT:  42.51303
 CYCLE:   660 TIME:   0.629 TIME LEFT:  2.00D  GRAD.:     3.887 HEAT:  42.51248
 CYCLE:   661 TIME:   0.629 TIME LEFT:  2.00D  GRAD.:    21.667 HEAT:  42.51456
 CYCLE:   662 TIME:   0.480 TIME LEFT:  2.00D  GRAD.:     3.614 HEAT:  42.51175
 CYCLE:   663 TIME:   0.461 TIME LEFT:  2.00D  GRAD.:     2.918 HEAT:  42.51159
 CYCLE:   664 TIME:   0.473 TIME LEFT:  2.00D  GRAD.:     3.013 HEAT:  42.51082
 CYCLE:   665 TIME:   0.482 TIME LEFT:  2.00D  GRAD.:     3.524 HEAT:  42.50995
 CYCLE:   666 TIME:   0.684 TIME LEFT:  2.00D  GRAD.:     3.344 HEAT:  42.50929
 CYCLE:   667 TIME:   0.570 TIME LEFT:  2.00D  GRAD.:     4.043 HEAT:  42.50835
 CYCLE:   668 TIME:   0.666 TIME LEFT:  2.00D  GRAD.:     3.353 HEAT:  42.50722
 CYCLE:   669 TIME:   0.480 TIME LEFT:  2.00D  GRAD.:     3.672 HEAT:  42.50624
 CYCLE:   670 TIME:   0.480 TIME LEFT:  2.00D  GRAD.:    30.039 HEAT:  42.50879
 CYCLE:   671 TIME:   0.492 TIME LEFT:  2.00D  GRAD.:    17.484 HEAT:  42.50688
 CYCLE:   672 TIME:   0.494 TIME LEFT:  2.00D  GRAD.:     9.625 HEAT:  42.50521
 CYCLE:   673 TIME:   0.504 TIME LEFT:  2.00D  GRAD.:     5.642 HEAT:  42.50471
 CYCLE:   674 TIME:   0.605 TIME LEFT:  2.00D  GRAD.:    14.221 HEAT:  42.50439
 CYCLE:   675 TIME:   0.561 TIME LEFT:  2.00D  GRAD.:     4.725 HEAT:  42.50373
 CYCLE:   676 TIME:   0.652 TIME LEFT:  2.00D  GRAD.:     3.570 HEAT:  42.50332
 CYCLE:   677 TIME:   0.504 TIME LEFT:  2.00D  GRAD.:     5.095 HEAT:  42.50273
 CYCLE:   678 TIME:   0.668 TIME LEFT:  2.00D  GRAD.:     6.968 HEAT:  42.50216
 CYCLE:   679 TIME:   0.645 TIME LEFT:  2.00D  GRAD.:     3.949 HEAT:  42.50147
 CYCLE:   680 TIME:   0.582 TIME LEFT:  2.00D  GRAD.:     5.436 HEAT:  42.50083
 CYCLE:   681 TIME:   0.477 TIME LEFT:  2.00D  GRAD.:     5.242 HEAT:  42.49994
 CYCLE:   682 TIME:   0.736 TIME LEFT:  2.00D  GRAD.:     3.538 HEAT:  42.49901
 CYCLE:   683 TIME:   0.646 TIME LEFT:  2.00D  GRAD.:     4.013 HEAT:  42.49826
 CYCLE:   684 TIME:   0.602 TIME LEFT:  2.00D  GRAD.:     3.361 HEAT:  42.49780
 CYCLE:   685 TIME:   0.656 TIME LEFT:  2.00D  GRAD.:     4.757 HEAT:  42.49692
 CYCLE:   686 TIME:   0.584 TIME LEFT:  2.00D  GRAD.:     3.693 HEAT:  42.49613
 CYCLE:   687 TIME:   0.652 TIME LEFT:  2.00D  GRAD.:     3.934 HEAT:  42.49489
 CYCLE:   688 TIME:   0.635 TIME LEFT:  2.00D  GRAD.:    31.481 HEAT:  42.49877
 CYCLE:   689 TIME:   0.697 TIME LEFT:  2.00D  GRAD.:     3.067 HEAT:  42.49400
 CYCLE:   690 TIME:   0.623 TIME LEFT:  2.00D  GRAD.:     2.574 HEAT:  42.49371
 CYCLE:   691 TIME:   0.607 TIME LEFT:  2.00D  GRAD.:     5.473 HEAT:  42.49279
 CYCLE:   692 TIME:   0.570 TIME LEFT:  2.00D  GRAD.:    11.541 HEAT:  42.49266
 CYCLE:   693 TIME:   0.467 TIME LEFT:  2.00D  GRAD.:     2.976 HEAT:  42.49182
 CYCLE:   694 TIME:   0.482 TIME LEFT:  2.00D  GRAD.:     2.716 HEAT:  42.49168
 CYCLE:   695 TIME:   0.572 TIME LEFT:  2.00D  GRAD.:     5.113 HEAT:  42.49085
 CYCLE:   696 TIME:   0.555 TIME LEFT:  2.00D  GRAD.:    10.329 HEAT:  42.49059
 CYCLE:   697 TIME:   0.539 TIME LEFT:  2.00D  GRAD.:     3.451 HEAT:  42.48987
 CYCLE:   698 TIME:   0.682 TIME LEFT:  2.00D  GRAD.:     2.809 HEAT:  42.48944
 CYCLE:   699 TIME:   0.588 TIME LEFT:  2.00D  GRAD.:     3.801 HEAT:  42.48873
 CYCLE:   700 TIME:   0.646 TIME LEFT:  2.00D  GRAD.:     3.967 HEAT:  42.48752
 CYCLE:   701 TIME:   0.660 TIME LEFT:  2.00D  GRAD.:     9.058 HEAT:  42.48640
 CYCLE:   702 TIME:   0.566 TIME LEFT:  2.00D  GRAD.:     6.933 HEAT:  42.48453
 CYCLE:   703 TIME:   0.664 TIME LEFT:  2.00D  GRAD.:     8.476 HEAT:  42.48350
 CYCLE:   704 TIME:   0.619 TIME LEFT:  2.00D  GRAD.:     3.800 HEAT:  42.48266
 CYCLE:   705 TIME:   0.484 TIME LEFT:  2.00D  GRAD.:     5.725 HEAT:  42.48189
 CYCLE:   706 TIME:   0.639 TIME LEFT:  2.00D  GRAD.:     4.609 HEAT:  42.48094
 CYCLE:   707 TIME:   0.658 TIME LEFT:  2.00D  GRAD.:    12.417 HEAT:  42.47980
 CYCLE:   708 TIME:   0.521 TIME LEFT:  2.00D  GRAD.:     4.035 HEAT:  42.47845
 CYCLE:   709 TIME:   0.564 TIME LEFT:  2.00D  GRAD.:     2.764 HEAT:  42.47806
 CYCLE:   710 TIME:   0.652 TIME LEFT:  2.00D  GRAD.:     2.899 HEAT:  42.47722
 CYCLE:   711 TIME:   0.537 TIME LEFT:  2.00D  GRAD.:     8.501 HEAT:  42.47646
 CYCLE:   712 TIME:   0.600 TIME LEFT:  2.00D  GRAD.:     4.325 HEAT:  42.47553
 CYCLE:   713 TIME:   0.656 TIME LEFT:  2.00D  GRAD.:     3.593 HEAT:  42.47480
 CYCLE:   714 TIME:   0.641 TIME LEFT:  2.00D  GRAD.:     3.067 HEAT:  42.47339
 CYCLE:   715 TIME:   0.666 TIME LEFT:  2.00D  GRAD.:     4.860 HEAT:  42.47246
 CYCLE:   716 TIME:   0.592 TIME LEFT:  2.00D  GRAD.:     4.883 HEAT:  42.47095
 CYCLE:   717 TIME:   0.588 TIME LEFT:  2.00D  GRAD.:    27.833 HEAT:  42.47266
 CYCLE:   718 TIME:   0.570 TIME LEFT:  2.00D  GRAD.:     5.795 HEAT:  42.46911
 CYCLE:   719 TIME:   0.471 TIME LEFT:  2.00D  GRAD.:     3.566 HEAT:  42.46842
 CYCLE:   720 TIME:   0.533 TIME LEFT:  1.99D  GRAD.:     3.095 HEAT:  42.46779
 CYCLE:   721 TIME:   0.484 TIME LEFT:  1.99D  GRAD.:     5.966 HEAT:  42.46708
 CYCLE:   722 TIME:   0.490 TIME LEFT:  1.99D  GRAD.:     4.184 HEAT:  42.46627
 CYCLE:   723 TIME:   0.506 TIME LEFT:  1.99D  GRAD.:     3.381 HEAT:  42.46537
 CYCLE:   724 TIME:   0.705 TIME LEFT:  1.99D  GRAD.:     2.740 HEAT:  42.46412
 CYCLE:   725 TIME:   0.602 TIME LEFT:  1.99D  GRAD.:     7.760 HEAT:  42.46245
[...]
  129          H           0.126344        0.8737     0.87366
  130          H           0.121452        0.8785     0.87855
  131          H           0.112416        0.8876     0.88758
  132          H           0.119335        0.8807     0.88067
  133          H           0.123310        0.8767     0.87669
 DIPOLE           X         Y         Z       TOTAL
 POINT-CHG.    -1.519    -2.995    -2.458     4.162
 HYBRID        -0.833     1.274     0.275     1.547
 SUM           -2.352    -1.721    -2.183     3.641


          ATOMIC ORBITAL ELECTRON POPULATIONS

     Atom    s        px        py        pz   
    1  C   1.15574   0.96506   1.02756   1.02875
    2  C   1.16680   0.95235   0.96736   1.02584
    3  C   1.17075   0.95330   0.96949   1.02926
    4  C   1.17072   0.95681   0.96759   1.02844
    5  C   1.17073   0.95335   0.97018   1.02904
    6  C   1.17075   0.95719   0.96660   1.02872
    7  C   1.17074   0.95160   0.97137   1.02979
    8  C   1.17076   0.95917   0.96439   1.02911
    9  C   1.17070   0.94607   0.97404   1.03261
   10  C   1.16954   0.96533   0.95496   1.02904
   11  C   1.17989   0.94931   0.98617   1.05404
   12  C   1.15808   0.93320   0.80788   1.03870
   13  N   1.51878   1.60718   1.10009   1.05739
   14  C   1.15317   0.97413   0.88303   0.86722
   15  C   1.17066   1.08248   0.99994   0.91726
   16  C   1.17736   0.96080   0.92092   0.98537
   17  C   1.14895   1.05415   0.92328   0.91620
   18  C   1.16958   0.96499   0.97847   0.91755
   19  C   1.15868   1.08215   0.93205   0.92558
   20  C   1.15719   1.05911   0.92606   0.92477
   21  C   1.15322   0.99285   0.88433   0.87347
   22  C   1.16941   1.06335   0.99584   0.91395
   23  C   1.17972   1.00151   0.91540   0.99646
   24  C   1.14075   1.05199   0.86108   0.86301
   25  C   1.17256   1.00115   0.98871   0.91342
   26  N   1.47738   1.20061   1.30253   1.27771
   27  C   1.14996   0.87816   0.89136   0.95710
   28  C   1.17208   0.95127   1.02285   1.02769
   29  C   1.17535   0.97975   0.94230   0.96027
   30  C   1.17864   0.96346   0.98274   0.97280
   31  C   1.16980   0.93051   0.96190   0.98152
   32  C   1.15909   0.96180   0.99292   0.97865
   33  C   1.15915   0.95965   0.98621   0.98713
   34  C   1.14984   0.89981   0.95123   0.87510
   35  C   1.17169   0.95337   1.03640   1.01296
   36  C   1.17522   0.98442   0.95544   0.94259
   37  C   1.17860   0.96117   0.97811   0.97979
   38  C   1.16984   0.93785   0.98182   0.95390
   39  C   1.16570   0.92331   0.93184   0.91434
   40  C   1.16147   1.03009   0.96369   1.03076
   41  C   1.16080   0.97975   1.01691   1.02993
   42  C   1.16153   1.00901   1.03433   0.98120
   43  C   1.16571   0.91832   0.91752   0.93366
   44  C   1.16080   0.98491   1.03239   1.00933
   45  C   1.16147   1.02570   1.03159   0.96725
   46  C   1.16153   1.01596   0.97402   1.03445
   47  C   1.21352   1.03118   1.02829   0.99968
   48  C   1.18113   1.00596   0.98848   0.93878
   49  C   1.18175   0.95649   0.95745   0.99790
   50  C   1.20052   1.02983   1.01612   1.02003
   51  S   1.88656   1.29907   1.23322   1.13562
   52  C   1.20193   1.06027   0.97738   1.00265
   53  C   1.18227   1.00145   0.92937   1.00124
   54  C   1.18122   0.98679   0.99396   0.91994
   55  C   1.21501   1.09615   1.02601   0.99450
   56  S   1.88590   1.50789   1.07713   1.05774
   57  C   1.15054   0.92902   0.93998   0.91279
   58  C   1.18071   0.95927   0.98520   0.99498
   59  C   1.17713   0.98480   0.97737   0.92005
   60  C   1.16307   0.98414   1.02701   0.94184
   61  C   1.17800   0.93907   0.94324   0.99142
   62  C   1.18075   1.00384   1.00564   0.93282
   63  C   1.18701   0.85514   0.97941   0.89507
   64  C   1.14291   1.09678   0.91510   0.97196
   65  C   1.18119   0.76488   0.83855   0.81631
   66  O   1.91033   1.47135   1.17558   1.81657
   67  O   1.83987   1.71740   1.48706   1.26572
   68  C   1.19537   0.92283   0.91358   0.92173
   69  N   1.84800   1.09666   1.11160   1.08522
   70  H   0.86293
   71  H   0.94243
   72  H   0.94433
   73  H   0.94241
   74  H   0.94041
   75  H   0.94042
   76  H   0.93790
   77  H   0.93788
   78  H   0.93838
   79  H   0.93839
   80  H   0.93792
   81  H   0.93789
   82  H   0.93812
   83  H   0.93813
   84  H   0.93730
   85  H   0.93725
   86  H   0.93771
   87  H   0.93774
   88  H   0.93515
   89  H   0.93490
   90  H   0.93711
   91  H   0.93726
   92  H   0.91926
   93  H   0.91852
   94  H   0.92028
   95  H   0.92165
   96  H   0.88006
   97  H   0.88960
   98  H   0.88309
   99  H   0.87955
  100  H   0.87492
  101  H   0.86905
  102  H   0.87741
  103  H   0.89409
  104  H   0.88937
  105  H   0.87939
  106  H   0.89464
  107  H   0.88925
  108  H   0.93549
  109  H   0.93964
  110  H   0.94196
  111  H   0.93817
  112  H   0.93957
  113  H   0.93831
  114  H   0.94189
  115  H   0.93976
  116  H   0.93579
  117  H   0.93841
  118  H   0.93776
  119  H   0.93970
  120  H   0.93975
  121  H   0.94200
  122  H   0.93535
  123  H   0.93600
  124  H   0.94201
  125  H   0.93979
  126  H   0.87183
  127  H   0.87246
  128  H   0.86814
  129  H   0.87366
  130  H   0.87855
  131  H   0.88758
  132  H   0.88067
  133  H   0.87669
  134  H   0.75431
 ******************** TDHF POLARIZABILITIES ********************



          MOLECULAR WEIGHT =  948.33



          ROTATIONAL CONSTANTS IN CM(-1)

          A =    0.00068397   B =    0.00027829   C =    0.00020609



           PRINCIPAL MOMENTS OF INERTIA IN UNITS OF 10**(-40)*GRAM-CM**2

          A =    40926.9317   B =   100589.5540   C =   135826.2537


 ROTATION MATRIX FOR ORIENTATION OF MOLECULE:

         0.518963    0.349593   -0.780040
         0.534988    0.578884    0.615370
         0.666682   -0.736666    0.113391


          CARTESIAN COORDINATES 

    NO.       ATOM         X         Y         Z

     1         C      -14.3226  -10.8054    2.2722
     2         C      -13.5338  -10.2741    1.0866
     3         C      -12.4891   -9.2585    1.5427
     4         C      -11.6953   -8.7250    0.3524
     5         C      -10.6514   -7.7088    0.8101
     6         C       -9.8566   -7.1765   -0.3802
     7         C       -8.8133   -6.1596    0.0776
     8         C       -8.0173   -5.6287   -1.1126
     9         C       -6.9753   -4.6107   -0.6542
    10         C       -6.1785   -4.0809   -1.8444
    11         C       -5.1394   -3.0633   -1.3828
    12         C       -4.3452   -2.5393   -2.5884
    13         N       -3.3410   -1.5557   -2.1921
    14         C       -2.0642   -1.8667   -1.6809
    15         C       -1.3446   -3.0577   -1.7516
    16         C       -0.0672   -3.0648   -1.2174
    17         C        0.4889   -1.9190   -0.6263
    18         C       -0.2298   -0.7297   -0.5500
    19         C       -1.5100   -0.7061   -1.0749
    20         C       -2.5104    0.3287   -1.1497
    21         C       -3.6423   -0.2337   -1.7996
    22         C       -4.8004    0.5099   -2.0122
    23         C       -4.8075    1.8272   -1.5858
    24         C       -3.6847    2.3821   -0.9452
    25         C       -2.5247    1.6419   -0.7144
    26         N       -3.7357    3.7323   -0.5241
    27         C       -2.7751    4.7225   -0.8090
    28         C       -1.6088    4.6467   -1.5588
    29         C       -0.8486    5.8022   -1.6794
    30         C       -1.2247    7.0114   -1.0818
    31         C       -2.4066    7.0794   -0.3457
    32         C       -3.1834    5.9433   -0.2085
    33         C       -4.4349    5.6892    0.4631
    34         C       -4.7511    4.3198    0.2554
    35         C       -5.8934    3.7562    0.8081
    36         C       -6.7239    4.5865    1.5488
    37         C       -6.4396    5.9425    1.7504
    38         C       -5.2802    6.4930    1.2061
    39         C       -7.3415    6.8475    2.5492
    40         C       -6.5607    7.3856    3.7518
    41         C       -8.5941    6.1461    3.0777
    42         C       -7.7960    8.0075    1.6582
    43         C       -0.3991    8.2656   -1.2064
    44         C        0.8829    8.0724   -2.0184
    45         C       -1.2379    9.3422   -1.9012
    46         C        0.0013    8.7370    0.1950
    47         C        1.8240   -2.0010   -0.0826
    48         C        2.3187   -3.0256    0.6704
    49         C        3.6845   -2.8091    1.0453
    50         C        4.1678   -1.6286    0.5582
    51         S        2.9905   -0.7758   -0.3557
    52         C        5.4813   -1.1000    0.7416
    53         C        5.8069    0.1665    1.1372
    54         C        7.2243    0.3556    1.2123
    55         C        7.9108   -0.7759    0.8749
    56         S        6.8694   -2.0663    0.4568
    57         C        9.3484   -0.9070    0.8472
    58         C       10.1198    0.1345    0.3279
    59         C       11.5017    0.0267    0.3039
    60         C       12.1181   -1.1294    0.7831
    61         C       11.3514   -2.1655    1.3108
    62         C        9.9681   -2.0532    1.3442
    63         C       13.5688   -1.2230    0.7439
    64         C       14.2176   -2.3110    0.2935
    65         C       15.6877   -2.3388    0.3019
    66         O       16.4285   -1.4357    0.6627
    67         O       16.2155   -3.4979   -0.1384
    68         C       13.5428   -3.4458   -0.2252
    69         N       13.0045   -4.3762   -0.6509
    70         H       14.1247   -0.3423    1.0996
    71         H      -14.8564  -10.0080    2.8092
    72         H      -15.0811  -11.5393    1.9634
    73         H      -13.6799  -11.3083    3.0092
    74         H      -13.0499  -11.1128    0.5426
    75         H      -14.2216   -9.8181    0.3433
    76         H      -12.9781   -8.4234    2.0876
    77         H      -11.8067   -9.7185    2.2883
    78         H      -11.2073   -9.5614   -0.1915
    79         H      -12.3793   -8.2666   -0.3928
    80         H      -11.1398   -6.8722    1.3532
    81         H       -9.9683   -8.1671    1.5562
    82         H       -9.3678   -8.0132   -0.9228
    83         H      -10.5399   -6.7189   -1.1266
    84         H       -9.3025   -5.3223    0.6191
    85         H       -8.1309   -6.6168    0.8251
    86         H       -7.5273   -6.4661   -1.6531
    87         H       -8.6999   -5.1725   -1.8605
    88         H       -7.4654   -3.7729   -0.1144
    89         H       -6.2932   -5.0666    0.0944
    90         H       -5.6874   -4.9189   -2.3832
    91         H       -6.8609   -3.6253   -2.5932
    92         H       -5.6254   -2.2203   -0.8470
    93         H       -4.4531   -3.5141   -0.6351
    94         H       -3.8407   -3.3724   -3.1300
    95         H       -5.0220   -2.0715   -3.3411
    96         H       -1.7622   -3.9561   -2.2097
    97         H        0.5253   -3.9846   -1.2637
    98         H        0.1899    0.1655   -0.0835
    99         H       -5.6758    0.0802   -2.5036
   100         H       -5.6968    2.4431   -1.7604
   101         H       -1.6565    2.0669   -0.2025
   102         H       -1.3044    3.7189   -2.0481
   103         H        0.0668    5.7236   -2.2727
   104         H       -2.7470    8.0031    0.1299
   105         H       -6.1266    2.6972    0.6792
   106         H       -7.6193    4.1256    1.9754
   107         H       -5.0100    7.5431    1.3461
   108         H       -6.1743    6.5725    4.3828
   109         H       -5.6956    7.9996    3.4664
   110         H       -7.1841    8.0220    4.3969
   111         H       -8.3579    5.3175    3.7606
   112         H       -9.2361    6.8329    3.6504
   113         H       -9.2250    5.7464    2.2710
   114         H       -8.4997    8.6751    2.1767
   115         H       -6.9677    8.6462    1.3220
   116         H       -8.3045    7.6490    0.7519
   117         H        1.5560    7.3266   -1.5718
   118         H        0.6838    7.7661   -3.0553
   119         H        1.4672    9.0028   -2.0873
   120         H       -2.1322    9.6290   -1.3312
   121         H       -0.6691   10.2703   -2.0590
   122         H       -1.5881    9.0103   -2.8890
   123         H        0.5518    7.9595    0.7435
   124         H        0.6496    9.6249    0.1622
   125         H       -0.8579    9.0145    0.8209
   126         H        1.7585   -3.9060    0.9753
   127         H        4.2450   -3.5129    1.6557
   128         H        5.0940    0.9506    1.3799
   129         H        7.6762    1.2956    1.5200
   130         H        9.6363    1.0333   -0.0671
   131         H       12.1062    0.8442   -0.1020
   132         H       11.8307   -3.0613    1.7192
   133         H        9.3689   -2.8664    1.7659
   134         H       17.1833   -3.4702   -0.1181


 ENERGY OF "REORIENTED" SYSTEM WITHOUT FIELD:       42.3229412055


  NFREQ=  3  IWFLB=  0  IBET=  1  IGAM=  1
  ATOL= 0.10000D-02  BTOL= 0.10000D-02    MAXITU=  500    MAXITA=  150


 *****************************************************************
 CALCULATION OF STATIC FIELD QUANTITIES
 *****************************************************************

 +++++ ALPHA AT       0.00000 EV.

                           COMPONENTS OF ALPHA

                     *X           *Y           *Z
           *=X:     961.9900     -43.3251     -15.7288
           *=Y:     -43.3413     734.7815      58.3806
           *=Z:     -15.6981      58.3841     351.4881

  ISOTROPIC AVERAGE ALPHA =     682.75319 A.U. =    101.17358 ANG.**3

 +++++ BETA (SECOND HARMONIC GENERATION) AT       0.00000 EV.

                              COMPONENTS OF BETA
            *XX         *XY         *YY         *XZ         *YZ         *ZZ
   *=X -5767.61780   518.45163    22.09411  -707.76041   567.22183   154.72910
   *=Y   518.80803    21.90743  -211.45795   567.26703    87.55404   -11.48020
   *=Z  -708.14858   567.43265    87.76190   154.77406   -11.45948  -131.32625


 AVERAGE BETAX(SHG) VALUE AT   0.00000 EV =      -3354.5334 a.u. = -0.289812E-28 ESU
 AVERAGE BETAY(SHG) VALUE AT   0.00000 EV =        177.3877 a.u. =  0.153253E-29 ESU
 AVERAGE BETAZ(SHG) VALUE AT   0.00000 EV =       -450.9556 a.u. = -0.389599E-29 ESU



 AVERAGE BETA (SHG) VALUE AT   0.00000 EV =       3389.3542 a.u. =  0.292820E-28 ESU
   (1 a.u. = 8.639418X10-33 esu)



 +++++ ALPHA AT       0.00000 EV.

                           COMPONENTS OF ALPHA

                     *X           *Y           *Z
           *=X:     961.9900     -43.3251     -15.7288
           *=Y:     -43.3413     734.7815      58.3806
           *=Z:     -15.6981      58.3841     351.4881

  ISOTROPIC AVERAGE ALPHA =     682.75319 A.U. =    101.17358 ANG.**3


 GAMMA (THIRD HARMONIC GENERATION) AT    0.00000 EV.


 GAMMA(X,X,X,X) =       2683553.75047
 GAMMA(Y,Y,Y,Y) =        382887.27969
 GAMMA(Z,Z,Z,Z) =         24479.18067
 GAMMA(X,X,Y,Y) =        116847.84212
 GAMMA(X,X,Z,Z) =         83465.11624
 GAMMA(Y,Y,X,X) =        116847.65216
 GAMMA(Y,Y,Z,Z) =         30663.99385
 GAMMA(Z,Z,X,X) =         83465.12161
 GAMMA(Z,Z,Y,Y) =         30663.96213


 AVERAGE GAMMA VALUE AT    0.00000 =        710574.77979 a.u. =       357895.38266 ESU (X10-39)




 **********************************************************************
 CALCULATION FOR A FREQUENCY OF    0.25000 EV  =       0.00919 A.U. 
                  WAVELENGTH OF    4959.37 NM  =    2016.38525 CM(-1)
 **********************************************************************

 +++++ ALPHA AT       0.25000 EV.

                           COMPONENTS OF ALPHA

                     *X           *Y           *Z
           *=X:     965.4646     -43.8069     -15.7213
           *=Y:     -43.8238     736.2988      58.5250
           *=Z:     -15.6950      58.5276     352.0005

  ISOTROPIC AVERAGE ALPHA =     684.58793 A.U. =    101.44546 ANG.**3

 +++++ BETA (SECOND HARMONIC GENERATION) AT       0.25000 EV.

                              COMPONENTS OF BETA
            *XX         *XY         *YY         *XZ         *YZ         *ZZ
   *=X -6011.24969   551.12795    22.38274  -728.24896   581.72573   158.97179
   *=Y   557.22968    14.12773  -206.34370   583.19602    92.53795   -11.13797
   *=Z  -733.75790   579.84900    93.47579   156.21996   -11.05365  -133.45954


 AVERAGE BETAX(SHG) VALUE AT   0.25000 EV =      -3502.3398 a.u. = -0.302582E-28 ESU
 AVERAGE BETAY(SHG) VALUE AT   0.25000 EV =        201.4418 a.u. =  0.174034E-29 ESU
 AVERAGE BETAZ(SHG) VALUE AT   0.25000 EV =       -462.4165 a.u. = -0.399501E-29 ESU



 AVERAGE BETA (SHG) VALUE AT   0.25000 EV =       3538.4731 a.u. =  0.305703E-28 ESU
   (1 a.u. = 8.639418X10-33 esu)



 +++++ ALPHA AT       0.75000 EV.

                           COMPONENTS OF ALPHA

                     *X           *Y           *Z
           *=X:     994.8338     -47.9215     -15.6376
           *=Y:     -47.9436     748.8679      59.7171
           *=Z:     -15.6154      59.7180     356.1983

  ISOTROPIC AVERAGE ALPHA =     699.96665 A.U. =    103.72436 ANG.**3


 GAMMA (THIRD HARMONIC GENERATION) AT    0.25000 EV.


 GAMMA(X,X,X,X) =       2945720.17513
 GAMMA(Y,Y,Y,Y) =        411593.63370
 GAMMA(Z,Z,Z,Z) =         25541.83065
 GAMMA(X,X,Y,Y) =        125122.15291
 GAMMA(X,X,Z,Z) =         90053.32478
 GAMMA(Y,Y,X,X) =        127361.92053
 GAMMA(Y,Y,Z,Z) =         32721.41262
 GAMMA(Z,Z,X,X) =         89579.91800
 GAMMA(Z,Z,Y,Y) =         32351.99658


 AVERAGE GAMMA VALUE AT    0.25000 =        776009.27298 a.u. =       390852.79072 ESU (X10-39)




 **********************************************************************
 CALCULATION FOR A FREQUENCY OF    0.50000 EV  =       0.01837 A.U. 
                  WAVELENGTH OF    2479.68 NM  =    4032.77050 CM(-1)
 **********************************************************************

 +++++ ALPHA AT       0.50000 EV.

                           COMPONENTS OF ALPHA

                     *X           *Y           *Z
           *=X:     976.1097     -45.2854     -15.6997
           *=Y:     -45.3061     740.9158      58.9635
           *=Z:     -15.6783      58.9649     353.5518

  ISOTROPIC AVERAGE ALPHA =     690.19244 A.U. =    102.27597 ANG.**3

 +++++ BETA (SECOND HARMONIC GENERATION) AT       0.50000 EV.

                              COMPONENTS OF BETA
            *XX         *XY         *YY         *XZ         *YZ         *ZZ
   *=X -6857.23164   667.00008    23.85550  -797.28802   629.94637   173.12623
   *=Y   693.99342   -14.42550  -186.15393   636.51713   109.35385    -9.69076
   *=Z  -821.23918   620.57268   113.14211   160.35695    -9.31255  -140.19116


 AVERAGE BETAX(SHG) VALUE AT   0.50000 EV =      -4016.5701 a.u. = -0.347008E-28 ESU
 AVERAGE BETAY(SHG) VALUE AT   0.50000 EV =        288.2432 a.u. =  0.249025E-29 ESU
 AVERAGE BETAZ(SHG) VALUE AT   0.50000 EV =       -500.9078 a.u. = -0.432755E-29 ESU



 AVERAGE BETA (SHG) VALUE AT   0.50000 EV =       4057.9339 a.u. =  0.350582E-28 ESU
   (1 a.u. = 8.639418X10-33 esu)



 +++++ ALPHA AT       1.50000 EV.

                           COMPONENTS OF ALPHA

                     *X           *Y           *Z
           *=X:    1126.0538     -67.4051     -14.0412
           *=Y:     -67.4407     798.7328      64.3944
           *=Z:     -13.9948      64.3903     372.1641

  ISOTROPIC AVERAGE ALPHA =     765.65026 A.U. =    113.45766 ANG.**3


 GAMMA (THIRD HARMONIC GENERATION) AT    0.50000 EV.


 GAMMA(X,X,X,X) =       4077754.63452
 GAMMA(Y,Y,Y,Y) =        525384.79478
 GAMMA(Z,Z,Z,Z) =         29388.38664
 GAMMA(X,X,Y,Y) =        158323.87528
 GAMMA(X,X,Z,Z) =        117496.66035
 GAMMA(Y,Y,X,X) =        170088.87173
 GAMMA(Y,Y,Z,Z) =         40837.47733
 GAMMA(Z,Z,X,X) =        113648.98750
 GAMMA(Z,Z,Y,Y) =         38619.90554


 AVERAGE GAMMA VALUE AT    0.50000 =       1054308.71873 a.u. =       531023.94437 ESU (X10-39)



 **********************
 *                    *
 * JOB ENDED NORMALLY *
 *                    *
 **********************



 TOTAL JOB TIME:          1538.12 SECONDS

 == MOPAC DONE ==
