 *******************************************************************************
 ** Site#: 4824         For non-commercial use only    Version 21.013L 64BITS **
 *******************************************************************************
 ** Cite this program as: MOPAC2016, Version: 21.013L, James J. P. Stewart,   **
 ** Stewart Computational Chemistry, web: HTTP://OpenMOPAC.net. Days left:  89**
 *******************************************************************************
 **                                                                           **
 **                                MOPAC2016                                  **
 **                                                                           **
 *******************************************************************************

                              RM1 CALCULATION RESULTS

 *******************************************************************************
 *  CALCULATION DONE:                                Sat Oct 16 15:06:23 2021  *
 *  RM1        - The RM1 Hamiltonian to be used
 *  POLAR      - CALCULATE FIRST, SECOND AND THIRD-ORDER POLARIZABILITIES
 *  PRECISE    - TIGHTER CRITERIA TO BE USED
 *  T=         - A TIME OF 172800.0 SECONDS REQUESTED
 *  DUMP=N     - RESTART FILE WRITTEN EVERY 7200.0 SECONDS REQUESTED
 *  GNORM      - EXIT WHEN GRADIENT NORM DROPS BELOW 0.100
 *******************************************************************************
RM1 PRECISE POLAR GNORM=0.1


  ATOM    CHEMICAL      BOND LENGTH      BOND ANGLE     TWIST ANGLE 
 NUMBER    SYMBOL       (ANGSTROMS)      (DEGREES)       (DEGREES) 
   (I)                     NA:I           NB:NA:I       NC:NB:NA:I       NA    NB    NC 
     1       C          0.00000000       0.0000000       0.0000000        0     0     0
     2       C          1.54730000  *    0.0000000       0.0000000        1     0     0
     3       C          1.55080000  *  111.4645000  *    0.0000000        2     1     0
     4       C          1.54990000  *  111.3678000  * -179.4777000  *     3     2     1
     5       N          1.45090000  *  110.0389000  * -179.3805000  *     4     3     2
     6       C          1.41970000  *  126.7841000  *   92.3872000  *     5     4     3
     7       C          1.46370000  *  130.1993000  *   -3.6555000  *     6     5     4
     8       C          1.35210000  *  119.0343000  *  179.9708000  *     7     6     5
     9       C          1.48830000  *  119.3181000  *    0.1999000  *     8     7     6
    10       C          1.34720000  *  121.3718000  *   -0.1374000  *     9     8     7
    11       C          1.34210000  *  108.9855000  *  176.4482000  *     6     5     4
    12       C          1.45790000  *  107.7983000  *   -0.2841000  *    11     6     5
    13       C          1.34280000  *  107.6224000  *    0.0000000  *    12    11     6
    14       C          1.46250000  *  120.7407000  *  179.9647000  *    13    12    11
    15       C          1.34980000  *  118.5104000  *    0.0763000  *    14    13    12
    16       C          1.48340000  *  120.2980000  *   -0.0554000  *    15    14    13
    17       C          1.34720000  *  120.8713000  *    0.0428000  *    16    15    14
    18       N          1.41200000  *  120.1697000  *  179.6852000  *    15    14    13
    19       C          1.42280000  *  125.8885000  * -116.6575000  *    18    15    14
    20       C          1.34290000  *  130.1216000  *   -1.4402000  *    19    18    15
    21       C          1.47560000  *  118.2671000  *  179.6155000  *    20    19    18
    22       C          1.34930000  *  120.8577000  *   -0.4630000  *    21    20    19
    23       C          1.47460000  *  120.6720000  *   -0.1915000  *    22    21    20
    24       C          1.34080000  *  117.7317000  *    0.4269000  *    23    22    21
    25       C          1.45770000  *  131.3376000  * -179.4536000  *    24    23    22
    26       C          1.42310000  *  126.1651000  *   60.1544000  *    18    15    14
    27       C          1.34290000  *  130.0806000  *    3.5496000  *    26    18    15
    28       C          1.47570000  *  118.2459000  *  179.5731000  *    27    26    18
    29       C          1.34940000  *  120.8615000  *   -0.3291000  *    28    27    26
    30       C          1.34070000  *  131.3746000  *   -0.6972000  *    25    24    23
    31       C          1.47320000  *  121.3614000  * -178.9811000  *     8     7     6
    32       C          1.35100000  *  128.0354000  *  -11.6341000  *    31     8     7
    33       C          1.48740000  *  116.1931000  *  179.3479000  *    32    31     8
    34       C          1.34770000  *  115.8372000  *    0.1169000  *    33    32    31
    35       S          1.81930000  *  107.0475000  *    0.0000000  *    34    33    32
    36       C          1.45790000  *  126.9663000  * -179.5367000  *    34    33    32
    37       C          1.34790000  *  126.7627000  * -177.4816000  *    36    34    33
    38       C          1.48630000  *  115.7370000  * -179.6101000  *    37    36    34
    39       C          1.34960000  *  116.2920000  *   -0.5153000  *    38    37    36
    40       S          1.82010000  *  126.1496000  *    2.9215000  *    36    34    33
    41       C          1.46940000  *  124.2272000  *  178.3204000  *    39    38    37
    42       C          1.34980000  *  126.3306000  *  168.1848000  *    41    39    38
    43       C          1.47690000  *  120.4647000  * -179.8343000  *    42    41    39
    44       O          1.23240000  *  121.2791000  *   -0.9101000  *    43    42    41
    45       O          1.35590000  *  119.8775000  *  179.5464000  *    43    42    41
    46       C          1.42870000  *  122.6038000  *   -0.8144000  *    42    41    39
    47       N          1.15840000  *  179.0984000  *  179.5960000  *    46    42    41
    48       H          1.05410000  *  116.0417000  *  -11.1290000  *    41    39    38
    49       H          1.09100000  *  110.0414000  *   60.6053000  *     1     2     3
    50       H          1.09120000  *  109.5214000  * -179.6398000  *     1     2     3
    51       H          1.09080000  *  110.0340000  *  -59.8843000  *     1     2     3
    52       H          1.09220000  *  108.8534000  * -178.6036000  *     2     1    49
    53       H          1.09220000  *  108.8608000  *  179.2764000  *     2     1    51
    54       H          1.09250000  *  109.2968000  * -179.3695000  *     3     2    52
    55       H          1.09250000  *  109.2838000  *  -60.4640000  *     3     2    52
    56       H          1.09150000  *  109.6660000  * -179.3816000  *     4     3    54
    57       H          1.09170000  *  109.6192000  * -179.3421000  *     4     3    55
    58       H          1.04910000  *  119.5982000  * -179.3987000  *     7     6    11
    59       H          1.05110000  *  119.9674000  *  179.6351000  *     9     8     7
    60       H          1.05000000  *  120.9068000  *  179.9745000  *    10     9     8
    61       H          1.05020000  *  120.6088000  *  179.7238000  *    14    13    12
    62       H          1.05180000  *  119.6189000  * -179.7978000  *    16    15    14
    63       H          1.04990000  *  120.9502000  * -179.9480000  *    17    16    15
    64       H          1.04960000  *  121.3276000  *   -0.3044000  *    20    19    18
    65       H          1.05120000  *  119.4477000  *  179.5077000  *    21    20    19
    66       H          1.05140000  *  119.8085000  * -179.9600000  *    22    21    20
    67       H          1.04970000  *  120.7944000  * -179.2859000  *    23    22    21
    68       H          1.05000000  *  121.3471000  *   -0.2874000  *    27    26    18
    69       H          1.05140000  *  119.4428000  *  179.7043000  *    28    27    26
    70       H          1.05130000  *  119.8124000  * -179.9404000  *    29    28    27
    71       H          1.04980000  *  121.4649000  *    0.2525000  *    30    25    24
    72       H          1.04860000  *  122.9207000  *   -0.6830000  *    32    31     8
    73       H          1.04910000  *  121.5131000  * -179.6719000  *    33    32    31
    74       H          1.04910000  *  122.6974000  *    0.1663000  *    37    36    34
    75       H          1.04960000  *  121.3895000  *  179.1083000  *    38    37    36
    76       H          0.94080000  *  121.1396000  *    0.2713000  *    45    43    44
 


          CARTESIAN COORDINATES 

    NO.       ATOM           X           Y           Z

     1         C          0.0000      0.0000      0.0000
     2         C          1.5473      0.0000      0.0000
     3         C          2.1148      1.4432      0.0000
     4         C          3.6646      1.4406     -0.0132
     5         N          4.1642      2.8027      0.0019
     6         C          4.5110      3.5685      1.1460
     7         C          4.3990      3.2446      2.5690
     8         C          4.8039      4.1550      3.4830
     9         C          5.3472      5.4608      3.0198
    10         C          5.4465      5.7537      1.7086
    11         C          5.0046      4.7509      0.7468
    12         C          4.9919      4.7699     -0.7109
    13         C          4.4904      3.5963     -1.1284
    14         C          4.3482      3.3093     -2.5554
    15         C          4.7337      4.2501     -3.4433
    16         C          5.2868      5.5429     -2.9711
    17         C          5.4148      5.8006     -1.6549
    18         N          4.6180      4.0073     -4.8295
    19         C          5.6952      3.9342     -5.7562
    20         C          7.0145      4.0947     -5.5640
    21         C          7.9125      3.9515     -6.7260
    22         C          7.4216      3.6574     -7.9480
    23         C          5.9734      3.4677     -8.1511
    24         C          5.1706      3.6061     -7.0862
    25         C          3.7254      3.4769     -6.9467
    26         C          3.4141      3.7302     -5.5359
    27         C          2.1442      3.6965     -5.1004
    28         C          1.0800      3.3850     -6.0742
    29         C          1.3749      3.1471     -7.3693
    30         C          2.7703      3.1934     -7.8439
    31         C          4.7350      3.8740      4.9276
    32         C          4.1025      2.8541      5.5479
    33         C          4.2172      2.8150      7.0304
    34         C          4.9393      3.8059      7.5899
    35         S          5.5273      4.8680      6.2349
    36         C          5.2143      3.9966      9.0089
    37         C          5.8975      5.0149      9.5685
    38         C          6.0408      4.9607     11.0469
    39         C          5.4646      3.9085     11.6651
    40         S          4.7031      2.8893     10.3599
    41         C          5.5286      3.6638     13.1126
    42         C          4.7960      2.7662     13.8051
    43         C          4.9639      2.6303     15.2661
    44         O          5.7820      3.3153     15.8826
    45         O          4.2152      1.7311     15.9513
    46         C          3.8207      1.9262     13.1850
    47         N          3.0263      1.2376     12.6985
    48         H          6.2090      4.2604     13.6531
    49         H         -0.3739      0.5031     -0.8930
    50         H         -0.3646     -1.0285      0.0065
    51         H         -0.3737      0.5142      0.8865
    52         H          1.9002     -0.5291      0.8879
    53         H          1.9004     -0.5298     -0.8874
    54         H          1.7514      1.9740     -0.8831
    55         H          1.7668      1.9677      0.8930
    56         H          4.0385      0.9028      0.8600
    57         H          4.0227      0.9286     -0.9083
    58         H          4.0192      2.3108      2.8596
    59         H          5.6595      6.1782      3.7216
    60         H          5.8305      6.6775      1.3898
    61         H          3.9597      2.3891     -2.8797
    62         H          5.5809      6.2697     -3.6722
    63         H          5.8053      6.7155     -1.3193
    64         H          7.4049      4.3152     -4.6149
    65         H          8.9479      4.0810     -6.5981
    66         H          8.0766      3.5585     -8.7644
    67         H          5.5905      3.2279     -9.0986
    68         H          1.9060      3.8877     -4.0958
    69         H          0.0797      3.3491     -5.7526
    70         H          0.6035      2.9277     -8.0491
    71         H          3.0016      3.0127     -8.8518
    72         H          3.5570      2.1229      5.0308
    73         H          3.7632      2.0568      7.5957
    74         H          6.3089      5.7985      9.0052
    75         H          6.5678      5.7007     11.5725
    76         H          4.3093      1.6281     16.8817

  H: (RM1): G.B. ROCHA, R.O. FREIRE, A.M.SIMAS, J.J.P. STEWART, J. COMP. CHEM. 27, 1101 (2006)
  C: (RM1): G.B. ROCHA, R.O. FREIRE, A.M.SIMAS, J.J.P. STEWART, J. COMP. CHEM. 27, 1101 (2006)
  N: (RM1): G.B. ROCHA, R.O. FREIRE, A.M.SIMAS, J.J.P. STEWART, J. COMP. CHEM. 27, 1101 (2006)
  O: (RM1): G.B. ROCHA, R.O. FREIRE, A.M.SIMAS, J.J.P. STEWART, J. COMP. CHEM. 27, 1101 (2006)
  S: (RM1): G.B. ROCHA, R.O. FREIRE, A.M.SIMAS, J.J.P. STEWART, J. COMP. CHEM. 27, 1101 (2006)

           Empirical Formula: C40 H29 N3 O2 S2  =    76 atoms



      MOLECULAR POINT GROUP   :   C1  


      RHF CALCULATION, NO. OF DOUBLY OCCUPIED LEVELS = 114


          Geometry optimization using L-BFGS
 CYCLE:     1 TIME:   0.672 TIME LEFT:  2.00D  GRAD.:   806.733 HEAT:  187.1225
 CYCLE:     2 TIME:   0.316 TIME LEFT:  2.00D  GRAD.:   541.301 HEAT:  183.6129
 CYCLE:     3 TIME:   0.320 TIME LEFT:  2.00D  GRAD.:   519.921 HEAT:  181.4553
 CYCLE:     4 TIME:   0.281 TIME LEFT:  2.00D  GRAD.:   540.074 HEAT:  183.6127
 CYCLE:     5 TIME:   0.375 TIME LEFT:  2.00D  GRAD.:   522.774 HEAT:  181.4510
 CYCLE:     6 TIME:   0.270 TIME LEFT:  2.00D  GRAD.:   513.924 HEAT:  163.0846
 CYCLE:     7 TIME:   0.312 TIME LEFT:  2.00D  GRAD.:   555.984 HEAT:  153.7037
 CYCLE:     8 TIME:   0.250 TIME LEFT:  2.00D  GRAD.:   366.939 HEAT:  142.6874
 CYCLE:     9 TIME:   0.352 TIME LEFT:  2.00D  GRAD.:   325.789 HEAT:  132.7331
 CYCLE:    10 TIME:   0.484 TIME LEFT:  2.00D  GRAD.:   235.133 HEAT:  124.9781
 CYCLE:    11 TIME:   0.371 TIME LEFT:  2.00D  GRAD.:   119.185 HEAT:  120.4341
 CYCLE:    12 TIME:   0.305 TIME LEFT:  2.00D  GRAD.:   136.473 HEAT:  119.0801
 CYCLE:    13 TIME:   0.254 TIME LEFT:  2.00D  GRAD.:    85.076 HEAT:  118.3505
 CYCLE:    14 TIME:   0.254 TIME LEFT:  2.00D  GRAD.:    80.016 HEAT:  117.8320
 CYCLE:    15 TIME:   0.289 TIME LEFT:  2.00D  GRAD.:    68.193 HEAT:  116.8124
 CYCLE:    16 TIME:   0.262 TIME LEFT:  2.00D  GRAD.:    65.054 HEAT:  115.9959
 CYCLE:    17 TIME:   0.258 TIME LEFT:  2.00D  GRAD.:  1880.055 HEAT:  129.1312
 CYCLE:    18 TIME:   0.254 TIME LEFT:  2.00D  GRAD.:    93.240 HEAT:  115.3516
 CYCLE:    19 TIME:   0.336 TIME LEFT:  2.00D  GRAD.:    55.100 HEAT:  115.2215
 CYCLE:    20 TIME:   0.363 TIME LEFT:  2.00D  GRAD.:    50.048 HEAT:  115.0275
 CYCLE:    21 TIME:   0.250 TIME LEFT:  2.00D  GRAD.:    49.135 HEAT:  114.7474
 CYCLE:    22 TIME:   0.262 TIME LEFT:  2.00D  GRAD.:    50.681 HEAT:  114.3537
 CYCLE:    23 TIME:   0.359 TIME LEFT:  2.00D  GRAD.:   169.368 HEAT:  114.5395
 CYCLE:    24 TIME:   0.367 TIME LEFT:  2.00D  GRAD.:    40.030 HEAT:  114.1424
 CYCLE:    25 TIME:   0.254 TIME LEFT:  2.00D  GRAD.:    29.358 HEAT:  114.0777
 CYCLE:    26 TIME:   0.258 TIME LEFT:  2.00D  GRAD.:    47.510 HEAT:  113.8797
 CYCLE:    27 TIME:   0.344 TIME LEFT:  2.00D  GRAD.:    43.263 HEAT:  113.7587
 CYCLE:    28 TIME:   0.277 TIME LEFT:  2.00D  GRAD.:    28.082 HEAT:  113.6729
 CYCLE:    29 TIME:   0.352 TIME LEFT:  2.00D  GRAD.:    19.725 HEAT:  113.6098
 CYCLE:    30 TIME:   0.219 TIME LEFT:  2.00D  GRAD.:    35.397 HEAT:  113.5100
 CYCLE:    31 TIME:   0.227 TIME LEFT:  2.00D  GRAD.:    35.157 HEAT:  113.4359
 CYCLE:    32 TIME:   0.410 TIME LEFT:  2.00D  GRAD.:   749.230 HEAT:  115.2850
 CYCLE:    33 TIME:   0.398 TIME LEFT:  2.00D  GRAD.:    97.738 HEAT:  113.4119
 CYCLE:    34 TIME:   0.285 TIME LEFT:  2.00D  GRAD.:    28.665 HEAT:  113.3688
 CYCLE:    35 TIME:   0.340 TIME LEFT:  2.00D  GRAD.:    22.580 HEAT:  113.3640
 CYCLE:    36 TIME:   0.355 TIME LEFT:  2.00D  GRAD.:    26.718 HEAT:  113.3445
 CYCLE:    37 TIME:   0.316 TIME LEFT:  2.00D  GRAD.:    23.301 HEAT:  113.3293
 CYCLE:    38 TIME:   0.402 TIME LEFT:  2.00D  GRAD.:    15.389 HEAT:  113.2876
 CYCLE:    39 TIME:   0.359 TIME LEFT:  2.00D  GRAD.:    20.090 HEAT:  113.2778
 CYCLE:    40 TIME:   0.297 TIME LEFT:  2.00D  GRAD.:    11.079 HEAT:  113.2673
 CYCLE:    41 TIME:   0.258 TIME LEFT:  2.00D  GRAD.:    13.178 HEAT:  113.2540
 CYCLE:    42 TIME:   0.227 TIME LEFT:  2.00D  GRAD.:    14.585 HEAT:  113.2402
 CYCLE:    43 TIME:   0.215 TIME LEFT:  2.00D  GRAD.:    27.173 HEAT:  113.2234
 CYCLE:    44 TIME:   0.340 TIME LEFT:  2.00D  GRAD.:    10.610 HEAT:  113.2066
 CYCLE:    45 TIME:   0.285 TIME LEFT:  2.00D  GRAD.:     8.064 HEAT:  113.2011
 CYCLE:    46 TIME:   0.273 TIME LEFT:  2.00D  GRAD.:    15.908 HEAT:  113.1889
 CYCLE:    47 TIME:   0.305 TIME LEFT:  2.00D  GRAD.:    35.771 HEAT:  113.1807
 CYCLE:    48 TIME:   0.379 TIME LEFT:  2.00D  GRAD.:    22.213 HEAT:  113.1672
 CYCLE:    49 TIME:   0.355 TIME LEFT:  2.00D  GRAD.:    11.849 HEAT:  113.1516
 CYCLE:    50 TIME:   0.230 TIME LEFT:  2.00D  GRAD.:    13.704 HEAT:  113.1421
 CYCLE:    51 TIME:   0.238 TIME LEFT:  2.00D  GRAD.:    18.653 HEAT:  113.1289
 CYCLE:    52 TIME:   0.340 TIME LEFT:  2.00D  GRAD.:    23.309 HEAT:  113.1079
 CYCLE:    53 TIME:   0.340 TIME LEFT:  2.00D  GRAD.:    23.553 HEAT:  113.0802
 CYCLE:    54 TIME:   0.379 TIME LEFT:  2.00D  GRAD.:    15.326 HEAT:  113.0547
 CYCLE:    55 TIME:   0.367 TIME LEFT:  2.00D  GRAD.:    16.146 HEAT:  113.0300
 CYCLE:    56 TIME:   0.266 TIME LEFT:  2.00D  GRAD.:    21.824 HEAT:  113.0021
 CYCLE:    57 TIME:   0.281 TIME LEFT:  2.00D  GRAD.:    42.099 HEAT:  112.9528
 CYCLE:    58 TIME:   0.246 TIME LEFT:  2.00D  GRAD.:    48.868 HEAT:  112.9466
 CYCLE:    59 TIME:   0.391 TIME LEFT:  2.00D  GRAD.:    31.923 HEAT:  112.9158
 CYCLE:    60 TIME:   0.297 TIME LEFT:  2.00D  GRAD.:    47.016 HEAT:  112.9069
 CYCLE:    61 TIME:   0.160 TIME LEFT:  2.00D  GRAD.:    24.815 HEAT:  112.8907
 CYCLE:    62 TIME:   0.148 TIME LEFT:  2.00D  GRAD.:    20.281 HEAT:  112.8778
 CYCLE:    63 TIME:   0.195 TIME LEFT:  2.00D  GRAD.:    72.946 HEAT:  112.8842
 CYCLE:    64 TIME:   0.188 TIME LEFT:  2.00D  GRAD.:    19.970 HEAT:  112.8596
 CYCLE:    65 TIME:   0.172 TIME LEFT:  2.00D  GRAD.:    13.931 HEAT:  112.8489
 CYCLE:    66 TIME:   0.203 TIME LEFT:  2.00D  GRAD.:    16.684 HEAT:  112.8294
 CYCLE:    67 TIME:   0.219 TIME LEFT:  2.00D  GRAD.:    24.707 HEAT:  112.7721
 CYCLE:    68 TIME:   0.160 TIME LEFT:  2.00D  GRAD.:    40.243 HEAT:  112.7512
 CYCLE:    69 TIME:   0.160 TIME LEFT:  2.00D  GRAD.:    13.809 HEAT:  112.7029
 CYCLE:    70 TIME:   0.172 TIME LEFT:  2.00D  GRAD.:    12.269 HEAT:  112.6784
 CYCLE:    71 TIME:   0.207 TIME LEFT:  2.00D  GRAD.:    14.530 HEAT:  112.6562
 CYCLE:    72 TIME:   0.168 TIME LEFT:  2.00D  GRAD.:    53.909 HEAT:  112.6583
 CYCLE:    73 TIME:   0.141 TIME LEFT:  2.00D  GRAD.:    17.138 HEAT:  112.6172
 CYCLE:    74 TIME:   0.145 TIME LEFT:  2.00D  GRAD.:    10.918 HEAT:  112.6090
 CYCLE:    75 TIME:   0.156 TIME LEFT:  2.00D  GRAD.:    16.855 HEAT:  112.5935
 CYCLE:    76 TIME:   0.148 TIME LEFT:  2.00D  GRAD.:    32.059 HEAT:  112.5757
 CYCLE:    77 TIME:   0.152 TIME LEFT:  2.00D  GRAD.:    31.465 HEAT:  112.5646
 CYCLE:    78 TIME:   0.141 TIME LEFT:  2.00D  GRAD.:    15.528 HEAT:  112.5583
 CYCLE:    79 TIME:   0.145 TIME LEFT:  2.00D  GRAD.:    13.759 HEAT:  112.5527
 CYCLE:    80 TIME:   0.164 TIME LEFT:  2.00D  GRAD.:    18.678 HEAT:  112.5468
 CYCLE:    81 TIME:   0.184 TIME LEFT:  2.00D  GRAD.:    27.860 HEAT:  112.5319
 CYCLE:    82 TIME:   0.141 TIME LEFT:  2.00D  GRAD.:    27.166 HEAT:  112.5171
 CYCLE:    83 TIME:   0.156 TIME LEFT:  2.00D  GRAD.:    15.305 HEAT:  112.4912
 CYCLE:    84 TIME:   0.188 TIME LEFT:  2.00D  GRAD.:    13.560 HEAT:  112.4685
 CYCLE:    85 TIME:   0.168 TIME LEFT:  2.00D  GRAD.:    17.175 HEAT:  112.4471
 CYCLE:    86 TIME:   0.160 TIME LEFT:  2.00D  GRAD.:    36.615 HEAT:  112.4344
 CYCLE:    87 TIME:   0.141 TIME LEFT:  2.00D  GRAD.:    13.555 HEAT:  112.4063
 CYCLE:    88 TIME:   0.164 TIME LEFT:  2.00D  GRAD.:    12.084 HEAT:  112.3935
 CYCLE:    89 TIME:   0.156 TIME LEFT:  2.00D  GRAD.:    26.875 HEAT:  112.3773
 CYCLE:    90 TIME:   0.156 TIME LEFT:  2.00D  GRAD.:    86.686 HEAT:  112.3805
 CYCLE:    91 TIME:   0.141 TIME LEFT:  2.00D  GRAD.:    23.224 HEAT:  112.3582
 CYCLE:    92 TIME:   0.156 TIME LEFT:  2.00D  GRAD.:    15.197 HEAT:  112.3517
 CYCLE:    93 TIME:   0.141 TIME LEFT:  2.00D  GRAD.:    15.535 HEAT:  112.3421
 CYCLE:    94 TIME:   0.152 TIME LEFT:  2.00D  GRAD.:    16.892 HEAT:  112.3338
 CYCLE:    95 TIME:   0.152 TIME LEFT:  2.00D  GRAD.:    11.976 HEAT:  112.3263
 CYCLE:    96 TIME:   0.148 TIME LEFT:  2.00D  GRAD.:     9.934 HEAT:  112.3187
 CYCLE:    97 TIME:   0.152 TIME LEFT:  2.00D  GRAD.:    11.774 HEAT:  112.2980
 CYCLE:    98 TIME:   0.164 TIME LEFT:  2.00D  GRAD.:    10.923 HEAT:  112.2770
 CYCLE:    99 TIME:   0.156 TIME LEFT:  2.00D  GRAD.:    20.567 HEAT:  112.2611
 CYCLE:   100 TIME:   0.152 TIME LEFT:  2.00D  GRAD.:    15.386 HEAT:  112.2433
 CYCLE:   101 TIME:   0.133 TIME LEFT:  2.00D  GRAD.:    11.029 HEAT:  112.2354
 CYCLE:   102 TIME:   0.145 TIME LEFT:  2.00D  GRAD.:     9.282 HEAT:  112.2286
 CYCLE:   103 TIME:   0.148 TIME LEFT:  2.00D  GRAD.:    12.128 HEAT:  112.2168
 CYCLE:   104 TIME:   0.160 TIME LEFT:  2.00D  GRAD.:    70.764 HEAT:  112.2150
 CYCLE:   105 TIME:   0.141 TIME LEFT:  2.00D  GRAD.:    12.673 HEAT:  112.1995
 CYCLE:   106 TIME:   0.152 TIME LEFT:  2.00D  GRAD.:    16.138 HEAT:  112.1958
 CYCLE:   107 TIME:   0.137 TIME LEFT:  2.00D  GRAD.:    11.247 HEAT:  112.1897
 CYCLE:   108 TIME:   0.156 TIME LEFT:  2.00D  GRAD.:    34.743 HEAT:  112.1786
 CYCLE:   109 TIME:   0.164 TIME LEFT:  2.00D  GRAD.:    14.007 HEAT:  112.1716
 CYCLE:   110 TIME:   0.188 TIME LEFT:  2.00D  GRAD.:    14.122 HEAT:  112.1644
 CYCLE:   111 TIME:   0.180 TIME LEFT:  2.00D  GRAD.:    30.888 HEAT:  112.1562
 CYCLE:   112 TIME:   0.172 TIME LEFT:  2.00D  GRAD.:    24.044 HEAT:  112.1502
 CYCLE:   113 TIME:   0.176 TIME LEFT:  2.00D  GRAD.:    14.344 HEAT:  112.1389
 CYCLE:   114 TIME:   0.191 TIME LEFT:  2.00D  GRAD.:    13.964 HEAT:  112.1330
 CYCLE:   115 TIME:   0.188 TIME LEFT:  2.00D  GRAD.:    39.643 HEAT:  112.1139
 CYCLE:   116 TIME:   0.156 TIME LEFT:  2.00D  GRAD.:    14.692 HEAT:  112.1018
 CYCLE:   117 TIME:   0.148 TIME LEFT:  2.00D  GRAD.:    13.123 HEAT:  112.0931
 CYCLE:   118 TIME:   0.156 TIME LEFT:  2.00D  GRAD.:    13.153 HEAT:  112.0905
 CYCLE:   119 TIME:   0.180 TIME LEFT:  2.00D  GRAD.:    20.331 HEAT:  112.0799
 CYCLE:   120 TIME:   0.184 TIME LEFT:  2.00D  GRAD.:    66.952 HEAT:  112.1144
 CYCLE:   121 TIME:   0.195 TIME LEFT:  2.00D  GRAD.:    13.608 HEAT:  112.0643
 CYCLE:   122 TIME:   0.199 TIME LEFT:  2.00D  GRAD.:    10.503 HEAT:  112.0564
 CYCLE:   123 TIME:   0.191 TIME LEFT:  2.00D  GRAD.:    23.876 HEAT:  112.0404
 CYCLE:   124 TIME:   0.148 TIME LEFT:  2.00D  GRAD.:    12.102 HEAT:  112.0318
 CYCLE:   125 TIME:   0.207 TIME LEFT:  2.00D  GRAD.:    14.436 HEAT:  112.0263
 CYCLE:   126 TIME:   0.215 TIME LEFT:  2.00D  GRAD.:    59.130 HEAT:  112.0262
 CYCLE:   127 TIME:   0.199 TIME LEFT:  2.00D  GRAD.:    18.942 HEAT:  112.0127
 CYCLE:   128 TIME:   0.152 TIME LEFT:  2.00D  GRAD.:    10.856 HEAT:  112.0078
 CYCLE:   129 TIME:   0.141 TIME LEFT:  2.00D  GRAD.:    11.524 HEAT:  112.0009
 CYCLE:   130 TIME:   0.152 TIME LEFT:  2.00D  GRAD.:    13.270 HEAT:  111.9943
 CYCLE:   131 TIME:   0.156 TIME LEFT:  2.00D  GRAD.:    29.433 HEAT:  111.9946
 CYCLE:   132 TIME:   0.156 TIME LEFT:  2.00D  GRAD.:    13.866 HEAT:  111.9790
 CYCLE:   133 TIME:   0.176 TIME LEFT:  2.00D  GRAD.:     6.413 HEAT:  111.9751
 CYCLE:   134 TIME:   0.203 TIME LEFT:  2.00D  GRAD.:    13.050 HEAT:  111.9700
 CYCLE:   135 TIME:   0.203 TIME LEFT:  2.00D  GRAD.:    15.176 HEAT:  111.9650
 CYCLE:   136 TIME:   0.203 TIME LEFT:  2.00D  GRAD.:    24.013 HEAT:  111.9603
 CYCLE:   137 TIME:   0.168 TIME LEFT:  2.00D  GRAD.:     9.279 HEAT:  111.9534
 CYCLE:   138 TIME:   0.199 TIME LEFT:  2.00D  GRAD.:     9.341 HEAT:  111.9490
 CYCLE:   139 TIME:   0.188 TIME LEFT:  2.00D  GRAD.:     6.354 HEAT:  111.9435
 CYCLE:   140 TIME:   0.199 TIME LEFT:  2.00D  GRAD.:    27.697 HEAT:  111.9386
 CYCLE:   141 TIME:   0.168 TIME LEFT:  2.00D  GRAD.:     8.576 HEAT:  111.9351
 CYCLE:   142 TIME:   0.152 TIME LEFT:  2.00D  GRAD.:     6.346 HEAT:  111.9335
 CYCLE:   143 TIME:   0.227 TIME LEFT:  2.00D  GRAD.:    12.184 HEAT:  111.9313
 CYCLE:   144 TIME:   0.195 TIME LEFT:  2.00D  GRAD.:     8.773 HEAT:  111.9290
 CYCLE:   145 TIME:   0.215 TIME LEFT:  2.00D  GRAD.:     7.709 HEAT:  111.9239
 CYCLE:   146 TIME:   0.195 TIME LEFT:  2.00D  GRAD.:    11.156 HEAT:  111.9201
 CYCLE:   147 TIME:   0.203 TIME LEFT:  2.00D  GRAD.:    11.003 HEAT:  111.9144
 CYCLE:   148 TIME:   0.219 TIME LEFT:  2.00D  GRAD.:    15.881 HEAT:  111.9057
 CYCLE:   149 TIME:   0.215 TIME LEFT:  2.00D  GRAD.:     6.389 HEAT:  111.8942
 CYCLE:   150 TIME:   0.215 TIME LEFT:  2.00D  GRAD.:     6.437 HEAT:  111.8862
 CYCLE:   151 TIME:   0.211 TIME LEFT:  2.00D  GRAD.:     7.788 HEAT:  111.8783
 CYCLE:   152 TIME:   0.219 TIME LEFT:  2.00D  GRAD.:     9.553 HEAT:  111.8685
 CYCLE:   153 TIME:   0.184 TIME LEFT:  2.00D  GRAD.:    14.801 HEAT:  111.8636
 CYCLE:   154 TIME:   0.152 TIME LEFT:  2.00D  GRAD.:    42.512 HEAT:  111.8756
 CYCLE:   155 TIME:   0.160 TIME LEFT:  2.00D  GRAD.:    23.143 HEAT:  111.8546
 CYCLE:   156 TIME:   0.172 TIME LEFT:  2.00D  GRAD.:    18.313 HEAT:  111.8574
 CYCLE:   157 TIME:   0.188 TIME LEFT:  2.00D  GRAD.:    49.499 HEAT:  111.8594
 CYCLE:   158 TIME:   0.156 TIME LEFT:  2.00D  GRAD.:    46.354 HEAT:  111.8573
 CYCLE:   159 TIME:   0.160 TIME LEFT:  2.00D  GRAD.:     6.056 HEAT:  111.8487
 CYCLE:   160 TIME:   0.191 TIME LEFT:  2.00D  GRAD.:     6.601 HEAT:  111.8481
 CYCLE:   161 TIME:   0.152 TIME LEFT:  2.00D  GRAD.:     7.289 HEAT:  111.8447
 CYCLE:   162 TIME:   0.164 TIME LEFT:  2.00D  GRAD.:     9.943 HEAT:  111.8398
 CYCLE:   163 TIME:   0.172 TIME LEFT:  2.00D  GRAD.:    39.031 HEAT:  111.8542
 CYCLE:   164 TIME:   0.180 TIME LEFT:  2.00D  GRAD.:     6.249 HEAT:  111.8336
 CYCLE:   165 TIME:   0.172 TIME LEFT:  2.00D  GRAD.:     5.433 HEAT:  111.8319
 CYCLE:   166 TIME:   0.164 TIME LEFT:  2.00D  GRAD.:     7.808 HEAT:  111.8263
 CYCLE:   167 TIME:   0.156 TIME LEFT:  2.00D  GRAD.:     9.214 HEAT:  111.8229
 CYCLE:   168 TIME:   0.141 TIME LEFT:  2.00D  GRAD.:     9.167 HEAT:  111.8207
 CYCLE:   169 TIME:   0.156 TIME LEFT:  2.00D  GRAD.:    14.689 HEAT:  111.8176
 CYCLE:   170 TIME:   0.148 TIME LEFT:  2.00D  GRAD.:     8.813 HEAT:  111.8144
 CYCLE:   171 TIME:   0.148 TIME LEFT:  2.00D  GRAD.:     6.917 HEAT:  111.8114
 CYCLE:   172 TIME:   0.148 TIME LEFT:  2.00D  GRAD.:     8.099 HEAT:  111.8074
 CYCLE:   173 TIME:   0.145 TIME LEFT:  2.00D  GRAD.:    11.530 HEAT:  111.8049
 CYCLE:   174 TIME:   0.141 TIME LEFT:  2.00D  GRAD.:     5.220 HEAT:  111.8036
 CYCLE:   175 TIME:   0.141 TIME LEFT:  2.00D  GRAD.:     6.424 HEAT:  111.8025
 CYCLE:   176 TIME:   0.145 TIME LEFT:  2.00D  GRAD.:     7.067 HEAT:  111.8007
 CYCLE:   177 TIME:   0.148 TIME LEFT:  2.00D  GRAD.:     7.540 HEAT:  111.7988
 CYCLE:   178 TIME:   0.152 TIME LEFT:  2.00D  GRAD.:     6.397 HEAT:  111.7961
 CYCLE:   179 TIME:   0.188 TIME LEFT:  2.00D  GRAD.:     8.267 HEAT:  111.7932
 CYCLE:   180 TIME:   0.148 TIME LEFT:  2.00D  GRAD.:     4.304 HEAT:  111.7901
 CYCLE:   181 TIME:   0.168 TIME LEFT:  2.00D  GRAD.:     3.791 HEAT:  111.7876
 CYCLE:   182 TIME:   0.148 TIME LEFT:  2.00D  GRAD.:     6.528 HEAT:  111.7858
 CYCLE:   183 TIME:   0.164 TIME LEFT:  2.00D  GRAD.:     4.808 HEAT:  111.7835
 CYCLE:   184 TIME:   0.152 TIME LEFT:  2.00D  GRAD.:     4.598 HEAT:  111.7807
 CYCLE:   185 TIME:   0.172 TIME LEFT:  2.00D  GRAD.:     8.977 HEAT:  111.7779
 CYCLE:   186 TIME:   0.195 TIME LEFT:  2.00D  GRAD.:     3.077 HEAT:  111.7766
 CYCLE:   187 TIME:   0.184 TIME LEFT:  2.00D  GRAD.:     3.891 HEAT:  111.7761
 CYCLE:   188 TIME:   0.148 TIME LEFT:  2.00D  GRAD.:    26.855 HEAT:  111.7782
 CYCLE:   189 TIME:   0.148 TIME LEFT:  2.00D  GRAD.:     3.729 HEAT:  111.7755
 CYCLE:   190 TIME:   0.164 TIME LEFT:  2.00D  GRAD.:     3.159 HEAT:  111.7753
 CYCLE:   191 TIME:   0.148 TIME LEFT:  2.00D  GRAD.:     7.812 HEAT:  111.7743
 CYCLE:   192 TIME:   0.137 TIME LEFT:  2.00D  GRAD.:     4.161 HEAT:  111.7731
 CYCLE:   193 TIME:   0.141 TIME LEFT:  2.00D  GRAD.:     2.718 HEAT:  111.7719
 CYCLE:   194 TIME:   0.160 TIME LEFT:  2.00D  GRAD.:     2.635 HEAT:  111.7712
 CYCLE:   195 TIME:   0.164 TIME LEFT:  2.00D  GRAD.:     4.830 HEAT:  111.7703
 CYCLE:   196 TIME:   0.168 TIME LEFT:  2.00D  GRAD.:     4.906 HEAT:  111.7697
 CYCLE:   197 TIME:   0.176 TIME LEFT:  2.00D  GRAD.:     2.466 HEAT:  111.7690
 CYCLE:   198 TIME:   0.211 TIME LEFT:  2.00D  GRAD.:     3.748 HEAT:  111.7682
 CYCLE:   199 TIME:   0.230 TIME LEFT:  2.00D  GRAD.:     5.511 HEAT:  111.7677
 CYCLE:   200 TIME:   0.184 TIME LEFT:  2.00D  GRAD.:     2.925 HEAT:  111.7669
 CYCLE:   201 TIME:   0.219 TIME LEFT:  2.00D  GRAD.:     2.303 HEAT:  111.7663
 CYCLE:   202 TIME:   0.238 TIME LEFT:  2.00D  GRAD.:     4.023 HEAT:  111.7654
 CYCLE:   203 TIME:   0.195 TIME LEFT:  2.00D  GRAD.:     3.086 HEAT:  111.7646
 CYCLE:   204 TIME:   0.219 TIME LEFT:  2.00D  GRAD.:    18.827 HEAT:  111.7650
 CYCLE:   205 TIME:   0.219 TIME LEFT:  2.00D  GRAD.:     9.939 HEAT:  111.7650
 CYCLE:   206 TIME:   0.211 TIME LEFT:  2.00D  GRAD.:     4.282 HEAT:  111.7636
 CYCLE:   207 TIME:   0.207 TIME LEFT:  2.00D  GRAD.:    10.775 HEAT:  111.7635
 CYCLE:   208 TIME:   0.227 TIME LEFT:  2.00D  GRAD.:     3.677 HEAT:  111.7624
 CYCLE:   209 TIME:   0.199 TIME LEFT:  2.00D  GRAD.:     4.992 HEAT:  111.7618
 CYCLE:   210 TIME:   0.211 TIME LEFT:  2.00D  GRAD.:     5.589 HEAT:  111.7612
 CYCLE:   211 TIME:   0.172 TIME LEFT:  2.00D  GRAD.:    14.257 HEAT:  111.7618
 CYCLE:   212 TIME:   0.141 TIME LEFT:  2.00D  GRAD.:     5.709 HEAT:  111.7596
 CYCLE:   213 TIME:   0.148 TIME LEFT:  2.00D  GRAD.:     2.629 HEAT:  111.7591
 CYCLE:   214 TIME:   0.145 TIME LEFT:  2.00D  GRAD.:     2.751 HEAT:  111.7588
 CYCLE:   215 TIME:   0.164 TIME LEFT:  2.00D  GRAD.:     8.218 HEAT:  111.7578
 CYCLE:   216 TIME:   0.172 TIME LEFT:  2.00D  GRAD.:     4.466 HEAT:  111.7572
 CYCLE:   217 TIME:   0.199 TIME LEFT:  2.00D  GRAD.:     3.800 HEAT:  111.7561
 CYCLE:   218 TIME:   0.148 TIME LEFT:  2.00D  GRAD.:     7.566 HEAT:  111.7553
 CYCLE:   219 TIME:   0.145 TIME LEFT:  2.00D  GRAD.:     4.988 HEAT:  111.7547
 CYCLE:   220 TIME:   0.180 TIME LEFT:  2.00D  GRAD.:     1.753 HEAT:  111.7542
 CYCLE:   221 TIME:   0.219 TIME LEFT:  2.00D  GRAD.:     4.128 HEAT:  111.7537
 CYCLE:   222 TIME:   0.156 TIME LEFT:  2.00D  GRAD.:     2.528 HEAT:  111.7535
 CYCLE:   223 TIME:   0.156 TIME LEFT:  2.00D  GRAD.:     2.084 HEAT:  111.7531
 CYCLE:   224 TIME:   0.168 TIME LEFT:  2.00D  GRAD.:     4.302 HEAT:  111.7525
 CYCLE:   225 TIME:   0.148 TIME LEFT:  2.00D  GRAD.:     2.410 HEAT:  111.7518
 CYCLE:   226 TIME:   0.184 TIME LEFT:  2.00D  GRAD.:     3.285 HEAT:  111.7509
 CYCLE:   227 TIME:   0.184 TIME LEFT:  2.00D  GRAD.:     6.796 HEAT:  111.7504
 CYCLE:   228 TIME:   0.176 TIME LEFT:  2.00D  GRAD.:     1.983 HEAT:  111.7500
 CYCLE:   229 TIME:   0.160 TIME LEFT:  2.00D  GRAD.:     3.744 HEAT:  111.7495
 CYCLE:   230 TIME:   0.172 TIME LEFT:  2.00D  GRAD.:     4.487 HEAT:  111.7491
 CYCLE:   231 TIME:   0.164 TIME LEFT:  2.00D  GRAD.:     4.948 HEAT:  111.7485
 CYCLE:   232 TIME:   0.141 TIME LEFT:  2.00D  GRAD.:     4.660 HEAT:  111.7479
 CYCLE:   233 TIME:   0.156 TIME LEFT:  2.00D  GRAD.:     4.962 HEAT:  111.7477
 CYCLE:   234 TIME:   0.164 TIME LEFT:  2.00D  GRAD.:     3.683 HEAT:  111.7474
 CYCLE:   235 TIME:   0.152 TIME LEFT:  2.00D  GRAD.:     2.214 HEAT:  111.7472
 CYCLE:   236 TIME:   0.168 TIME LEFT:  2.00D  GRAD.:     3.384 HEAT:  111.7467
 CYCLE:   237 TIME:   0.160 TIME LEFT:  2.00D  GRAD.:     4.802 HEAT:  111.7460
 CYCLE:   238 TIME:   0.145 TIME LEFT:  2.00D  GRAD.:     2.321 HEAT:  111.7454
 CYCLE:   239 TIME:   0.148 TIME LEFT:  2.00D  GRAD.:     1.783 HEAT:  111.7448
 CYCLE:   240 TIME:   0.168 TIME LEFT:  2.00D  GRAD.:     2.600 HEAT:  111.7444
 CYCLE:   241 TIME:   0.148 TIME LEFT:  2.00D  GRAD.:     8.682 HEAT:  111.7441
 CYCLE:   242 TIME:   0.152 TIME LEFT:  2.00D  GRAD.:     2.641 HEAT:  111.7436
 CYCLE:   243 TIME:   0.148 TIME LEFT:  2.00D  GRAD.:     2.605 HEAT:  111.7435
 CYCLE:   244 TIME:   0.160 TIME LEFT:  2.00D  GRAD.:     2.930 HEAT:  111.7432
 CYCLE:   245 TIME:   0.152 TIME LEFT:  2.00D  GRAD.:     3.687 HEAT:  111.7429
 CYCLE:   246 TIME:   0.160 TIME LEFT:  2.00D  GRAD.:     2.617 HEAT:  111.7424
 CYCLE:   247 TIME:   0.164 TIME LEFT:  2.00D  GRAD.:     7.023 HEAT:  111.7423
 CYCLE:   248 TIME:   0.137 TIME LEFT:  2.00D  GRAD.:     2.352 HEAT:  111.7419
 CYCLE:   249 TIME:   0.152 TIME LEFT:  2.00D  GRAD.:     2.173 HEAT:  111.7417
 CYCLE:   250 TIME:   0.156 TIME LEFT:  2.00D  GRAD.:     2.203 HEAT:  111.7414
 CYCLE:   251 TIME:   1.234 TIME LEFT:  2.00D  GRAD.:     2.872 HEAT:  111.7407
 CYCLE:   252 TIME:   3.660 TIME LEFT:  2.00D  GRAD.:     2.296 HEAT:  111.7402
 CYCLE:   253 TIME:   0.180 TIME LEFT:  2.00D  GRAD.:     5.156 HEAT:  111.7396
 CYCLE:   254 TIME:   0.145 TIME LEFT:  2.00D  GRAD.:     2.201 HEAT:  111.7388
 CYCLE:   255 TIME:   0.160 TIME LEFT:  2.00D  GRAD.:     2.071 HEAT:  111.7388
 CYCLE:   256 TIME:   0.160 TIME LEFT:  2.00D  GRAD.:    33.971 HEAT:  111.7432
 CYCLE:   257 TIME:   0.156 TIME LEFT:  2.00D  GRAD.:    41.580 HEAT:  111.7469
 CYCLE:   258 TIME:   0.160 TIME LEFT:  2.00D  GRAD.:     2.378 HEAT:  111.7378
 CYCLE:   259 TIME:   0.180 TIME LEFT:  2.00D  GRAD.:     3.669 HEAT:  111.7379
 CYCLE:   260 TIME:   0.254 TIME LEFT:  2.00D  GRAD.:     9.484 HEAT:  111.7377
 CYCLE:   261 TIME:   0.133 TIME LEFT:  2.00D  GRAD.:     2.477 HEAT:  111.7371
 CYCLE:   262 TIME:   0.156 TIME LEFT:  2.00D  GRAD.:     1.660 HEAT:  111.7370
 CYCLE:   263 TIME:   0.160 TIME LEFT:  2.00D  GRAD.:     3.815 HEAT:  111.7368
 CYCLE:   264 TIME:   0.223 TIME LEFT:  2.00D  GRAD.:     2.966 HEAT:  111.7366
 CYCLE:   265 TIME:   0.230 TIME LEFT:  2.00D  GRAD.:     2.964 HEAT:  111.7359
 CYCLE:   266 TIME:   0.211 TIME LEFT:  2.00D  GRAD.:     4.472 HEAT:  111.7350
 CYCLE:   267 TIME:   0.172 TIME LEFT:  2.00D  GRAD.:    16.587 HEAT:  111.7370
 CYCLE:   268 TIME:   0.156 TIME LEFT:  2.00D  GRAD.:     2.637 HEAT:  111.7344
 CYCLE:   269 TIME:   0.145 TIME LEFT:  2.00D  GRAD.:     2.106 HEAT:  111.7343
 CYCLE:   270 TIME:   0.441 TIME LEFT:  2.00D  GRAD.:     6.950 HEAT:  111.7343
 CYCLE:   271 TIME:   0.207 TIME LEFT:  2.00D  GRAD.:     3.437 HEAT:  111.7335
 CYCLE:   272 TIME:   0.176 TIME LEFT:  2.00D  GRAD.:     2.434 HEAT:  111.7330
 CYCLE:   273 TIME:   0.180 TIME LEFT:  2.00D  GRAD.:     2.052 HEAT:  111.7327
 CYCLE:   274 TIME:   0.188 TIME LEFT:  2.00D  GRAD.:     2.427 HEAT:  111.7323
 CYCLE:   275 TIME:   0.270 TIME LEFT:  2.00D  GRAD.:     4.977 HEAT:  111.7319
 CYCLE:   276 TIME:   0.191 TIME LEFT:  2.00D  GRAD.:    14.589 HEAT:  111.7319
 CYCLE:   277 TIME:   0.172 TIME LEFT:  2.00D  GRAD.:     4.213 HEAT:  111.7310
 CYCLE:   278 TIME:   0.156 TIME LEFT:  2.00D  GRAD.:     7.225 HEAT:  111.7311
 CYCLE:   279 TIME:   0.168 TIME LEFT:  2.00D  GRAD.:     1.724 HEAT:  111.7307
 CYCLE:   280 TIME:   0.148 TIME LEFT:  2.00D  GRAD.:     1.640 HEAT:  111.7305
 CYCLE:   281 TIME:   0.199 TIME LEFT:  2.00D  GRAD.:     5.269 HEAT:  111.7306
 CYCLE:   282 TIME:   0.230 TIME LEFT:  2.00D  GRAD.:     6.422 HEAT:  111.7307
 CYCLE:   283 TIME:   0.191 TIME LEFT:  2.00D  GRAD.:     8.084 HEAT:  111.7311
 CYCLE:   284 TIME:   0.148 TIME LEFT:  2.00D  GRAD.:     9.550 HEAT:  111.7307
 CYCLE:   285 TIME:   0.172 TIME LEFT:  2.00D  GRAD.:     1.819 HEAT:  111.7294
 CYCLE:   286 TIME:   0.207 TIME LEFT:  2.00D  GRAD.:     1.853 HEAT:  111.7293
 CYCLE:   287 TIME:   0.199 TIME LEFT:  2.00D  GRAD.:     2.713 HEAT:  111.7293
 CYCLE:   288 TIME:   0.172 TIME LEFT:  2.00D  GRAD.:     1.464 HEAT:  111.7290
 CYCLE:   289 TIME:   0.160 TIME LEFT:  2.00D  GRAD.:     2.018 HEAT:  111.7287
 CYCLE:   290 TIME:   0.160 TIME LEFT:  2.00D  GRAD.:     4.898 HEAT:  111.7284
 CYCLE:   291 TIME:   0.184 TIME LEFT:  2.00D  GRAD.:     2.149 HEAT:  111.7282
 CYCLE:   292 TIME:   0.180 TIME LEFT:  2.00D  GRAD.:     1.509 HEAT:  111.7279
 CYCLE:   293 TIME:   0.160 TIME LEFT:  2.00D  GRAD.:     9.488 HEAT:  111.7281
 CYCLE:   294 TIME:   0.176 TIME LEFT:  2.00D  GRAD.:     2.491 HEAT:  111.7274
 CYCLE:   295 TIME:   0.199 TIME LEFT:  2.00D  GRAD.:     2.721 HEAT:  111.7271
 CYCLE:   296 TIME:   0.191 TIME LEFT:  2.00D  GRAD.:     1.579 HEAT:  111.7267
 CYCLE:   297 TIME:   0.160 TIME LEFT:  2.00D  GRAD.:     3.577 HEAT:  111.7261
 CYCLE:   298 TIME:   0.160 TIME LEFT:  2.00D  GRAD.:     5.611 HEAT:  111.7256
 CYCLE:   299 TIME:   0.148 TIME LEFT:  2.00D  GRAD.:    12.412 HEAT:  111.7274
 CYCLE:   300 TIME:   0.160 TIME LEFT:  2.00D  GRAD.:     2.162 HEAT:  111.7252
 CYCLE:   301 TIME:   0.164 TIME LEFT:  2.00D  GRAD.:     4.084 HEAT:  111.7250
 CYCLE:   302 TIME:   0.148 TIME LEFT:  2.00D  GRAD.:     6.287 HEAT:  111.7247
 CYCLE:   303 TIME:   0.152 TIME LEFT:  2.00D  GRAD.:     3.126 HEAT:  111.7241
 CYCLE:   304 TIME:   0.184 TIME LEFT:  2.00D  GRAD.:     2.900 HEAT:  111.7238
 CYCLE:   305 TIME:   0.203 TIME LEFT:  2.00D  GRAD.:     5.402 HEAT:  111.7234
 CYCLE:   306 TIME:   0.195 TIME LEFT:  2.00D  GRAD.:     3.845 HEAT:  111.7228
 CYCLE:   307 TIME:   0.191 TIME LEFT:  2.00D  GRAD.:     6.025 HEAT:  111.7229
 CYCLE:   308 TIME:   0.195 TIME LEFT:  2.00D  GRAD.:     2.843 HEAT:  111.7225
 CYCLE:   309 TIME:   0.188 TIME LEFT:  2.00D  GRAD.:     2.642 HEAT:  111.7223
 CYCLE:   310 TIME:   0.191 TIME LEFT:  2.00D  GRAD.:     4.143 HEAT:  111.7220
 CYCLE:   311 TIME:   0.188 TIME LEFT:  2.00D  GRAD.:     1.981 HEAT:  111.7218
 CYCLE:   312 TIME:   0.195 TIME LEFT:  2.00D  GRAD.:     1.776 HEAT:  111.7215
 CYCLE:   313 TIME:   0.191 TIME LEFT:  2.00D  GRAD.:     2.028 HEAT:  111.7212
 CYCLE:   314 TIME:   0.156 TIME LEFT:  2.00D  GRAD.:     2.586 HEAT:  111.7204
 CYCLE:   315 TIME:   0.160 TIME LEFT:  2.00D  GRAD.:     2.035 HEAT:  111.7196
 CYCLE:   316 TIME:   0.168 TIME LEFT:  2.00D  GRAD.:     2.294 HEAT:  111.7187
 CYCLE:   317 TIME:   0.172 TIME LEFT:  2.00D  GRAD.:     5.098 HEAT:  111.7181
 CYCLE:   318 TIME:   0.203 TIME LEFT:  2.00D  GRAD.:     4.871 HEAT:  111.7172
 CYCLE:   319 TIME:   0.199 TIME LEFT:  2.00D  GRAD.:    26.323 HEAT:  111.7240
 CYCLE:   320 TIME:   0.191 TIME LEFT:  2.00D  GRAD.:    20.490 HEAT:  111.7218
 CYCLE:   321 TIME:   0.195 TIME LEFT:  2.00D  GRAD.:     8.756 HEAT:  111.7162
 CYCLE:   322 TIME:   0.168 TIME LEFT:  2.00D  GRAD.:   242.244 HEAT:  112.0841
 CYCLE:   323 TIME:   0.160 TIME LEFT:  2.00D  GRAD.:   119.886 HEAT:  111.8155
 CYCLE:   324 TIME:   0.168 TIME LEFT:  2.00D  GRAD.:   119.483 HEAT:  111.8034
 CYCLE:   325 TIME:   0.164 TIME LEFT:  2.00D  GRAD.:   130.592 HEAT:  111.7943
 CYCLE:   326 TIME:   0.160 TIME LEFT:  2.00D  GRAD.:    45.804 HEAT:  111.7245
 CYCLE:   327 TIME:   0.219 TIME LEFT:  2.00D  GRAD.:    24.808 HEAT:  111.7187
 CYCLE:   328 TIME:   0.207 TIME LEFT:  2.00D  GRAD.:   123.163 HEAT:  111.8897
 CYCLE:   329 TIME:   0.223 TIME LEFT:  2.00D  GRAD.:    59.780 HEAT:  111.7455
 CYCLE:   330 TIME:   0.191 TIME LEFT:  2.00D  GRAD.:    31.678 HEAT:  111.7230
 CYCLE:   331 TIME:   0.203 TIME LEFT:  2.00D  GRAD.:    19.494 HEAT:  111.7192
 CYCLE:   332 TIME:   0.230 TIME LEFT:  2.00D  GRAD.:     8.059 HEAT:  111.7138
 CYCLE:   333 TIME:   0.227 TIME LEFT:  2.00D  GRAD.:    15.606 HEAT:  111.7145
 CYCLE:   334 TIME:   0.219 TIME LEFT:  2.00D  GRAD.:     7.802 HEAT:  111.7132
 CYCLE:   335 TIME:   0.188 TIME LEFT:  2.00D  GRAD.:    12.521 HEAT:  111.7137
 CYCLE:   336 TIME:   0.207 TIME LEFT:  2.00D  GRAD.:    16.859 HEAT:  111.7133
 CYCLE:   337 TIME:   0.191 TIME LEFT:  2.00D  GRAD.:     4.098 HEAT:  111.7126
 CYCLE:   338 TIME:   0.180 TIME LEFT:  2.00D  GRAD.:     7.335 HEAT:  111.7125
 CYCLE:   339 TIME:   0.152 TIME LEFT:  2.00D  GRAD.:     4.073 HEAT:  111.7122
 CYCLE:   340 TIME:   0.168 TIME LEFT:  2.00D  GRAD.:     3.165 HEAT:  111.7120
 CYCLE:   341 TIME:   0.191 TIME LEFT:  2.00D  GRAD.:     4.536 HEAT:  111.7118
 CYCLE:   342 TIME:   0.176 TIME LEFT:  2.00D  GRAD.:     2.788 HEAT:  111.7114
 CYCLE:   343 TIME:   0.156 TIME LEFT:  2.00D  GRAD.:     4.172 HEAT:  111.7106
 CYCLE:   344 TIME:   0.160 TIME LEFT:  2.00D  GRAD.:     1.935 HEAT:  111.7104
 CYCLE:   345 TIME:   0.168 TIME LEFT:  2.00D  GRAD.:     1.937 HEAT:  111.7102
 CYCLE:   346 TIME:   0.215 TIME LEFT:  2.00D  GRAD.:     9.735 HEAT:  111.7113
 CYCLE:   347 TIME:   0.203 TIME LEFT:  2.00D  GRAD.:     2.513 HEAT:  111.7091
 CYCLE:   348 TIME:   0.184 TIME LEFT:  2.00D  GRAD.:     2.212 HEAT:  111.7089
 CYCLE:   349 TIME:   0.207 TIME LEFT:  2.00D  GRAD.:     8.517 HEAT:  111.7090
 CYCLE:   350 TIME:   0.195 TIME LEFT:  2.00D  GRAD.:     1.845 HEAT:  111.7083
 CYCLE:   351 TIME:   0.207 TIME LEFT:  2.00D  GRAD.:     1.063 HEAT:  111.7081
 CYCLE:   352 TIME:   0.223 TIME LEFT:  2.00D  GRAD.:     1.724 HEAT:  111.7078
 CYCLE:   353 TIME:   0.223 TIME LEFT:  2.00D  GRAD.:     5.587 HEAT:  111.7071
 CYCLE:   354 TIME:   0.195 TIME LEFT:  2.00D  GRAD.:     4.093 HEAT:  111.7065
 CYCLE:   355 TIME:   0.203 TIME LEFT:  2.00D  GRAD.:     4.223 HEAT:  111.7067
 CYCLE:   356 TIME:   0.195 TIME LEFT:  2.00D  GRAD.:     8.756 HEAT:  111.7066
 CYCLE:   357 TIME:   0.184 TIME LEFT:  2.00D  GRAD.:     1.564 HEAT:  111.7062
 CYCLE:   358 TIME:   0.176 TIME LEFT:  2.00D  GRAD.:     1.865 HEAT:  111.7060
 CYCLE:   359 TIME:   0.203 TIME LEFT:  2.00D  GRAD.:     1.104 HEAT:  111.7057
 CYCLE:   360 TIME:   0.223 TIME LEFT:  2.00D  GRAD.:     2.173 HEAT:  111.7050
 CYCLE:   361 TIME:   0.207 TIME LEFT:  2.00D  GRAD.:     2.029 HEAT:  111.7043
 CYCLE:   362 TIME:   0.195 TIME LEFT:  2.00D  GRAD.:     1.984 HEAT:  111.7038
 CYCLE:   363 TIME:   0.227 TIME LEFT:  2.00D  GRAD.:     2.771 HEAT:  111.7032
 CYCLE:   364 TIME:   0.227 TIME LEFT:  2.00D  GRAD.:    39.040 HEAT:  111.7303
 CYCLE:   365 TIME:   0.188 TIME LEFT:  2.00D  GRAD.:     2.071 HEAT:  111.7029
 CYCLE:   366 TIME:   0.160 TIME LEFT:  2.00D  GRAD.:     2.921 HEAT:  111.7024
 CYCLE:   367 TIME:   0.223 TIME LEFT:  2.00D  GRAD.:   184.731 HEAT:  111.8799
 CYCLE:   368 TIME:   0.203 TIME LEFT:  2.00D  GRAD.:     5.094 HEAT:  111.7024
 CYCLE:   369 TIME:   0.160 TIME LEFT:  2.00D  GRAD.:     2.812 HEAT:  111.7025
 CYCLE:   370 TIME:   0.199 TIME LEFT:  2.00D  GRAD.:   114.947 HEAT:  111.7726
 CYCLE:   371 TIME:   0.184 TIME LEFT:  2.00D  GRAD.:    52.256 HEAT:  111.7162
 CYCLE:   372 TIME:   0.184 TIME LEFT:  2.00D  GRAD.:     4.185 HEAT:  111.7018
 CYCLE:   373 TIME:   0.168 TIME LEFT:  2.00D  GRAD.:     2.623 HEAT:  111.7019
 CYCLE:   374 TIME:   0.164 TIME LEFT:  2.00D  GRAD.:     3.200 HEAT:  111.7013
 CYCLE:   375 TIME:   0.148 TIME LEFT:  2.00D  GRAD.:     5.774 HEAT:  111.7013
 CYCLE:   376 TIME:   0.156 TIME LEFT:  2.00D  GRAD.:     1.743 HEAT:  111.7010
 CYCLE:   377 TIME:   0.176 TIME LEFT:  2.00D  GRAD.:     3.397 HEAT:  111.7009
 CYCLE:   378 TIME:   0.164 TIME LEFT:  2.00D  GRAD.:     2.305 HEAT:  111.7006
 CYCLE:   379 TIME:   0.180 TIME LEFT:  2.00D  GRAD.:     1.460 HEAT:  111.7004
 CYCLE:   380 TIME:   0.188 TIME LEFT:  2.00D  GRAD.:     1.965 HEAT:  111.7001
 CYCLE:   381 TIME:   0.234 TIME LEFT:  2.00D  GRAD.:     7.751 HEAT:  111.7001
 CYCLE:   382 TIME:   0.211 TIME LEFT:  2.00D  GRAD.:     6.297 HEAT:  111.6994
 CYCLE:   383 TIME:   0.188 TIME LEFT:  2.00D  GRAD.:     3.991 HEAT:  111.6990
 CYCLE:   384 TIME:   0.168 TIME LEFT:  2.00D  GRAD.:     4.272 HEAT:  111.6990
 CYCLE:   385 TIME:   0.148 TIME LEFT:  2.00D  GRAD.:    54.893 HEAT:  111.7070
 CYCLE:   386 TIME:   0.504 TIME LEFT:  2.00D  GRAD.:     1.983 HEAT:  111.6989
 CYCLE:   387 TIME:   0.203 TIME LEFT:  2.00D  GRAD.:     3.404 HEAT:  111.6987
 CYCLE:   388 TIME:   0.211 TIME LEFT:  2.00D  GRAD.:     2.441 HEAT:  111.6986
 CYCLE:   389 TIME:   0.223 TIME LEFT:  2.00D  GRAD.:     1.489 HEAT:  111.6984
 CYCLE:   390 TIME:   0.199 TIME LEFT:  2.00D  GRAD.:     2.019 HEAT:  111.6982
 CYCLE:   391 TIME:   0.219 TIME LEFT:  2.00D  GRAD.:    11.437 HEAT:  111.6988
 CYCLE:   392 TIME:   0.223 TIME LEFT:  2.00D  GRAD.:     3.544 HEAT:  111.6980
 CYCLE:   393 TIME:   0.215 TIME LEFT:  2.00D  GRAD.:    12.280 HEAT:  111.6988
 CYCLE:   394 TIME:   0.219 TIME LEFT:  2.00D  GRAD.:     2.496 HEAT:  111.6981
 CYCLE:   395 TIME:   0.176 TIME LEFT:  2.00D  GRAD.:    14.070 HEAT:  111.6991
 CYCLE:   396 TIME:   0.180 TIME LEFT:  2.00D  GRAD.:     2.873 HEAT:  111.6984
 CYCLE:   397 TIME:   0.164 TIME LEFT:  2.00D  GRAD.:    15.359 HEAT:  111.6992
 CYCLE:   398 TIME:   0.168 TIME LEFT:  2.00D  GRAD.:     3.766 HEAT:  111.6972
 CYCLE:   399 TIME:   0.176 TIME LEFT:  2.00D  GRAD.:     5.509 HEAT:  111.6972
 CYCLE:   400 TIME:   0.156 TIME LEFT:  2.00D  GRAD.:     7.514 HEAT:  111.6970
 CYCLE:   401 TIME:   0.145 TIME LEFT:  2.00D  GRAD.:     2.594 HEAT:  111.6969
 CYCLE:   402 TIME:   0.180 TIME LEFT:  2.00D  GRAD.:     2.242 HEAT:  111.6968
 CYCLE:   403 TIME:   0.195 TIME LEFT:  2.00D  GRAD.:     8.246 HEAT:  111.6971
 CYCLE:   404 TIME:   0.211 TIME LEFT:  2.00D  GRAD.:     1.267 HEAT:  111.6966
 CYCLE:   405 TIME:   0.164 TIME LEFT:  2.00D  GRAD.:     1.512 HEAT:  111.6966
 CYCLE:   406 TIME:   0.180 TIME LEFT:  2.00D  GRAD.:     3.113 HEAT:  111.6964
 CYCLE:   407 TIME:   0.168 TIME LEFT:  2.00D  GRAD.:     2.664 HEAT:  111.6963
 CYCLE:   408 TIME:   0.152 TIME LEFT:  2.00D  GRAD.:     0.939 HEAT:  111.6962
 CYCLE:   409 TIME:   0.172 TIME LEFT:  2.00D  GRAD.:     1.261 HEAT:  111.6961
 CYCLE:   410 TIME:   0.184 TIME LEFT:  2.00D  GRAD.:     1.840 HEAT:  111.6960
 CYCLE:   411 TIME:   0.156 TIME LEFT:  2.00D  GRAD.:     1.870 HEAT:  111.6958
 CYCLE:   412 TIME:   0.176 TIME LEFT:  2.00D  GRAD.:     4.668 HEAT:  111.6955
 CYCLE:   413 TIME:   1.230 TIME LEFT:  2.00D  GRAD.:     4.989 HEAT:  111.6953
 CYCLE:   414 TIME:   2.465 TIME LEFT:  2.00D  GRAD.:    21.918 HEAT:  111.6982
 CYCLE:   415 TIME:   0.180 TIME LEFT:  2.00D  GRAD.:     9.910 HEAT:  111.6955
 CYCLE:   416 TIME:   0.168 TIME LEFT:  2.00D  GRAD.:    14.025 HEAT:  111.6962
 CYCLE:   417 TIME:   0.141 TIME LEFT:  2.00D  GRAD.:     1.838 HEAT:  111.6950
 CYCLE:   418 TIME:   0.141 TIME LEFT:  2.00D  GRAD.:     1.693 HEAT:  111.6950
 CYCLE:   419 TIME:   0.152 TIME LEFT:  2.00D  GRAD.:     2.431 HEAT:  111.6948
 CYCLE:   420 TIME:   0.141 TIME LEFT:  2.00D  GRAD.:     1.104 HEAT:  111.6947
 CYCLE:   421 TIME:   0.152 TIME LEFT:  2.00D  GRAD.:     0.998 HEAT:  111.6945
 CYCLE:   422 TIME:   0.176 TIME LEFT:  2.00D  GRAD.:     2.366 HEAT:  111.6942
 CYCLE:   423 TIME:   0.176 TIME LEFT:  2.00D  GRAD.:    10.713 HEAT:  111.6946
 CYCLE:   424 TIME:   0.133 TIME LEFT:  2.00D  GRAD.:     2.194 HEAT:  111.6939
 CYCLE:   425 TIME:   0.168 TIME LEFT:  2.00D  GRAD.:     4.149 HEAT:  111.6939
 CYCLE:   426 TIME:   0.141 TIME LEFT:  2.00D  GRAD.:     2.002 HEAT:  111.6935
 CYCLE:   427 TIME:   0.164 TIME LEFT:  2.00D  GRAD.:     2.754 HEAT:  111.6933
 CYCLE:   428 TIME:   0.145 TIME LEFT:  2.00D  GRAD.:     1.444 HEAT:  111.6932
 CYCLE:   429 TIME:   0.160 TIME LEFT:  2.00D  GRAD.:     1.366 HEAT:  111.6929
 CYCLE:   430 TIME:   0.172 TIME LEFT:  2.00D  GRAD.:     3.512 HEAT:  111.6926
 CYCLE:   431 TIME:   0.199 TIME LEFT:  2.00D  GRAD.:    10.075 HEAT:  111.6936
 CYCLE:   432 TIME:   0.160 TIME LEFT:  2.00D  GRAD.:     3.530 HEAT:  111.6924
 CYCLE:   433 TIME:   0.164 TIME LEFT:  2.00D  GRAD.:     7.014 HEAT:  111.6934
 CYCLE:   434 TIME:   0.156 TIME LEFT:  2.00D  GRAD.:     5.246 HEAT:  111.6926
 CYCLE:   435 TIME:   0.160 TIME LEFT:  2.00D  GRAD.:     6.146 HEAT:  111.6926
 CYCLE:   436 TIME:   0.203 TIME LEFT:  2.00D  GRAD.:     2.142 HEAT:  111.6921
 CYCLE:   437 TIME:   0.164 TIME LEFT:  2.00D  GRAD.:     2.403 HEAT:  111.6919
 CYCLE:   438 TIME:   0.191 TIME LEFT:  2.00D  GRAD.:     5.053 HEAT:  111.6919
 CYCLE:   439 TIME:   0.188 TIME LEFT:  2.00D  GRAD.:     1.457 HEAT:  111.6915
 CYCLE:   440 TIME:   0.195 TIME LEFT:  2.00D  GRAD.:     0.937 HEAT:  111.6914
 CYCLE:   441 TIME:   0.199 TIME LEFT:  2.00D  GRAD.:     1.284 HEAT:  111.6912
 CYCLE:   442 TIME:   0.211 TIME LEFT:  2.00D  GRAD.:     6.632 HEAT:  111.6912
 CYCLE:   443 TIME:   0.148 TIME LEFT:  2.00D  GRAD.:     1.250 HEAT:  111.6910
 CYCLE:   444 TIME:   0.176 TIME LEFT:  2.00D  GRAD.:     1.921 HEAT:  111.6909
 CYCLE:   445 TIME:   0.215 TIME LEFT:  2.00D  GRAD.:     1.992 HEAT:  111.6907
 CYCLE:   446 TIME:   0.184 TIME LEFT:  2.00D  GRAD.:     3.599 HEAT:  111.6904
 CYCLE:   447 TIME:   0.195 TIME LEFT:  2.00D  GRAD.:     1.072 HEAT:  111.6902
 CYCLE:   448 TIME:   0.195 TIME LEFT:  2.00D  GRAD.:     3.589 HEAT:  111.6904
 CYCLE:   449 TIME:   0.156 TIME LEFT:  2.00D  GRAD.:     1.714 HEAT:  111.6901
 CYCLE:   450 TIME:   0.168 TIME LEFT:  2.00D  GRAD.:     1.234 HEAT:  111.6901
 CYCLE:   451 TIME:   0.168 TIME LEFT:  2.00D  GRAD.:     1.073 HEAT:  111.6900
 CYCLE:   452 TIME:   0.172 TIME LEFT:  2.00D  GRAD.:     2.110 HEAT:  111.6898
 CYCLE:   453 TIME:   0.227 TIME LEFT:  2.00D  GRAD.:     1.486 HEAT:  111.6896
 CYCLE:   454 TIME:   0.168 TIME LEFT:  2.00D  GRAD.:     3.032 HEAT:  111.6894
 CYCLE:   455 TIME:   0.145 TIME LEFT:  2.00D  GRAD.:     1.671 HEAT:  111.6893
 CYCLE:   456 TIME:   0.176 TIME LEFT:  2.00D  GRAD.:     1.383 HEAT:  111.6892
 CYCLE:   457 TIME:   0.184 TIME LEFT:  2.00D  GRAD.:     1.868 HEAT:  111.6890
 CYCLE:   458 TIME:   0.152 TIME LEFT:  2.00D  GRAD.:    10.806 HEAT:  111.6892
 CYCLE:   459 TIME:   0.195 TIME LEFT:  2.00D  GRAD.:     1.547 HEAT:  111.6887
 CYCLE:   460 TIME:   0.148 TIME LEFT:  2.00D  GRAD.:     1.451 HEAT:  111.6886
 CYCLE:   461 TIME:   0.164 TIME LEFT:  2.00D  GRAD.:     6.850 HEAT:  111.6889
 CYCLE:   462 TIME:   0.148 TIME LEFT:  2.00D  GRAD.:     1.100 HEAT:  111.6883
 CYCLE:   463 TIME:   0.164 TIME LEFT:  2.00D  GRAD.:     1.182 HEAT:  111.6881
 CYCLE:   464 TIME:   0.152 TIME LEFT:  2.00D  GRAD.:     0.950 HEAT:  111.6879
 CYCLE:   465 TIME:   0.164 TIME LEFT:  2.00D  GRAD.:     2.580 HEAT:  111.6875
 CYCLE:   466 TIME:   0.156 TIME LEFT:  2.00D  GRAD.:     3.312 HEAT:  111.6873
 CYCLE:   467 TIME:   0.137 TIME LEFT:  2.00D  GRAD.:     1.476 HEAT:  111.6872
 CYCLE:   468 TIME:   0.152 TIME LEFT:  2.00D  GRAD.:     4.927 HEAT:  111.6871
 CYCLE:   469 TIME:   0.152 TIME LEFT:  2.00D  GRAD.:     1.298 HEAT:  111.6870
 CYCLE:   470 TIME:   0.180 TIME LEFT:  2.00D  GRAD.:     1.427 HEAT:  111.6869
 CYCLE:   471 TIME:   0.199 TIME LEFT:  2.00D  GRAD.:     1.439 HEAT:  111.6868
 CYCLE:   472 TIME:   0.262 TIME LEFT:  2.00D  GRAD.:     7.304 HEAT:  111.6867
 CYCLE:   473 TIME:   0.172 TIME LEFT:  2.00D  GRAD.:     2.153 HEAT:  111.6865
 CYCLE:   474 TIME:   0.180 TIME LEFT:  2.00D  GRAD.:     1.317 HEAT:  111.6865
 CYCLE:   475 TIME:   0.176 TIME LEFT:  2.00D  GRAD.:     6.070 HEAT:  111.6864
 CYCLE:   476 TIME:   0.168 TIME LEFT:  2.00D  GRAD.:     1.784 HEAT:  111.6863
 CYCLE:   477 TIME:   0.168 TIME LEFT:  2.00D  GRAD.:     1.128 HEAT:  111.6862
 CYCLE:   478 TIME:   0.191 TIME LEFT:  2.00D  GRAD.:     0.979 HEAT:  111.6862
 CYCLE:   479 TIME:   0.289 TIME LEFT:  2.00D  GRAD.:     0.885 HEAT:  111.6860
 CYCLE:   480 TIME:   0.160 TIME LEFT:  2.00D  GRAD.:     1.413 HEAT:  111.6859
 CYCLE:   481 TIME:   0.148 TIME LEFT:  2.00D  GRAD.:     2.326 HEAT:  111.6858
 CYCLE:   482 TIME:   0.133 TIME LEFT:  2.00D  GRAD.:     1.067 HEAT:  111.6857
 CYCLE:   483 TIME:   0.152 TIME LEFT:  2.00D  GRAD.:     2.156 HEAT:  111.6856
 CYCLE:   484 TIME:   0.148 TIME LEFT:  2.00D  GRAD.:     1.069 HEAT:  111.6855
 CYCLE:   485 TIME:   0.258 TIME LEFT:  2.00D  GRAD.:     1.833 HEAT:  111.6854
 CYCLE:   486 TIME:   0.156 TIME LEFT:  2.00D  GRAD.:     1.247 HEAT:  111.6853
 CYCLE:   487 TIME:   0.172 TIME LEFT:  2.00D  GRAD.:     1.882 HEAT:  111.6851
 CYCLE:   488 TIME:   0.172 TIME LEFT:  2.00D  GRAD.:     2.344 HEAT:  111.6849
 CYCLE:   489 TIME:   0.160 TIME LEFT:  2.00D  GRAD.:     3.922 HEAT:  111.6848
 CYCLE:   490 TIME:   0.145 TIME LEFT:  2.00D  GRAD.:     1.252 HEAT:  111.6847
 CYCLE:   491 TIME:   0.203 TIME LEFT:  2.00D  GRAD.:     6.049 HEAT:  111.6846
 CYCLE:   492 TIME:   0.168 TIME LEFT:  2.00D  GRAD.:     1.367 HEAT:  111.6845
 CYCLE:   493 TIME:   0.180 TIME LEFT:  2.00D  GRAD.:     1.434 HEAT:  111.6844
 CYCLE:   494 TIME:   0.148 TIME LEFT:  2.00D  GRAD.:     1.186 HEAT:  111.6843
 CYCLE:   495 TIME:   0.156 TIME LEFT:  2.00D  GRAD.:     0.750 HEAT:  111.6842
 CYCLE:   496 TIME:   0.176 TIME LEFT:  2.00D  GRAD.:     1.281 HEAT:  111.6839
 CYCLE:   497 TIME:   0.172 TIME LEFT:  2.00D  GRAD.:     1.939 HEAT:  111.6837
 CYCLE:   498 TIME:   0.203 TIME LEFT:  2.00D  GRAD.:     2.216 HEAT:  111.6833
 CYCLE:   499 TIME:   0.207 TIME LEFT:  2.00D  GRAD.:     2.376 HEAT:  111.6829
 CYCLE:   500 TIME:   0.203 TIME LEFT:  2.00D  GRAD.:     1.608 HEAT:  111.6828
 CYCLE:   501 TIME:   0.211 TIME LEFT:  2.00D  GRAD.:     2.840 HEAT:  111.6829
 CYCLE:   502 TIME:   0.199 TIME LEFT:  2.00D  GRAD.:     2.039 HEAT:  111.6826
 CYCLE:   503 TIME:   0.172 TIME LEFT:  2.00D  GRAD.:     2.934 HEAT:  111.6824
 CYCLE:   504 TIME:   0.195 TIME LEFT:  2.00D  GRAD.:     1.714 HEAT:  111.6823
 CYCLE:   505 TIME:   0.180 TIME LEFT:  2.00D  GRAD.:     1.468 HEAT:  111.6822
 CYCLE:   506 TIME:   0.184 TIME LEFT:  2.00D  GRAD.:     6.777 HEAT:  111.6822
 CYCLE:   507 TIME:   0.188 TIME LEFT:  2.00D  GRAD.:     1.979 HEAT:  111.6820
 CYCLE:   508 TIME:   0.180 TIME LEFT:  2.00D  GRAD.:     1.665 HEAT:  111.6819
 CYCLE:   509 TIME:   0.156 TIME LEFT:  2.00D  GRAD.:     1.074 HEAT:  111.6818
 CYCLE:   510 TIME:   0.168 TIME LEFT:  2.00D  GRAD.:     1.083 HEAT:  111.6816
 CYCLE:   511 TIME:   0.180 TIME LEFT:  2.00D  GRAD.:     1.959 HEAT:  111.6814
 CYCLE:   512 TIME:   0.160 TIME LEFT:  2.00D  GRAD.:     3.387 HEAT:  111.6810
 CYCLE:   513 TIME:   0.160 TIME LEFT:  2.00D  GRAD.:     1.939 HEAT:  111.6808
 CYCLE:   514 TIME:   0.172 TIME LEFT:  2.00D  GRAD.:     2.614 HEAT:  111.6808
 CYCLE:   515 TIME:   0.141 TIME LEFT:  2.00D  GRAD.:     3.147 HEAT:  111.6806
 CYCLE:   516 TIME:   0.137 TIME LEFT:  2.00D  GRAD.:     5.265 HEAT:  111.6805
 CYCLE:   517 TIME:   0.137 TIME LEFT:  2.00D  GRAD.:     1.280 HEAT:  111.6803
 CYCLE:   518 TIME:   0.184 TIME LEFT:  2.00D  GRAD.:     2.352 HEAT:  111.6801
 CYCLE:   519 TIME:   0.195 TIME LEFT:  2.00D  GRAD.:     1.698 HEAT:  111.6799
 CYCLE:   520 TIME:   0.195 TIME LEFT:  2.00D  GRAD.:     2.132 HEAT:  111.6797
 CYCLE:   521 TIME:   0.211 TIME LEFT:  2.00D  GRAD.:     4.791 HEAT:  111.6795
 CYCLE:   522 TIME:   0.156 TIME LEFT:  2.00D  GRAD.:     3.449 HEAT:  111.6794
 CYCLE:   523 TIME:   0.172 TIME LEFT:  2.00D  GRAD.:     1.426 HEAT:  111.6793
 CYCLE:   524 TIME:   0.191 TIME LEFT:  2.00D  GRAD.:     1.770 HEAT:  111.6792
 CYCLE:   525 TIME:   0.195 TIME LEFT:  2.00D  GRAD.:     1.867 HEAT:  111.6790
 CYCLE:   526 TIME:   0.172 TIME LEFT:  2.00D  GRAD.:     1.738 HEAT:  111.6789
 CYCLE:   527 TIME:   0.211 TIME LEFT:  2.00D  GRAD.:     2.037 HEAT:  111.6785
 CYCLE:   528 TIME:   0.195 TIME LEFT:  2.00D  GRAD.:     3.523 HEAT:  111.6785
 CYCLE:   529 TIME:   0.168 TIME LEFT:  2.00D  GRAD.:     4.043 HEAT:  111.6784
 CYCLE:   530 TIME:   0.195 TIME LEFT:  2.00D  GRAD.:     1.858 HEAT:  111.6781
 CYCLE:   531 TIME:   0.195 TIME LEFT:  2.00D  GRAD.:     5.369 HEAT:  111.6781
 CYCLE:   532 TIME:   0.184 TIME LEFT:  2.00D  GRAD.:     1.033 HEAT:  111.6778
 CYCLE:   533 TIME:   0.180 TIME LEFT:  2.00D  GRAD.:     0.816 HEAT:  111.6778
 CYCLE:   534 TIME:   0.199 TIME LEFT:  2.00D  GRAD.:     5.048 HEAT:  111.6778
 CYCLE:   535 TIME:   0.184 TIME LEFT:  2.00D  GRAD.:     1.952 HEAT:  111.6776
 CYCLE:   536 TIME:   0.184 TIME LEFT:  2.00D  GRAD.:     0.753 HEAT:  111.6775
 CYCLE:   537 TIME:   0.172 TIME LEFT:  2.00D  GRAD.:     1.106 HEAT:  111.6774
 CYCLE:   538 TIME:   0.215 TIME LEFT:  2.00D  GRAD.:     0.970 HEAT:  111.6773
 CYCLE:   539 TIME:   0.223 TIME LEFT:  2.00D  GRAD.:     0.818 HEAT:  111.6769
 CYCLE:   540 TIME:   0.219 TIME LEFT:  2.00D  GRAD.:     3.562 HEAT:  111.6767
 CYCLE:   541 TIME:   0.195 TIME LEFT:  2.00D  GRAD.:     6.673 HEAT:  111.6766
 CYCLE:   542 TIME:   0.188 TIME LEFT:  2.00D  GRAD.:     2.805 HEAT:  111.6766
 CYCLE:   543 TIME:   0.215 TIME LEFT:  2.00D  GRAD.:     6.258 HEAT:  111.6766
 CYCLE:   544 TIME:   0.168 TIME LEFT:  2.00D  GRAD.:     4.315 HEAT:  111.6766
 CYCLE:   545 TIME:   0.188 TIME LEFT:  2.00D  GRAD.:     2.021 HEAT:  111.6761
 CYCLE:   546 TIME:   0.172 TIME LEFT:  2.00D  GRAD.:     0.918 HEAT:  111.6760
 CYCLE:   547 TIME:   0.172 TIME LEFT:  2.00D  GRAD.:     1.545 HEAT:  111.6758
 CYCLE:   548 TIME:   0.188 TIME LEFT:  2.00D  GRAD.:     5.707 HEAT:  111.6755
 CYCLE:   549 TIME:   0.160 TIME LEFT:  2.00D  GRAD.:    16.413 HEAT:  111.6776
 CYCLE:   550 TIME:   0.180 TIME LEFT:  2.00D  GRAD.:    21.568 HEAT:  111.6779
 CYCLE:   551 TIME:   0.203 TIME LEFT:  2.00D  GRAD.:    16.869 HEAT:  111.6778
 CYCLE:   552 TIME:   0.219 TIME LEFT:  2.00D  GRAD.:     2.825 HEAT:  111.6769
 CYCLE:   553 TIME:   0.230 TIME LEFT:  2.00D  GRAD.:     9.668 HEAT:  111.6758
 CYCLE:   554 TIME:   0.211 TIME LEFT:  2.00D  GRAD.:     3.246 HEAT:  111.6752
 CYCLE:   555 TIME:   0.211 TIME LEFT:  2.00D  GRAD.:     1.308 HEAT:  111.6750
 CYCLE:   556 TIME:   0.203 TIME LEFT:  2.00D  GRAD.:     1.175 HEAT:  111.6749
 CYCLE:   557 TIME:   0.156 TIME LEFT:  2.00D  GRAD.:     5.456 HEAT:  111.6748
 CYCLE:   558 TIME:   0.156 TIME LEFT:  2.00D  GRAD.:     1.877 HEAT:  111.6746
 CYCLE:   559 TIME:   0.148 TIME LEFT:  2.00D  GRAD.:     1.211 HEAT:  111.6745
 CYCLE:   560 TIME:   0.180 TIME LEFT:  2.00D  GRAD.:     1.170 HEAT:  111.6744
 CYCLE:   561 TIME:   0.164 TIME LEFT:  2.00D  GRAD.:     7.473 HEAT:  111.6745
 CYCLE:   562 TIME:   0.141 TIME LEFT:  2.00D  GRAD.:     1.248 HEAT:  111.6740
 CYCLE:   563 TIME:   0.184 TIME LEFT:  2.00D  GRAD.:     8.144 HEAT:  111.6743
 CYCLE:   564 TIME:   0.844 TIME LEFT:  2.00D  GRAD.:     1.942 HEAT:  111.6738
 CYCLE:   565 TIME:   2.336 TIME LEFT:  2.00D  GRAD.:     1.731 HEAT:  111.6737
 CYCLE:   566 TIME:   0.199 TIME LEFT:  2.00D  GRAD.:     0.895 HEAT:  111.6736
 CYCLE:   567 TIME:   0.195 TIME LEFT:  2.00D  GRAD.:     1.725 HEAT:  111.6734
 CYCLE:   568 TIME:   0.148 TIME LEFT:  2.00D  GRAD.:     1.715 HEAT:  111.6733
 CYCLE:   569 TIME:   0.176 TIME LEFT:  2.00D  GRAD.:     4.736 HEAT:  111.6732
 CYCLE:   570 TIME:   0.156 TIME LEFT:  2.00D  GRAD.:     1.744 HEAT:  111.6729
 CYCLE:   571 TIME:   0.152 TIME LEFT:  2.00D  GRAD.:     1.599 HEAT:  111.6728
 CYCLE:   572 TIME:   0.164 TIME LEFT:  2.00D  GRAD.:     1.226 HEAT:  111.6727
 CYCLE:   573 TIME:   0.191 TIME LEFT:  2.00D  GRAD.:     2.790 HEAT:  111.6727
 CYCLE:   574 TIME:   0.191 TIME LEFT:  2.00D  GRAD.:     1.045 HEAT:  111.6726
 CYCLE:   575 TIME:   0.156 TIME LEFT:  2.00D  GRAD.:     2.929 HEAT:  111.6724
 CYCLE:   576 TIME:   0.156 TIME LEFT:  2.00D  GRAD.:    16.964 HEAT:  111.6750
 CYCLE:   577 TIME:   0.148 TIME LEFT:  2.00D  GRAD.:     3.805 HEAT:  111.6722
 CYCLE:   578 TIME:   0.164 TIME LEFT:  2.00D  GRAD.:     5.175 HEAT:  111.6722
 CYCLE:   579 TIME:   0.176 TIME LEFT:  2.00D  GRAD.:    17.584 HEAT:  111.6773
 CYCLE:   580 TIME:   0.164 TIME LEFT:  2.00D  GRAD.:    21.763 HEAT:  111.6799
 CYCLE:   581 TIME:   0.145 TIME LEFT:  2.00D  GRAD.:     2.706 HEAT:  111.6717
 CYCLE:   582 TIME:   0.168 TIME LEFT:  2.00D  GRAD.:     4.911 HEAT:  111.6725
 CYCLE:   583 TIME:   0.168 TIME LEFT:  2.00D  GRAD.:     2.521 HEAT:  111.6714
 CYCLE:   584 TIME:   0.148 TIME LEFT:  2.00D  GRAD.:     9.518 HEAT:  111.6717
 CYCLE:   585 TIME:   0.141 TIME LEFT:  2.00D  GRAD.:     1.152 HEAT:  111.6714
 CYCLE:   586 TIME:   0.160 TIME LEFT:  2.00D  GRAD.:     2.684 HEAT:  111.6713
 CYCLE:   587 TIME:   0.148 TIME LEFT:  2.00D  GRAD.:     1.116 HEAT:  111.6712
 CYCLE:   588 TIME:   0.152 TIME LEFT:  2.00D  GRAD.:     1.459 HEAT:  111.6710
 CYCLE:   589 TIME:   0.160 TIME LEFT:  2.00D  GRAD.:     8.107 HEAT:  111.6708
 CYCLE:   590 TIME:   0.145 TIME LEFT:  2.00D  GRAD.:     4.032 HEAT:  111.6706
 CYCLE:   591 TIME:   0.164 TIME LEFT:  2.00D  GRAD.:     1.304 HEAT:  111.6702
 CYCLE:   592 TIME:   0.156 TIME LEFT:  2.00D  GRAD.:     1.534 HEAT:  111.6700
 CYCLE:   593 TIME:   0.219 TIME LEFT:  2.00D  GRAD.:     2.674 HEAT:  111.6694
 CYCLE:   594 TIME:   0.168 TIME LEFT:  2.00D  GRAD.:     6.326 HEAT:  111.6691
 CYCLE:   595 TIME:   0.148 TIME LEFT:  2.00D  GRAD.:     2.452 HEAT:  111.6687
 CYCLE:   596 TIME:   0.164 TIME LEFT:  2.00D  GRAD.:     3.417 HEAT:  111.6690
 CYCLE:   597 TIME:   0.164 TIME LEFT:  2.00D  GRAD.:     1.061 HEAT:  111.6687
 CYCLE:   598 TIME:   0.164 TIME LEFT:  2.00D  GRAD.:     0.900 HEAT:  111.6687
 CYCLE:   599 TIME:   0.164 TIME LEFT:  2.00D  GRAD.:     0.739 HEAT:  111.6686
 CYCLE:   600 TIME:   0.219 TIME LEFT:  2.00D  GRAD.:     7.168 HEAT:  111.6687
 CYCLE:   601 TIME:   0.195 TIME LEFT:  2.00D  GRAD.:     1.773 HEAT:  111.6682
 CYCLE:   602 TIME:   0.148 TIME LEFT:  2.00D  GRAD.:     1.024 HEAT:  111.6681
 CYCLE:   603 TIME:   0.188 TIME LEFT:  2.00D  GRAD.:     1.504 HEAT:  111.6680
 CYCLE:   604 TIME:   0.219 TIME LEFT:  2.00D  GRAD.:     2.344 HEAT:  111.6678
 CYCLE:   605 TIME:   0.156 TIME LEFT:  2.00D  GRAD.:     1.487 HEAT:  111.6676
 CYCLE:   606 TIME:   0.156 TIME LEFT:  2.00D  GRAD.:     1.409 HEAT:  111.6675
 CYCLE:   607 TIME:   0.160 TIME LEFT:  2.00D  GRAD.:     2.059 HEAT:  111.6672
 CYCLE:   608 TIME:   0.168 TIME LEFT:  2.00D  GRAD.:     2.241 HEAT:  111.6670
 CYCLE:   609 TIME:   0.191 TIME LEFT:  2.00D  GRAD.:     5.110 HEAT:  111.6669
 CYCLE:   610 TIME:   0.188 TIME LEFT:  2.00D  GRAD.:     3.163 HEAT:  111.6667
 CYCLE:   611 TIME:   0.176 TIME LEFT:  2.00D  GRAD.:     6.085 HEAT:  111.6669
 CYCLE:   612 TIME:   0.191 TIME LEFT:  2.00D  GRAD.:    39.283 HEAT:  111.6722
 CYCLE:   613 TIME:   0.176 TIME LEFT:  2.00D  GRAD.:     9.620 HEAT:  111.6667
 CYCLE:   614 TIME:   0.199 TIME LEFT:  2.00D  GRAD.:     9.119 HEAT:  111.6667
 CYCLE:   615 TIME:   0.207 TIME LEFT:  2.00D  GRAD.:    40.856 HEAT:  111.6893
 CYCLE:   616 TIME:   0.191 TIME LEFT:  2.00D  GRAD.:    17.080 HEAT:  111.6705
 CYCLE:   617 TIME:   0.195 TIME LEFT:  2.00D  GRAD.:    13.102 HEAT:  111.6666
 CYCLE:   618 TIME:   0.152 TIME LEFT:  2.00D  GRAD.:     2.066 HEAT:  111.6652
 CYCLE:   619 TIME:   0.152 TIME LEFT:  2.00D  GRAD.:     2.748 HEAT:  111.6652
 CYCLE:   620 TIME:   0.148 TIME LEFT:  2.00D  GRAD.:     8.813 HEAT:  111.6653
 CYCLE:   621 TIME:   0.145 TIME LEFT:  2.00D  GRAD.:     6.962 HEAT:  111.6646
 CYCLE:   622 TIME:   0.148 TIME LEFT:  2.00D  GRAD.:     1.162 HEAT:  111.6642
 CYCLE:   623 TIME:   0.145 TIME LEFT:  2.00D  GRAD.:     1.234 HEAT:  111.6642
 CYCLE:   624 TIME:   0.152 TIME LEFT:  2.00D  GRAD.:     1.635 HEAT:  111.6640
 CYCLE:   625 TIME:   0.152 TIME LEFT:  2.00D  GRAD.:     2.493 HEAT:  111.6635
 CYCLE:   626 TIME:   0.156 TIME LEFT:  2.00D  GRAD.:    18.158 HEAT:  111.6643
 CYCLE:   627 TIME:   0.145 TIME LEFT:  2.00D  GRAD.:     2.232 HEAT:  111.6631
 CYCLE:   628 TIME:   0.168 TIME LEFT:  2.00D  GRAD.:     3.692 HEAT:  111.6628
 CYCLE:   629 TIME:   0.145 TIME LEFT:  2.00D  GRAD.:     1.203 HEAT:  111.6625
 CYCLE:   630 TIME:   0.164 TIME LEFT:  2.00D  GRAD.:     1.375 HEAT:  111.6621
 CYCLE:   631 TIME:   0.168 TIME LEFT:  2.00D  GRAD.:     2.681 HEAT:  111.6616
 CYCLE:   632 TIME:   0.164 TIME LEFT:  2.00D  GRAD.:     6.617 HEAT:  111.6612
 CYCLE:   633 TIME:   0.145 TIME LEFT:  2.00D  GRAD.:     2.662 HEAT:  111.6607
 CYCLE:   634 TIME:   0.168 TIME LEFT:  2.00D  GRAD.:     8.384 HEAT:  111.6613
 CYCLE:   635 TIME:   0.156 TIME LEFT:  2.00D  GRAD.:     0.827 HEAT:  111.6607
 CYCLE:   636 TIME:   0.168 TIME LEFT:  2.00D  GRAD.:     0.951 HEAT:  111.6607
 CYCLE:   637 TIME:   0.176 TIME LEFT:  2.00D  GRAD.:     1.136 HEAT:  111.6606
 CYCLE:   638 TIME:   0.207 TIME LEFT:  2.00D  GRAD.:     2.934 HEAT:  111.6604
 CYCLE:   639 TIME:   0.176 TIME LEFT:  2.00D  GRAD.:     3.548 HEAT:  111.6599
 CYCLE:   640 TIME:   0.164 TIME LEFT:  2.00D  GRAD.:     9.696 HEAT:  111.6598
 CYCLE:   641 TIME:   0.156 TIME LEFT:  2.00D  GRAD.:     1.976 HEAT:  111.6591
 CYCLE:   642 TIME:   0.176 TIME LEFT:  2.00D  GRAD.:     4.787 HEAT:  111.6587
 CYCLE:   643 TIME:   0.164 TIME LEFT:  2.00D  GRAD.:     1.689 HEAT:  111.6585
 CYCLE:   644 TIME:   0.172 TIME LEFT:  2.00D  GRAD.:     4.094 HEAT:  111.6583
 CYCLE:   645 TIME:   0.160 TIME LEFT:  2.00D  GRAD.:     2.010 HEAT:  111.6581
 CYCLE:   646 TIME:   0.156 TIME LEFT:  2.00D  GRAD.:     1.091 HEAT:  111.6579
 CYCLE:   647 TIME:   0.199 TIME LEFT:  2.00D  GRAD.:     6.085 HEAT:  111.6575
 CYCLE:   648 TIME:   0.160 TIME LEFT:  2.00D  GRAD.:     3.190 HEAT:  111.6573
 CYCLE:   649 TIME:   0.160 TIME LEFT:  2.00D  GRAD.:     5.550 HEAT:  111.6568
 CYCLE:   650 TIME:   0.137 TIME LEFT:  2.00D  GRAD.:     2.004 HEAT:  111.6567
 CYCLE:   651 TIME:   0.152 TIME LEFT:  2.00D  GRAD.:    13.925 HEAT:  111.6567
 CYCLE:   652 TIME:   0.141 TIME LEFT:  2.00D  GRAD.:     3.385 HEAT:  111.6563
 CYCLE:   653 TIME:   0.156 TIME LEFT:  2.00D  GRAD.:     1.362 HEAT:  111.6560
 CYCLE:   654 TIME:   0.156 TIME LEFT:  2.00D  GRAD.:     2.342 HEAT:  111.6559
 CYCLE:   655 TIME:   0.160 TIME LEFT:  2.00D  GRAD.:     2.478 HEAT:  111.6555
 CYCLE:   656 TIME:   0.199 TIME LEFT:  2.00D  GRAD.:     2.485 HEAT:  111.6548
 CYCLE:   657 TIME:   0.180 TIME LEFT:  2.00D  GRAD.:     2.730 HEAT:  111.6540
 CYCLE:   658 TIME:   0.168 TIME LEFT:  2.00D  GRAD.:     3.076 HEAT:  111.6531
 CYCLE:   659 TIME:   0.199 TIME LEFT:  2.00D  GRAD.:     2.402 HEAT:  111.6522
 CYCLE:   660 TIME:   0.191 TIME LEFT:  2.00D  GRAD.:     1.803 HEAT:  111.6510
 CYCLE:   661 TIME:   0.184 TIME LEFT:  2.00D  GRAD.:     1.957 HEAT:  111.6501
 CYCLE:   662 TIME:   0.230 TIME LEFT:  2.00D  GRAD.:     4.320 HEAT:  111.6494
 CYCLE:   663 TIME:   0.270 TIME LEFT:  2.00D  GRAD.:     6.544 HEAT:  111.6488
 CYCLE:   664 TIME:   0.164 TIME LEFT:  2.00D  GRAD.:     8.667 HEAT:  111.6503
 CYCLE:   665 TIME:   0.160 TIME LEFT:  2.00D  GRAD.:    23.402 HEAT:  111.6536
 CYCLE:   666 TIME:   0.168 TIME LEFT:  2.00D  GRAD.:    80.861 HEAT:  111.7000
 CYCLE:   667 TIME:   0.156 TIME LEFT:  2.00D  GRAD.:    11.369 HEAT:  111.6491
 CYCLE:   668 TIME:   0.180 TIME LEFT:  2.00D  GRAD.:     4.248 HEAT:  111.6470
 CYCLE:   669 TIME:   0.152 TIME LEFT:  2.00D  GRAD.:    90.666 HEAT:  111.6780
 CYCLE:   670 TIME:   0.148 TIME LEFT:  2.00D  GRAD.:     2.274 HEAT:  111.6470
 CYCLE:   671 TIME:   0.172 TIME LEFT:  2.00D  GRAD.:    15.248 HEAT:  111.6478
 CYCLE:   672 TIME:   0.156 TIME LEFT:  2.00D  GRAD.:     7.876 HEAT:  111.6472
 CYCLE:   673 TIME:   0.172 TIME LEFT:  2.00D  GRAD.:     1.643 HEAT:  111.6460
 CYCLE:   674 TIME:   0.160 TIME LEFT:  2.00D  GRAD.:     2.221 HEAT:  111.6462
 CYCLE:   675 TIME:   0.152 TIME LEFT:  2.00D  GRAD.:     7.110 HEAT:  111.6462
 CYCLE:   676 TIME:   0.219 TIME LEFT:  2.00D  GRAD.:     1.864 HEAT:  111.6458
 CYCLE:   677 TIME:   0.180 TIME LEFT:  2.00D  GRAD.:     1.328 HEAT:  111.6456
 CYCLE:   678 TIME:   0.164 TIME LEFT:  2.00D  GRAD.:     7.703 HEAT:  111.6455
 CYCLE:   679 TIME:   0.145 TIME LEFT:  2.00D  GRAD.:     2.369 HEAT:  111.6448
 CYCLE:   680 TIME:   0.168 TIME LEFT:  2.00D  GRAD.:     1.689 HEAT:  111.6444
 CYCLE:   681 TIME:   0.199 TIME LEFT:  2.00D  GRAD.:     5.247 HEAT:  111.6442
 CYCLE:   682 TIME:   0.172 TIME LEFT:  2.00D  GRAD.:     2.697 HEAT:  111.6437
 CYCLE:   683 TIME:   0.148 TIME LEFT:  2.00D  GRAD.:     1.677 HEAT:  111.6434
 CYCLE:   684 TIME:   0.180 TIME LEFT:  2.00D  GRAD.:     5.289 HEAT:  111.6428
 CYCLE:   685 TIME:   0.152 TIME LEFT:  2.00D  GRAD.:     2.117 HEAT:  111.6425
 CYCLE:   686 TIME:   0.254 TIME LEFT:  2.00D  GRAD.:     8.216 HEAT:  111.6423
 CYCLE:   687 TIME:   0.219 TIME LEFT:  2.00D  GRAD.:     2.470 HEAT:  111.6421
 CYCLE:   688 TIME:   0.176 TIME LEFT:  2.00D  GRAD.:     2.746 HEAT:  111.6420
 CYCLE:   689 TIME:   0.172 TIME LEFT:  2.00D  GRAD.:     2.071 HEAT:  111.6418
 CYCLE:   690 TIME:   0.191 TIME LEFT:  2.00D  GRAD.:     1.942 HEAT:  111.6416
 CYCLE:   691 TIME:   0.207 TIME LEFT:  2.00D  GRAD.:     2.697 HEAT:  111.6409
 CYCLE:   692 TIME:   0.191 TIME LEFT:  2.00D  GRAD.:     2.777 HEAT:  111.6405
 CYCLE:   693 TIME:   0.211 TIME LEFT:  2.00D  GRAD.:     2.669 HEAT:  111.6399
 CYCLE:   694 TIME:   0.156 TIME LEFT:  2.00D  GRAD.:     2.788 HEAT:  111.6393
 CYCLE:   695 TIME:   0.160 TIME LEFT:  2.00D  GRAD.:     2.683 HEAT:  111.6385
 CYCLE:   696 TIME:   0.172 TIME LEFT:  2.00D  GRAD.:     2.909 HEAT:  111.6376
 CYCLE:   697 TIME:   0.188 TIME LEFT:  2.00D  GRAD.:     2.661 HEAT:  111.6366
 CYCLE:   698 TIME:   0.188 TIME LEFT:  2.00D  GRAD.:     2.515 HEAT:  111.6356
 CYCLE:   699 TIME:   0.211 TIME LEFT:  2.00D  GRAD.:     2.585 HEAT:  111.6342
 CYCLE:   700 TIME:   3.621 TIME LEFT:  2.00D  GRAD.:    25.242 HEAT:  111.6350
 CYCLE:   701 TIME:   1.273 TIME LEFT:  2.00D  GRAD.:     6.290 HEAT:  111.6330
 CYCLE:   702 TIME:   0.191 TIME LEFT:  2.00D  GRAD.:     3.249 HEAT:  111.6325
 CYCLE:   703 TIME:   0.164 TIME LEFT:  2.00D  GRAD.:     2.739 HEAT:  111.6318
 CYCLE:   704 TIME:   0.188 TIME LEFT:  2.00D  GRAD.:    16.143 HEAT:  111.6386
 CYCLE:   705 TIME:   0.180 TIME LEFT:  2.00D  GRAD.:     7.984 HEAT:  111.6337
 CYCLE:   706 TIME:   0.207 TIME LEFT:  2.00D  GRAD.:    26.498 HEAT:  111.6489
 CYCLE:   707 TIME:   0.188 TIME LEFT:  2.00D  GRAD.:     2.193 HEAT:  111.6311
 CYCLE:   708 TIME:   0.188 TIME LEFT:  2.00D  GRAD.:     1.905 HEAT:  111.6311
 CYCLE:   709 TIME:   0.160 TIME LEFT:  2.00D  GRAD.:     5.703 HEAT:  111.6308
 CYCLE:   710 TIME:   0.141 TIME LEFT:  2.00D  GRAD.:     2.169 HEAT:  111.6301
 CYCLE:   711 TIME:   0.145 TIME LEFT:  2.00D  GRAD.:     1.587 HEAT:  111.6300
 CYCLE:   712 TIME:   0.152 TIME LEFT:  2.00D  GRAD.:     5.191 HEAT:  111.6298
 CYCLE:   713 TIME:   0.141 TIME LEFT:  2.00D  GRAD.:     2.138 HEAT:  111.6293
 CYCLE:   714 TIME:   0.148 TIME LEFT:  2.00D  GRAD.:     1.381 HEAT:  111.6289
 CYCLE:   715 TIME:   0.195 TIME LEFT:  2.00D  GRAD.:     2.050 HEAT:  111.6286
 CYCLE:   716 TIME:   0.160 TIME LEFT:  2.00D  GRAD.:     6.701 HEAT:  111.6280
 CYCLE:   717 TIME:   0.145 TIME LEFT:  2.00D  GRAD.:    17.559 HEAT:  111.6282
 CYCLE:   718 TIME:   0.145 TIME LEFT:  2.00D  GRAD.:     2.686 HEAT:  111.6275
 CYCLE:   719 TIME:   0.148 TIME LEFT:  2.00D  GRAD.:     7.415 HEAT:  111.6273
 CYCLE:   720 TIME:   0.137 TIME LEFT:  2.00D  GRAD.:     1.870 HEAT:  111.6270
 CYCLE:   721 TIME:   0.145 TIME LEFT:  2.00D  GRAD.:     7.026 HEAT:  111.6269
 CYCLE:   722 TIME:   0.172 TIME LEFT:  2.00D  GRAD.:     1.688 HEAT:  111.6267
 CYCLE:   723 TIME:   0.156 TIME LEFT:  2.00D  GRAD.:     3.190 HEAT:  111.6266
 CYCLE:   724 TIME:   0.191 TIME LEFT:  2.00D  GRAD.:     2.118 HEAT:  111.6266
 CYCLE:   725 TIME:   0.168 TIME LEFT:  2.00D  GRAD.:     1.430 HEAT:  111.6264
 CYCLE:   726 TIME:   0.203 TIME LEFT:  2.00D  GRAD.:     4.487 HEAT:  111.6262
 CYCLE:   727 TIME:   0.184 TIME LEFT:  2.00D  GRAD.:     3.445 HEAT:  111.6260
 CYCLE:   728 TIME:   0.215 TIME LEFT:  2.00D  GRAD.:     6.567 HEAT:  111.6262
 CYCLE:   729 TIME:   0.203 TIME LEFT:  2.00D  GRAD.:     1.646 HEAT:  111.6257
 CYCLE:   730 TIME:   0.207 TIME LEFT:  2.00D  GRAD.:     1.402 HEAT:  111.6255
 CYCLE:   731 TIME:   0.184 TIME LEFT:  2.00D  GRAD.:     1.648 HEAT:  111.6254
 CYCLE:   732 TIME:   0.176 TIME LEFT:  2.00D  GRAD.:     2.389 HEAT:  111.6252
 CYCLE:   733 TIME:   0.164 TIME LEFT:  2.00D  GRAD.:     2.009 HEAT:  111.6248
 CYCLE:   734 TIME:   0.156 TIME LEFT:  2.00D  GRAD.:     5.100 HEAT:  111.6247
 CYCLE:   735 TIME:   0.148 TIME LEFT:  2.00D  GRAD.:     1.115 HEAT:  111.6244
 CYCLE:   736 TIME:   0.160 TIME LEFT:  2.00D  GRAD.:     2.989 HEAT:  111.6243
 CYCLE:   737 TIME:   0.145 TIME LEFT:  2.00D  GRAD.:     3.404 HEAT:  111.6242
 CYCLE:   738 TIME:   0.148 TIME LEFT:  2.00D  GRAD.:     1.668 HEAT:  111.6241
 CYCLE:   739 TIME:   0.156 TIME LEFT:  2.00D  GRAD.:     7.228 HEAT:  111.6242
 CYCLE:   740 TIME:   0.137 TIME LEFT:  2.00D  GRAD.:     1.036 HEAT:  111.6240
 CYCLE:   741 TIME:   0.145 TIME LEFT:  2.00D  GRAD.:     0.946 HEAT:  111.6240
 CYCLE:   742 TIME:   0.141 TIME LEFT:  2.00D  GRAD.:     2.016 HEAT:  111.6239
 CYCLE:   743 TIME:   0.152 TIME LEFT:  2.00D  GRAD.:     1.191 HEAT:  111.6238
 CYCLE:   744 TIME:   0.148 TIME LEFT:  2.00D  GRAD.:     0.785 HEAT:  111.6237
 CYCLE:   745 TIME:   0.148 TIME LEFT:  2.00D  GRAD.:     0.908 HEAT:  111.6236
 CYCLE:   746 TIME:   0.148 TIME LEFT:  2.00D  GRAD.:     1.113 HEAT:  111.6235
 CYCLE:   747 TIME:   0.168 TIME LEFT:  2.00D  GRAD.:     1.101 HEAT:  111.6233
 CYCLE:   748 TIME:   0.176 TIME LEFT:  2.00D  GRAD.:     2.065 HEAT:  111.6231
 CYCLE:   749 TIME:   0.176 TIME LEFT:  2.00D  GRAD.:     1.996 HEAT:  111.6230
 CYCLE:   750 TIME:   0.191 TIME LEFT:  2.00D  GRAD.:     6.153 HEAT:  111.6230
 CYCLE:   751 TIME:   0.184 TIME LEFT:  2.00D  GRAD.:    14.412 HEAT:  111.6244
 CYCLE:   752 TIME:   0.195 TIME LEFT:  2.00D  GRAD.:     9.334 HEAT:  111.6233
 CYCLE:   753 TIME:   0.195 TIME LEFT:  2.00D  GRAD.:    17.517 HEAT:  111.6237
 CYCLE:   754 TIME:   0.176 TIME LEFT:  2.00D  GRAD.:    20.443 HEAT:  111.6239
 CYCLE:   755 TIME:   0.188 TIME LEFT:  2.00D  GRAD.:    36.355 HEAT:  111.6269
 CYCLE:   756 TIME:   0.227 TIME LEFT:  2.00D  GRAD.:     7.189 HEAT:  111.6227
 CYCLE:   757 TIME:   0.203 TIME LEFT:  2.00D  GRAD.:     1.229 HEAT:  111.6227
 CYCLE:   758 TIME:   0.219 TIME LEFT:  2.00D  GRAD.:     7.742 HEAT:  111.6227
 CYCLE:   759 TIME:   0.195 TIME LEFT:  2.00D  GRAD.:     1.170 HEAT:  111.6225
 CYCLE:   760 TIME:   0.180 TIME LEFT:  2.00D  GRAD.:     1.131 HEAT:  111.6224
 CYCLE:   761 TIME:   0.137 TIME LEFT:  2.00D  GRAD.:     2.125 HEAT:  111.6224
 CYCLE:   762 TIME:   0.141 TIME LEFT:  2.00D  GRAD.:     1.507 HEAT:  111.6223
 CYCLE:   763 TIME:   0.156 TIME LEFT:  2.00D  GRAD.:     1.000 HEAT:  111.6222
 CYCLE:   764 TIME:   0.184 TIME LEFT:  2.00D  GRAD.:     1.551 HEAT:  111.6220
 CYCLE:   765 TIME:   0.160 TIME LEFT:  2.00D  GRAD.:     1.108 HEAT:  111.6219
 CYCLE:   766 TIME:   0.168 TIME LEFT:  2.00D  GRAD.:     1.893 HEAT:  111.6216
 CYCLE:   767 TIME:   0.141 TIME LEFT:  2.00D  GRAD.:     3.571 HEAT:  111.6216
 CYCLE:   768 TIME:   0.145 TIME LEFT:  2.00D  GRAD.:     1.098 HEAT:  111.6214
 CYCLE:   769 TIME:   0.148 TIME LEFT:  2.00D  GRAD.:     2.094 HEAT:  111.6214
 CYCLE:   770 TIME:   0.137 TIME LEFT:  2.00D  GRAD.:     0.781 HEAT:  111.6213
 CYCLE:   771 TIME:   0.148 TIME LEFT:  2.00D  GRAD.:     1.275 HEAT:  111.6211
 CYCLE:   772 TIME:   0.152 TIME LEFT:  2.00D  GRAD.:     1.397 HEAT:  111.6210
 CYCLE:   773 TIME:   0.168 TIME LEFT:  2.00D  GRAD.:    24.319 HEAT:  111.6228
 CYCLE:   774 TIME:   0.133 TIME LEFT:  2.00D  GRAD.:     1.202 HEAT:  111.6209
 CYCLE:   775 TIME:   0.145 TIME LEFT:  2.00D  GRAD.:     0.993 HEAT:  111.6209
 CYCLE:   776 TIME:   0.141 TIME LEFT:  2.00D  GRAD.:     1.023 HEAT:  111.6208
 CYCLE:   777 TIME:   0.148 TIME LEFT:  2.00D  GRAD.:     2.389 HEAT:  111.6207
 CYCLE:   778 TIME:   0.137 TIME LEFT:  2.00D  GRAD.:     1.249 HEAT:  111.6206
 CYCLE:   779 TIME:   0.137 TIME LEFT:  2.00D  GRAD.:     1.119 HEAT:  111.6205
 CYCLE:   780 TIME:   0.141 TIME LEFT:  2.00D  GRAD.:     1.334 HEAT:  111.6204
 CYCLE:   781 TIME:   0.137 TIME LEFT:  2.00D  GRAD.:     1.194 HEAT:  111.6203
 CYCLE:   782 TIME:   0.141 TIME LEFT:  2.00D  GRAD.:     1.411 HEAT:  111.6201
 CYCLE:   783 TIME:   0.148 TIME LEFT:  2.00D  GRAD.:     0.969 HEAT:  111.6200
 CYCLE:   784 TIME:   0.172 TIME LEFT:  2.00D  GRAD.:     1.978 HEAT:  111.6198
 CYCLE:   785 TIME:   0.188 TIME LEFT:  2.00D  GRAD.:     1.305 HEAT:  111.6197
 CYCLE:   786 TIME:   0.191 TIME LEFT:  2.00D  GRAD.:     0.945 HEAT:  111.6196
 CYCLE:   787 TIME:   0.207 TIME LEFT:  2.00D  GRAD.:     1.454 HEAT:  111.6194
 CYCLE:   788 TIME:   0.203 TIME LEFT:  2.00D  GRAD.:    10.863 HEAT:  111.6196
 CYCLE:   789 TIME:   0.195 TIME LEFT:  2.00D  GRAD.:     7.432 HEAT:  111.6196
 CYCLE:   790 TIME:   0.195 TIME LEFT:  2.00D  GRAD.:     1.611 HEAT:  111.6192
 CYCLE:   791 TIME:   0.207 TIME LEFT:  2.00D  GRAD.:     5.251 HEAT:  111.6193
 CYCLE:   792 TIME:   0.145 TIME LEFT:  2.00D  GRAD.:     0.948 HEAT:  111.6192
 CYCLE:   793 TIME:   0.141 TIME LEFT:  2.00D  GRAD.:     0.718 HEAT:  111.6192
 CYCLE:   794 TIME:   0.148 TIME LEFT:  2.00D  GRAD.:     1.618 HEAT:  111.6191
 CYCLE:   795 TIME:   0.141 TIME LEFT:  2.00D  GRAD.:     1.018 HEAT:  111.6190
 CYCLE:   796 TIME:   0.141 TIME LEFT:  2.00D  GRAD.:     0.961 HEAT:  111.6189
 CYCLE:   797 TIME:   0.148 TIME LEFT:  2.00D  GRAD.:     0.989 HEAT:  111.6187
 CYCLE:   798 TIME:   0.152 TIME LEFT:  2.00D  GRAD.:     2.410 HEAT:  111.6186
 CYCLE:   799 TIME:   0.133 TIME LEFT:  2.00D  GRAD.:     0.980 HEAT:  111.6185
 CYCLE:   800 TIME:   0.148 TIME LEFT:  2.00D  GRAD.:     0.969 HEAT:  111.6184
 CYCLE:   801 TIME:   0.152 TIME LEFT:  2.00D  GRAD.:     2.368 HEAT:  111.6184
 CYCLE:   802 TIME:   0.137 TIME LEFT:  2.00D  GRAD.:     1.498 HEAT:  111.6182
 CYCLE:   803 TIME:   0.145 TIME LEFT:  2.00D  GRAD.:     1.994 HEAT:  111.6181
 CYCLE:   804 TIME:   0.145 TIME LEFT:  2.00D  GRAD.:     0.832 HEAT:  111.6181
 CYCLE:   805 TIME:   0.164 TIME LEFT:  2.00D  GRAD.:     2.264 HEAT:  111.6180
 CYCLE:   806 TIME:   0.156 TIME LEFT:  2.00D  GRAD.:     1.295 HEAT:  111.6180
 CYCLE:   807 TIME:   0.184 TIME LEFT:  2.00D  GRAD.:     1.342 HEAT:  111.6179
 CYCLE:   808 TIME:   0.148 TIME LEFT:  2.00D  GRAD.:     1.160 HEAT:  111.6179
 CYCLE:   809 TIME:   0.141 TIME LEFT:  2.00D  GRAD.:     1.353 HEAT:  111.6178
 CYCLE:   810 TIME:   0.137 TIME LEFT:  2.00D  GRAD.:     0.856 HEAT:  111.6177
 CYCLE:   811 TIME:   0.176 TIME LEFT:  2.00D  GRAD.:     1.314 HEAT:  111.6175
 CYCLE:   812 TIME:   0.152 TIME LEFT:  2.00D  GRAD.:     2.749 HEAT:  111.6174
 CYCLE:   813 TIME:   0.160 TIME LEFT:  2.00D  GRAD.:     1.870 HEAT:  111.6173
 CYCLE:   814 TIME:   0.184 TIME LEFT:  2.00D  GRAD.:     1.005 HEAT:  111.6171
 CYCLE:   815 TIME:   0.168 TIME LEFT:  2.00D  GRAD.:     1.512 HEAT:  111.6169
 CYCLE:   816 TIME:   0.199 TIME LEFT:  2.00D  GRAD.:     2.193 HEAT:  111.6167
 CYCLE:   817 TIME:   0.207 TIME LEFT:  2.00D  GRAD.:     2.497 HEAT:  111.6165
 CYCLE:   818 TIME:   0.195 TIME LEFT:  2.00D  GRAD.:     1.847 HEAT:  111.6164
 CYCLE:   819 TIME:   0.203 TIME LEFT:  2.00D  GRAD.:     0.832 HEAT:  111.6164
 CYCLE:   820 TIME:   0.156 TIME LEFT:  2.00D  GRAD.:     2.161 HEAT:  111.6163
 CYCLE:   821 TIME:   0.137 TIME LEFT:  2.00D  GRAD.:     1.206 HEAT:  111.6163
 CYCLE:   822 TIME:   0.148 TIME LEFT:  2.00D  GRAD.:     0.931 HEAT:  111.6162
 CYCLE:   823 TIME:   0.152 TIME LEFT:  2.00D  GRAD.:     0.902 HEAT:  111.6162
 CYCLE:   824 TIME:   0.164 TIME LEFT:  2.00D  GRAD.:     5.606 HEAT:  111.6162
 CYCLE:   825 TIME:   0.145 TIME LEFT:  2.00D  GRAD.:     1.394 HEAT:  111.6160
 CYCLE:   826 TIME:   0.176 TIME LEFT:  2.00D  GRAD.:     0.985 HEAT:  111.6160
 CYCLE:   827 TIME:   0.172 TIME LEFT:  2.00D  GRAD.:     0.854 HEAT:  111.6159
 CYCLE:   828 TIME:   0.156 TIME LEFT:  2.00D  GRAD.:     2.784 HEAT:  111.6158
 CYCLE:   829 TIME:   0.168 TIME LEFT:  2.00D  GRAD.:     1.285 HEAT:  111.6157
 CYCLE:   830 TIME:   0.160 TIME LEFT:  2.00D  GRAD.:     0.977 HEAT:  111.6156
 CYCLE:   831 TIME:   0.152 TIME LEFT:  2.00D  GRAD.:     2.845 HEAT:  111.6155
[...]
   76          H           0.244675        0.7553     0.75533
   46          C           0.050039        3.9500     1.19524     2.75472
   47          N          -0.148759        5.1488     1.84841     3.30035
    1          C          -0.178319        4.1783     1.15551     3.02281
    2          C          -0.108471        4.1085     1.16560     2.94288
    3          C          -0.167233        4.1672     1.17983     2.98740
    4          C           0.062343        3.9377     1.15810     2.77956
    5          N          -0.287899        5.2879     1.51392     3.77398
    6          C           0.115753        3.8842     1.15235     2.73190
    7          C          -0.161521        4.1615     1.17072     2.99080
    8          C           0.061080        3.9389     1.14700     2.79192
    9          C          -0.158481        4.1585     1.17778     2.98070
   10          C          -0.034225        4.0342     1.16892     2.86531
   11          C          -0.082818        4.0828     1.15870     2.92411
   12          C          -0.115187        4.1152     1.15919     2.95599
   13          C           0.141987        3.8580     1.15012     2.70789
   14          C          -0.217360        4.2174     1.17318     3.04418
   15          C           0.188751        3.8112     1.13976     2.67149
   16          C          -0.201684        4.2017     1.18101     3.02067
   17          C          -0.006177        4.0062     1.16789     2.83829
   18          N          -0.266323        5.2663     1.48106     3.78527
   19          C           0.126373        3.8736     1.15105     2.72258
   20          C          -0.168607        4.1686     1.17224     2.99637
   21          C          -0.054437        4.0544     1.17645     2.87799
   22          C          -0.157969        4.1580     1.17814     2.97983
   23          C          -0.035851        4.0359     1.16937     2.86648
   24          C          -0.092176        4.0922     1.15909     2.93309
   25          C          -0.090774        4.0908     1.15917     2.93161
   26          C           0.125598        3.8744     1.15106     2.72334
   27          C          -0.171429        4.1714     1.17184     2.99959
   28          C          -0.055023        4.0550     1.17616     2.87887
   29          C          -0.158592        4.1586     1.17805     2.98054
   30          C          -0.035219        4.0352     1.16947     2.86575
   31          C          -0.295841        4.2958     1.21749     3.07835
   32          C          -0.105541        4.1055     1.18144     2.92410
   33          C          -0.085824        4.0858     1.18300     2.90282
   34          C          -0.289930        4.2899     1.20175     3.08818
   35          S           0.478906        5.5211     1.88500     3.63609
   36          C          -0.230535        4.2305     1.20784     3.02270
   37          C          -0.152331        4.1523     1.18240     2.96994
   38          C          -0.013875        4.0139     1.18445     2.82942
   39          C          -0.453706        4.4537     1.21897     3.23474
   40          S           0.585497        5.4145     1.88308     3.53142
   41          C           0.159749        3.8403     1.17072     2.66953
   42          C          -0.172698        4.1727     1.14099     3.03171
   48          H           0.130936        0.8691     0.86906
   49          H           0.060929        0.9391     0.93907
   50          H           0.060736        0.9393     0.93926
   51          H           0.061170        0.9388     0.93883
   52          H           0.061351        0.9386     0.93865
   53          H           0.062695        0.9373     0.93730
   54          H           0.079917        0.9201     0.92008
   55          H           0.080861        0.9191     0.91914
   56          H           0.080299        0.9197     0.91970
   57          H           0.079760        0.9202     0.92024
   58          H           0.125479        0.8745     0.87452
   59          H           0.115066        0.8849     0.88493
   60          H           0.110636        0.8894     0.88936
   61          H           0.140859        0.8591     0.85914
   62          H           0.131625        0.8684     0.86837
   63          H           0.110590        0.8894     0.88941
   64          H           0.125074        0.8749     0.87493
   65          H           0.101373        0.8986     0.89863
   66          H           0.108079        0.8919     0.89192
   67          H           0.107628        0.8924     0.89237
   68          H           0.122326        0.8777     0.87767
   69          H           0.100070        0.8999     0.89993
   70          H           0.108038        0.8920     0.89196
   71          H           0.107960        0.8920     0.89204
   72          H           0.131100        0.8689     0.86890
   73          H           0.131202        0.8688     0.86880
   74          H           0.138324        0.8617     0.86168
   75          H           0.126067        0.8739     0.87393
 DIPOLE           X         Y         Z       TOTAL
 POINT-CHG.    -0.067     0.903    -2.575     2.730
 HYBRID        -0.324     0.677     1.352     1.546
 SUM           -0.391     1.580    -1.223     2.036


          ATOMIC ORBITAL ELECTRON POPULATIONS

     Atom    s        px        py        pz   
    1  C   1.15551   0.95706   1.03300   1.03275
    2  C   1.16560   0.96112   0.95386   1.02789
    3  C   1.17983   0.94774   0.98645   1.05321
    4  C   1.15810   0.93444   0.80524   1.03988
    5  N   1.51392   1.60012   1.10558   1.06829
    6  C   1.15235   0.97918   0.88818   0.86454
    7  C   1.17072   1.07479   0.99961   0.91640
    8  C   1.14700   0.97595   0.92750   0.88848
    9  C   1.17778   1.05365   0.95804   0.96902
   10  C   1.16892   0.96438   0.97636   0.92456
   11  C   1.15870   1.06625   0.93124   0.92662
   12  C   1.15919   1.08833   0.93557   0.93209
   13  C   1.15012   0.96044   0.87753   0.86993
   14  C   1.17318   1.12002   0.99985   0.92431
   15  C   1.13976   0.96193   0.91773   0.79184
   16  C   1.18101   1.08258   0.96118   0.97692
   17  C   1.16789   0.94747   0.97113   0.91970
   18  N   1.48106   1.21629   1.52149   1.04749
   19  C   1.15105   0.91733   0.96752   0.83773
   20  C   1.17224   0.95732   1.04892   0.99013
   21  C   1.17645   0.98100   0.97364   0.92335
   22  C   1.17814   0.97356   1.02583   0.98045
   23  C   1.16937   0.94674   0.96279   0.95695
   24  C   1.15909   0.96149   1.04011   0.93148
   25  C   1.15917   0.96683   1.04192   0.92286
   26  C   1.15106   0.86535   0.94097   0.91702
   27  C   1.17184   0.95540   1.04709   0.99710
   28  C   1.17616   0.96861   0.96978   0.94048
   29  C   1.17805   0.99506   1.03579   0.94970
   30  C   1.16947   0.92922   0.95387   0.98266
   31  C   1.21749   1.02497   1.05874   0.99464
   32  C   1.18144   0.99742   0.99143   0.93525
   33  C   1.18300   0.95002   0.98838   0.96442
   34  C   1.20175   1.02179   1.08958   0.97681
   35  S   1.88500   1.21339   1.47465   0.94805
   36  C   1.20784   1.03071   1.00610   0.98589
   37  C   1.18240   1.01493   0.99148   0.96353
   38  C   1.18445   0.95088   0.93255   0.94599
   39  C   1.21897   1.16033   1.03034   1.04407
   40  S   1.88308   1.46067   1.04924   1.02151
   41  C   1.17072   0.86952   0.90712   0.89289
   42  C   1.14099   1.08312   0.97206   0.97653
   43  C   1.17923   0.77260   0.79434   0.84644
   44  O   1.91042   1.33477   1.60473   1.53123
   45  O   1.83998   1.70180   1.35470   1.41583
   46  C   1.19524   0.91701   0.91745   0.92026
   47  N   1.84841   1.10984   1.08789   1.10262
   48  H   0.86906
   49  H   0.93907
   50  H   0.93926
   51  H   0.93883
   52  H   0.93865
   53  H   0.93730
   54  H   0.92008
   55  H   0.91914
   56  H   0.91970
   57  H   0.92024
   58  H   0.87452
   59  H   0.88493
   60  H   0.88936
   61  H   0.85914
   62  H   0.86837
   63  H   0.88941
   64  H   0.87493
   65  H   0.89863
   66  H   0.89192
   67  H   0.89237
   68  H   0.87767
   69  H   0.89993
   70  H   0.89196
   71  H   0.89204
   72  H   0.86890
   73  H   0.86880
   74  H   0.86168
   75  H   0.87393
   76  H   0.75533
 ******************** TDHF POLARIZABILITIES ********************



          MOLECULAR WEIGHT =  647.81



          ROTATIONAL CONSTANTS IN CM(-1)

          A =    0.00594303   B =    0.00050649   C =    0.00047951



           PRINCIPAL MOMENTS OF INERTIA IN UNITS OF 10**(-40)*GRAM-CM**2

          A =     4710.1862   B =    55267.8949   C =    58378.1463


 ROTATION MATRIX FOR ORIENTATION OF MOLECULE:

         0.219378    0.656302   -0.721901
        -0.109174    0.751792    0.650300
         0.969512   -0.063849    0.236578


          CARTESIAN COORDINATES 

    NO.       ATOM         X         Y         Z

     1         C       -2.8582   -5.3503    0.8344
     2         C       -2.5247   -4.3528   -0.2628
     3         C       -2.5633   -2.9275    0.2800
     4         C       -2.2269   -1.9293   -0.8377
     5         N       -2.2606   -0.5504   -0.3588
     6         C       -1.1796    0.1446    0.2242
     7         C        0.1776   -0.1611    0.2153
     8         C        1.0364    0.7490    0.8241
     9         C        0.5614    1.9253    1.4235
    10         C       -0.7922    2.2219    1.4329
    11         C       -1.6697    1.3310    0.8367
    12         C       -3.1008    1.3278    0.6826
    13         C       -3.4407    0.1399   -0.0210
    14         C       -4.7602   -0.1804   -0.3258
    15         C       -5.7317    0.7231    0.1035
    16         C       -5.4127    1.9048    0.7975
    17         C       -4.0914    2.2104    1.0808
    18         N       -7.0917    0.4364   -0.1639
    19         C       -8.0271    1.3188   -0.7426
    20         C       -7.8543    2.6218   -1.1998
    21         C       -8.9642    3.2532   -1.7401
    22         C      -10.2031    2.6112   -1.8337
    23         C      -10.3687    1.3054   -1.3961
    24         C       -9.2767    0.6504   -0.8509
    25         C       -9.0966   -0.6800   -0.3266
    26         C       -7.7420   -0.7886    0.0901
    27         C       -7.2503   -1.9503    0.6779
    28         C       -8.1336   -3.0103    0.8159
    29         C       -9.4632   -2.9200    0.3929
    30         C       -9.9570   -1.7548   -0.1756
    31         C        2.4524    0.4562    0.8401
    32         C        3.0091   -0.7638    1.1001
    33         C        4.4376   -0.7288    1.0260
    34         C        4.9023    0.5187    0.7097
    35         S        3.6297    1.6478    0.5008
    36         C        6.2675    0.9025    0.5545
    37         C        6.8137    2.1189    0.8890
    38         C        8.2029    2.1667    0.5973
    39         C        8.6640    0.9836    0.0558
    40         S        7.4168   -0.1615   -0.1023
    41         C       10.0310    0.7933   -0.3184
    42         C       10.5842   -0.3635   -0.7420
    43         C       12.0097   -0.3903   -1.0918
    44         O       12.7915    0.5493   -1.0430
    45         O       12.4500   -1.5970   -1.5022
    46         C        9.8685   -1.5782   -0.8688
    47         N        9.3078   -2.5839   -0.9813
    48         H       10.6670    1.6918   -0.2407
    49         H       -3.8607   -5.1876    1.2558
    50         H       -2.8361   -6.3858    0.4648
    51         H       -2.1493   -5.3004    1.6736
    52         H       -1.5269   -4.5795   -0.6951
    53         H       -3.2321   -4.4673   -1.1115
    54         H       -3.5616   -2.7010    0.7124
    55         H       -1.8566   -2.8132    1.1287
    56         H       -1.2246   -2.1402   -1.2762
    57         H       -2.9421   -2.0265   -1.6883
    58         H        0.5615   -1.0686   -0.2546
    59         H        1.2663    2.6127    1.8997
    60         H       -1.1684    3.1356    1.9001
    61         H       -5.0190   -1.0812   -0.8871
    62         H       -6.2082    2.5766    1.1346
    63         H       -3.8286    3.1263    1.6172
    64         H       -6.8860    3.1240   -1.1507
    65         H       -8.8680    4.2803   -2.1061
    66         H      -11.0522    3.1491   -2.2642
    67         H      -11.3322    0.7963   -1.4769
    68         H       -6.2197   -2.0236    1.0314
    69         H       -7.7820   -3.9417    1.2710
    70         H      -10.1237   -3.7823    0.5187
    71         H      -10.9983   -1.6763   -0.4978
    72         H        2.4542   -1.6650    1.3501
    73         H        5.0570   -1.6033    1.2129
    74         H        6.2687    2.9495    1.3309
    75         H        8.8177    3.0441    0.7910
    76         H       13.3926   -1.5670   -1.7212


 ENERGY OF "REORIENTED" SYSTEM WITHOUT FIELD:      111.6076531260


  NFREQ=  3  IWFLB=  0  IBET=  1  IGAM=  1
  ATOL= 0.10000D-02  BTOL= 0.10000D-02    MAXITU=  500    MAXITA=  150


 *****************************************************************
 CALCULATION OF STATIC FIELD QUANTITIES
 *****************************************************************

 +++++ ALPHA AT       0.00000 EV.

                           COMPONENTS OF ALPHA

                     *X           *Y           *Z
           *=X:     859.0313     -14.7536      11.1997
           *=Y:     -14.7826     477.0659      15.2425
           *=Z:      11.1753      15.2425     176.0603

  ISOTROPIC AVERAGE ALPHA =     504.05249 A.U. =     74.69287 ANG.**3

 +++++ BETA (SECOND HARMONIC GENERATION) AT       0.00000 EV.

                              COMPONENTS OF BETA
            *XX         *XY         *YY         *XZ         *YZ         *ZZ
   *=X -9441.46902  -123.66168   580.97955   860.34738  -341.09477  -177.69581
   *=Y  -123.02319   580.84635   218.65157  -341.19004   -17.85560   -46.91620
   *=Z   860.75903  -341.10400   -17.86598  -177.80133   -46.94437    38.33432


 AVERAGE BETAX(SHG) VALUE AT   0.00000 EV =      -5423.0067 a.u. = -0.468516E-28 ESU
 AVERAGE BETAY(SHG) VALUE AT   0.00000 EV =         28.9606 a.u. =  0.250203E-30 ESU
 AVERAGE BETAZ(SHG) VALUE AT   0.00000 EV =        528.5759 a.u. =  0.456659E-29 ESU



 AVERAGE BETA (SHG) VALUE AT   0.00000 EV =       5448.7827 a.u. =  0.470743E-28 ESU
   (1 a.u. = 8.639418X10-33 esu)



 +++++ ALPHA AT       0.00000 EV.

                           COMPONENTS OF ALPHA

                     *X           *Y           *Z
           *=X:     859.0313     -14.7536      11.1997
           *=Y:     -14.7826     477.0659      15.2425
           *=Z:      11.1753      15.2425     176.0603

  ISOTROPIC AVERAGE ALPHA =     504.05249 A.U. =     74.69287 ANG.**3


 GAMMA (THIRD HARMONIC GENERATION) AT    0.00000 EV.


 GAMMA(X,X,X,X) =       4164708.74942
 GAMMA(Y,Y,Y,Y) =         79528.47316
 GAMMA(Z,Z,Z,Z) =          9467.81048
 GAMMA(X,X,Y,Y) =          7116.30166
 GAMMA(X,X,Z,Z) =         68906.70316
 GAMMA(Y,Y,X,X) =          7115.89972
 GAMMA(Y,Y,Z,Z) =         13274.69732
 GAMMA(Z,Z,X,X) =         68906.64849
 GAMMA(Z,Z,Y,Y) =         13274.71848


 AVERAGE GAMMA VALUE AT    0.00000 =        886460.00038 a.u. =       446483.53709 ESU (X10-39)




 **********************************************************************
 CALCULATION FOR A FREQUENCY OF    0.25000 EV  =       0.00919 A.U. 
                  WAVELENGTH OF    4959.37 NM  =    2016.38525 CM(-1)
 **********************************************************************

 +++++ ALPHA AT       0.25000 EV.

                           COMPONENTS OF ALPHA

                     *X           *Y           *Z
           *=X:     863.1583     -15.0155      11.0690
           *=Y:     -15.0338     477.9307      15.2702
           *=Z:      11.0479      15.2712     176.3614

  ISOTROPIC AVERAGE ALPHA =     505.81680 A.U. =     74.95432 ANG.**3

 +++++ BETA (SECOND HARMONIC GENERATION) AT       0.25000 EV.

                              COMPONENTS OF BETA
            *XX         *XY         *YY         *XZ         *YZ         *ZZ
   *=X -9920.21195  -110.37045   596.62376   916.08680  -350.96258  -186.62062
   *=Y   -93.33302   586.54500   224.53657  -353.29820   -16.63362   -46.48636
   *=Z   903.68472  -351.17660   -17.55826  -186.53915   -47.02588    40.98899


 AVERAGE BETAX(SHG) VALUE AT   0.25000 EV =      -5710.1242 a.u. = -0.493321E-28 ESU
 AVERAGE BETAY(SHG) VALUE AT   0.25000 EV =         43.7995 a.u. =  0.378403E-30 ESU
 AVERAGE BETAZ(SHG) VALUE AT   0.25000 EV =        561.6000 a.u. =  0.485190E-29 ESU



 AVERAGE BETA (SHG) VALUE AT   0.25000 EV =       5737.8420 a.u. =  0.495716E-28 ESU
   (1 a.u. = 8.639418X10-33 esu)



 +++++ ALPHA AT       0.75000 EV.

                           COMPONENTS OF ALPHA

                     *X           *Y           *Z
           *=X:     898.7052     -17.2130       9.8901
           *=Y:     -17.2329     485.0288      15.5132
           *=Z:       9.8725      15.5132     178.8531

  ISOTROPIC AVERAGE ALPHA =     520.86238 A.U. =     77.18384 ANG.**3


 GAMMA (THIRD HARMONIC GENERATION) AT    0.25000 EV.


 GAMMA(X,X,X,X) =       4643658.72906
 GAMMA(Y,Y,Y,Y) =         82945.42106
 GAMMA(Z,Z,Z,Z) =          9923.51015
 GAMMA(X,X,Y,Y) =          5548.87299
 GAMMA(X,X,Z,Z) =         75972.02144
 GAMMA(Y,Y,X,X) =          9685.64939
 GAMMA(Y,Y,Z,Z) =         13945.31707
 GAMMA(Z,Z,X,X) =         75766.47075
 GAMMA(Z,Z,Y,Y) =         13817.04590


 AVERAGE GAMMA VALUE AT    0.25000 =        986252.60756 a.u. =       496746.10529 ESU (X10-39)




 **********************************************************************
 CALCULATION FOR A FREQUENCY OF    0.50000 EV  =       0.01837 A.U. 
                  WAVELENGTH OF    2479.68 NM  =    4032.77050 CM(-1)
 **********************************************************************

 +++++ ALPHA AT       0.50000 EV.

                           COMPONENTS OF ALPHA

                     *X           *Y           *Z
           *=X:     875.9357     -15.7951      10.6603
           *=Y:     -15.8170     480.5481      15.3558
           *=Z:      10.6414      15.3558     177.2774

  ISOTROPIC AVERAGE ALPHA =     511.25371 A.U. =     75.75998 ANG.**3

 +++++ BETA (SECOND HARMONIC GENERATION) AT       0.50000 EV.

                              COMPONENTS OF BETA
            *XX         *XY         *YY         *XZ         *YZ         *ZZ
   *=X-11631.51502   -58.25437   650.03602  1119.16803  -384.33253  -218.60509
   *=Y    19.08881   602.98607   243.73859  -394.92544   -12.34744   -44.51592
   *=Z  1056.18491  -384.64504   -16.45403  -217.49086   -47.05813    50.14905


 AVERAGE BETAX(SHG) VALUE AT   0.50000 EV =      -6738.4247 a.u. = -0.582161E-28 ESU
 AVERAGE BETAY(SHG) VALUE AT   0.50000 EV =         99.0327 a.u. =  0.855585E-30 ESU
 AVERAGE BETAZ(SHG) VALUE AT   0.50000 EV =        680.7638 a.u. =  0.588140E-29 ESU



 AVERAGE BETA (SHG) VALUE AT   0.50000 EV =       6773.4493 a.u. =  0.585187E-28 ESU
   (1 a.u. = 8.639418X10-33 esu)



 +++++ ALPHA AT       1.50000 EV.

                           COMPONENTS OF ALPHA

                     *X           *Y           *Z
           *=X:    1069.3269     -28.5054       2.5606
           *=Y:     -28.5459     512.2277      16.8693
           *=Z:       2.5227      16.8693     188.7361

  ISOTROPIC AVERAGE ALPHA =     590.09686 A.U. =     87.44333 ANG.**3


 GAMMA (THIRD HARMONIC GENERATION) AT    0.50000 EV.


 GAMMA(X,X,X,X) =       6856410.01151
 GAMMA(Y,Y,Y,Y) =         94847.15169
 GAMMA(Z,Z,Z,Z) =         11664.53259
 GAMMA(X,X,Y,Y) =         -4518.06955
 GAMMA(X,X,Z,Z) =        107970.27100
 GAMMA(Y,Y,X,X) =         21142.79547
 GAMMA(Y,Y,Z,Z) =         16340.38337
 GAMMA(Z,Z,X,X) =        105546.09521
 GAMMA(Z,Z,Y,Y) =         15659.21791


 AVERAGE GAMMA VALUE AT    0.50000 =       1445012.47784 a.u. =       727809.80751 ESU (X10-39)



 **********************
 *                    *
 * JOB ENDED NORMALLY *
 *                    *
 **********************



 TOTAL JOB TIME:           345.27 SECONDS

 == MOPAC DONE ==
