 *******************************************************************************
 ** Site#: 4824         For non-commercial use only    Version 21.013L 64BITS **
 *******************************************************************************
 ** Cite this program as: MOPAC2016, Version: 21.013L, James J. P. Stewart,   **
 ** Stewart Computational Chemistry, web: HTTP://OpenMOPAC.net. Days left:  85**
 *******************************************************************************
 **                                                                           **
 **                                MOPAC2016                                  **
 **                                                                           **
 *******************************************************************************

                              RM1 CALCULATION RESULTS

 *******************************************************************************
 *  CALCULATION DONE:                                Wed Oct 20 23:49:28 2021  *
 *  RM1        - The RM1 Hamiltonian to be used
 *  POLAR      - CALCULATE FIRST, SECOND AND THIRD-ORDER POLARIZABILITIES
 *  PRECISE    - TIGHTER CRITERIA TO BE USED
 *  XYZ        - CARTESIAN COORDINATE SYSTEM TO BE USED
 *  T=         - A TIME OF 172800.0 SECONDS REQUESTED
 *  DUMP=N     - RESTART FILE WRITTEN EVERY 7200.0 SECONDS REQUESTED
 *  GNORM      - EXIT WHEN GRADIENT NORM DROPS BELOW 0.100
 *******************************************************************************
RM1 PRECISE POLAR XYZ GNORM=0.1


   ATOM   CHEMICAL          X               Y               Z
  NUMBER   SYMBOL      (ANGSTROMS)     (ANGSTROMS)     (ANGSTROMS)
 
     1       N          0.00000000  *   0.00000000  *   0.00000000  *
     2       C          1.15449714  *   0.00000000  *   0.00000000  *
     3       C          2.57049642  *   0.00147292  *   0.00000000  *
     4       C          3.27161001  *  -1.14132252  *   0.00053057  *
     5       C          2.65217893  *  -2.44958490  *  -0.01543395  *
     6       C          2.97787470  *  -3.31093497  *  -1.05500360  *
     7       C          2.40543749  *  -4.56887132  *  -1.09886406  *
     8       C          1.53061989  *  -4.96524966  *  -0.08540069  *
     9       C          1.23850306  *  -4.08890387  *   0.97253153  *
    10       C          1.77299395  *  -2.85471031  *   0.98554396  *
    11       N          0.96721538  *  -6.25230783  *  -0.11890408  *
    12       C          1.68153905  *  -7.45392756  *  -0.31172709  *
    13       C          3.04789872  *  -7.67859793  *  -0.40128898  *
    14       C          3.46824724  *  -8.98299656  *  -0.59186547  *
    15       C          2.55078107  * -10.03223200  *  -0.67375784  *
    16       C          1.18405336  *  -9.81203018  *  -0.56416261  *
    17       C          0.75257299  *  -8.51241353  *  -0.38071564  *
    18       C         -0.56706192  *  -7.94363568  *  -0.23316863  *
    19       C         -0.41193759  *  -6.54484251  *  -0.08321071  *
    20       C         -1.50900564  *  -5.69966652  *   0.04816440  *
    21       C         -2.76055693  *  -6.28451964  *   0.05389262  *
    22       C         -2.90016013  *  -7.67235500  *  -0.08195404  *
    23       C         -1.83171073  *  -8.51480752  *  -0.22749778  *
    24       C          3.25083933  *   1.30044946  *  -0.05987655  *
    25       O          4.41971322  *   1.44904270  *   0.26516885  *
    26       O          2.56584483  *   2.33013126  *  -0.54807617  *
    27       H          4.37862611  *  -1.10442815  *  -0.05944029  *
    28       H          3.68231485  *  -2.97926929  *  -1.83507240  *
    29       H          2.64254977  *  -5.25551390  *  -1.92959908  *
    30       H          0.56631294  *  -4.40065217  *   1.79139928  *
    31       H          1.52142681  *  -2.17852961  *   1.82099928  *
    32       H          3.77684168  *  -6.85899128  *  -0.32304872  *
    33       H          4.54647260  *  -9.18716943  *  -0.68190966  *
    34       H          2.90119585  * -11.06413670  *  -0.82818540  *
    35       H          0.47674439  * -10.65160268  *  -0.62264039  *
    36       H         -1.39410704  *  -4.61017871  *   0.14753782  *
    37       H         -3.64823346  *  -5.64395658  *   0.17106332  *
    38       H         -3.90453171  *  -8.12729215  *  -0.07224348  *
    39       H         -1.97141378  *  -9.60097079  *  -0.34096172  *
    40       H          3.02859136  *   3.17774681  *  -0.64188146  *
 


          CARTESIAN COORDINATES 

    NO.       ATOM           X           Y           Z

     1         N          0.0000      0.0000      0.0000
     2         C          1.1545      0.0000      0.0000
     3         C          2.5705      0.0015      0.0000
     4         C          3.2716     -1.1413      0.0005
     5         C          2.6522     -2.4496     -0.0154
     6         C          2.9779     -3.3109     -1.0550
     7         C          2.4054     -4.5689     -1.0989
     8         C          1.5306     -4.9652     -0.0854
     9         C          1.2385     -4.0889      0.9725
    10         C          1.7730     -2.8547      0.9855
    11         N          0.9672     -6.2523     -0.1189
    12         C          1.6815     -7.4539     -0.3117
    13         C          3.0479     -7.6786     -0.4013
    14         C          3.4682     -8.9830     -0.5919
    15         C          2.5508    -10.0322     -0.6738
    16         C          1.1841     -9.8120     -0.5642
    17         C          0.7526     -8.5124     -0.3807
    18         C         -0.5671     -7.9436     -0.2332
    19         C         -0.4119     -6.5448     -0.0832
    20         C         -1.5090     -5.6997      0.0482
    21         C         -2.7606     -6.2845      0.0539
    22         C         -2.9002     -7.6724     -0.0820
    23         C         -1.8317     -8.5148     -0.2275
    24         C          3.2508      1.3004     -0.0599
    25         O          4.4197      1.4490      0.2652
    26         O          2.5658      2.3301     -0.5481
    27         H          4.3786     -1.1044     -0.0594
    28         H          3.6823     -2.9793     -1.8351
    29         H          2.6425     -5.2555     -1.9296
    30         H          0.5663     -4.4007      1.7914
    31         H          1.5214     -2.1785      1.8210
    32         H          3.7768     -6.8590     -0.3230
    33         H          4.5465     -9.1872     -0.6819
    34         H          2.9012    -11.0641     -0.8282
    35         H          0.4767    -10.6516     -0.6226
    36         H         -1.3941     -4.6102      0.1475
    37         H         -3.6482     -5.6440      0.1711
    38         H         -3.9045     -8.1273     -0.0722
    39         H         -1.9714     -9.6010     -0.3410
    40         H          3.0286      3.1777     -0.6419

  H: (RM1): G.B. ROCHA, R.O. FREIRE, A.M.SIMAS, J.J.P. STEWART, J. COMP. CHEM. 27, 1101 (2006)
  C: (RM1): G.B. ROCHA, R.O. FREIRE, A.M.SIMAS, J.J.P. STEWART, J. COMP. CHEM. 27, 1101 (2006)
  N: (RM1): G.B. ROCHA, R.O. FREIRE, A.M.SIMAS, J.J.P. STEWART, J. COMP. CHEM. 27, 1101 (2006)
  O: (RM1): G.B. ROCHA, R.O. FREIRE, A.M.SIMAS, J.J.P. STEWART, J. COMP. CHEM. 27, 1101 (2006)

           Empirical Formula: C22 H14 N2 O2  =    40 atoms



      MOLECULAR POINT GROUP   :   C1  


      RHF CALCULATION, NO. OF DOUBLY OCCUPIED LEVELS = 62


          Geometry optimization using L-BFGS
 CYCLE:     1 TIME:   0.094 TIME LEFT:  2.00D  GRAD.:   111.367 HEAT:  41.24605
 CYCLE:     2 TIME:   0.039 TIME LEFT:  2.00D  GRAD.:   108.302 HEAT:  41.12370
 CYCLE:     3 TIME:   0.055 TIME LEFT:  2.00D  GRAD.:    27.973 HEAT:  38.46365
 CYCLE:     4 TIME:   0.047 TIME LEFT:  2.00D  GRAD.:   108.592 HEAT:  41.12371
 CYCLE:     5 TIME:   0.047 TIME LEFT:  2.00D  GRAD.:    27.807 HEAT:  38.46121
 CYCLE:     6 TIME:   0.047 TIME LEFT:  2.00D  GRAD.:    26.536 HEAT:  38.15029
 CYCLE:     7 TIME:   0.047 TIME LEFT:  2.00D  GRAD.:    31.771 HEAT:  37.78146
 CYCLE:     8 TIME:   0.047 TIME LEFT:  2.00D  GRAD.:    27.465 HEAT:  37.51638
 CYCLE:     9 TIME:   0.047 TIME LEFT:  2.00D  GRAD.:    15.940 HEAT:  37.35386
 CYCLE:    10 TIME:   0.047 TIME LEFT:  2.00D  GRAD.:    10.600 HEAT:  37.24843
 CYCLE:    11 TIME:   0.055 TIME LEFT:  2.00D  GRAD.:     9.655 HEAT:  37.19785
 CYCLE:    12 TIME:   0.055 TIME LEFT:  2.00D  GRAD.:     7.100 HEAT:  37.15285
 CYCLE:    13 TIME:   0.055 TIME LEFT:  2.00D  GRAD.:     5.385 HEAT:  37.11908
 CYCLE:    14 TIME:   0.047 TIME LEFT:  2.00D  GRAD.:     5.796 HEAT:  37.09958
 CYCLE:    15 TIME:   0.055 TIME LEFT:  2.00D  GRAD.:     5.011 HEAT:  37.08196
 CYCLE:    16 TIME:   0.055 TIME LEFT:  2.00D  GRAD.:     4.660 HEAT:  37.06049
 CYCLE:    17 TIME:   0.055 TIME LEFT:  2.00D  GRAD.:    10.314 HEAT:  37.04138
 CYCLE:    18 TIME:   0.055 TIME LEFT:  2.00D  GRAD.:     4.224 HEAT:  37.01518
 CYCLE:    19 TIME:   0.047 TIME LEFT:  2.00D  GRAD.:     3.696 HEAT:  37.00235
 CYCLE:    20 TIME:   0.055 TIME LEFT:  2.00D  GRAD.:     4.676 HEAT:  36.98261
 CYCLE:    21 TIME:   0.055 TIME LEFT:  2.00D  GRAD.:    10.777 HEAT:  36.97310
 CYCLE:    22 TIME:   0.047 TIME LEFT:  2.00D  GRAD.:     4.966 HEAT:  36.95132
 CYCLE:    23 TIME:   0.055 TIME LEFT:  2.00D  GRAD.:     3.689 HEAT:  36.93887
 CYCLE:    24 TIME:   0.062 TIME LEFT:  2.00D  GRAD.:     5.150 HEAT:  36.92913
 CYCLE:    25 TIME:   0.055 TIME LEFT:  2.00D  GRAD.:     3.848 HEAT:  36.92068
 CYCLE:    26 TIME:   0.055 TIME LEFT:  2.00D  GRAD.:     3.389 HEAT:  36.91359
 CYCLE:    27 TIME:   0.055 TIME LEFT:  2.00D  GRAD.:     3.149 HEAT:  36.90323
 CYCLE:    28 TIME:   0.055 TIME LEFT:  2.00D  GRAD.:     6.031 HEAT:  36.89203
 CYCLE:    29 TIME:   0.062 TIME LEFT:  2.00D  GRAD.:     4.859 HEAT:  36.87938
 CYCLE:    30 TIME:   0.055 TIME LEFT:  2.00D  GRAD.:     3.959 HEAT:  36.86790
 CYCLE:    31 TIME:   0.055 TIME LEFT:  2.00D  GRAD.:     5.234 HEAT:  36.84300
 CYCLE:    32 TIME:   0.047 TIME LEFT:  2.00D  GRAD.:     7.398 HEAT:  36.82628
 CYCLE:    33 TIME:   0.055 TIME LEFT:  2.00D  GRAD.:     5.248 HEAT:  36.80574
 CYCLE:    34 TIME:   0.055 TIME LEFT:  2.00D  GRAD.:     4.427 HEAT:  36.78190
 CYCLE:    35 TIME:   0.055 TIME LEFT:  2.00D  GRAD.:     6.120 HEAT:  36.77202
 CYCLE:    36 TIME:   0.055 TIME LEFT:  2.00D  GRAD.:     4.093 HEAT:  36.76257
 CYCLE:    37 TIME:   0.039 TIME LEFT:  2.00D  GRAD.:     4.108 HEAT:  36.74022
 CYCLE:    38 TIME:   0.047 TIME LEFT:  2.00D  GRAD.:     4.462 HEAT:  36.72592
 CYCLE:    39 TIME:   0.039 TIME LEFT:  2.00D  GRAD.:    12.980 HEAT:  36.71169
 CYCLE:    40 TIME:   0.039 TIME LEFT:  2.00D  GRAD.:     9.555 HEAT:  36.69473
 CYCLE:    41 TIME:   0.039 TIME LEFT:  2.00D  GRAD.:     3.591 HEAT:  36.68315
 CYCLE:    42 TIME:   0.031 TIME LEFT:  2.00D  GRAD.:     3.145 HEAT:  36.67737
 CYCLE:    43 TIME:   0.039 TIME LEFT:  2.00D  GRAD.:     3.393 HEAT:  36.67141
 CYCLE:    44 TIME:   0.039 TIME LEFT:  2.00D  GRAD.:     3.879 HEAT:  36.65814
 CYCLE:    45 TIME:   0.047 TIME LEFT:  2.00D  GRAD.:    11.029 HEAT:  36.66475
 CYCLE:    46 TIME:   0.047 TIME LEFT:  2.00D  GRAD.:     2.512 HEAT:  36.64509
 CYCLE:    47 TIME:   0.031 TIME LEFT:  2.00D  GRAD.:     1.919 HEAT:  36.64266
 CYCLE:    48 TIME:   0.039 TIME LEFT:  2.00D  GRAD.:     2.449 HEAT:  36.63721
 CYCLE:    49 TIME:   0.047 TIME LEFT:  2.00D  GRAD.:     4.213 HEAT:  36.62984
 CYCLE:    50 TIME:   0.039 TIME LEFT:  2.00D  GRAD.:     3.559 HEAT:  36.62089
 CYCLE:    51 TIME:   0.031 TIME LEFT:  2.00D  GRAD.:     2.683 HEAT:  36.61391
 CYCLE:    52 TIME:   0.047 TIME LEFT:  2.00D  GRAD.:     2.155 HEAT:  36.60920
 CYCLE:    53 TIME:   0.039 TIME LEFT:  2.00D  GRAD.:     2.862 HEAT:  36.60539
 CYCLE:    54 TIME:   0.039 TIME LEFT:  2.00D  GRAD.:     3.205 HEAT:  36.60204
 CYCLE:    55 TIME:   0.031 TIME LEFT:  2.00D  GRAD.:     2.214 HEAT:  36.59902
 CYCLE:    56 TIME:   0.047 TIME LEFT:  2.00D  GRAD.:     1.912 HEAT:  36.59645
 CYCLE:    57 TIME:   0.047 TIME LEFT:  2.00D  GRAD.:     2.118 HEAT:  36.59220
 CYCLE:    58 TIME:   0.047 TIME LEFT:  2.00D  GRAD.:     6.753 HEAT:  36.59201
 CYCLE:    59 TIME:   0.047 TIME LEFT:  2.00D  GRAD.:     2.167 HEAT:  36.58501
 CYCLE:    60 TIME:   0.039 TIME LEFT:  2.00D  GRAD.:     1.653 HEAT:  36.58264
 CYCLE:    61 TIME:   0.055 TIME LEFT:  2.00D  GRAD.:     2.349 HEAT:  36.57878
 CYCLE:    62 TIME:   0.055 TIME LEFT:  2.00D  GRAD.:     3.252 HEAT:  36.57178
 CYCLE:    63 TIME:   0.055 TIME LEFT:  2.00D  GRAD.:     4.919 HEAT:  36.56373
 CYCLE:    64 TIME:   0.047 TIME LEFT:  2.00D  GRAD.:     3.939 HEAT:  36.55399
 CYCLE:    65 TIME:   0.055 TIME LEFT:  2.00D  GRAD.:     3.932 HEAT:  36.54680
 CYCLE:    66 TIME:   0.055 TIME LEFT:  2.00D  GRAD.:     3.793 HEAT:  36.53979
 CYCLE:    67 TIME:   0.047 TIME LEFT:  2.00D  GRAD.:     7.370 HEAT:  36.53302
 CYCLE:    68 TIME:   0.055 TIME LEFT:  2.00D  GRAD.:     3.597 HEAT:  36.52236
 CYCLE:    69 TIME:   0.047 TIME LEFT:  2.00D  GRAD.:     5.943 HEAT:  36.52479
 CYCLE:    70 TIME:   0.039 TIME LEFT:  2.00D  GRAD.:     2.070 HEAT:  36.51911
 CYCLE:    71 TIME:   0.047 TIME LEFT:  2.00D  GRAD.:     4.238 HEAT:  36.51973
 CYCLE:    72 TIME:   0.039 TIME LEFT:  2.00D  GRAD.:     1.626 HEAT:  36.51558
 CYCLE:    73 TIME:   0.039 TIME LEFT:  2.00D  GRAD.:     1.720 HEAT:  36.51316
 CYCLE:    74 TIME:   0.031 TIME LEFT:  2.00D  GRAD.:     2.813 HEAT:  36.50911
 CYCLE:    75 TIME:   0.039 TIME LEFT:  2.00D  GRAD.:     8.372 HEAT:  36.50847
 CYCLE:    76 TIME:   0.039 TIME LEFT:  2.00D  GRAD.:     2.936 HEAT:  36.50300
 CYCLE:    77 TIME:   0.031 TIME LEFT:  2.00D  GRAD.:     1.917 HEAT:  36.50057
 CYCLE:    78 TIME:   0.039 TIME LEFT:  2.00D  GRAD.:     2.441 HEAT:  36.49815
 CYCLE:    79 TIME:   0.039 TIME LEFT:  2.00D  GRAD.:     2.594 HEAT:  36.49451
 CYCLE:    80 TIME:   0.047 TIME LEFT:  2.00D  GRAD.:     6.910 HEAT:  36.49293
 CYCLE:    81 TIME:   0.047 TIME LEFT:  2.00D  GRAD.:     2.376 HEAT:  36.48670
 CYCLE:    82 TIME:   0.047 TIME LEFT:  2.00D  GRAD.:     1.597 HEAT:  36.48457
 CYCLE:    83 TIME:   0.039 TIME LEFT:  2.00D  GRAD.:     2.671 HEAT:  36.48191
 CYCLE:    84 TIME:   0.039 TIME LEFT:  2.00D  GRAD.:     2.299 HEAT:  36.47905
 CYCLE:    85 TIME:   0.039 TIME LEFT:  2.00D  GRAD.:     4.260 HEAT:  36.47605
 CYCLE:    86 TIME:   0.047 TIME LEFT:  2.00D  GRAD.:     2.025 HEAT:  36.47240
 CYCLE:    87 TIME:   0.039 TIME LEFT:  2.00D  GRAD.:     1.619 HEAT:  36.47099
 CYCLE:    88 TIME:   0.047 TIME LEFT:  2.00D  GRAD.:     1.427 HEAT:  36.46764
 CYCLE:    89 TIME:   0.055 TIME LEFT:  2.00D  GRAD.:     3.850 HEAT:  36.46550
 CYCLE:    90 TIME:   0.055 TIME LEFT:  2.00D  GRAD.:     1.946 HEAT:  36.46285
 CYCLE:    91 TIME:   0.047 TIME LEFT:  2.00D  GRAD.:     1.313 HEAT:  36.46132
 CYCLE:    92 TIME:   0.039 TIME LEFT:  2.00D  GRAD.:     1.620 HEAT:  36.45967
 CYCLE:    93 TIME:   0.039 TIME LEFT:  2.00D  GRAD.:     1.250 HEAT:  36.45788
 CYCLE:    94 TIME:   0.047 TIME LEFT:  2.00D  GRAD.:     2.311 HEAT:  36.45511
 CYCLE:    95 TIME:   0.055 TIME LEFT:  2.00D  GRAD.:     1.810 HEAT:  36.45329
 CYCLE:    96 TIME:   0.031 TIME LEFT:  2.00D  GRAD.:     1.468 HEAT:  36.45188
 CYCLE:    97 TIME:   0.055 TIME LEFT:  2.00D  GRAD.:     1.818 HEAT:  36.44852
 CYCLE:    98 TIME:   0.055 TIME LEFT:  2.00D  GRAD.:     5.508 HEAT:  36.44857
 CYCLE:    99 TIME:   0.055 TIME LEFT:  2.00D  GRAD.:     2.056 HEAT:  36.44587
 CYCLE:   100 TIME:   0.047 TIME LEFT:  2.00D  GRAD.:     1.363 HEAT:  36.44440
 CYCLE:   101 TIME:   0.062 TIME LEFT:  2.00D  GRAD.:     2.746 HEAT:  36.44201
 CYCLE:   102 TIME:   0.055 TIME LEFT:  2.00D  GRAD.:     3.003 HEAT:  36.43988
 CYCLE:   103 TIME:   0.055 TIME LEFT:  2.00D  GRAD.:     2.164 HEAT:  36.43627
 CYCLE:   104 TIME:   0.055 TIME LEFT:  2.00D  GRAD.:     2.782 HEAT:  36.43246
 CYCLE:   105 TIME:   0.047 TIME LEFT:  2.00D  GRAD.:     2.459 HEAT:  36.42968
 CYCLE:   106 TIME:   0.039 TIME LEFT:  2.00D  GRAD.:     2.225 HEAT:  36.42686
 CYCLE:   107 TIME:   0.055 TIME LEFT:  2.00D  GRAD.:     1.929 HEAT:  36.42267
 CYCLE:   108 TIME:   0.055 TIME LEFT:  2.00D  GRAD.:     2.643 HEAT:  36.41952
 CYCLE:   109 TIME:   0.031 TIME LEFT:  2.00D  GRAD.:     2.227 HEAT:  36.41660
 CYCLE:   110 TIME:   0.039 TIME LEFT:  2.00D  GRAD.:     1.880 HEAT:  36.41241
 CYCLE:   111 TIME:   0.039 TIME LEFT:  2.00D  GRAD.:     2.721 HEAT:  36.40905
 CYCLE:   112 TIME:   0.039 TIME LEFT:  2.00D  GRAD.:     1.874 HEAT:  36.40573
 CYCLE:   113 TIME:   0.039 TIME LEFT:  2.00D  GRAD.:     1.969 HEAT:  36.40303
 CYCLE:   114 TIME:   0.047 TIME LEFT:  2.00D  GRAD.:     4.800 HEAT:  36.40397
 CYCLE:   115 TIME:   0.047 TIME LEFT:  2.00D  GRAD.:     1.382 HEAT:  36.40018
 CYCLE:   116 TIME:   0.055 TIME LEFT:  2.00D  GRAD.:     1.151 HEAT:  36.39876
 CYCLE:   117 TIME:   0.055 TIME LEFT:  2.00D  GRAD.:     1.712 HEAT:  36.39501
 CYCLE:   118 TIME:   0.047 TIME LEFT:  2.00D  GRAD.:     7.735 HEAT:  36.39833
 CYCLE:   119 TIME:   0.039 TIME LEFT:  2.00D  GRAD.:     1.565 HEAT:  36.39260
 CYCLE:   120 TIME:   0.047 TIME LEFT:  2.00D  GRAD.:     0.910 HEAT:  36.39211
 CYCLE:   121 TIME:   0.055 TIME LEFT:  2.00D  GRAD.:     1.009 HEAT:  36.39129
 CYCLE:   122 TIME:   0.047 TIME LEFT:  2.00D  GRAD.:     1.472 HEAT:  36.39021
 CYCLE:   123 TIME:   0.039 TIME LEFT:  2.00D  GRAD.:     1.301 HEAT:  36.38931
 CYCLE:   124 TIME:   0.031 TIME LEFT:  2.00D  GRAD.:     0.866 HEAT:  36.38867
 CYCLE:   125 TIME:   0.047 TIME LEFT:  2.00D  GRAD.:     0.896 HEAT:  36.38795
 CYCLE:   126 TIME:   0.055 TIME LEFT:  2.00D  GRAD.:     1.045 HEAT:  36.38730
 CYCLE:   127 TIME:   0.047 TIME LEFT:  2.00D  GRAD.:     1.077 HEAT:  36.38644
 CYCLE:   128 TIME:   0.055 TIME LEFT:  2.00D  GRAD.:     0.980 HEAT:  36.38582
 CYCLE:   129 TIME:   0.047 TIME LEFT:  2.00D  GRAD.:     0.897 HEAT:  36.38516
 CYCLE:   130 TIME:   0.055 TIME LEFT:  2.00D  GRAD.:     1.883 HEAT:  36.38472
 CYCLE:   131 TIME:   0.055 TIME LEFT:  2.00D  GRAD.:     0.708 HEAT:  36.38413
 CYCLE:   132 TIME:   0.047 TIME LEFT:  2.00D  GRAD.:     0.710 HEAT:  36.38391
 CYCLE:   133 TIME:   0.055 TIME LEFT:  2.00D  GRAD.:     0.916 HEAT:  36.38354
 CYCLE:   134 TIME:   0.047 TIME LEFT:  2.00D  GRAD.:     1.054 HEAT:  36.38324
 CYCLE:   135 TIME:   0.047 TIME LEFT:  2.00D  GRAD.:     0.572 HEAT:  36.38299
 CYCLE:   136 TIME:   0.055 TIME LEFT:  2.00D  GRAD.:     0.666 HEAT:  36.38273
 CYCLE:   137 TIME:   0.055 TIME LEFT:  2.00D  GRAD.:     0.768 HEAT:  36.38243
 CYCLE:   138 TIME:   0.047 TIME LEFT:  2.00D  GRAD.:     1.412 HEAT:  36.38185
 CYCLE:   139 TIME:   0.055 TIME LEFT:  2.00D  GRAD.:     0.996 HEAT:  36.38133
 CYCLE:   140 TIME:   0.047 TIME LEFT:  2.00D  GRAD.:     0.608 HEAT:  36.38096
 CYCLE:   141 TIME:   0.055 TIME LEFT:  2.00D  GRAD.:     0.819 HEAT:  36.38048
 CYCLE:   142 TIME:   0.055 TIME LEFT:  2.00D  GRAD.:     1.026 HEAT:  36.38006
 CYCLE:   143 TIME:   0.047 TIME LEFT:  2.00D  GRAD.:     1.173 HEAT:  36.37931
 CYCLE:   144 TIME:   0.055 TIME LEFT:  2.00D  GRAD.:     1.154 HEAT:  36.37850
 CYCLE:   145 TIME:   0.055 TIME LEFT:  2.00D  GRAD.:     1.307 HEAT:  36.37784
 CYCLE:   146 TIME:   0.047 TIME LEFT:  2.00D  GRAD.:     1.246 HEAT:  36.37706
 CYCLE:   147 TIME:   0.055 TIME LEFT:  2.00D  GRAD.:     1.769 HEAT:  36.37639
 CYCLE:   148 TIME:   0.062 TIME LEFT:  2.00D  GRAD.:     3.296 HEAT:  36.37606
 CYCLE:   149 TIME:   0.047 TIME LEFT:  2.00D  GRAD.:     1.509 HEAT:  36.37534
 CYCLE:   150 TIME:   0.055 TIME LEFT:  2.00D  GRAD.:     0.896 HEAT:  36.37495
 CYCLE:   151 TIME:   0.047 TIME LEFT:  2.00D  GRAD.:     0.640 HEAT:  36.37472
 CYCLE:   152 TIME:   0.055 TIME LEFT:  2.00D  GRAD.:     0.805 HEAT:  36.37453
 CYCLE:   153 TIME:   0.055 TIME LEFT:  2.00D  GRAD.:     1.546 HEAT:  36.37435
 CYCLE:   154 TIME:   0.031 TIME LEFT:  2.00D  GRAD.:     0.651 HEAT:  36.37387
 CYCLE:   155 TIME:   0.039 TIME LEFT:  2.00D  GRAD.:     0.534 HEAT:  36.37356
 CYCLE:   156 TIME:   0.047 TIME LEFT:  2.00D  GRAD.:     0.681 HEAT:  36.37321
 CYCLE:   157 TIME:   0.039 TIME LEFT:  2.00D  GRAD.:     0.808 HEAT:  36.37268
 CYCLE:   158 TIME:   0.039 TIME LEFT:  2.00D  GRAD.:     1.327 HEAT:  36.37204
 CYCLE:   159 TIME:   0.031 TIME LEFT:  2.00D  GRAD.:     0.974 HEAT:  36.37151
 CYCLE:   160 TIME:   0.039 TIME LEFT:  2.00D  GRAD.:     0.503 HEAT:  36.37110
 CYCLE:   161 TIME:   0.031 TIME LEFT:  2.00D  GRAD.:     0.541 HEAT:  36.37090
 CYCLE:   162 TIME:   0.039 TIME LEFT:  2.00D  GRAD.:     0.676 HEAT:  36.37072
 CYCLE:   163 TIME:   0.039 TIME LEFT:  2.00D  GRAD.:     0.465 HEAT:  36.37054
 CYCLE:   164 TIME:   0.039 TIME LEFT:  2.00D  GRAD.:     0.594 HEAT:  36.37034
 CYCLE:   165 TIME:   0.039 TIME LEFT:  2.00D  GRAD.:     1.109 HEAT:  36.37026
 CYCLE:   166 TIME:   0.031 TIME LEFT:  2.00D  GRAD.:     0.491 HEAT:  36.37011
 CYCLE:   167 TIME:   0.031 TIME LEFT:  2.00D  GRAD.:     0.472 HEAT:  36.37000
 CYCLE:   168 TIME:   0.039 TIME LEFT:  2.00D  GRAD.:     0.564 HEAT:  36.36989
 CYCLE:   169 TIME:   0.039 TIME LEFT:  2.00D  GRAD.:     0.604 HEAT:  36.36961
 CYCLE:   170 TIME:   0.031 TIME LEFT:  2.00D  GRAD.:     1.020 HEAT:  36.36941
 CYCLE:   171 TIME:   0.047 TIME LEFT:  2.00D  GRAD.:     0.512 HEAT:  36.36911
 CYCLE:   172 TIME:   0.039 TIME LEFT:  2.00D  GRAD.:     0.462 HEAT:  36.36897
 CYCLE:   173 TIME:   0.039 TIME LEFT:  2.00D  GRAD.:     0.529 HEAT:  36.36877
 CYCLE:   174 TIME:   0.031 TIME LEFT:  2.00D  GRAD.:     0.886 HEAT:  36.36856
 CYCLE:   175 TIME:   0.047 TIME LEFT:  2.00D  GRAD.:     0.800 HEAT:  36.36824
 CYCLE:   176 TIME:   0.039 TIME LEFT:  2.00D  GRAD.:     0.553 HEAT:  36.36783
 CYCLE:   177 TIME:   0.055 TIME LEFT:  2.00D  GRAD.:     0.612 HEAT:  36.36743
 CYCLE:   178 TIME:   0.047 TIME LEFT:  2.00D  GRAD.:     1.131 HEAT:  36.36728
 CYCLE:   179 TIME:   0.055 TIME LEFT:  2.00D  GRAD.:     0.495 HEAT:  36.36707
 CYCLE:   180 TIME:   0.047 TIME LEFT:  2.00D  GRAD.:     0.421 HEAT:  36.36693
 CYCLE:   181 TIME:   0.055 TIME LEFT:  2.00D  GRAD.:     0.484 HEAT:  36.36684
 CYCLE:   182 TIME:   0.047 TIME LEFT:  2.00D  GRAD.:     0.601 HEAT:  36.36668
 CYCLE:   183 TIME:   0.055 TIME LEFT:  2.00D  GRAD.:     0.888 HEAT:  36.36638
 CYCLE:   184 TIME:   0.047 TIME LEFT:  2.00D  GRAD.:     0.551 HEAT:  36.36611
 CYCLE:   185 TIME:   0.055 TIME LEFT:  2.00D  GRAD.:     0.674 HEAT:  36.36592
 CYCLE:   186 TIME:   0.039 TIME LEFT:  2.00D  GRAD.:     0.736 HEAT:  36.36570
 CYCLE:   187 TIME:   0.047 TIME LEFT:  2.00D  GRAD.:     0.923 HEAT:  36.36533
 CYCLE:   188 TIME:   0.055 TIME LEFT:  2.00D  GRAD.:     0.827 HEAT:  36.36486
 CYCLE:   189 TIME:   0.047 TIME LEFT:  2.00D  GRAD.:     0.703 HEAT:  36.36440
 CYCLE:   190 TIME:   0.047 TIME LEFT:  2.00D  GRAD.:     0.829 HEAT:  36.36409
 CYCLE:   191 TIME:   0.047 TIME LEFT:  2.00D  GRAD.:     0.535 HEAT:  36.36383
 CYCLE:   192 TIME:   0.047 TIME LEFT:  2.00D  GRAD.:     0.432 HEAT:  36.36356
 CYCLE:   193 TIME:   0.039 TIME LEFT:  2.00D  GRAD.:     0.495 HEAT:  36.36327
 CYCLE:   194 TIME:   0.047 TIME LEFT:  2.00D  GRAD.:     1.175 HEAT:  36.36332
 CYCLE:   195 TIME:   0.031 TIME LEFT:  2.00D  GRAD.:     0.297 HEAT:  36.36307
 CYCLE:   196 TIME:   0.039 TIME LEFT:  2.00D  GRAD.:     0.236 HEAT:  36.36303
 CYCLE:   197 TIME:   0.031 TIME LEFT:  2.00D  GRAD.:     0.387 HEAT:  36.36293
 CYCLE:   198 TIME:   0.047 TIME LEFT:  2.00D  GRAD.:     0.445 HEAT:  36.36281
 CYCLE:   199 TIME:   0.031 TIME LEFT:  2.00D  GRAD.:     0.489 HEAT:  36.36268
 CYCLE:   200 TIME:   0.039 TIME LEFT:  2.00D  GRAD.:     0.497 HEAT:  36.36261
 CYCLE:   201 TIME:   0.031 TIME LEFT:  2.00D  GRAD.:     0.337 HEAT:  36.36257
 CYCLE:   202 TIME:   0.039 TIME LEFT:  2.00D  GRAD.:     0.306 HEAT:  36.36250
 CYCLE:   203 TIME:   0.031 TIME LEFT:  2.00D  GRAD.:     0.384 HEAT:  36.36242
 CYCLE:   204 TIME:   0.039 TIME LEFT:  2.00D  GRAD.:     0.601 HEAT:  36.36234
 CYCLE:   205 TIME:   0.055 TIME LEFT:  2.00D  GRAD.:     0.354 HEAT:  36.36225
 CYCLE:   206 TIME:   0.047 TIME LEFT:  2.00D  GRAD.:     0.329 HEAT:  36.36213
 CYCLE:   207 TIME:   0.055 TIME LEFT:  2.00D  GRAD.:     0.391 HEAT:  36.36201
 CYCLE:   208 TIME:   0.039 TIME LEFT:  2.00D  GRAD.:     0.796 HEAT:  36.36189
 CYCLE:   209 TIME:   0.031 TIME LEFT:  2.00D  GRAD.:     0.337 HEAT:  36.36174
 CYCLE:   210 TIME:   0.039 TIME LEFT:  2.00D  GRAD.:     0.277 HEAT:  36.36167
 CYCLE:   211 TIME:   0.047 TIME LEFT:  2.00D  GRAD.:     0.393 HEAT:  36.36157
 CYCLE:   212 TIME:   0.047 TIME LEFT:  2.00D  GRAD.:     0.522 HEAT:  36.36145
 CYCLE:   213 TIME:   0.039 TIME LEFT:  2.00D  GRAD.:     0.542 HEAT:  36.36125
 CYCLE:   214 TIME:   0.047 TIME LEFT:  2.00D  GRAD.:     0.682 HEAT:  36.36111
 CYCLE:   215 TIME:   0.039 TIME LEFT:  2.00D  GRAD.:     0.438 HEAT:  36.36098
 CYCLE:   216 TIME:   0.039 TIME LEFT:  2.00D  GRAD.:     0.405 HEAT:  36.36088
 CYCLE:   217 TIME:   0.031 TIME LEFT:  2.00D  GRAD.:     0.482 HEAT:  36.36075
 CYCLE:   218 TIME:   0.047 TIME LEFT:  2.00D  GRAD.:     0.534 HEAT:  36.36062
 CYCLE:   219 TIME:   0.039 TIME LEFT:  2.00D  GRAD.:     0.372 HEAT:  36.36052
 CYCLE:   220 TIME:   0.047 TIME LEFT:  2.00D  GRAD.:     0.310 HEAT:  36.36044
 CYCLE:   221 TIME:   0.039 TIME LEFT:  2.00D  GRAD.:     0.323 HEAT:  36.36035
 CYCLE:   222 TIME:   0.039 TIME LEFT:  2.00D  GRAD.:     0.357 HEAT:  36.36023
 CYCLE:   223 TIME:   0.039 TIME LEFT:  2.00D  GRAD.:     0.407 HEAT:  36.36012
 CYCLE:   224 TIME:   0.047 TIME LEFT:  2.00D  GRAD.:     0.322 HEAT:  36.36002
 CYCLE:   225 TIME:   0.047 TIME LEFT:  2.00D  GRAD.:     0.260 HEAT:  36.35995
 CYCLE:   226 TIME:   0.039 TIME LEFT:  2.00D  GRAD.:     0.300 HEAT:  36.35987
 CYCLE:   227 TIME:   1.055 TIME LEFT:  2.00D  GRAD.:     0.434 HEAT:  36.35979
 CYCLE:   228 TIME:   0.031 TIME LEFT:  2.00D  GRAD.:     0.413 HEAT:  36.35968
 CYCLE:   229 TIME:   0.047 TIME LEFT:  2.00D  GRAD.:     0.810 HEAT:  36.35962
 CYCLE:   230 TIME:   0.031 TIME LEFT:  2.00D  GRAD.:     0.292 HEAT:  36.35953
 CYCLE:   231 TIME:   0.031 TIME LEFT:  2.00D  GRAD.:     0.285 HEAT:  36.35950
 CYCLE:   232 TIME:   0.039 TIME LEFT:  2.00D  GRAD.:     0.309 HEAT:  36.35941
 CYCLE:   233 TIME:   0.039 TIME LEFT:  2.00D  GRAD.:     0.473 HEAT:  36.35930
 CYCLE:   234 TIME:   0.031 TIME LEFT:  2.00D  GRAD.:     0.483 HEAT:  36.35926
 CYCLE:   235 TIME:   0.039 TIME LEFT:  2.00D  GRAD.:     0.209 HEAT:  36.35921
 CYCLE:   236 TIME:   0.039 TIME LEFT:  2.00D  GRAD.:     0.234 HEAT:  36.35918
 CYCLE:   237 TIME:   0.031 TIME LEFT:  2.00D  GRAD.:     0.210 HEAT:  36.35915
 CYCLE:   238 TIME:   0.039 TIME LEFT:  2.00D  GRAD.:     0.466 HEAT:  36.35912
 CYCLE:   239 TIME:   0.039 TIME LEFT:  2.00D  GRAD.:     0.204 HEAT:  36.35906
 CYCLE:   240 TIME:   0.055 TIME LEFT:  2.00D  GRAD.:     0.242 HEAT:  36.35902
 CYCLE:   241 TIME:   0.031 TIME LEFT:  2.00D  GRAD.:     0.259 HEAT:  36.35895
 CYCLE:   242 TIME:   0.055 TIME LEFT:  2.00D  GRAD.:     0.523 HEAT:  36.35888
 CYCLE:   243 TIME:   0.047 TIME LEFT:  2.00D  GRAD.:     0.296 HEAT:  36.35880
 CYCLE:   244 TIME:   0.039 TIME LEFT:  2.00D  GRAD.:     0.199 HEAT:  36.35877
 CYCLE:   245 TIME:   0.055 TIME LEFT:  2.00D  GRAD.:     0.301 HEAT:  36.35872
 CYCLE:   246 TIME:   0.055 TIME LEFT:  2.00D  GRAD.:     0.524 HEAT:  36.35868
 CYCLE:   247 TIME:   0.055 TIME LEFT:  2.00D  GRAD.:     0.343 HEAT:  36.35863
 CYCLE:   248 TIME:   0.047 TIME LEFT:  2.00D  GRAD.:     0.355 HEAT:  36.35850
 CYCLE:   249 TIME:   0.055 TIME LEFT:  2.00D  GRAD.:     0.339 HEAT:  36.35844
 CYCLE:   250 TIME:   0.055 TIME LEFT:  2.00D  GRAD.:     0.556 HEAT:  36.35832
 CYCLE:   251 TIME:   0.055 TIME LEFT:  2.00D  GRAD.:     0.517 HEAT:  36.35821
 CYCLE:   252 TIME:   0.047 TIME LEFT:  2.00D  GRAD.:     0.320 HEAT:  36.35813
 CYCLE:   253 TIME:   0.055 TIME LEFT:  2.00D  GRAD.:     0.322 HEAT:  36.35802
 CYCLE:   254 TIME:   0.055 TIME LEFT:  2.00D  GRAD.:     0.334 HEAT:  36.35789
 CYCLE:   255 TIME:   0.062 TIME LEFT:  2.00D  GRAD.:     0.599 HEAT:  36.35775
 CYCLE:   256 TIME:   0.055 TIME LEFT:  2.00D  GRAD.:     0.402 HEAT:  36.35760
 CYCLE:   257 TIME:   0.055 TIME LEFT:  2.00D  GRAD.:     0.325 HEAT:  36.35751
 CYCLE:   258 TIME:   0.055 TIME LEFT:  2.00D  GRAD.:     0.402 HEAT:  36.35740
 CYCLE:   259 TIME:   0.055 TIME LEFT:  2.00D  GRAD.:     0.510 HEAT:  36.35730
 CYCLE:   260 TIME:   0.055 TIME LEFT:  2.00D  GRAD.:     0.388 HEAT:  36.35717
 CYCLE:   261 TIME:   0.055 TIME LEFT:  2.00D  GRAD.:     0.621 HEAT:  36.35708
 CYCLE:   262 TIME:   0.055 TIME LEFT:  2.00D  GRAD.:     0.342 HEAT:  36.35701
 CYCLE:   263 TIME:   0.047 TIME LEFT:  2.00D  GRAD.:     0.296 HEAT:  36.35696
 CYCLE:   264 TIME:   0.055 TIME LEFT:  2.00D  GRAD.:     0.418 HEAT:  36.35687
 CYCLE:   265 TIME:   0.055 TIME LEFT:  2.00D  GRAD.:     0.559 HEAT:  36.35680
 CYCLE:   266 TIME:   0.055 TIME LEFT:  2.00D  GRAD.:     0.246 HEAT:  36.35673
 CYCLE:   267 TIME:   0.047 TIME LEFT:  2.00D  GRAD.:     0.217 HEAT:  36.35671
 CYCLE:   268 TIME:   0.062 TIME LEFT:  2.00D  GRAD.:     0.517 HEAT:  36.35668
 CYCLE:   269 TIME:   0.047 TIME LEFT:  2.00D  GRAD.:     0.280 HEAT:  36.35661
 CYCLE:   270 TIME:   0.055 TIME LEFT:  2.00D  GRAD.:     0.238 HEAT:  36.35656
 CYCLE:   271 TIME:   0.055 TIME LEFT:  2.00D  GRAD.:     0.249 HEAT:  36.35650
 CYCLE:   272 TIME:   0.047 TIME LEFT:  2.00D  GRAD.:     0.306 HEAT:  36.35642
 CYCLE:   273 TIME:   0.055 TIME LEFT:  2.00D  GRAD.:     0.912 HEAT:  36.35647
 CYCLE:   274 TIME:   0.055 TIME LEFT:  2.00D  GRAD.:     0.209 HEAT:  36.35635
 CYCLE:   275 TIME:   0.055 TIME LEFT:  2.00D  GRAD.:     0.163 HEAT:  36.35632
 CYCLE:   276 TIME:   0.047 TIME LEFT:  2.00D  GRAD.:     0.225 HEAT:  36.35627
 CYCLE:   277 TIME:   0.047 TIME LEFT:  2.00D  GRAD.:     0.506 HEAT:  36.35624
 CYCLE:   278 TIME:   0.055 TIME LEFT:  2.00D  GRAD.:     0.244 HEAT:  36.35620
 CYCLE:   279 TIME:   0.047 TIME LEFT:  2.00D  GRAD.:     0.164 HEAT:  36.35618
 CYCLE:   280 TIME:   0.047 TIME LEFT:  2.00D  GRAD.:     0.196 HEAT:  36.35616
 CYCLE:   281 TIME:   0.047 TIME LEFT:  2.00D  GRAD.:     0.284 HEAT:  36.35612
 CYCLE:   282 TIME:   0.031 TIME LEFT:  2.00D  GRAD.:     0.267 HEAT:  36.35606
 CYCLE:   283 TIME:   0.039 TIME LEFT:  2.00D  GRAD.:     0.271 HEAT:  36.35599
 CYCLE:   284 TIME:   0.047 TIME LEFT:  2.00D  GRAD.:     0.477 HEAT:  36.35592
 CYCLE:   285 TIME:   0.039 TIME LEFT:  2.00D  GRAD.:     0.274 HEAT:  36.35585
 CYCLE:   286 TIME:   0.039 TIME LEFT:  2.00D  GRAD.:     0.214 HEAT:  36.35579
 CYCLE:   287 TIME:   0.055 TIME LEFT:  2.00D  GRAD.:     0.283 HEAT:  36.35573
 CYCLE:   288 TIME:   0.047 TIME LEFT:  2.00D  GRAD.:     0.439 HEAT:  36.35570
 CYCLE:   289 TIME:   0.047 TIME LEFT:  2.00D  GRAD.:     0.205 HEAT:  36.35566
 CYCLE:   290 TIME:   0.055 TIME LEFT:  2.00D  GRAD.:     0.284 HEAT:  36.35563
 CYCLE:   291 TIME:   0.047 TIME LEFT:  2.00D  GRAD.:     0.193 HEAT:  36.35560
 CYCLE:   292 TIME:   0.055 TIME LEFT:  2.00D  GRAD.:     0.275 HEAT:  36.35552
 CYCLE:   293 TIME:   0.062 TIME LEFT:  2.00D  GRAD.:     0.287 HEAT:  36.35548
 CYCLE:   294 TIME:   0.062 TIME LEFT:  2.00D  GRAD.:     0.231 HEAT:  36.35543
 CYCLE:   295 TIME:   0.070 TIME LEFT:  2.00D  GRAD.:     0.527 HEAT:  36.35541
 CYCLE:   296 TIME:   0.055 TIME LEFT:  2.00D  GRAD.:     0.200 HEAT:  36.35538
 CYCLE:   297 TIME:   0.062 TIME LEFT:  2.00D  GRAD.:     0.159 HEAT:  36.35536
 CYCLE:   298 TIME:   0.062 TIME LEFT:  2.00D  GRAD.:     0.188 HEAT:  36.35533
 CYCLE:   299 TIME:   0.086 TIME LEFT:  2.00D  GRAD.:     0.409 HEAT:  36.35532
 CYCLE:   300 TIME:   0.039 TIME LEFT:  2.00D  GRAD.:     0.199 HEAT:  36.35529
 CYCLE:   301 TIME:   0.047 TIME LEFT:  2.00D  GRAD.:     0.164 HEAT:  36.35527
 CYCLE:   302 TIME:   0.047 TIME LEFT:  2.00D  GRAD.:     0.129 HEAT:  36.35525
 CYCLE:   303 TIME:   0.039 TIME LEFT:  2.00D  GRAD.:     0.290 HEAT:  36.35523
 CYCLE:   304 TIME:   0.047 TIME LEFT:  2.00D  GRAD.:     0.437 HEAT:  36.35523
 CYCLE:   305 TIME:   0.031 TIME LEFT:  2.00D  GRAD.:     0.089 HEAT:  36.35520

 -------------------------------------------------------------------------------
 RM1 PRECISE POLAR XYZ GNORM=0.1




     HERBERTS TEST WAS SATISFIED IN BFGS                      
     SCF FIELD WAS ACHIEVED                                   


                              RM1 CALCULATION
                                                       MOPAC2016 (Version: 21.013L)
                                                       Wed Oct 20 23:49:43 2021
                                                       No. of days remaining =  85




          FINAL HEAT OF FORMATION =         36.35520 KCAL/MOL =     152.11014 KJ/MOL


          TOTAL ENERGY            =      -4002.83825 EV
          ELECTRONIC ENERGY       =     -28893.98627 EV  POINT GROUP:     C1  
          CORE-CORE REPULSION     =      24891.14802 EV
          COSMO AREA              =        350.69 SQUARE ANGSTROMS
          COSMO VOLUME            =        393.98 CUBIC ANGSTROMS

          GRADIENT NORM           =          0.08852 = 0.01400 PER ATOM
          IONIZATION POTENTIAL    =          8.244405 EV
          HOMO LUMO ENERGIES (EV) =         -8.244 -1.094
          NO. OF FILLED LEVELS    =         62
          MOLECULAR WEIGHT        =        338.3648

          MOLECULAR DIMENSIONS (Angstroms)

            Atom       Atom       Distance
            H    40    H    34    14.34526
            H    38    H    33     8.47698
            H    29    H    30     3.29825


          SCF CALCULATIONS        =        306
 
          WALL-CLOCK TIME         =         15.375 SECONDS
          COMPUTATION TIME        =  2 MINUTES AND 52.103 SECONDS




   ATOM   CHEMICAL          X               Y               Z
  NUMBER   SYMBOL      (ANGSTROMS)     (ANGSTROMS)     (ANGSTROMS)
 
     1       N         -0.01349120  *   0.00961746  *   0.10001459  *
     2       C          1.14125590  *   0.00560708  *   0.04257157  *
     3       C          2.55717919  *   0.01419667  *  -0.04294881  *
     4       C          3.28306362  *  -1.11141559  *  -0.16026852  *
     5       C          2.68498407  *  -2.43653349  *  -0.16105240  *
     6       C          3.08286208  *  -3.35780430  *  -1.13045119  *
     7       C          2.51718002  *  -4.62202316  *  -1.16553296  *
     8       C          1.56591885  *  -4.97255479  *  -0.19971862  *
     9       C          1.18519046  *  -4.06329107  *   0.79285361  *
    10       C          1.74277541  *  -2.79301081  *   0.80126127  *
    11       N          0.98704103  *  -6.25825208  *  -0.22543638  *
    12       C          1.68341351  *  -7.47993620  *  -0.35391655  *
    13       C          3.05091661  *  -7.71890929  *  -0.43586117  *
    14       C          3.45548023  *  -9.04209863  *  -0.54096478  *
    15       C          2.53486385  * -10.09333493  *  -0.55304898  *
    16       C          1.17162368  *  -9.85412273  *  -0.44847386  *
    17       C          0.74020842  *  -8.54268612  *  -0.34387766  *
    18       C         -0.56859739  *  -7.95342573  *  -0.20491908  *
    19       C         -0.39332083  *  -6.54552342  *  -0.13522941  *
    20       C         -1.47619212  *  -5.67827045  *  -0.03817396  *
    21       C         -2.73877990  *  -6.25058628  *   0.02134982  *
    22       C         -2.92119517  *  -7.63566425  *  -0.02497735  *
    23       C         -1.84048413  *  -8.49787715  *  -0.14500008  *
    24       C          3.23287362  *   1.32018492  *  -0.03123725  *
    25       O          4.43345154  *   1.51625971  *  -0.15157741  *
    26       O          2.39897648  *   2.36561273  *   0.13387193  *
    27       H          4.37712525  *  -1.06814805  *  -0.27068429  *
    28       H          3.83076350  *  -3.07761324  *  -1.87986700  *
    29       H          2.80164790  *  -5.32646048  *  -1.95432339  *
    30       H          0.46528327  *  -4.34730139  *   1.56813166  *
    31       H          1.45416254  *  -2.08556100  *   1.58627389  *
    32       H          3.78160302  *  -6.90868484  *  -0.40246861  *
    33       H          4.52414400  *  -9.26843026  *  -0.61295656  *
    34       H          2.89781841  * -11.12119310  *  -0.64073490  *
    35       H          0.44914398  * -10.67411183  *  -0.44566252  *
    36       H         -1.34946462  *  -4.59370568  *  -0.02606672  *
    37       H         -3.61527958  *  -5.59962258  *   0.10323308  *
    38       H         -3.93443969  *  -8.04362685  *   0.02875330  *
    39       H         -1.97958902  *  -9.58067168  *  -0.19424271  *
    40       H          2.88515740  *   3.20321464  *   0.13229958  *

                             CARTESIAN COORDINATES

   1    N       -0.013491204     0.009617455     0.100014592
   2    C        1.141255905     0.005607080     0.042571570
   3    C        2.557179188     0.014196667    -0.042948814
   4    C        3.283063623    -1.111415586    -0.160268521
   5    C        2.684984066    -2.436533486    -0.161052399
   6    C        3.082862078    -3.357804299    -1.130451188
   7    C        2.517180020    -4.622023158    -1.165532961
   8    C        1.565918853    -4.972554786    -0.199718622
   9    C        1.185190464    -4.063291066     0.792853614
  10    C        1.742775410    -2.793010813     0.801261267
  11    N        0.987041028    -6.258252075    -0.225436385
  12    C        1.683413511    -7.479936199    -0.353916548
  13    C        3.050916614    -7.718909289    -0.435861172
  14    C        3.455480228    -9.042098628    -0.540964781
  15    C        2.534863846   -10.093334932    -0.553048983
  16    C        1.171623683    -9.854122734    -0.448473861
  17    C        0.740208416    -8.542686120    -0.343877662
  18    C       -0.568597388    -7.953425732    -0.204919078
  19    C       -0.393320832    -6.545523422    -0.135229409
  20    C       -1.476192123    -5.678270454    -0.038173959
  21    C       -2.738779896    -6.250586277     0.021349818
  22    C       -2.921195170    -7.635664255    -0.024977349
  23    C       -1.840484130    -8.497877154    -0.145000083
  24    C        3.232873624     1.320184924    -0.031237252
  25    O        4.433451544     1.516259712    -0.151577405
  26    O        2.398976483     2.365612727     0.133871933
  27    H        4.377125248    -1.068148049    -0.270684289
  28    H        3.830763496    -3.077613243    -1.879867002
  29    H        2.801647897    -5.326460480    -1.954323389
  30    H        0.465283275    -4.347301386     1.568131660
  31    H        1.454162540    -2.085561004     1.586273891
  32    H        3.781603018    -6.908684842    -0.402468607
  33    H        4.524144005    -9.268430259    -0.612956556
  34    H        2.897818412   -11.121193099    -0.640734903
  35    H        0.449143981   -10.674111830    -0.445662521
  36    H       -1.349464619    -4.593705683    -0.026066722
  37    H       -3.615279583    -5.599622583     0.103233076
  38    H       -3.934439687    -8.043626849     0.028753298
  39    H       -1.979589019    -9.580671681    -0.194242711
  40    H        2.885157400     3.203214645     0.132299578


           Empirical Formula: C22 H14 N2 O2  =    40 atoms



      MOLECULAR POINT GROUP   :   C1  


                  EIGENVALUES  
 -39.99805 -39.32960 -37.80927 -36.87218 -36.06409 -35.61986 -35.25200 -33.48537
 -31.56393 -30.68891 -29.89361 -29.66789 -28.09671 -27.79071 -25.46499 -23.62143
 -23.39151 -22.69284 -22.38642 -21.97746 -21.19281 -20.69685 -19.46060 -18.56519
 -18.30998 -17.93838 -17.48827 -17.13828 -16.64112 -16.37150 -15.99231 -15.95569
 -15.53785 -15.42343 -15.12960 -14.98904 -14.91547 -14.75024 -14.70059 -14.55770
 -14.34749 -14.30519 -13.85760 -13.67999 -13.52218 -13.21922 -12.84990 -12.77719
 -12.70661 -12.59106 -12.56010 -12.09847 -11.98237 -11.92080 -11.80597 -11.26020
 -10.48255 -10.24343  -9.85574  -9.75178  -8.67168  -8.24440  -1.09396  -0.16357
  -0.00463   0.09795   0.29119   1.00084   1.09749   1.11163   1.38774   1.45442
   2.03847   2.19852   2.37920   2.83399   2.84519   3.15043   3.42919   3.55228
   3.69616   3.70574   3.74949   3.99140   4.01313   4.12246   4.18106   4.21329
   4.27561   4.33780   4.34963   4.47858   4.52227   4.56134   4.57832   4.71679
   4.76184   4.86700   4.89180   4.92416   4.92794   5.06013   5.07374   5.21908
   5.24142   5.28149   5.50726   5.53475   5.57420   5.81312   5.86200   5.87248
   5.99099   6.10386   6.11840   6.36173   6.41563   6.52632


              NET ATOMIC CHARGES AND DIPOLE CONTRIBUTIONS

  ATOM NO.   TYPE          CHARGE      No. of ELECS.   s-Pop       p-Pop
   25          O          -0.372649        6.3726     1.91034     4.46231
   24          C           0.398943        3.6011     1.18088     2.42018
   26          O          -0.309635        6.3096     1.83981     4.46982
   40          H           0.246377        0.7536     0.75362
    2          C           0.045664        3.9543     1.19555     2.75879
    1          N          -0.141011        5.1410     1.84803     3.29298
    3          C          -0.125815        4.1258     1.14312     2.98269
    4          C           0.084450        3.9155     1.18616     2.72939
    5          C          -0.135149        4.1351     1.16328     2.97187
    6          C          -0.033779        4.0338     1.17599     2.85779
    7          C          -0.164676        4.1647     1.18307     2.98161
    8          C           0.178419        3.8216     1.14259     2.67899
    9          C          -0.161421        4.1614     1.18371     2.97771
   10          C          -0.029084        4.0291     1.17730     2.85178
   11          N          -0.268986        5.2690     1.48023     3.78876
   12          C           0.122756        3.8772     1.15104     2.72620
   13          C          -0.171075        4.1711     1.17167     2.99941
   14          C          -0.053265        4.0533     1.17659     2.87668
   15          C          -0.154530        4.1545     1.17851     2.97602
   16          C          -0.035757        4.0358     1.16992     2.86583
   17          C          -0.086525        4.0865     1.15919     2.92733
   18          C          -0.088503        4.0885     1.15900     2.92950
   19          C           0.121982        3.8780     1.15131     2.72671
   20          C          -0.168091        4.1681     1.17269     2.99540
   21          C          -0.051994        4.0520     1.17714     2.87485
   22          C          -0.153770        4.1538     1.17870     2.97507
   23          C          -0.036700        4.0367     1.16978     2.86692
   27          H           0.137660        0.8623     0.86234
   28          H           0.114340        0.8857     0.88566
   29          H           0.136689        0.8633     0.86331
   30          H           0.138679        0.8613     0.86132
   31          H           0.121083        0.8789     0.87892
   32          H           0.121777        0.8782     0.87822
   33          H           0.102692        0.8973     0.89731
   34          H           0.109848        0.8902     0.89015
   35          H           0.109784        0.8902     0.89022
   36          H           0.126943        0.8731     0.87306
   37          H           0.105060        0.8949     0.89494
   38          H           0.110005        0.8900     0.88999
   39          H           0.109263        0.8907     0.89074
 DIPOLE           X         Y         Z       TOTAL
 POINT-CHG.     0.840    -2.436    -0.018     2.577
 HYBRID         0.878     0.708    -0.052     1.129
 SUM            1.718    -1.729    -0.070     2.438


          ATOMIC ORBITAL ELECTRON POPULATIONS

     Atom    s        px        py        pz   
    1  N   1.84803   1.11209   1.08523   1.09567
    2  C   1.19555   0.91231   0.92208   0.92440
    3  C   1.14312   0.89019   0.93522   1.15729
    4  C   1.18616   0.99861   0.91101   0.81977
    5  C   1.16328   1.01712   0.94516   1.00959
    6  C   1.17599   0.97042   0.92468   0.96269
    7  C   1.18307   1.00718   0.98097   0.99345
    8  C   1.14259   0.93052   0.82049   0.92799
    9  C   1.18371   1.03494   0.95300   0.98977
   10  C   1.17730   0.92615   0.96069   0.96494
   11  N   1.48023   1.06861   1.04579   1.67435
   12  C   1.15104   0.92178   0.81740   0.98703
   13  C   1.17167   0.93460   0.98104   1.08377
   14  C   1.17659   0.98447   0.92352   0.96868
   15  C   1.17851   0.94081   0.98825   1.04696
   16  C   1.16992   0.95375   0.94708   0.96500
   17  C   1.15919   0.92017   0.93242   1.07474
   18  C   1.15900   0.93227   0.92041   1.07682
   19  C   1.15131   0.80375   0.93394   0.98901
   20  C   1.17269   0.92487   0.99207   1.07846
   21  C   1.17714   0.95964   0.94929   0.96592
   22  C   1.17870   0.98673   0.94285   1.04549
   23  C   1.16978   0.91532   0.98500   0.96659
   24  C   1.18088   0.84509   0.84967   0.72543
   25  O   1.91034   1.15772   1.85498   1.44960
   26  O   1.83981   1.42645   1.18859   1.85478
   27  H   0.86234
   28  H   0.88566
   29  H   0.86331
   30  H   0.86132
   31  H   0.87892
   32  H   0.87822
   33  H   0.89731
   34  H   0.89015
   35  H   0.89022
   36  H   0.87306
   37  H   0.89494
   38  H   0.88999
   39  H   0.89074
   40  H   0.75362
 ******************** TDHF POLARIZABILITIES ********************



          MOLECULAR WEIGHT =  338.36



          ROTATIONAL CONSTANTS IN CM(-1)

          A =    0.01513151   B =    0.00317474   C =    0.00266454



           PRINCIPAL MOMENTS OF INERTIA IN UNITS OF 10**(-40)*GRAM-CM**2

          A =     1849.9653   B =     8817.3412   C =    10505.6598


 ROTATION MATRIX FOR ORIENTATION OF MOLECULE:

         0.252814   -0.961063    0.111548
         0.967031    0.247357   -0.060540
         0.030591    0.123176    0.991913


          CARTESIAN COORDINATES 

    NO.       ATOM         X         Y         Z

     1         N        4.0049    2.4286   -0.1496
     2         C        4.2912    1.3108   -0.0776
     3         C        4.6549   -0.0584   -0.0050
     4         C        3.7463   -1.0489    0.0278
     5         C        2.3136   -0.8020    0.0405
     6         C        1.4937   -1.5317   -0.8209
     7         C        0.1271   -1.3051   -0.8423
     8         C       -0.4229   -0.3586    0.0309
     9         C        0.3905    0.3545    0.9179
    10         C        1.7602    0.1339    0.9115
    11         N       -1.8133   -0.1235    0.0186
    12         C       -2.8226   -1.1107    0.0428
    13         C       -2.7105   -2.4942    0.1285
    14         C       -3.8910   -3.2233    0.1495
    15         C       -5.1407   -2.6000    0.0985
    16         C       -5.2508   -1.2178    0.0357
    17         C       -4.0885   -0.4659    0.0119
    18         C       -3.8453    0.9548   -0.0319
    19         C       -2.4373    1.1432   -0.0285
    20         C       -1.8695    2.4104   -0.1055
    21         C       -2.7403    3.4896   -0.1527
    22         C       -4.1272    3.3166   -0.1351
    23         C       -4.6915    2.0499   -0.0814
    24         C        6.0890   -0.3833    0.0030
    25         O        6.5784   -1.5035    0.0056
    26         O        6.8942    0.6970    0.0104
    27         H        4.0614   -2.1033    0.0377
    28         H        1.9308   -2.2735   -1.4978
    29         H       -0.5064   -1.8499   -1.5503
    30         H       -0.0424    1.0716    1.6238
    31         H        2.3953    0.6829    1.6152
    32         H       -1.7412   -2.9919    0.1941
    33         H       -3.8419   -4.3152    0.2110
    34         H       -6.0456   -3.2139    0.1142
    35         H       -6.2263   -0.7259    0.0075
    36         H       -0.7882    2.5584   -0.1450
    37         H       -2.3299    4.5031   -0.2086
    38         H       -4.7763    4.1961   -0.1701
    39         H       -5.7752    1.9097   -0.0802
    40         H        7.8270    0.4368    0.0124


 ENERGY OF "REORIENTED" SYSTEM WITHOUT FIELD:       36.3551958418


  NFREQ=  3  IWFLB=  0  IBET=  1  IGAM=  1
  ATOL= 0.10000D-02  BTOL= 0.10000D-02    MAXITU=  500    MAXITA=  150


 *****************************************************************
 CALCULATION OF STATIC FIELD QUANTITIES
 *****************************************************************

 +++++ ALPHA AT       0.00000 EV.

                           COMPONENTS OF ALPHA

                     *X           *Y           *Z
           *=X:     359.0147      10.0670       2.1465
           *=Y:      10.0717     278.8204      11.9082
           *=Z:       2.1293      11.9056      63.9520

  ISOTROPIC AVERAGE ALPHA =     233.92904 A.U. =     34.66471 ANG.**3

 +++++ BETA (SECOND HARMONIC GENERATION) AT       0.00000 EV.

                              COMPONENTS OF BETA
            *XX         *XY         *YY         *XZ         *YZ         *ZZ
   *=X -3745.28507   432.44909   615.64983    24.79416     0.99532    36.83285
   *=Y   432.25316   615.54745  -120.06979     0.99912    11.54552     5.18357
   *=Z    25.16379     0.87147    11.50762    36.83531     5.16755    -4.34343


 AVERAGE BETAX(SHG) VALUE AT   0.00000 EV =      -1855.7214 a.u. = -0.160324E-28 ESU
 AVERAGE BETAY(SHG) VALUE AT   0.00000 EV =        190.4921 a.u. =  0.164574E-29 ESU
 AVERAGE BETAZ(SHG) VALUE AT   0.00000 EV =         19.2641 a.u. =  0.166431E-30 ESU



 AVERAGE BETA (SHG) VALUE AT   0.00000 EV =       1865.5724 a.u. =  0.161175E-28 ESU
   (1 a.u. = 8.639418X10-33 esu)



 +++++ ALPHA AT       0.00000 EV.

                           COMPONENTS OF ALPHA

                     *X           *Y           *Z
           *=X:     359.0147      10.0670       2.1465
           *=Y:      10.0717     278.8204      11.9082
           *=Z:       2.1293      11.9056      63.9520

  ISOTROPIC AVERAGE ALPHA =     233.92904 A.U. =     34.66471 ANG.**3


 GAMMA (THIRD HARMONIC GENERATION) AT    0.00000 EV.


 GAMMA(X,X,X,X) =        753394.53774
 GAMMA(Y,Y,Y,Y) =         88534.13133
 GAMMA(Z,Z,Z,Z) =          1645.64929
 GAMMA(X,X,Y,Y) =         13569.05418
 GAMMA(X,X,Z,Z) =         -3298.95868
 GAMMA(Y,Y,X,X) =         13568.88949
 GAMMA(Y,Y,Z,Z) =          2837.76293
 GAMMA(Z,Z,X,X) =         -3299.29788
 GAMMA(Z,Z,Y,Y) =          2837.80328


 AVERAGE GAMMA VALUE AT    0.00000 =        173957.91434 a.u. =        87617.42759 ESU (X10-39)




 **********************************************************************
 CALCULATION FOR A FREQUENCY OF    0.25000 EV  =       0.00919 A.U. 
                  WAVELENGTH OF    4959.37 NM  =    2016.38525 CM(-1)
 **********************************************************************

 +++++ ALPHA AT       0.25000 EV.

                           COMPONENTS OF ALPHA

                     *X           *Y           *Z
           *=X:     360.1402      10.1474       2.1298
           *=Y:      10.1513     279.3368      11.9089
           *=Z:       2.1162      11.9069      64.0197

  ISOTROPIC AVERAGE ALPHA =     234.49887 A.U. =     34.74915 ANG.**3

 +++++ BETA (SECOND HARMONIC GENERATION) AT       0.25000 EV.

                              COMPONENTS OF BETA
            *XX         *XY         *YY         *XZ         *YZ         *ZZ
   *=X -3893.28174   443.81897   630.01744    25.79702     1.54964    38.87261
   *=Y   435.76203   626.03343  -121.53725     0.58697    11.73004     5.28480
   *=Z    27.18366     0.31272    11.61812    37.14507     5.22988    -4.43115


 AVERAGE BETAX(SHG) VALUE AT   0.25000 EV =      -1936.9196 a.u. = -0.167339E-28 ESU
 AVERAGE BETAY(SHG) VALUE AT   0.25000 EV =        194.9066 a.u. =  0.168388E-29 ESU
 AVERAGE BETAZ(SHG) VALUE AT   0.25000 EV =         20.1125 a.u. =  0.173760E-30 ESU



 AVERAGE BETA (SHG) VALUE AT   0.25000 EV =       1946.8053 a.u. =  0.168193E-28 ESU
   (1 a.u. = 8.639418X10-33 esu)



 +++++ ALPHA AT       0.75000 EV.

                           COMPONENTS OF ALPHA

                     *X           *Y           *Z
           *=X:     369.5830      10.8106       2.0172
           *=Y:      10.8153     283.5753      11.9162
           *=Z:       2.0033      11.9140      64.5657

  ISOTROPIC AVERAGE ALPHA =     239.24136 A.U. =     35.45191 ANG.**3


 GAMMA (THIRD HARMONIC GENERATION) AT    0.25000 EV.


 GAMMA(X,X,X,X) =        828252.86681
 GAMMA(Y,Y,Y,Y) =         92813.29797
 GAMMA(Z,Z,Z,Z) =          1690.55559
 GAMMA(X,X,Y,Y) =         14487.37553
 GAMMA(X,X,Z,Z) =         -3903.59873
 GAMMA(Y,Y,X,X) =         14002.04610
 GAMMA(Y,Y,Z,Z) =          2957.48489
 GAMMA(Z,Z,X,X) =         -3494.95767
 GAMMA(Z,Z,Y,Y) =          2900.96372


 AVERAGE GAMMA VALUE AT    0.25000 =        189941.20684 a.u. =        95667.73665 ESU (X10-39)




 **********************************************************************
 CALCULATION FOR A FREQUENCY OF    0.50000 EV  =       0.01837 A.U. 
                  WAVELENGTH OF    2479.68 NM  =    4032.77050 CM(-1)
 **********************************************************************

 +++++ ALPHA AT       0.50000 EV.

                           COMPONENTS OF ALPHA

                     *X           *Y           *Z
           *=X:     363.5817      10.3903       2.0884
           *=Y:      10.3941     280.9027      11.9123
           *=Z:       2.0757      11.9104      64.2225

  ISOTROPIC AVERAGE ALPHA =     236.23564 A.U. =     35.00651 ANG.**3

 +++++ BETA (SECOND HARMONIC GENERATION) AT       0.50000 EV.

                              COMPONENTS OF BETA
            *XX         *XY         *YY         *XZ         *YZ         *ZZ
   *=X -4399.93595   481.96771   677.81932    28.97513     3.63844    45.91627
   *=Y   445.39039   659.35421  -126.07754    -0.70433    12.33729     5.65012
   *=Z    34.30372    -1.59030    11.93273    38.07011     5.43439    -4.70019


 AVERAGE BETAX(SHG) VALUE AT   0.50000 EV =      -2216.2447 a.u. = -0.191471E-28 ESU
 AVERAGE BETAY(SHG) VALUE AT   0.50000 EV =        209.5224 a.u. =  0.181015E-29 ESU
 AVERAGE BETAZ(SHG) VALUE AT   0.50000 EV =         22.9521 a.u. =  0.198293E-30 ESU



 AVERAGE BETA (SHG) VALUE AT   0.50000 EV =       2226.2451 a.u. =  0.192335E-28 ESU
   (1 a.u. = 8.639418X10-33 esu)



 +++++ ALPHA AT       1.50000 EV.

                           COMPONENTS OF ALPHA

                     *X           *Y           *Z
           *=X:     409.4711      13.5175       1.4928
           *=Y:      13.5233     299.5649      11.8763
           *=Z:       1.4714      11.8738      66.5478

  ISOTROPIC AVERAGE ALPHA =     258.52794 A.U. =     38.30989 ANG.**3


 GAMMA (THIRD HARMONIC GENERATION) AT    0.50000 EV.


 GAMMA(X,X,X,X) =       1141626.22234
 GAMMA(Y,Y,Y,Y) =        107876.49046
 GAMMA(Z,Z,Z,Z) =          1842.17783
 GAMMA(X,X,Y,Y) =         17895.52842
 GAMMA(X,X,Z,Z) =         -6569.00446
 GAMMA(Y,Y,X,X) =         15253.66165
 GAMMA(Y,Y,Z,Z) =          3376.80007
 GAMMA(Z,Z,X,X) =         -4160.73358
 GAMMA(Z,Z,Y,Y) =          3115.18593


 AVERAGE GAMMA VALUE AT    0.50000 =        256051.26573 a.u. =       128965.40707 ESU (X10-39)



 **********************
 *                    *
 * JOB ENDED NORMALLY *
 *                    *
 **********************



 TOTAL JOB TIME:            27.83 SECONDS

 == MOPAC DONE ==
