 *******************************************************************************
 ** Site#: 4824         For non-commercial use only    Version 21.013L 64BITS **
 *******************************************************************************
 ** Cite this program as: MOPAC2016, Version: 21.013L, James J. P. Stewart,   **
 ** Stewart Computational Chemistry, web: HTTP://OpenMOPAC.net. Days left:  87**
 *******************************************************************************
 **                                                                           **
 **                                MOPAC2016                                  **
 **                                                                           **
 *******************************************************************************

                              RM1 CALCULATION RESULTS

 *******************************************************************************
 *  CALCULATION DONE:                                Mon Oct 18 11:49:58 2021  *
 *  RM1        - The RM1 Hamiltonian to be used
 *  POLAR      - CALCULATE FIRST, SECOND AND THIRD-ORDER POLARIZABILITIES
 *  PRECISE    - TIGHTER CRITERIA TO BE USED
 *  T=         - A TIME OF 172800.0 SECONDS REQUESTED
 *  DUMP=N     - RESTART FILE WRITTEN EVERY 7200.0 SECONDS REQUESTED
 *  GNORM      - EXIT WHEN GRADIENT NORM DROPS BELOW 0.100
 *******************************************************************************
RM1 PRECISE POLAR GNORM=0.1


  ATOM    CHEMICAL      BOND LENGTH      BOND ANGLE     TWIST ANGLE 
 NUMBER    SYMBOL       (ANGSTROMS)      (DEGREES)       (DEGREES) 
   (I)                     NA:I           NB:NA:I       NC:NB:NA:I       NA    NB    NC 
     1       N          0.00000000       0.0000000       0.0000000        0     0     0
     2       C          1.15272138  *    0.0000000       0.0000000        1     0     0
     3       C          1.41602915  *  179.4499839  *    0.0000000        2     1     0
     4       C          1.34482763  *  122.9460175  * -178.5008538  *     3     2     1
     5       C          1.43212715  *  123.4432371  *   -3.4845027  *     4     3     2
     6       C          1.36883685  *  127.0210850  *  -36.2622728  *     5     4     3
     7       C          1.42948116  *  111.7587639  * -177.0719243  *     6     5     4
     8       C          1.37195263  *  112.2417495  *   -0.2093083  *     7     6     5
     9       S          1.71166018  *  120.5607230  *  147.3147510  *     5     4     3
    10       C          1.42555032  *  125.1147756  *  179.8538851  *     8     7     6
    11       C          1.36795531  *  125.4944467  *   -7.9766616  *    10     8     7
    12       C          1.43120756  *  112.0609967  *  179.7276339  *    11    10     8
    13       C          1.36190603  *  112.3320542  *   -0.5849858  *    12    11    10
    14       S          1.72768722  *  122.7390348  *  171.4748537  *    10     8     7
    15       C          1.44853003  *  125.8169233  *  178.2087743  *    13    12    11
    16       C          1.37026384  *  119.1426948  *  -82.6474455  *    15    13    12
    17       C          1.40995094  *  120.2951897  * -179.9339546  *    16    15    13
    18       C          1.37163669  *  120.0499204  *    0.6480049  *    17    16    15
    19       C          1.41451824  *  120.5249397  *   -0.4492781  *    18    17    16
    20       C          1.42205831  *  120.2825229  *   97.2314396  *    15    13    12
    21       C          1.41820849  *  121.9791391  *  178.0653338  *    20    15    16
    22       C          1.36522896  *  120.4507704  *  179.8724022  *    21    20    15
    23       C          1.41218482  *  120.4790457  *    0.1257142  *    22    21    20
    24       C          1.41455278  *  120.7891254  * -179.5789915  *    19    18    17
    25       C          1.47454225  *  120.0614654  *   -2.7529723  *    24    19    18
    26       O          1.22424722  *  122.6226572  * -177.5274090  *    25    24    19
    27       N          1.41845245  *  117.7280069  *    3.1226203  *    25    24    19
    28       C          1.41484854  *  123.6089656  *  179.5752630  *    27    25    26
    29       O          1.22391345  *  120.1167043  *  178.8001110  *    28    27    25
    30       C          1.44170920  *  118.0480277  *    0.1485279  *    27    25    26
    31       C          1.40144969  *  118.7643508  *   60.5965812  *    30    27    28
    32       C          1.38768816  *  120.6371766  * -179.4229065  *    31    30    27
    33       C          1.39425216  *  117.6963971  *   -1.1917193  *    32    31    30
    34       C          1.42194506  *  121.3231302  *    1.3964246  *    33    32    31
    35       C          1.39352247  *  119.0061910  * -119.0100571  *    30    27    28
    36       C          1.43692341  *  107.2800998  *  179.1644467  *    34    33    32
    37       C          1.38458891  *  133.0313481  * -178.8964751  *    36    34    33
    38       C          1.38610181  *  118.3579581  * -179.6788867  *    37    36    34
    39       C          1.39972759  *  121.1949603  *   -0.8030586  *    38    37    36
    40       C          1.38628821  *  121.5784795  *    0.7518028  *    39    38    37
    41       C          1.42272744  *  106.6459017  *    0.5873471  *    36    34    33
    42       N          1.40956934  *  129.2589957  *  178.3086144  *    33    32    31
    43       C          1.46323159  *  125.7777935  * -161.4384109  *    42    33    34
    44       C          1.53027351  *  110.1158474  * -124.9820212  *    43    42    33
    45       C          1.46909385  *  117.3951827  *  178.5419095  *     3     2     4
    46       O          1.22319906  *  126.0802179  *    2.5831812  *    45     3     4
    47       O          1.34738697  *  114.3471130  * -177.4694112  *    45     3     4
    48       H          1.10300617  *  120.2791463  *  176.4905449  *     4     3     2
    49       H          1.08905142  *  126.1412223  *    1.2921581  *     6     5     4
    50       H          1.08765074  *  122.2965840  * -178.8876790  *     7     6     5
    51       H          1.08757626  *  126.0036771  *   -0.4584236  *    11    10     8
    52       H          1.08873768  *  123.1269606  *  179.6649520  *    12    11    10
    53       H          1.09573252  *  120.7340115  *    0.7886435  *    16    15    13
    54       H          1.09843394  *  118.8867546  * -179.4295220  *    17    16    15
    55       H          1.09609566  *  119.2960664  *   -0.8339666  *    21    20    15
    56       H          1.09476888  *  120.8268860  * -179.9065783  *    22    21    20
    57       H          1.09970212  *  118.6937826  * -179.8636197  *    23    22    21
    58       H          1.09619979  *  120.1641866  *  179.1748230  *    31    30    35
    59       H          1.09291329  *  120.3580732  *  177.8901502  *    32    31    30
    60       H          1.09486781  *  122.4080753  *   -0.3506886  *    35    30    27
    61       H          1.09357486  *  120.2250280  *  179.6888595  *    37    36    41
    62       H          1.09497643  *  119.6131619  *  179.3369426  *    38    37    36
    63       H          1.09637291  *  119.1863311  * -179.6425452  *    39    38    37
    64       H          1.09336654  *  121.8549581  * -177.8336441  *    40    39    38
    65       H          1.11493839  *  110.7866267  *   -2.6019101  *    43    42    33
    66       H          1.11845948  *  110.7169471  *  113.1372165  *    43    42    33
    67       H          1.09933753  *  112.9253742  *  -65.9405952  *    44    43    65
    68       H          1.10105592  *  110.7078754  *  -60.6036362  *    44    43    66
    69       H          1.10134779  *  111.8665932  *   58.4127859  *    44    43    66
    70       H          0.96833076  *  111.2906961  *   -0.3165060  *    47    45    46
 


          CARTESIAN COORDINATES 

    NO.       ATOM           X           Y           Z

     1         N          0.0000      0.0000      0.0000
     2         C          1.1527      0.0000      0.0000
     3         C          2.5687      0.0136      0.0000
     4         C          3.3109     -1.1075     -0.0295
     5         C          2.7517     -2.4254      0.0088
     6         C          1.6529     -2.8343      0.7152
     7         C          1.4215     -4.2374      0.5699
     8         C          2.3503     -4.8354     -0.2437
     9         S          3.5117     -3.7176     -0.8174
    10         C          2.3805     -6.2221     -0.5728
    11         C          1.5907     -7.1887     -0.0130
    12         C          1.8566     -8.4839     -0.5607
    13         C          2.8233     -8.4519     -1.5194
    14         S          3.4430     -6.8759     -1.7680
    15         C          3.3441     -9.5976     -2.2367
    16         C          4.3217    -10.3613     -1.6547
    17         C          4.8470    -11.4810     -2.3317
    18         C          4.3897    -11.8031     -3.5841
    19         C          3.3841    -11.0251     -4.2040
    20         C          2.8432     -9.9241     -3.5269
    21         C          1.8041     -9.1787     -4.1401
    22         C          1.3486     -9.5183     -5.3814
    23         C          1.9035    -10.6181     -6.0719
    24         C          2.9022    -11.3574     -5.4917
    25         C          3.4898    -12.4901     -6.2307
    26         O          3.1396    -12.7913     -7.3644
    27         N          4.4895    -13.2563     -5.5783
    28         C          4.9628    -12.9782     -4.2743
    29         O          5.8130    -13.6954     -3.7636
    30         C          5.0612    -14.3718     -6.2905
    31         C          4.9377    -15.6561     -5.7432
    32         C          5.4836    -16.7558     -6.3899
    33         C          6.1305    -16.5376     -7.6056
    34         C          6.2553    -15.2309     -8.1524
    35         C          5.7242    -14.1373     -7.4936
    36         C          6.9820    -15.3521     -9.3861
    37         C          7.4104    -14.4290    -10.3249
    38         C          8.0997    -14.8907    -11.4353
    39         C          8.3753    -16.2528    -11.6029
    40         C          7.9589    -17.1970    -10.6771
    41         C          7.2652    -16.7357     -9.5580
    42         N          6.7912    -17.4595     -8.4426
    43         C          6.5828    -18.9077     -8.4525
    44         C          7.9148    -19.6325     -8.2467
    45         C          3.2321      1.3244      0.0009
    46         O          4.4373      1.5218     -0.0677
    47         O          2.3903      2.3729      0.0860
    48         H          4.4106     -1.0451     -0.0865
    49         H          1.0233     -2.2063      1.3439
    50         H          0.5819     -4.7402      1.0446
    51         H          0.8414     -7.0336      0.7599
    52         H          1.3342     -9.3839     -0.2407
    53         H          4.6991    -10.1207     -0.6546
    54         H          5.6233    -12.0825     -1.8397
    55         H          1.3614     -8.3327     -3.6018
    56         H          0.5479     -8.9462     -5.8611
    57         H          1.5160    -10.8642     -7.0712
    58         H          4.4206    -15.8001     -4.7875
    59         H          5.4145    -17.7504     -5.9421
    60         H          5.8232    -13.1351     -7.9233
    61         H          7.1874    -13.3665    -10.1938
    62         H          8.4385    -14.1798    -12.1960
    63         H          8.9281    -16.5811    -12.4909
    64         H          8.2015    -18.2575    -10.7856
    65         H          5.8521    -19.2078     -7.6657
    66         H          6.1145    -19.2335     -9.4145
    67         H          8.4263    -19.3336     -7.3206
    68         H          7.7622    -20.7219     -8.2009
    69         H          8.6167    -19.4435     -9.0741
    70         H          2.8731      3.2123      0.0873

  H: (RM1): G.B. ROCHA, R.O. FREIRE, A.M.SIMAS, J.J.P. STEWART, J. COMP. CHEM. 27, 1101 (2006)
  C: (RM1): G.B. ROCHA, R.O. FREIRE, A.M.SIMAS, J.J.P. STEWART, J. COMP. CHEM. 27, 1101 (2006)
  N: (RM1): G.B. ROCHA, R.O. FREIRE, A.M.SIMAS, J.J.P. STEWART, J. COMP. CHEM. 27, 1101 (2006)
  O: (RM1): G.B. ROCHA, R.O. FREIRE, A.M.SIMAS, J.J.P. STEWART, J. COMP. CHEM. 27, 1101 (2006)
  S: (RM1): G.B. ROCHA, R.O. FREIRE, A.M.SIMAS, J.J.P. STEWART, J. COMP. CHEM. 27, 1101 (2006)

           Empirical Formula: C38 H23 N3 O4 S2  =    70 atoms



      MOLECULAR POINT GROUP   :   C1  


      RHF CALCULATION, NO. OF DOUBLY OCCUPIED LEVELS = 113


          Geometry optimization using L-BFGS
 CYCLE:     1 TIME:   0.316 TIME LEFT:  2.00D  GRAD.:    33.699 HEAT:  31.19135
 CYCLE:     2 TIME:   0.105 TIME LEFT:  2.00D  GRAD.:    26.969 HEAT:  31.18199
 CYCLE:     3 TIME:   0.125 TIME LEFT:  2.00D  GRAD.:    33.346 HEAT:  31.15752
 CYCLE:     4 TIME:   0.133 TIME LEFT:  2.00D  GRAD.:    27.220 HEAT:  31.18198
 CYCLE:     5 TIME:   0.090 TIME LEFT:  2.00D  GRAD.:    34.427 HEAT:  31.15738
 CYCLE:     6 TIME:   0.160 TIME LEFT:  2.00D  GRAD.:    31.986 HEAT:  31.12953
 CYCLE:     7 TIME:   0.180 TIME LEFT:  2.00D  GRAD.:    40.637 HEAT:  31.08436
 CYCLE:     8 TIME:   0.156 TIME LEFT:  2.00D  GRAD.:    40.410 HEAT:  31.04314
 CYCLE:     9 TIME:   0.230 TIME LEFT:  2.00D  GRAD.:    15.976 HEAT:  31.02644
 CYCLE:    10 TIME:   0.109 TIME LEFT:  2.00D  GRAD.:    13.922 HEAT:  31.01831
 CYCLE:    11 TIME:   0.207 TIME LEFT:  2.00D  GRAD.:    17.612 HEAT:  31.00601
 CYCLE:    12 TIME:   0.145 TIME LEFT:  2.00D  GRAD.:    27.930 HEAT:  30.96762
 CYCLE:    13 TIME:   0.129 TIME LEFT:  2.00D  GRAD.:    28.946 HEAT:  30.93135
 CYCLE:    14 TIME:   0.230 TIME LEFT:  2.00D  GRAD.:    35.410 HEAT:  30.89823
 CYCLE:    15 TIME:   0.160 TIME LEFT:  2.00D  GRAD.:    33.066 HEAT:  30.86091
 CYCLE:    16 TIME:   0.090 TIME LEFT:  2.00D  GRAD.:    33.385 HEAT:  30.83644
 CYCLE:    17 TIME:   0.105 TIME LEFT:  2.00D  GRAD.:    33.948 HEAT:  30.82608
 CYCLE:    18 TIME:   0.246 TIME LEFT:  2.00D  GRAD.:    56.748 HEAT:  30.81201
 CYCLE:    19 TIME:   0.293 TIME LEFT:  2.00D  GRAD.:    28.723 HEAT:  30.77539
 CYCLE:    20 TIME:   0.176 TIME LEFT:  2.00D  GRAD.:   108.469 HEAT:  31.00321
 CYCLE:    21 TIME:   0.176 TIME LEFT:  2.00D  GRAD.:    33.025 HEAT:  30.76078
 CYCLE:    22 TIME:   0.125 TIME LEFT:  2.00D  GRAD.:    74.354 HEAT:  30.78215
 CYCLE:    23 TIME:   0.125 TIME LEFT:  2.00D  GRAD.:    10.963 HEAT:  30.74382
 CYCLE:    24 TIME:   0.156 TIME LEFT:  2.00D  GRAD.:     9.168 HEAT:  30.74205
 CYCLE:    25 TIME:   0.105 TIME LEFT:  2.00D  GRAD.:     7.076 HEAT:  30.73675
 CYCLE:    26 TIME:   0.125 TIME LEFT:  2.00D  GRAD.:    12.351 HEAT:  30.72175
 CYCLE:    27 TIME:   0.164 TIME LEFT:  2.00D  GRAD.:    63.710 HEAT:  30.79253
 CYCLE:    28 TIME:   0.090 TIME LEFT:  2.00D  GRAD.:     8.502 HEAT:  30.70683
 CYCLE:    29 TIME:   0.121 TIME LEFT:  2.00D  GRAD.:     7.443 HEAT:  30.70260
 CYCLE:    30 TIME:   0.219 TIME LEFT:  2.00D  GRAD.:    12.197 HEAT:  30.68572
 CYCLE:    31 TIME:   0.117 TIME LEFT:  2.00D  GRAD.:     8.186 HEAT:  30.67541
 CYCLE:    32 TIME:   0.121 TIME LEFT:  2.00D  GRAD.:     9.081 HEAT:  30.66341
 CYCLE:    33 TIME:   0.234 TIME LEFT:  2.00D  GRAD.:    21.913 HEAT:  30.65500
 CYCLE:    34 TIME:   0.141 TIME LEFT:  2.00D  GRAD.:     7.568 HEAT:  30.64739
 CYCLE:    35 TIME:   0.090 TIME LEFT:  2.00D  GRAD.:    10.838 HEAT:  30.64300
 CYCLE:    36 TIME:   0.176 TIME LEFT:  2.00D  GRAD.:     7.830 HEAT:  30.63784
 CYCLE:    37 TIME:   0.184 TIME LEFT:  2.00D  GRAD.:    48.421 HEAT:  30.63964
 CYCLE:    38 TIME:   0.133 TIME LEFT:  2.00D  GRAD.:    15.420 HEAT:  30.62697
 CYCLE:    39 TIME:   0.199 TIME LEFT:  2.00D  GRAD.:     7.178 HEAT:  30.62146
 CYCLE:    40 TIME:   0.152 TIME LEFT:  2.00D  GRAD.:    15.690 HEAT:  30.61298
 CYCLE:    41 TIME:   0.125 TIME LEFT:  2.00D  GRAD.:    16.638 HEAT:  30.60618
 CYCLE:    42 TIME:   0.125 TIME LEFT:  2.00D  GRAD.:    18.158 HEAT:  30.58982
 CYCLE:    43 TIME:   0.156 TIME LEFT:  2.00D  GRAD.:    21.696 HEAT:  30.58034
 CYCLE:    44 TIME:   0.094 TIME LEFT:  2.00D  GRAD.:    16.077 HEAT:  30.57144
 CYCLE:    45 TIME:   0.211 TIME LEFT:  2.00D  GRAD.:     7.036 HEAT:  30.56542
 CYCLE:    46 TIME:   0.227 TIME LEFT:  2.00D  GRAD.:     6.161 HEAT:  30.56101
 CYCLE:    47 TIME:   0.117 TIME LEFT:  2.00D  GRAD.:    12.381 HEAT:  30.55090
 CYCLE:    48 TIME:   0.105 TIME LEFT:  2.00D  GRAD.:    15.041 HEAT:  30.54008
 CYCLE:    49 TIME:   0.211 TIME LEFT:  2.00D  GRAD.:    24.495 HEAT:  30.54155
 CYCLE:    50 TIME:   0.164 TIME LEFT:  2.00D  GRAD.:    21.252 HEAT:  30.52548
 CYCLE:    51 TIME:   0.094 TIME LEFT:  2.00D  GRAD.:     6.545 HEAT:  30.51931
 CYCLE:    52 TIME:   0.219 TIME LEFT:  2.00D  GRAD.:     6.369 HEAT:  30.51677
 CYCLE:    53 TIME:   0.129 TIME LEFT:  2.00D  GRAD.:    31.182 HEAT:  30.51307
 CYCLE:    54 TIME:   0.137 TIME LEFT:  2.00D  GRAD.:    20.831 HEAT:  30.50695
 CYCLE:    55 TIME:   0.133 TIME LEFT:  2.00D  GRAD.:    10.283 HEAT:  30.49596
 CYCLE:    56 TIME:   0.230 TIME LEFT:  2.00D  GRAD.:     8.416 HEAT:  30.49049
 CYCLE:    57 TIME:   0.133 TIME LEFT:  2.00D  GRAD.:     7.507 HEAT:  30.48344
 CYCLE:    58 TIME:   0.086 TIME LEFT:  2.00D  GRAD.:     9.475 HEAT:  30.47174
 CYCLE:    59 TIME:   0.242 TIME LEFT:  2.00D  GRAD.:    12.866 HEAT:  30.45822
 CYCLE:    60 TIME:   0.168 TIME LEFT:  2.00D  GRAD.:    13.113 HEAT:  30.44269
 CYCLE:    61 TIME:   0.211 TIME LEFT:  2.00D  GRAD.:     8.283 HEAT:  30.43052
 CYCLE:    62 TIME:   0.133 TIME LEFT:  2.00D  GRAD.:    11.201 HEAT:  30.41667
 CYCLE:    63 TIME:   0.102 TIME LEFT:  2.00D  GRAD.:    13.703 HEAT:  30.40475
 CYCLE:    64 TIME:   0.230 TIME LEFT:  2.00D  GRAD.:    16.504 HEAT:  30.38144
 CYCLE:    65 TIME:   0.152 TIME LEFT:  2.00D  GRAD.:    18.675 HEAT:  30.37033
 CYCLE:    66 TIME:   0.102 TIME LEFT:  2.00D  GRAD.:    13.521 HEAT:  30.35398
 CYCLE:    67 TIME:   0.109 TIME LEFT:  2.00D  GRAD.:    18.609 HEAT:  30.34370
 CYCLE:    68 TIME:   0.148 TIME LEFT:  2.00D  GRAD.:    30.993 HEAT:  30.33958
 CYCLE:    69 TIME:   0.199 TIME LEFT:  2.00D  GRAD.:    14.215 HEAT:  30.33255
 CYCLE:    70 TIME:   0.109 TIME LEFT:  2.00D  GRAD.:    16.714 HEAT:  30.32366
 CYCLE:    71 TIME:   0.121 TIME LEFT:  2.00D  GRAD.:    12.785 HEAT:  30.31632
 CYCLE:    72 TIME:   0.168 TIME LEFT:  2.00D  GRAD.:     7.344 HEAT:  30.30453
 CYCLE:    73 TIME:   0.215 TIME LEFT:  2.00D  GRAD.:     8.306 HEAT:  30.29476
 CYCLE:    74 TIME:   0.145 TIME LEFT:  2.00D  GRAD.:    16.330 HEAT:  30.27458
 CYCLE:    75 TIME:   0.094 TIME LEFT:  2.00D  GRAD.:    21.354 HEAT:  30.25681
 CYCLE:    76 TIME:   0.133 TIME LEFT:  2.00D  GRAD.:    16.984 HEAT:  30.22628
 CYCLE:    77 TIME:   0.156 TIME LEFT:  2.00D  GRAD.:    29.578 HEAT:  30.20891
 CYCLE:    78 TIME:   0.164 TIME LEFT:  2.00D  GRAD.:    14.886 HEAT:  30.18208
 CYCLE:    79 TIME:   0.098 TIME LEFT:  2.00D  GRAD.:    19.667 HEAT:  30.15536
 CYCLE:    80 TIME:   0.109 TIME LEFT:  2.00D  GRAD.:    14.813 HEAT:  30.13960
 CYCLE:    81 TIME:   0.129 TIME LEFT:  2.00D  GRAD.:    16.488 HEAT:  30.11924
 CYCLE:    82 TIME:   0.125 TIME LEFT:  2.00D  GRAD.:   120.988 HEAT:  30.18435
 CYCLE:    83 TIME:   0.117 TIME LEFT:  2.00D  GRAD.:    39.297 HEAT:  30.12317
 CYCLE:    84 TIME:   0.117 TIME LEFT:  2.00D  GRAD.:    26.619 HEAT:  30.10137
 CYCLE:    85 TIME:   0.129 TIME LEFT:  2.00D  GRAD.:    12.389 HEAT:  30.09596
 CYCLE:    86 TIME:   0.121 TIME LEFT:  2.00D  GRAD.:    17.766 HEAT:  30.08892
 CYCLE:    87 TIME:   0.137 TIME LEFT:  2.00D  GRAD.:    13.572 HEAT:  30.08390
 CYCLE:    88 TIME:   0.090 TIME LEFT:  2.00D  GRAD.:    10.635 HEAT:  30.06854
 CYCLE:    89 TIME:   0.105 TIME LEFT:  2.00D  GRAD.:    10.363 HEAT:  30.05325
 CYCLE:    90 TIME:   0.129 TIME LEFT:  2.00D  GRAD.:   107.828 HEAT:  30.19786
 CYCLE:    91 TIME:   0.188 TIME LEFT:  2.00D  GRAD.:    10.909 HEAT:  30.03324
 CYCLE:    92 TIME:   0.180 TIME LEFT:  2.00D  GRAD.:     9.627 HEAT:  30.02826
 CYCLE:    93 TIME:   0.090 TIME LEFT:  2.00D  GRAD.:     7.366 HEAT:  30.01461
 CYCLE:    94 TIME:   0.145 TIME LEFT:  2.00D  GRAD.:    29.721 HEAT:  30.00174
 CYCLE:    95 TIME:   0.168 TIME LEFT:  2.00D  GRAD.:    11.600 HEAT:  29.98595
 CYCLE:    96 TIME:   0.141 TIME LEFT:  2.00D  GRAD.:     7.665 HEAT:  29.98149
 CYCLE:    97 TIME:   0.305 TIME LEFT:  2.00D  GRAD.:     8.378 HEAT:  29.97117
 CYCLE:    98 TIME:   0.234 TIME LEFT:  2.00D  GRAD.:    18.297 HEAT:  29.95407
 CYCLE:    99 TIME:   0.168 TIME LEFT:  2.00D  GRAD.:    61.565 HEAT:  29.96306
 CYCLE:   100 TIME:   0.094 TIME LEFT:  2.00D  GRAD.:    13.150 HEAT:  29.93379
 CYCLE:   101 TIME:   0.238 TIME LEFT:  2.00D  GRAD.:    10.917 HEAT:  29.92705
 CYCLE:   102 TIME:   0.184 TIME LEFT:  2.00D  GRAD.:    17.586 HEAT:  29.91425
 CYCLE:   103 TIME:   0.098 TIME LEFT:  2.00D  GRAD.:    13.370 HEAT:  29.90052
 CYCLE:   104 TIME:   0.223 TIME LEFT:  2.00D  GRAD.:    15.636 HEAT:  29.86766
 CYCLE:   105 TIME:   0.254 TIME LEFT:  2.00D  GRAD.:    52.436 HEAT:  29.88402
 CYCLE:   106 TIME:   0.133 TIME LEFT:  2.00D  GRAD.:    88.534 HEAT:  29.98065
 CYCLE:   107 TIME:   0.098 TIME LEFT:  2.00D  GRAD.:    14.704 HEAT:  29.83460
 CYCLE:   108 TIME:   0.180 TIME LEFT:  2.00D  GRAD.:    25.530 HEAT:  29.85969
 CYCLE:   109 TIME:   0.266 TIME LEFT:  2.00D  GRAD.:     9.100 HEAT:  29.81855
 CYCLE:   110 TIME:   0.102 TIME LEFT:  2.00D  GRAD.:    10.435 HEAT:  29.80903
 CYCLE:   111 TIME:   0.145 TIME LEFT:  2.00D  GRAD.:    21.232 HEAT:  29.78438
 CYCLE:   112 TIME:   0.191 TIME LEFT:  2.00D  GRAD.:    16.476 HEAT:  29.75584
 CYCLE:   113 TIME:   0.195 TIME LEFT:  2.00D  GRAD.:    82.979 HEAT:  29.76787
 CYCLE:   114 TIME:   0.184 TIME LEFT:  2.00D  GRAD.:     9.493 HEAT:  29.73442
 CYCLE:   115 TIME:   0.160 TIME LEFT:  2.00D  GRAD.:    13.086 HEAT:  29.73100
 CYCLE:   116 TIME:   0.160 TIME LEFT:  2.00D  GRAD.:     9.441 HEAT:  29.71888
 CYCLE:   117 TIME:   0.117 TIME LEFT:  2.00D  GRAD.:    16.102 HEAT:  29.69252
 CYCLE:   118 TIME:   0.234 TIME LEFT:  2.00D  GRAD.:    12.070 HEAT:  29.67997
 CYCLE:   119 TIME:   0.188 TIME LEFT:  2.00D  GRAD.:    10.233 HEAT:  29.66325
 CYCLE:   120 TIME:   0.152 TIME LEFT:  2.00D  GRAD.:    14.843 HEAT:  29.64862
 CYCLE:   121 TIME:   0.242 TIME LEFT:  2.00D  GRAD.:    16.518 HEAT:  29.62977
 CYCLE:   122 TIME:   0.129 TIME LEFT:  2.00D  GRAD.:    35.392 HEAT:  29.63502
 CYCLE:   123 TIME:   0.117 TIME LEFT:  2.00D  GRAD.:     9.678 HEAT:  29.60787
 CYCLE:   124 TIME:   0.102 TIME LEFT:  2.00D  GRAD.:     7.440 HEAT:  29.59927
 CYCLE:   125 TIME:   0.133 TIME LEFT:  2.00D  GRAD.:    10.049 HEAT:  29.58566
 CYCLE:   126 TIME:   0.188 TIME LEFT:  2.00D  GRAD.:    13.047 HEAT:  29.56645
 CYCLE:   127 TIME:   0.133 TIME LEFT:  2.00D  GRAD.:    19.319 HEAT:  29.53549
 CYCLE:   128 TIME:   0.156 TIME LEFT:  2.00D  GRAD.:   151.758 HEAT:  29.64254
 CYCLE:   129 TIME:   0.203 TIME LEFT:  2.00D  GRAD.:   139.871 HEAT:  29.63584
 CYCLE:   130 TIME:   0.145 TIME LEFT:  2.00D  GRAD.:    16.696 HEAT:  29.51048
 CYCLE:   131 TIME:   0.098 TIME LEFT:  2.00D  GRAD.:    15.094 HEAT:  29.50643
 CYCLE:   132 TIME:   0.125 TIME LEFT:  2.00D  GRAD.:    61.215 HEAT:  29.53064
 CYCLE:   133 TIME:   0.242 TIME LEFT:  2.00D  GRAD.:    13.755 HEAT:  29.48131
 CYCLE:   134 TIME:   0.152 TIME LEFT:  2.00D  GRAD.:    11.534 HEAT:  29.47225
 CYCLE:   135 TIME:   0.137 TIME LEFT:  2.00D  GRAD.:    11.100 HEAT:  29.44034
 CYCLE:   136 TIME:   0.156 TIME LEFT:  2.00D  GRAD.:    19.468 HEAT:  29.41140
 CYCLE:   137 TIME:   0.129 TIME LEFT:  2.00D  GRAD.:    31.027 HEAT:  29.40366
 CYCLE:   138 TIME:   0.125 TIME LEFT:  2.00D  GRAD.:    10.780 HEAT:  29.37937
 CYCLE:   139 TIME:   0.125 TIME LEFT:  2.00D  GRAD.:     9.947 HEAT:  29.36605
 CYCLE:   140 TIME:   0.211 TIME LEFT:  2.00D  GRAD.:    12.171 HEAT:  29.34763
 CYCLE:   141 TIME:   0.137 TIME LEFT:  2.00D  GRAD.:    16.588 HEAT:  29.31716
 CYCLE:   142 TIME:   0.223 TIME LEFT:  2.00D  GRAD.:    40.627 HEAT:  29.31864
 CYCLE:   143 TIME:   0.180 TIME LEFT:  2.00D  GRAD.:    13.671 HEAT:  29.27960
 CYCLE:   144 TIME:   0.168 TIME LEFT:  2.00D  GRAD.:    29.568 HEAT:  29.27373
 CYCLE:   145 TIME:   0.168 TIME LEFT:  2.00D  GRAD.:    15.699 HEAT:  29.26356
 CYCLE:   146 TIME:   0.160 TIME LEFT:  2.00D  GRAD.:    15.877 HEAT:  29.24593
 CYCLE:   147 TIME:   0.090 TIME LEFT:  2.00D  GRAD.:    20.723 HEAT:  29.23225
 CYCLE:   148 TIME:   0.234 TIME LEFT:  2.00D  GRAD.:    17.519 HEAT:  29.20712
 CYCLE:   149 TIME:   0.125 TIME LEFT:  2.00D  GRAD.:    72.346 HEAT:  29.25072
 CYCLE:   150 TIME:   0.121 TIME LEFT:  2.00D  GRAD.:    14.326 HEAT:  29.18339
 CYCLE:   151 TIME:   0.105 TIME LEFT:  2.00D  GRAD.:     8.560 HEAT:  29.17756
 CYCLE:   152 TIME:   0.121 TIME LEFT:  2.00D  GRAD.:    20.353 HEAT:  29.16665
 CYCLE:   153 TIME:   0.148 TIME LEFT:  2.00D  GRAD.:    17.224 HEAT:  29.16062
 CYCLE:   154 TIME:   0.156 TIME LEFT:  2.00D  GRAD.:     8.221 HEAT:  29.14588
 CYCLE:   155 TIME:   0.121 TIME LEFT:  2.00D  GRAD.:     7.063 HEAT:  29.14084
 CYCLE:   156 TIME:   0.137 TIME LEFT:  2.00D  GRAD.:     9.437 HEAT:  29.13560
 CYCLE:   157 TIME:   0.234 TIME LEFT:  2.00D  GRAD.:    15.000 HEAT:  29.12978
 CYCLE:   158 TIME:   0.141 TIME LEFT:  2.00D  GRAD.:    20.123 HEAT:  29.12549
 CYCLE:   159 TIME:   0.129 TIME LEFT:  2.00D  GRAD.:     9.247 HEAT:  29.11906
 CYCLE:   160 TIME:   0.117 TIME LEFT:  2.00D  GRAD.:     6.803 HEAT:  29.11507
 CYCLE:   161 TIME:   0.145 TIME LEFT:  2.00D  GRAD.:     7.585 HEAT:  29.11054
 CYCLE:   162 TIME:   0.145 TIME LEFT:  2.00D  GRAD.:     9.580 HEAT:  29.10404
 CYCLE:   163 TIME:   0.250 TIME LEFT:  2.00D  GRAD.:    12.335 HEAT:  29.09914
 CYCLE:   164 TIME:   0.125 TIME LEFT:  2.00D  GRAD.:    10.874 HEAT:  29.09255
 CYCLE:   165 TIME:   0.227 TIME LEFT:  2.00D  GRAD.:    11.691 HEAT:  29.08899
 CYCLE:   166 TIME:   0.133 TIME LEFT:  2.00D  GRAD.:     7.078 HEAT:  29.08570
 CYCLE:   167 TIME:   0.145 TIME LEFT:  2.00D  GRAD.:     5.873 HEAT:  29.08174
 CYCLE:   168 TIME:   0.121 TIME LEFT:  2.00D  GRAD.:     6.421 HEAT:  29.07865
 CYCLE:   169 TIME:   0.133 TIME LEFT:  2.00D  GRAD.:     7.299 HEAT:  29.07213
 CYCLE:   170 TIME:   0.215 TIME LEFT:  2.00D  GRAD.:    13.487 HEAT:  29.06857
 CYCLE:   171 TIME:   0.242 TIME LEFT:  2.00D  GRAD.:    10.432 HEAT:  29.06517
 CYCLE:   172 TIME:   0.109 TIME LEFT:  2.00D  GRAD.:     5.558 HEAT:  29.06305
 CYCLE:   173 TIME:   0.109 TIME LEFT:  2.00D  GRAD.:     4.544 HEAT:  29.06139
 CYCLE:   174 TIME:   0.125 TIME LEFT:  2.00D  GRAD.:     4.948 HEAT:  29.05908
 CYCLE:   175 TIME:   0.176 TIME LEFT:  2.00D  GRAD.:     6.855 HEAT:  29.05527
 CYCLE:   176 TIME:   0.102 TIME LEFT:  2.00D  GRAD.:     9.139 HEAT:  29.05187
 CYCLE:   177 TIME:   0.121 TIME LEFT:  2.00D  GRAD.:     3.820 HEAT:  29.04950
 CYCLE:   178 TIME:   0.141 TIME LEFT:  2.00D  GRAD.:     4.021 HEAT:  29.04785
 CYCLE:   179 TIME:   0.121 TIME LEFT:  2.00D  GRAD.:     3.998 HEAT:  29.04490
 CYCLE:   180 TIME:   0.109 TIME LEFT:  2.00D  GRAD.:     6.381 HEAT:  29.04006
 CYCLE:   181 TIME:   0.109 TIME LEFT:  2.00D  GRAD.:     5.780 HEAT:  29.03640
 CYCLE:   182 TIME:   0.262 TIME LEFT:  2.00D  GRAD.:     6.997 HEAT:  29.03298
 CYCLE:   183 TIME:   0.172 TIME LEFT:  2.00D  GRAD.:     5.706 HEAT:  29.02921
 CYCLE:   184 TIME:   0.105 TIME LEFT:  2.00D  GRAD.:    10.688 HEAT:  29.02542
 CYCLE:   185 TIME:   0.117 TIME LEFT:  2.00D  GRAD.:    21.894 HEAT:  29.02539
 CYCLE:   186 TIME:   0.164 TIME LEFT:  2.00D  GRAD.:     4.710 HEAT:  29.02162
 CYCLE:   187 TIME:   0.191 TIME LEFT:  2.00D  GRAD.:     3.454 HEAT:  29.02097
 CYCLE:   188 TIME:   0.102 TIME LEFT:  2.00D  GRAD.:     4.769 HEAT:  29.01863
 CYCLE:   189 TIME:   0.285 TIME LEFT:  2.00D  GRAD.:     4.450 HEAT:  29.01682
 CYCLE:   190 TIME:   0.148 TIME LEFT:  2.00D  GRAD.:     4.503 HEAT:  29.01590
 CYCLE:   191 TIME:   0.160 TIME LEFT:  2.00D  GRAD.:     3.525 HEAT:  29.01482
 CYCLE:   192 TIME:   0.145 TIME LEFT:  2.00D  GRAD.:     3.371 HEAT:  29.01300
 CYCLE:   193 TIME:   0.168 TIME LEFT:  2.00D  GRAD.:     7.566 HEAT:  29.01059
 CYCLE:   194 TIME:   0.164 TIME LEFT:  2.00D  GRAD.:     5.265 HEAT:  29.00786
 CYCLE:   195 TIME:   0.164 TIME LEFT:  2.00D  GRAD.:     5.937 HEAT:  29.00370
 CYCLE:   196 TIME:   0.180 TIME LEFT:  2.00D  GRAD.:     6.607 HEAT:  29.00100
 CYCLE:   197 TIME:   0.234 TIME LEFT:  2.00D  GRAD.:    13.383 HEAT:  28.99827
 CYCLE:   198 TIME:   0.141 TIME LEFT:  2.00D  GRAD.:     5.095 HEAT:  28.99535
 CYCLE:   199 TIME:   0.121 TIME LEFT:  2.00D  GRAD.:     3.042 HEAT:  28.99397
 CYCLE:   200 TIME:   0.137 TIME LEFT:  2.00D  GRAD.:    14.635 HEAT:  28.99358
 CYCLE:   201 TIME:   0.164 TIME LEFT:  2.00D  GRAD.:     4.536 HEAT:  28.99249
 CYCLE:   202 TIME:   0.129 TIME LEFT:  2.00D  GRAD.:     2.566 HEAT:  28.99205
 CYCLE:   203 TIME:   0.133 TIME LEFT:  2.00D  GRAD.:     3.531 HEAT:  28.99152
 CYCLE:   204 TIME:   0.141 TIME LEFT:  2.00D  GRAD.:     3.570 HEAT:  28.99091
 CYCLE:   205 TIME:   0.152 TIME LEFT:  2.00D  GRAD.:     6.823 HEAT:  28.98998
 CYCLE:   206 TIME:   0.102 TIME LEFT:  2.00D  GRAD.:     3.546 HEAT:  28.98859
 CYCLE:   207 TIME:   0.141 TIME LEFT:  2.00D  GRAD.:     3.342 HEAT:  28.98753
 CYCLE:   208 TIME:   0.188 TIME LEFT:  2.00D  GRAD.:     3.945 HEAT:  28.98629
 CYCLE:   209 TIME:   0.133 TIME LEFT:  2.00D  GRAD.:     4.750 HEAT:  28.98444
 CYCLE:   210 TIME:   0.109 TIME LEFT:  2.00D  GRAD.:     6.652 HEAT:  28.98302
 CYCLE:   211 TIME:   0.141 TIME LEFT:  2.00D  GRAD.:     3.852 HEAT:  28.98146
 CYCLE:   212 TIME:   0.203 TIME LEFT:  2.00D  GRAD.:     3.127 HEAT:  28.98038
 CYCLE:   213 TIME:   0.188 TIME LEFT:  2.00D  GRAD.:     2.872 HEAT:  28.97963
 CYCLE:   214 TIME:   0.148 TIME LEFT:  2.00D  GRAD.:     6.310 HEAT:  28.97848
 CYCLE:   215 TIME:   0.141 TIME LEFT:  2.00D  GRAD.:    16.172 HEAT:  28.97902
 CYCLE:   216 TIME:   0.121 TIME LEFT:  2.00D  GRAD.:     4.136 HEAT:  28.97740
 CYCLE:   217 TIME:   0.164 TIME LEFT:  2.00D  GRAD.:     2.461 HEAT:  28.97707
 CYCLE:   218 TIME:   0.137 TIME LEFT:  2.00D  GRAD.:     2.842 HEAT:  28.97656
 CYCLE:   219 TIME:   0.180 TIME LEFT:  2.00D  GRAD.:     5.834 HEAT:  28.97553
 CYCLE:   220 TIME:   0.141 TIME LEFT:  2.00D  GRAD.:     6.775 HEAT:  28.97453
 CYCLE:   221 TIME:   0.129 TIME LEFT:  2.00D  GRAD.:     4.776 HEAT:  28.97254
 CYCLE:   222 TIME:   0.141 TIME LEFT:  2.00D  GRAD.:     3.691 HEAT:  28.97041
 CYCLE:   223 TIME:   0.125 TIME LEFT:  2.00D  GRAD.:     3.317 HEAT:  28.96946
 CYCLE:   224 TIME:   0.105 TIME LEFT:  2.00D  GRAD.:     3.525 HEAT:  28.96841
 CYCLE:   225 TIME:   0.113 TIME LEFT:  2.00D  GRAD.:     4.506 HEAT:  28.96625
 CYCLE:   226 TIME:   0.176 TIME LEFT:  2.00D  GRAD.:    11.841 HEAT:  28.96823
 CYCLE:   227 TIME:   0.156 TIME LEFT:  2.00D  GRAD.:     2.253 HEAT:  28.96401
 CYCLE:   228 TIME:   0.113 TIME LEFT:  2.00D  GRAD.:     2.500 HEAT:  28.96332
 CYCLE:   229 TIME:   0.195 TIME LEFT:  2.00D  GRAD.:    18.119 HEAT:  28.96254
 CYCLE:   230 TIME:   0.172 TIME LEFT:  2.00D  GRAD.:     3.838 HEAT:  28.96042
 CYCLE:   231 TIME:   0.148 TIME LEFT:  2.00D  GRAD.:     4.007 HEAT:  28.95972
 CYCLE:   232 TIME:   0.102 TIME LEFT:  2.00D  GRAD.:     3.356 HEAT:  28.95859
 CYCLE:   233 TIME:   0.180 TIME LEFT:  2.00D  GRAD.:     2.898 HEAT:  28.95754
 CYCLE:   234 TIME:   0.172 TIME LEFT:  2.00D  GRAD.:    10.636 HEAT:  28.95734
 CYCLE:   235 TIME:   0.117 TIME LEFT:  2.00D  GRAD.:     3.560 HEAT:  28.95553
 CYCLE:   236 TIME:   0.234 TIME LEFT:  2.00D  GRAD.:     2.224 HEAT:  28.95500
 CYCLE:   237 TIME:   0.176 TIME LEFT:  2.00D  GRAD.:     2.397 HEAT:  28.95436
 CYCLE:   238 TIME:   0.188 TIME LEFT:  2.00D  GRAD.:     3.994 HEAT:  28.95348
 CYCLE:   239 TIME:   0.219 TIME LEFT:  2.00D  GRAD.:     3.790 HEAT:  28.95232
 CYCLE:   240 TIME:   0.199 TIME LEFT:  2.00D  GRAD.:     8.922 HEAT:  28.95128
 CYCLE:   241 TIME:   0.121 TIME LEFT:  2.00D  GRAD.:     3.778 HEAT:  28.94968
 CYCLE:   242 TIME:   0.234 TIME LEFT:  2.00D  GRAD.:     2.817 HEAT:  28.94856
 CYCLE:   243 TIME:   0.164 TIME LEFT:  2.00D  GRAD.:     4.193 HEAT:  28.94785
 CYCLE:   244 TIME:   0.113 TIME LEFT:  2.00D  GRAD.:     5.039 HEAT:  28.94687
 CYCLE:   245 TIME:   0.125 TIME LEFT:  2.00D  GRAD.:     4.476 HEAT:  28.94548
 CYCLE:   246 TIME:   0.125 TIME LEFT:  2.00D  GRAD.:     3.864 HEAT:  28.94426
 CYCLE:   247 TIME:   0.125 TIME LEFT:  2.00D  GRAD.:     2.745 HEAT:  28.94168
 CYCLE:   248 TIME:   0.094 TIME LEFT:  2.00D  GRAD.:     7.724 HEAT:  28.94041
 CYCLE:   249 TIME:   0.203 TIME LEFT:  2.00D  GRAD.:     3.028 HEAT:  28.93907
 CYCLE:   250 TIME:   0.195 TIME LEFT:  2.00D  GRAD.:     2.741 HEAT:  28.93826
 CYCLE:   251 TIME:   0.109 TIME LEFT:  2.00D  GRAD.:     3.634 HEAT:  28.93733
 CYCLE:   252 TIME:   0.094 TIME LEFT:  2.00D  GRAD.:     3.910 HEAT:  28.93614
 CYCLE:   253 TIME:   0.164 TIME LEFT:  2.00D  GRAD.:     4.020 HEAT:  28.93497
 CYCLE:   254 TIME:   0.199 TIME LEFT:  2.00D  GRAD.:     3.225 HEAT:  28.93401
 CYCLE:   255 TIME:   0.160 TIME LEFT:  2.00D  GRAD.:     3.003 HEAT:  28.93234
 CYCLE:   256 TIME:   0.145 TIME LEFT:  2.00D  GRAD.:     9.577 HEAT:  28.93039
 CYCLE:   257 TIME:   0.125 TIME LEFT:  2.00D  GRAD.:     6.004 HEAT:  28.92921
 CYCLE:   258 TIME:   0.156 TIME LEFT:  2.00D  GRAD.:     3.549 HEAT:  28.92847
 CYCLE:   259 TIME:   0.195 TIME LEFT:  2.00D  GRAD.:     2.689 HEAT:  28.92769
 CYCLE:   260 TIME:   0.188 TIME LEFT:  2.00D  GRAD.:     3.046 HEAT:  28.92642
 CYCLE:   261 TIME:   0.145 TIME LEFT:  2.00D  GRAD.:     3.199 HEAT:  28.92429
 CYCLE:   262 TIME:   0.238 TIME LEFT:  2.00D  GRAD.:     5.766 HEAT:  28.92287
 CYCLE:   263 TIME:   0.145 TIME LEFT:  2.00D  GRAD.:     6.601 HEAT:  28.92154
 CYCLE:   264 TIME:   0.086 TIME LEFT:  2.00D  GRAD.:     7.803 HEAT:  28.92049
 CYCLE:   265 TIME:   0.121 TIME LEFT:  2.00D  GRAD.:    12.556 HEAT:  28.92182
 CYCLE:   266 TIME:   0.141 TIME LEFT:  2.00D  GRAD.:    14.028 HEAT:  28.92011
 CYCLE:   267 TIME:   0.215 TIME LEFT:  2.00D  GRAD.:    21.970 HEAT:  28.92451
 CYCLE:   268 TIME:   0.133 TIME LEFT:  2.00D  GRAD.:     6.682 HEAT:  28.91868
 CYCLE:   269 TIME:   0.145 TIME LEFT:  2.00D  GRAD.:     3.922 HEAT:  28.91565
 CYCLE:   270 TIME:   0.211 TIME LEFT:  2.00D  GRAD.:   104.588 HEAT:  28.97543
 CYCLE:   271 TIME:   0.109 TIME LEFT:  2.00D  GRAD.:     3.897 HEAT:  28.91570
 CYCLE:   272 TIME:   0.191 TIME LEFT:  2.00D  GRAD.:     6.119 HEAT:  28.91691
 CYCLE:   273 TIME:   0.125 TIME LEFT:  2.00D  GRAD.:    53.564 HEAT:  28.95972
 CYCLE:   274 TIME:   0.113 TIME LEFT:  2.00D  GRAD.:    20.350 HEAT:  28.92033
 CYCLE:   275 TIME:   0.117 TIME LEFT:  2.00D  GRAD.:    21.835 HEAT:  28.93488
 CYCLE:   276 TIME:   0.125 TIME LEFT:  2.00D  GRAD.:     2.760 HEAT:  28.91327
 CYCLE:   277 TIME:   0.215 TIME LEFT:  2.00D  GRAD.:     3.131 HEAT:  28.91281
 CYCLE:   278 TIME:   0.156 TIME LEFT:  2.00D  GRAD.:     2.834 HEAT:  28.91234
 CYCLE:   279 TIME:   0.102 TIME LEFT:  2.00D  GRAD.:     4.033 HEAT:  28.91064
 CYCLE:   280 TIME:   0.262 TIME LEFT:  2.00D  GRAD.:     5.038 HEAT:  28.90992
 CYCLE:   281 TIME:   0.133 TIME LEFT:  2.00D  GRAD.:     1.876 HEAT:  28.90930
 CYCLE:   282 TIME:   0.168 TIME LEFT:  2.00D  GRAD.:     1.973 HEAT:  28.90902
 CYCLE:   283 TIME:   0.234 TIME LEFT:  2.00D  GRAD.:     2.218 HEAT:  28.90850
 CYCLE:   284 TIME:   0.137 TIME LEFT:  2.00D  GRAD.:    18.921 HEAT:  28.90936
 CYCLE:   285 TIME:   0.125 TIME LEFT:  2.00D  GRAD.:     2.705 HEAT:  28.90756
 CYCLE:   286 TIME:   0.133 TIME LEFT:  2.00D  GRAD.:     2.029 HEAT:  28.90745
 CYCLE:   287 TIME:   0.094 TIME LEFT:  2.00D  GRAD.:     2.800 HEAT:  28.90709
 CYCLE:   288 TIME:   0.164 TIME LEFT:  2.00D  GRAD.:     3.039 HEAT:  28.90673
 CYCLE:   289 TIME:   0.191 TIME LEFT:  2.00D  GRAD.:     5.636 HEAT:  28.90639
 CYCLE:   290 TIME:   0.117 TIME LEFT:  2.00D  GRAD.:     2.234 HEAT:  28.90585
 CYCLE:   291 TIME:   0.137 TIME LEFT:  2.00D  GRAD.:     2.104 HEAT:  28.90558
 CYCLE:   292 TIME:   0.133 TIME LEFT:  2.00D  GRAD.:     2.555 HEAT:  28.90528
 CYCLE:   293 TIME:   0.145 TIME LEFT:  2.00D  GRAD.:     2.499 HEAT:  28.90477
 CYCLE:   294 TIME:   0.145 TIME LEFT:  2.00D  GRAD.:     2.356 HEAT:  28.90427
 CYCLE:   295 TIME:   0.125 TIME LEFT:  2.00D  GRAD.:     1.625 HEAT:  28.90387
 CYCLE:   296 TIME:   0.180 TIME LEFT:  2.00D  GRAD.:     1.112 HEAT:  28.90365
 CYCLE:   297 TIME:   0.121 TIME LEFT:  2.00D  GRAD.:     1.414 HEAT:  28.90344
 CYCLE:   298 TIME:   0.203 TIME LEFT:  2.00D  GRAD.:     9.381 HEAT:  28.90362
 CYCLE:   299 TIME:   0.184 TIME LEFT:  2.00D  GRAD.:     1.666 HEAT:  28.90313
 CYCLE:   300 TIME:   0.117 TIME LEFT:  2.00D  GRAD.:     2.417 HEAT:  28.90315
 CYCLE:   301 TIME:   0.246 TIME LEFT:  2.00D  GRAD.:     1.852 HEAT:  28.90295
 CYCLE:   302 TIME:   0.266 TIME LEFT:  2.00D  GRAD.:     5.403 HEAT:  28.90291
 CYCLE:   303 TIME:   0.191 TIME LEFT:  2.00D  GRAD.:     1.664 HEAT:  28.90265
 CYCLE:   304 TIME:   0.184 TIME LEFT:  2.00D  GRAD.:     1.229 HEAT:  28.90252
 CYCLE:   305 TIME:   0.141 TIME LEFT:  2.00D  GRAD.:     2.020 HEAT:  28.90232
 CYCLE:   306 TIME:   0.180 TIME LEFT:  2.00D  GRAD.:     1.966 HEAT:  28.90208
 CYCLE:   307 TIME:   0.145 TIME LEFT:  2.00D  GRAD.:     9.005 HEAT:  28.90290
 CYCLE:   308 TIME:   0.172 TIME LEFT:  2.00D  GRAD.:     1.558 HEAT:  28.90144
 CYCLE:   309 TIME:   0.191 TIME LEFT:  2.00D  GRAD.:     1.223 HEAT:  28.90127
 CYCLE:   310 TIME:   0.160 TIME LEFT:  2.00D  GRAD.:     1.450 HEAT:  28.90090
 CYCLE:   311 TIME:   0.145 TIME LEFT:  2.00D  GRAD.:     8.449 HEAT:  28.90189
 CYCLE:   312 TIME:   0.137 TIME LEFT:  2.00D  GRAD.:     2.011 HEAT:  28.90048
 CYCLE:   313 TIME:   0.250 TIME LEFT:  2.00D  GRAD.:     1.165 HEAT:  28.90047
 CYCLE:   314 TIME:   0.164 TIME LEFT:  2.00D  GRAD.:     2.139 HEAT:  28.90016
 CYCLE:   315 TIME:   0.121 TIME LEFT:  2.00D  GRAD.:     1.982 HEAT:  28.89993
 CYCLE:   316 TIME:   0.125 TIME LEFT:  2.00D  GRAD.:     1.108 HEAT:  28.89981
 CYCLE:   317 TIME:   0.227 TIME LEFT:  2.00D  GRAD.:     1.356 HEAT:  28.89973
 CYCLE:   318 TIME:   0.109 TIME LEFT:  2.00D  GRAD.:     3.030 HEAT:  28.89955
 CYCLE:   319 TIME:   0.117 TIME LEFT:  2.00D  GRAD.:     1.971 HEAT:  28.89924
 CYCLE:   320 TIME:   0.156 TIME LEFT:  2.00D  GRAD.:     1.234 HEAT:  28.89900
 CYCLE:   321 TIME:   0.191 TIME LEFT:  2.00D  GRAD.:     1.311 HEAT:  28.89887
 CYCLE:   322 TIME:   0.082 TIME LEFT:  2.00D  GRAD.:     1.451 HEAT:  28.89875
 CYCLE:   323 TIME:   0.121 TIME LEFT:  2.00D  GRAD.:     1.375 HEAT:  28.89855
 CYCLE:   324 TIME:   0.145 TIME LEFT:  2.00D  GRAD.:     3.416 HEAT:  28.89836
 CYCLE:   325 TIME:   0.109 TIME LEFT:  2.00D  GRAD.:     1.209 HEAT:  28.89816
 CYCLE:   326 TIME:   0.133 TIME LEFT:  2.00D  GRAD.:     1.140 HEAT:  28.89807
 CYCLE:   327 TIME:   0.117 TIME LEFT:  2.00D  GRAD.:     1.196 HEAT:  28.89793
 CYCLE:   328 TIME:   0.121 TIME LEFT:  2.00D  GRAD.:     6.978 HEAT:  28.89791
 CYCLE:   329 TIME:   0.121 TIME LEFT:  2.00D  GRAD.:     1.324 HEAT:  28.89768
 CYCLE:   330 TIME:   0.258 TIME LEFT:  2.00D  GRAD.:     0.901 HEAT:  28.89764
 CYCLE:   331 TIME:   0.203 TIME LEFT:  2.00D  GRAD.:     0.882 HEAT:  28.89759
 CYCLE:   332 TIME:   0.121 TIME LEFT:  2.00D  GRAD.:     0.831 HEAT:  28.89750
 CYCLE:   333 TIME:   0.145 TIME LEFT:  2.00D  GRAD.:     3.833 HEAT:  28.89775
 CYCLE:   334 TIME:   0.117 TIME LEFT:  2.00D  GRAD.:     0.794 HEAT:  28.89736
 CYCLE:   335 TIME:   0.195 TIME LEFT:  2.00D  GRAD.:     0.601 HEAT:  28.89732
 CYCLE:   336 TIME:   0.164 TIME LEFT:  2.00D  GRAD.:     0.893 HEAT:  28.89722
 CYCLE:   337 TIME:   0.129 TIME LEFT:  2.00D  GRAD.:     2.540 HEAT:  28.89713
 CYCLE:   338 TIME:   0.191 TIME LEFT:  2.00D  GRAD.:     1.210 HEAT:  28.89700
 CYCLE:   339 TIME:   0.191 TIME LEFT:  2.00D  GRAD.:     1.096 HEAT:  28.89689
 CYCLE:   340 TIME:   0.109 TIME LEFT:  2.00D  GRAD.:     1.411 HEAT:  28.89679
 CYCLE:   341 TIME:   0.164 TIME LEFT:  2.00D  GRAD.:     3.781 HEAT:  28.89680
 CYCLE:   342 TIME:   0.145 TIME LEFT:  2.00D  GRAD.:     1.932 HEAT:  28.89660
 CYCLE:   343 TIME:   0.180 TIME LEFT:  2.00D  GRAD.:     0.873 HEAT:  28.89654
 CYCLE:   344 TIME:   0.238 TIME LEFT:  2.00D  GRAD.:     0.968 HEAT:  28.89648
 CYCLE:   345 TIME:   0.184 TIME LEFT:  2.00D  GRAD.:     2.936 HEAT:  28.89639
 CYCLE:   346 TIME:   0.117 TIME LEFT:  2.00D  GRAD.:     0.929 HEAT:  28.89627
 CYCLE:   347 TIME:   0.129 TIME LEFT:  2.00D  GRAD.:     0.967 HEAT:  28.89622
 CYCLE:   348 TIME:   0.242 TIME LEFT:  2.00D  GRAD.:     4.293 HEAT:  28.89628
 CYCLE:   349 TIME:   0.094 TIME LEFT:  2.00D  GRAD.:     1.128 HEAT:  28.89604
 CYCLE:   350 TIME:   0.141 TIME LEFT:  2.00D  GRAD.:     0.746 HEAT:  28.89599
 CYCLE:   351 TIME:   0.152 TIME LEFT:  2.00D  GRAD.:     1.147 HEAT:  28.89591
 CYCLE:   352 TIME:   0.195 TIME LEFT:  2.00D  GRAD.:     0.938 HEAT:  28.89585
 CYCLE:   353 TIME:   0.090 TIME LEFT:  2.00D  GRAD.:     2.479 HEAT:  28.89583
 CYCLE:   354 TIME:   0.105 TIME LEFT:  2.00D  GRAD.:     0.914 HEAT:  28.89571
 CYCLE:   355 TIME:   0.133 TIME LEFT:  2.00D  GRAD.:     1.238 HEAT:  28.89564
 CYCLE:   356 TIME:   0.191 TIME LEFT:  2.00D  GRAD.:     1.753 HEAT:  28.89558
 CYCLE:   357 TIME:   0.105 TIME LEFT:  2.00D  GRAD.:     1.477 HEAT:  28.89552
 CYCLE:   358 TIME:   0.117 TIME LEFT:  2.00D  GRAD.:     0.749 HEAT:  28.89546
 CYCLE:   359 TIME:   0.227 TIME LEFT:  2.00D  GRAD.:     0.991 HEAT:  28.89542
 CYCLE:   360 TIME:   0.168 TIME LEFT:  2.00D  GRAD.:     1.193 HEAT:  28.89537
 CYCLE:   361 TIME:   0.113 TIME LEFT:  2.00D  GRAD.:     4.641 HEAT:  28.89547
 CYCLE:   362 TIME:   0.133 TIME LEFT:  2.00D  GRAD.:     0.942 HEAT:  28.89524
 CYCLE:   363 TIME:   0.238 TIME LEFT:  2.00D  GRAD.:     0.771 HEAT:  28.89519
 CYCLE:   364 TIME:   0.094 TIME LEFT:  2.00D  GRAD.:     1.111 HEAT:  28.89505
 CYCLE:   365 TIME:   0.184 TIME LEFT:  2.00D  GRAD.:     1.020 HEAT:  28.89494
 CYCLE:   366 TIME:   0.242 TIME LEFT:  2.00D  GRAD.:     1.364 HEAT:  28.89488
 CYCLE:   367 TIME:   0.082 TIME LEFT:  2.00D  GRAD.:     1.046 HEAT:  28.89481
 CYCLE:   368 TIME:   0.117 TIME LEFT:  2.00D  GRAD.:     0.848 HEAT:  28.89474
 CYCLE:   369 TIME:   0.152 TIME LEFT:  2.00D  GRAD.:     1.205 HEAT:  28.89461
 CYCLE:   370 TIME:   0.172 TIME LEFT:  2.00D  GRAD.:     0.808 HEAT:  28.89447
 CYCLE:   371 TIME:   0.145 TIME LEFT:  2.00D  GRAD.:     3.318 HEAT:  28.89438
 CYCLE:   372 TIME:   0.121 TIME LEFT:  2.00D  GRAD.:     1.540 HEAT:  28.89429
 CYCLE:   373 TIME:   0.203 TIME LEFT:  2.00D  GRAD.:     1.798 HEAT:  28.89430
 CYCLE:   374 TIME:   0.094 TIME LEFT:  2.00D  GRAD.:     0.705 HEAT:  28.89418
 CYCLE:   375 TIME:   0.109 TIME LEFT:  2.00D  GRAD.:     1.471 HEAT:  28.89405
 CYCLE:   376 TIME:   0.168 TIME LEFT:  2.00D  GRAD.:     1.115 HEAT:  28.89398
 CYCLE:   377 TIME:   0.129 TIME LEFT:  2.00D  GRAD.:     1.184 HEAT:  28.89389
 CYCLE:   378 TIME:   0.113 TIME LEFT:  2.00D  GRAD.:     6.465 HEAT:  28.89410
 CYCLE:   379 TIME:   0.203 TIME LEFT:  2.00D  GRAD.:     1.313 HEAT:  28.89378
 CYCLE:   380 TIME:   0.156 TIME LEFT:  2.00D  GRAD.:     0.952 HEAT:  28.89375
 CYCLE:   381 TIME:   0.188 TIME LEFT:  2.00D  GRAD.:     0.966 HEAT:  28.89362
 CYCLE:   382 TIME:   0.238 TIME LEFT:  2.00D  GRAD.:     1.329 HEAT:  28.89349
 CYCLE:   383 TIME:   0.086 TIME LEFT:  2.00D  GRAD.:     0.870 HEAT:  28.89339
 CYCLE:   384 TIME:   0.098 TIME LEFT:  2.00D  GRAD.:     0.896 HEAT:  28.89322
 CYCLE:   385 TIME:   0.125 TIME LEFT:  2.00D  GRAD.:     1.487 HEAT:  28.89304
 CYCLE:   386 TIME:   0.238 TIME LEFT:  2.00D  GRAD.:     1.471 HEAT:  28.89281
 CYCLE:   387 TIME:   0.227 TIME LEFT:  2.00D  GRAD.:     3.503 HEAT:  28.89275
 CYCLE:   388 TIME:   0.098 TIME LEFT:  2.00D  GRAD.:     1.246 HEAT:  28.89265
 CYCLE:   389 TIME:   0.145 TIME LEFT:  2.00D  GRAD.:     1.788 HEAT:  28.89263
 CYCLE:   390 TIME:   0.121 TIME LEFT:  2.00D  GRAD.:     1.066 HEAT:  28.89256
 CYCLE:   391 TIME:   0.141 TIME LEFT:  2.00D  GRAD.:     0.918 HEAT:  28.89245
 CYCLE:   392 TIME:   0.145 TIME LEFT:  2.00D  GRAD.:     1.642 HEAT:  28.89234
 CYCLE:   393 TIME:   0.145 TIME LEFT:  2.00D  GRAD.:     1.342 HEAT:  28.89222
 CYCLE:   394 TIME:   0.117 TIME LEFT:  2.00D  GRAD.:     1.489 HEAT:  28.89211
 CYCLE:   395 TIME:   0.121 TIME LEFT:  2.00D  GRAD.:     0.794 HEAT:  28.89203
 CYCLE:   396 TIME:   0.102 TIME LEFT:  2.00D  GRAD.:     2.588 HEAT:  28.89213
 CYCLE:   397 TIME:   0.121 TIME LEFT:  2.00D  GRAD.:     0.709 HEAT:  28.89192
 CYCLE:   398 TIME:   0.121 TIME LEFT:  2.00D  GRAD.:     0.666 HEAT:  28.89187
 CYCLE:   399 TIME:   0.141 TIME LEFT:  2.00D  GRAD.:     1.344 HEAT:  28.89176
 CYCLE:   400 TIME:   0.105 TIME LEFT:  2.00D  GRAD.:     1.457 HEAT:  28.89165
 CYCLE:   401 TIME:   0.180 TIME LEFT:  2.00D  GRAD.:     0.783 HEAT:  28.89154
 CYCLE:   402 TIME:   0.129 TIME LEFT:  2.00D  GRAD.:     2.788 HEAT:  28.89148
 CYCLE:   403 TIME:   0.098 TIME LEFT:  2.00D  GRAD.:     1.492 HEAT:  28.89138
 CYCLE:   404 TIME:   0.121 TIME LEFT:  2.00D  GRAD.:     1.003 HEAT:  28.89128
 CYCLE:   405 TIME:   0.156 TIME LEFT:  2.00D  GRAD.:     0.927 HEAT:  28.89122
 CYCLE:   406 TIME:   0.156 TIME LEFT:  2.00D  GRAD.:     1.398 HEAT:  28.89108
 CYCLE:   407 TIME:   0.164 TIME LEFT:  2.00D  GRAD.:     3.673 HEAT:  28.89109
 CYCLE:   408 TIME:   0.199 TIME LEFT:  2.00D  GRAD.:     1.388 HEAT:  28.89094
 CYCLE:   409 TIME:   0.156 TIME LEFT:  2.00D  GRAD.:     1.397 HEAT:  28.89091
 CYCLE:   410 TIME:   0.148 TIME LEFT:  2.00D  GRAD.:     1.138 HEAT:  28.89076
 CYCLE:   411 TIME:   0.160 TIME LEFT:  2.00D  GRAD.:     1.309 HEAT:  28.89042
 CYCLE:   412 TIME:   0.184 TIME LEFT:  2.00D  GRAD.:     1.529 HEAT:  28.89024
 CYCLE:   413 TIME:   0.086 TIME LEFT:  2.00D  GRAD.:     1.568 HEAT:  28.89012
 CYCLE:   414 TIME:   0.098 TIME LEFT:  2.00D  GRAD.:     1.027 HEAT:  28.89004
 CYCLE:   415 TIME:   0.234 TIME LEFT:  2.00D  GRAD.:     1.088 HEAT:  28.88988
 CYCLE:   416 TIME:   0.180 TIME LEFT:  2.00D  GRAD.:     2.805 HEAT:  28.88985
 CYCLE:   417 TIME:   0.117 TIME LEFT:  2.00D  GRAD.:     1.038 HEAT:  28.88978
 CYCLE:   418 TIME:   0.281 TIME LEFT:  2.00D  GRAD.:     2.941 HEAT:  28.88978
 CYCLE:   419 TIME:   0.160 TIME LEFT:  2.00D  GRAD.:     1.182 HEAT:  28.88968
 CYCLE:   420 TIME:   0.105 TIME LEFT:  2.00D  GRAD.:     0.643 HEAT:  28.88964
 CYCLE:   421 TIME:   0.219 TIME LEFT:  2.00D  GRAD.:     1.167 HEAT:  28.88960
 CYCLE:   422 TIME:   0.145 TIME LEFT:  2.00D  GRAD.:     2.187 HEAT:  28.88954
 CYCLE:   423 TIME:   0.164 TIME LEFT:  2.00D  GRAD.:     1.452 HEAT:  28.88945
 CYCLE:   424 TIME:   0.117 TIME LEFT:  2.00D  GRAD.:     1.106 HEAT:  28.88932
 CYCLE:   425 TIME:   0.125 TIME LEFT:  2.00D  GRAD.:     2.608 HEAT:  28.88927
 CYCLE:   426 TIME:   0.152 TIME LEFT:  2.00D  GRAD.:     1.730 HEAT:  28.88917
 CYCLE:   427 TIME:   0.105 TIME LEFT:  2.00D  GRAD.:     0.932 HEAT:  28.88907
 CYCLE:   428 TIME:   0.141 TIME LEFT:  2.00D  GRAD.:     0.796 HEAT:  28.88898
 CYCLE:   429 TIME:   0.168 TIME LEFT:  2.00D  GRAD.:     1.021 HEAT:  28.88887
 CYCLE:   430 TIME:   0.203 TIME LEFT:  2.00D  GRAD.:     1.593 HEAT:  28.88878
 CYCLE:   431 TIME:   0.234 TIME LEFT:  2.00D  GRAD.:     1.780 HEAT:  28.88873
 CYCLE:   432 TIME:   0.117 TIME LEFT:  2.00D  GRAD.:     0.750 HEAT:  28.88867
 CYCLE:   433 TIME:   0.164 TIME LEFT:  2.00D  GRAD.:     0.598 HEAT:  28.88865
 CYCLE:   434 TIME:   0.129 TIME LEFT:  2.00D  GRAD.:     1.145 HEAT:  28.88865
 CYCLE:   435 TIME:   0.133 TIME LEFT:  2.00D  GRAD.:     0.863 HEAT:  28.88851
 CYCLE:   436 TIME:   0.184 TIME LEFT:  2.00D  GRAD.:     1.621 HEAT:  28.88846
 CYCLE:   437 TIME:   0.121 TIME LEFT:  2.00D  GRAD.:     0.611 HEAT:  28.88839
 CYCLE:   438 TIME:   0.180 TIME LEFT:  2.00D  GRAD.:     0.712 HEAT:  28.88838
 CYCLE:   439 TIME:   0.086 TIME LEFT:  2.00D  GRAD.:     0.832 HEAT:  28.88831
 CYCLE:   440 TIME:   0.129 TIME LEFT:  2.00D  GRAD.:     1.655 HEAT:  28.88818
 CYCLE:   441 TIME:   0.121 TIME LEFT:  2.00D  GRAD.:     1.827 HEAT:  28.88810
 CYCLE:   442 TIME:   0.117 TIME LEFT:  2.00D  GRAD.:     0.775 HEAT:  28.88805
 CYCLE:   443 TIME:   0.098 TIME LEFT:  2.00D  GRAD.:     0.882 HEAT:  28.88801
 CYCLE:   444 TIME:   0.129 TIME LEFT:  2.00D  GRAD.:     1.002 HEAT:  28.88795
 CYCLE:   445 TIME:   0.125 TIME LEFT:  2.00D  GRAD.:     4.315 HEAT:  28.88791
 CYCLE:   446 TIME:   0.113 TIME LEFT:  2.00D  GRAD.:     1.437 HEAT:  28.88774
 CYCLE:   447 TIME:   0.086 TIME LEFT:  2.00D  GRAD.:     1.007 HEAT:  28.88766
 CYCLE:   448 TIME:   0.125 TIME LEFT:  2.00D  GRAD.:     0.708 HEAT:  28.88759
 CYCLE:   449 TIME:   0.246 TIME LEFT:  2.00D  GRAD.:     0.678 HEAT:  28.88754
 CYCLE:   450 TIME:   0.121 TIME LEFT:  2.00D  GRAD.:     2.625 HEAT:  28.88750
 CYCLE:   451 TIME:   0.113 TIME LEFT:  2.00D  GRAD.:     1.631 HEAT:  28.88744
 CYCLE:   452 TIME:   0.176 TIME LEFT:  2.00D  GRAD.:     1.182 HEAT:  28.88739
 CYCLE:   453 TIME:   0.199 TIME LEFT:  2.00D  GRAD.:     0.798 HEAT:  28.88735
 CYCLE:   454 TIME:   0.133 TIME LEFT:  2.00D  GRAD.:     0.698 HEAT:  28.88728
 CYCLE:   455 TIME:   0.137 TIME LEFT:  2.00D  GRAD.:     0.898 HEAT:  28.88725
 CYCLE:   456 TIME:   0.137 TIME LEFT:  2.00D  GRAD.:     1.179 HEAT:  28.88718
 CYCLE:   457 TIME:   0.121 TIME LEFT:  2.00D  GRAD.:     2.082 HEAT:  28.88712
 CYCLE:   458 TIME:   0.230 TIME LEFT:  2.00D  GRAD.:     0.637 HEAT:  28.88702
 CYCLE:   459 TIME:   0.164 TIME LEFT:  2.00D  GRAD.:     0.535 HEAT:  28.88699
 CYCLE:   460 TIME:   0.133 TIME LEFT:  2.00D  GRAD.:     1.009 HEAT:  28.88694
 CYCLE:   461 TIME:   0.117 TIME LEFT:  2.00D  GRAD.:     1.733 HEAT:  28.88690
 CYCLE:   462 TIME:   0.180 TIME LEFT:  2.00D  GRAD.:     0.763 HEAT:  28.88688
 CYCLE:   463 TIME:   0.125 TIME LEFT:  2.00D  GRAD.:     0.810 HEAT:  28.88686
 CYCLE:   464 TIME:   0.230 TIME LEFT:  2.00D  GRAD.:     0.595 HEAT:  28.88684
 CYCLE:   465 TIME:   0.121 TIME LEFT:  2.00D  GRAD.:     1.076 HEAT:  28.88685
 CYCLE:   466 TIME:   0.176 TIME LEFT:  2.00D  GRAD.:     0.581 HEAT:  28.88681
 CYCLE:   467 TIME:   0.141 TIME LEFT:  2.00D  GRAD.:     0.736 HEAT:  28.88678
 CYCLE:   468 TIME:   0.148 TIME LEFT:  2.00D  GRAD.:     1.013 HEAT:  28.88678
 CYCLE:   469 TIME:   0.125 TIME LEFT:  2.00D  GRAD.:     0.453 HEAT:  28.88673
 CYCLE:   470 TIME:   0.129 TIME LEFT:  2.00D  GRAD.:     0.434 HEAT:  28.88671
 CYCLE:   471 TIME:   0.184 TIME LEFT:  2.00D  GRAD.:     1.347 HEAT:  28.88669
 CYCLE:   472 TIME:   0.148 TIME LEFT:  2.00D  GRAD.:     0.591 HEAT:  28.88667
 CYCLE:   473 TIME:   0.148 TIME LEFT:  2.00D  GRAD.:     0.581 HEAT:  28.88666
 CYCLE:   474 TIME:   0.125 TIME LEFT:  2.00D  GRAD.:     1.153 HEAT:  28.88666
 CYCLE:   475 TIME:   0.129 TIME LEFT:  2.00D  GRAD.:     0.398 HEAT:  28.88664
 CYCLE:   476 TIME:   0.133 TIME LEFT:  2.00D  GRAD.:     0.820 HEAT:  28.88664
 CYCLE:   477 TIME:   0.148 TIME LEFT:  2.00D  GRAD.:     0.609 HEAT:  28.88663
 CYCLE:   478 TIME:   0.105 TIME LEFT:  2.00D  GRAD.:     0.494 HEAT:  28.88662
 CYCLE:   479 TIME:   0.148 TIME LEFT:  2.00D  GRAD.:     0.830 HEAT:  28.88660
 CYCLE:   480 TIME:   0.168 TIME LEFT:  2.00D  GRAD.:     0.580 HEAT:  28.88657
 CYCLE:   481 TIME:   0.148 TIME LEFT:  2.00D  GRAD.:     0.947 HEAT:  28.88655
 CYCLE:   482 TIME:   0.109 TIME LEFT:  2.00D  GRAD.:     1.356 HEAT:  28.88654
 CYCLE:   483 TIME:   0.176 TIME LEFT:  2.00D  GRAD.:     0.478 HEAT:  28.88652
 CYCLE:   484 TIME:   0.137 TIME LEFT:  2.00D  GRAD.:     0.533 HEAT:  28.88651
 CYCLE:   485 TIME:   0.113 TIME LEFT:  2.00D  GRAD.:     0.382 HEAT:  28.88650
 CYCLE:   486 TIME:   0.270 TIME LEFT:  2.00D  GRAD.:     0.661 HEAT:  28.88648
 CYCLE:   487 TIME:   0.109 TIME LEFT:  2.00D  GRAD.:     0.878 HEAT:  28.88646
 CYCLE:   488 TIME:   0.129 TIME LEFT:  2.00D  GRAD.:     0.434 HEAT:  28.88643
 CYCLE:   489 TIME:   0.172 TIME LEFT:  2.00D  GRAD.:     0.598 HEAT:  28.88640
 CYCLE:   490 TIME:   0.203 TIME LEFT:  2.00D  GRAD.:     2.369 HEAT:  28.88642
 CYCLE:   491 TIME:   0.152 TIME LEFT:  2.00D  GRAD.:     0.443 HEAT:  28.88637
 CYCLE:   492 TIME:   0.156 TIME LEFT:  2.00D  GRAD.:     1.249 HEAT:  28.88637
 CYCLE:   493 TIME:   0.246 TIME LEFT:  2.00D  GRAD.:     0.403 HEAT:  28.88636
 CYCLE:   494 TIME:   0.086 TIME LEFT:  2.00D  GRAD.:     0.664 HEAT:  28.88635
 CYCLE:   495 TIME:   0.211 TIME LEFT:  2.00D  GRAD.:     0.539 HEAT:  28.88635
 CYCLE:   496 TIME:   0.176 TIME LEFT:  2.00D  GRAD.:     0.799 HEAT:  28.88634
 CYCLE:   497 TIME:   0.113 TIME LEFT:  2.00D  GRAD.:     0.987 HEAT:  28.88634
 CYCLE:   498 TIME:   0.121 TIME LEFT:  2.00D  GRAD.:     0.803 HEAT:  28.88633
 CYCLE:   499 TIME:   0.188 TIME LEFT:  2.00D  GRAD.:     2.131 HEAT:  28.88636
 CYCLE:   500 TIME:   0.129 TIME LEFT:  2.00D  GRAD.:     1.210 HEAT:  28.88632
 CYCLE:   501 TIME:   0.090 TIME LEFT:  2.00D  GRAD.:     0.978 HEAT:  28.88631
 CYCLE:   502 TIME:   0.129 TIME LEFT:  2.00D  GRAD.:     0.790 HEAT:  28.88632
 CYCLE:   503 TIME:   0.145 TIME LEFT:  2.00D  GRAD.:     3.067 HEAT:  28.88638
 CYCLE:   504 TIME:   0.145 TIME LEFT:  2.00D  GRAD.:     0.370 HEAT:  28.88630
 CYCLE:   505 TIME:   0.102 TIME LEFT:  2.00D  GRAD.:     0.531 HEAT:  28.88629
 CYCLE:   506 TIME:   0.113 TIME LEFT:  2.00D  GRAD.:     0.324 HEAT:  28.88629
 CYCLE:   507 TIME:   0.121 TIME LEFT:  2.00D  GRAD.:     0.567 HEAT:  28.88628
 CYCLE:   508 TIME:   0.168 TIME LEFT:  2.00D  GRAD.:     1.372 HEAT:  28.88628
 CYCLE:   509 TIME:   0.156 TIME LEFT:  2.00D  GRAD.:     0.429 HEAT:  28.88626
 CYCLE:   510 TIME:   0.230 TIME LEFT:  2.00D  GRAD.:     0.367 HEAT:  28.88626
 CYCLE:   511 TIME:   0.160 TIME LEFT:  2.00D  GRAD.:     0.309 HEAT:  28.88625
 CYCLE:   512 TIME:   0.133 TIME LEFT:  2.00D  GRAD.:     0.480 HEAT:  28.88623
 CYCLE:   513 TIME:   0.219 TIME LEFT:  2.00D  GRAD.:     0.472 HEAT:  28.88621
 CYCLE:   514 TIME:   0.105 TIME LEFT:  2.00D  GRAD.:     0.411 HEAT:  28.88620
 CYCLE:   515 TIME:   0.145 TIME LEFT:  2.00D  GRAD.:     0.469 HEAT:  28.88617
 CYCLE:   516 TIME:   0.121 TIME LEFT:  2.00D  GRAD.:     0.758 HEAT:  28.88614
 CYCLE:   517 TIME:   0.188 TIME LEFT:  2.00D  GRAD.:     0.821 HEAT:  28.88612
 CYCLE:   518 TIME:   0.145 TIME LEFT:  2.00D  GRAD.:     0.460 HEAT:  28.88611
 CYCLE:   519 TIME:   0.164 TIME LEFT:  2.00D  GRAD.:     0.622 HEAT:  28.88610
 CYCLE:   520 TIME:   0.223 TIME LEFT:  2.00D  GRAD.:     0.431 HEAT:  28.88609
 CYCLE:   521 TIME:   0.242 TIME LEFT:  2.00D  GRAD.:     0.296 HEAT:  28.88607
 CYCLE:   522 TIME:   0.082 TIME LEFT:  2.00D  GRAD.:     0.403 HEAT:  28.88605
 CYCLE:   523 TIME:   0.105 TIME LEFT:  2.00D  GRAD.:     7.916 HEAT:  28.88638
 CYCLE:   524 TIME:   0.121 TIME LEFT:  2.00D  GRAD.:     0.528 HEAT:  28.88604
 CYCLE:   525 TIME:   0.172 TIME LEFT:  2.00D  GRAD.:     0.385 HEAT:  28.88604
 CYCLE:   526 TIME:   0.102 TIME LEFT:  2.00D  GRAD.:     0.849 HEAT:  28.88601
 CYCLE:   527 TIME:   0.172 TIME LEFT:  2.00D  GRAD.:     0.603 HEAT:  28.88599
 CYCLE:   528 TIME:   0.156 TIME LEFT:  2.00D  GRAD.:     0.576 HEAT:  28.88598
 CYCLE:   529 TIME:   0.191 TIME LEFT:  2.00D  GRAD.:     0.369 HEAT:  28.88595
 CYCLE:   530 TIME:   0.188 TIME LEFT:  2.00D  GRAD.:     0.388 HEAT:  28.88592
 CYCLE:   531 TIME:   0.238 TIME LEFT:  2.00D  GRAD.:     1.136 HEAT:  28.88591
 CYCLE:   532 TIME:   0.117 TIME LEFT:  2.00D  GRAD.:     0.631 HEAT:  28.88589
 CYCLE:   533 TIME:   0.137 TIME LEFT:  2.00D  GRAD.:     0.431 HEAT:  28.88588
 CYCLE:   534 TIME:   0.234 TIME LEFT:  2.00D  GRAD.:     0.357 HEAT:  28.88587
 CYCLE:   535 TIME:   0.188 TIME LEFT:  2.00D  GRAD.:     0.505 HEAT:  28.88585
 CYCLE:   536 TIME:   0.188 TIME LEFT:  2.00D  GRAD.:     0.457 HEAT:  28.88583
 CYCLE:   537 TIME:   0.227 TIME LEFT:  2.00D  GRAD.:     1.463 HEAT:  28.88582
 CYCLE:   538 TIME:   0.102 TIME LEFT:  2.00D  GRAD.:     0.370 HEAT:  28.88581
 CYCLE:   539 TIME:   0.125 TIME LEFT:  2.00D  GRAD.:     0.406 HEAT:  28.88580
 CYCLE:   540 TIME:   0.266 TIME LEFT:  2.00D  GRAD.:     2.031 HEAT:  28.88585
 CYCLE:   541 TIME:   0.156 TIME LEFT:  2.00D  GRAD.:     0.455 HEAT:  28.88578
 CYCLE:   542 TIME:   0.094 TIME LEFT:  2.00D  GRAD.:     0.282 HEAT:  28.88578
 CYCLE:   543 TIME:   0.223 TIME LEFT:  2.00D  GRAD.:     0.324 HEAT:  28.88577
 CYCLE:   544 TIME:   0.117 TIME LEFT:  2.00D  GRAD.:     0.255 HEAT:  28.88576
 CYCLE:   545 TIME:   0.105 TIME LEFT:  2.00D  GRAD.:     0.260 HEAT:  28.88575
 CYCLE:   546 TIME:   0.086 TIME LEFT:  2.00D  GRAD.:     0.726 HEAT:  28.88574
 CYCLE:   547 TIME:   0.121 TIME LEFT:  2.00D  GRAD.:     0.938 HEAT:  28.88573
 CYCLE:   548 TIME:   0.117 TIME LEFT:  2.00D  GRAD.:     0.301 HEAT:  28.88571
 CYCLE:   549 TIME:   0.137 TIME LEFT:  2.00D  GRAD.:     0.223 HEAT:  28.88570
 CYCLE:   550 TIME:   0.195 TIME LEFT:  2.00D  GRAD.:     0.309 HEAT:  28.88569
 CYCLE:   551 TIME:   0.184 TIME LEFT:  2.00D  GRAD.:     3.234 HEAT:  28.88572
 CYCLE:   552 TIME:   0.121 TIME LEFT:  2.00D  GRAD.:     0.568 HEAT:  28.88567
 CYCLE:   553 TIME:   0.086 TIME LEFT:  2.00D  GRAD.:     0.323 HEAT:  28.88567
 CYCLE:   554 TIME:   0.148 TIME LEFT:  2.00D  GRAD.:     0.742 HEAT:  28.88565
 CYCLE:   555 TIME:   0.203 TIME LEFT:  2.00D  GRAD.:     0.308 HEAT:  28.88565
 CYCLE:   556 TIME:   0.105 TIME LEFT:  2.00D  GRAD.:     2.112 HEAT:  28.88566
 CYCLE:   557 TIME:   0.117 TIME LEFT:  2.00D  GRAD.:     0.581 HEAT:  28.88564
 CYCLE:   558 TIME:   0.164 TIME LEFT:  2.00D  GRAD.:     0.406 HEAT:  28.88563
 CYCLE:   559 TIME:   0.117 TIME LEFT:  2.00D  GRAD.:     0.499 HEAT:  28.88563
 CYCLE:   560 TIME:   0.219 TIME LEFT:  2.00D  GRAD.:     0.407 HEAT:  28.88562
 CYCLE:   561 TIME:   0.117 TIME LEFT:  2.00D  GRAD.:     0.328 HEAT:  28.88561
 CYCLE:   562 TIME:   0.137 TIME LEFT:  2.00D  GRAD.:     0.738 HEAT:  28.88561
 CYCLE:   563 TIME:   0.180 TIME LEFT:  2.00D  GRAD.:     0.528 HEAT:  28.88560
 CYCLE:   564 TIME:   0.199 TIME LEFT:  2.00D  GRAD.:     0.280 HEAT:  28.88559
 CYCLE:   565 TIME:   0.090 TIME LEFT:  2.00D  GRAD.:     0.253 HEAT:  28.88558
 CYCLE:   566 TIME:   0.102 TIME LEFT:  2.00D  GRAD.:     0.661 HEAT:  28.88558
 CYCLE:   567 TIME:   0.113 TIME LEFT:  2.00D  GRAD.:     0.487 HEAT:  28.88557
 CYCLE:   568 TIME:   0.113 TIME LEFT:  2.00D  GRAD.:     0.270 HEAT:  28.88555
 CYCLE:   569 TIME:   0.164 TIME LEFT:  2.00D  GRAD.:     0.208 HEAT:  28.88554
 CYCLE:   570 TIME:   0.121 TIME LEFT:  2.00D  GRAD.:     0.439 HEAT:  28.88552
 CYCLE:   571 TIME:   0.148 TIME LEFT:  2.00D  GRAD.:     0.276 HEAT:  28.88551
 CYCLE:   572 TIME:   0.211 TIME LEFT:  2.00D  GRAD.:     0.678 HEAT:  28.88551
 CYCLE:   573 TIME:   0.133 TIME LEFT:  2.00D  GRAD.:     0.452 HEAT:  28.88550
 CYCLE:   574 TIME:   0.086 TIME LEFT:  2.00D  GRAD.:     0.285 HEAT:  28.88549
 CYCLE:   575 TIME:   0.098 TIME LEFT:  2.00D  GRAD.:     0.336 HEAT:  28.88548
 CYCLE:   576 TIME:   0.117 TIME LEFT:  2.00D  GRAD.:     1.012 HEAT:  28.88546
 CYCLE:   577 TIME:   0.133 TIME LEFT:  2.00D  GRAD.:     0.367 HEAT:  28.88545
 CYCLE:   578 TIME:   0.145 TIME LEFT:  2.00D  GRAD.:     0.283 HEAT:  28.88544
 CYCLE:   579 TIME:   0.117 TIME LEFT:  2.00D  GRAD.:     0.657 HEAT:  28.88544
 CYCLE:   580 TIME:   0.180 TIME LEFT:  2.00D  GRAD.:     0.234 HEAT:  28.88543
 CYCLE:   581 TIME:   0.156 TIME LEFT:  2.00D  GRAD.:     0.214 HEAT:  28.88542
 CYCLE:   582 TIME:   0.090 TIME LEFT:  2.00D  GRAD.:     0.590 HEAT:  28.88541
 CYCLE:   583 TIME:   0.086 TIME LEFT:  2.00D  GRAD.:     0.522 HEAT:  28.88541
 CYCLE:   584 TIME:   0.137 TIME LEFT:  2.00D  GRAD.:     0.277 HEAT:  28.88540
 CYCLE:   585 TIME:   0.195 TIME LEFT:  2.00D  GRAD.:     0.992 HEAT:  28.88541
 CYCLE:   586 TIME:   0.176 TIME LEFT:  2.00D  GRAD.:     0.244 HEAT:  28.88539
 CYCLE:   587 TIME:   0.117 TIME LEFT:  2.00D  GRAD.:     0.210 HEAT:  28.88539
 CYCLE:   588 TIME:   0.117 TIME LEFT:  2.00D  GRAD.:     0.280 HEAT:  28.88539
 CYCLE:   589 TIME:   0.133 TIME LEFT:  2.00D  GRAD.:     0.434 HEAT:  28.88538
 CYCLE:   590 TIME:   0.137 TIME LEFT:  2.00D  GRAD.:     0.508 HEAT:  28.88537
 CYCLE:   591 TIME:   0.137 TIME LEFT:  2.00D  GRAD.:     0.425 HEAT:  28.88535
 CYCLE:   592 TIME:   0.105 TIME LEFT:  2.00D  GRAD.:     0.258 HEAT:  28.88534
 CYCLE:   593 TIME:   0.121 TIME LEFT:  2.00D  GRAD.:     0.276 HEAT:  28.88534
 CYCLE:   594 TIME:   0.117 TIME LEFT:  2.00D  GRAD.:     0.466 HEAT:  28.88533
 CYCLE:   595 TIME:   0.164 TIME LEFT:  2.00D  GRAD.:     0.478 HEAT:  28.88532
 CYCLE:   596 TIME:   0.102 TIME LEFT:  2.00D  GRAD.:     0.316 HEAT:  28.88531
 CYCLE:   597 TIME:   0.133 TIME LEFT:  2.00D  GRAD.:     0.196 HEAT:  28.88530
 CYCLE:   598 TIME:   0.184 TIME LEFT:  2.00D  GRAD.:     0.244 HEAT:  28.88529
 CYCLE:   599 TIME:   0.094 TIME LEFT:  2.00D  GRAD.:     0.252 HEAT:  28.88529
 CYCLE:   600 TIME:   0.125 TIME LEFT:  2.00D  GRAD.:     0.197 HEAT:  28.88527
 CYCLE:   601 TIME:   0.117 TIME LEFT:  2.00D  GRAD.:     0.409 HEAT:  28.88527
 CYCLE:   602 TIME:   0.082 TIME LEFT:  2.00D  GRAD.:     0.368 HEAT:  28.88526
 CYCLE:   603 TIME:   0.102 TIME LEFT:  2.00D  GRAD.:     0.179 HEAT:  28.88526
 CYCLE:   604 TIME:   0.145 TIME LEFT:  2.00D  GRAD.:     1.145 HEAT:  28.88527
 CYCLE:   605 TIME:   0.203 TIME LEFT:  2.00D  GRAD.:     0.245 HEAT:  28.88526
 CYCLE:   606 TIME:   0.125 TIME LEFT:  2.00D  GRAD.:     0.279 HEAT:  28.88525
 CYCLE:   607 TIME:   0.105 TIME LEFT:  2.00D  GRAD.:     0.392 HEAT:  28.88525
 CYCLE:   608 TIME:   0.113 TIME LEFT:  2.00D  GRAD.:     0.355 HEAT:  28.88525
 CYCLE:   609 TIME:   0.113 TIME LEFT:  2.00D  GRAD.:     0.865 HEAT:  28.88525
 CYCLE:   610 TIME:   0.102 TIME LEFT:  2.00D  GRAD.:     0.168 HEAT:  28.88524
 CYCLE:   611 TIME:   0.172 TIME LEFT:  2.00D  GRAD.:     0.186 HEAT:  28.88524
 CYCLE:   612 TIME:   0.141 TIME LEFT:  2.00D  GRAD.:     0.163 HEAT:  28.88524
 CYCLE:   613 TIME:   0.199 TIME LEFT:  2.00D  GRAD.:     0.176 HEAT:  28.88523
 CYCLE:   614 TIME:   0.105 TIME LEFT:  2.00D  GRAD.:     0.170 HEAT:  28.88523
 CYCLE:   615 TIME:   0.082 TIME LEFT:  2.00D  GRAD.:     0.192 HEAT:  28.88523
 CYCLE:   616 TIME:   0.172 TIME LEFT:  2.00D  GRAD.:     0.198 HEAT:  28.88522
 CYCLE:   617 TIME:   0.148 TIME LEFT:  2.00D  GRAD.:     0.299 HEAT:  28.88522
 CYCLE:   618 TIME:   0.117 TIME LEFT:  2.00D  GRAD.:     0.212 HEAT:  28.88521
 CYCLE:   619 TIME:   0.203 TIME LEFT:  2.00D  GRAD.:     0.325 HEAT:  28.88520
 CYCLE:   620 TIME:   0.211 TIME LEFT:  2.00D  GRAD.:     0.577 HEAT:  28.88519
 CYCLE:   621 TIME:   0.109 TIME LEFT:  2.00D  GRAD.:     0.453 HEAT:  28.88519
 CYCLE:   622 TIME:   0.102 TIME LEFT:  2.00D  GRAD.:     0.919 HEAT:  28.88518
 CYCLE:   623 TIME:   0.121 TIME LEFT:  2.00D  GRAD.:     0.286 HEAT:  28.88518
 CYCLE:   624 TIME:   0.203 TIME LEFT:  2.00D  GRAD.:     0.258 HEAT:  28.88517
 CYCLE:   625 TIME:   0.184 TIME LEFT:  2.00D  GRAD.:     0.273 HEAT:  28.88516
 CYCLE:   626 TIME:   0.094 TIME LEFT:  2.00D  GRAD.:     0.197 HEAT:  28.88516
 CYCLE:   627 TIME:   0.133 TIME LEFT:  2.00D  GRAD.:     0.511 HEAT:  28.88515
 CYCLE:   628 TIME:   0.141 TIME LEFT:  2.00D  GRAD.:     0.176 HEAT:  28.88515
 CYCLE:   629 TIME:   0.172 TIME LEFT:  2.00D  GRAD.:     0.633 HEAT:  28.88515
 CYCLE:   630 TIME:   0.082 TIME LEFT:  2.00D  GRAD.:     0.349 HEAT:  28.88514
 CYCLE:   631 TIME:   0.129 TIME LEFT:  2.00D  GRAD.:     0.159 HEAT:  28.88514
 CYCLE:   632 TIME:   0.223 TIME LEFT:  2.00D  GRAD.:     0.187 HEAT:  28.88514
 CYCLE:   633 TIME:   0.125 TIME LEFT:  2.00D  GRAD.:     0.218 HEAT:  28.88513
 CYCLE:   634 TIME:   0.086 TIME LEFT:  2.00D  GRAD.:     0.231 HEAT:  28.88513
 CYCLE:   635 TIME:   0.133 TIME LEFT:  2.00D  GRAD.:     0.207 HEAT:  28.88513
 CYCLE:   636 TIME:   0.188 TIME LEFT:  2.00D  GRAD.:     0.192 HEAT:  28.88512
 CYCLE:   637 TIME:   0.109 TIME LEFT:  2.00D  GRAD.:     0.257 HEAT:  28.88512
 CYCLE:   638 TIME:   0.164 TIME LEFT:  2.00D  GRAD.:     0.211 HEAT:  28.88512
 CYCLE:   639 TIME:   0.125 TIME LEFT:  2.00D  GRAD.:     0.328 HEAT:  28.88512
 CYCLE:   640 TIME:   0.188 TIME LEFT:  2.00D  GRAD.:     0.325 HEAT:  28.88511
 CYCLE:   641 TIME:   0.086 TIME LEFT:  2.00D  GRAD.:     0.418 HEAT:  28.88510
 CYCLE:   642 TIME:   0.098 TIME LEFT:  2.00D  GRAD.:     0.240 HEAT:  28.88510
 CYCLE:   643 TIME:   0.117 TIME LEFT:  2.00D  GRAD.:     0.365 HEAT:  28.88509
 CYCLE:   644 TIME:   0.145 TIME LEFT:  2.00D  GRAD.:     0.272 HEAT:  28.88509
 CYCLE:   645 TIME:   0.168 TIME LEFT:  2.00D  GRAD.:     0.219 HEAT:  28.88508
 CYCLE:   646 TIME:   0.105 TIME LEFT:  2.00D  GRAD.:     0.228 HEAT:  28.88508
 CYCLE:   647 TIME:   0.141 TIME LEFT:  2.00D  GRAD.:     0.413 HEAT:  28.88507
 CYCLE:   648 TIME:   0.195 TIME LEFT:  2.00D  GRAD.:     0.373 HEAT:  28.88507
 CYCLE:   649 TIME:   0.133 TIME LEFT:  2.00D  GRAD.:     0.244 HEAT:  28.88506
 CYCLE:   650 TIME:   0.102 TIME LEFT:  2.00D  GRAD.:     0.268 HEAT:  28.88506
 CYCLE:   651 TIME:   0.129 TIME LEFT:  2.00D  GRAD.:     0.305 HEAT:  28.88505
 CYCLE:   652 TIME:   0.152 TIME LEFT:  2.00D  GRAD.:     0.780 HEAT:  28.88505
 CYCLE:   653 TIME:   0.137 TIME LEFT:  2.00D  GRAD.:     0.323 HEAT:  28.88505
 CYCLE:   654 TIME:   0.102 TIME LEFT:  2.00D  GRAD.:     0.190 HEAT:  28.88505
 CYCLE:   655 TIME:   0.168 TIME LEFT:  2.00D  GRAD.:     0.172 HEAT:  28.88505
 CYCLE:   656 TIME:   0.191 TIME LEFT:  2.00D  GRAD.:     0.188 HEAT:  28.88504
 CYCLE:   657 TIME:   0.117 TIME LEFT:  2.00D  GRAD.:     0.234 HEAT:  28.88503
 CYCLE:   658 TIME:   0.199 TIME LEFT:  2.00D  GRAD.:     0.212 HEAT:  28.88503
 CYCLE:   659 TIME:   0.180 TIME LEFT:  2.00D  GRAD.:     0.304 HEAT:  28.88502
 CYCLE:   660 TIME:   0.160 TIME LEFT:  2.00D  GRAD.:     0.300 HEAT:  28.88502
 CYCLE:   661 TIME:   0.090 TIME LEFT:  2.00D  GRAD.:     0.290 HEAT:  28.88501
 CYCLE:   662 TIME:   0.184 TIME LEFT:  2.00D  GRAD.:     0.347 HEAT:  28.88500
 CYCLE:   663 TIME:   0.121 TIME LEFT:  2.00D  GRAD.:     0.232 HEAT:  28.88500
 CYCLE:   664 TIME:   0.133 TIME LEFT:  2.00D  GRAD.:     0.295 HEAT:  28.88499
 CYCLE:   665 TIME:   0.109 TIME LEFT:  2.00D  GRAD.:     0.283 HEAT:  28.88498
 CYCLE:   666 TIME:   0.121 TIME LEFT:  2.00D  GRAD.:     8.230 HEAT:  28.88530
 CYCLE:   667 TIME:   0.137 TIME LEFT:  2.00D  GRAD.:     0.355 HEAT:  28.88498
 CYCLE:   668 TIME:   0.172 TIME LEFT:  2.00D  GRAD.:     0.368 HEAT:  28.88498
 CYCLE:   669 TIME:   0.129 TIME LEFT:  2.00D  GRAD.:     0.261 HEAT:  28.88497
 CYCLE:   670 TIME:   0.145 TIME LEFT:  2.00D  GRAD.:     0.253 HEAT:  28.88497
 CYCLE:   671 TIME:   0.199 TIME LEFT:  2.00D  GRAD.:     0.285 HEAT:  28.88496
 CYCLE:   672 TIME:   0.125 TIME LEFT:  2.00D  GRAD.:     0.473 HEAT:  28.88495
 CYCLE:   673 TIME:   0.246 TIME LEFT:  2.00D  GRAD.:     0.478 HEAT:  28.88494
 CYCLE:   674 TIME:   0.203 TIME LEFT:  2.00D  GRAD.:     0.695 HEAT:  28.88494
 CYCLE:   675 TIME:   0.113 TIME LEFT:  2.00D  GRAD.:     0.274 HEAT:  28.88493
 CYCLE:   676 TIME:   0.207 TIME LEFT:  2.00D  GRAD.:     1.067 HEAT:  28.88495
 CYCLE:   677 TIME:   0.141 TIME LEFT:  2.00D  GRAD.:     0.279 HEAT:  28.88493
 CYCLE:   678 TIME:   0.129 TIME LEFT:  2.00D  GRAD.:     0.451 HEAT:  28.88492
 CYCLE:   679 TIME:   0.117 TIME LEFT:  2.00D  GRAD.:     0.274 HEAT:  28.88492
 CYCLE:   680 TIME:   0.176 TIME LEFT:  2.00D  GRAD.:     0.488 HEAT:  28.88492
 CYCLE:   681 TIME:   0.137 TIME LEFT:  2.00D  GRAD.:     1.168 HEAT:  28.88492
 CYCLE:   682 TIME:   0.145 TIME LEFT:  2.00D  GRAD.:     0.224 HEAT:  28.88491
 CYCLE:   683 TIME:   0.129 TIME LEFT:  2.00D  GRAD.:     0.345 HEAT:  28.88491
 CYCLE:   684 TIME:   0.188 TIME LEFT:  2.00D  GRAD.:     0.838 HEAT:  28.88492
 CYCLE:   685 TIME:   0.156 TIME LEFT:  2.00D  GRAD.:     0.337 HEAT:  28.88491
 CYCLE:   686 TIME:   0.176 TIME LEFT:  2.00D  GRAD.:     0.346 HEAT:  28.88490
 CYCLE:   687 TIME:   0.188 TIME LEFT:  2.00D  GRAD.:     0.803 HEAT:  28.88491
 CYCLE:   688 TIME:   0.121 TIME LEFT:  2.00D  GRAD.:     0.685 HEAT:  28.88489
 CYCLE:   689 TIME:   0.156 TIME LEFT:  2.00D  GRAD.:     0.481 HEAT:  28.88490
 CYCLE:   690 TIME:   0.113 TIME LEFT:  2.00D  GRAD.:     1.403 HEAT:  28.88490
 CYCLE:   691 TIME:   0.164 TIME LEFT:  2.00D  GRAD.:     3.706 HEAT:  28.88508
 CYCLE:   692 TIME:   0.180 TIME LEFT:  2.00D  GRAD.:     0.320 HEAT:  28.88488
 CYCLE:   693 TIME:   0.168 TIME LEFT:  2.00D  GRAD.:     0.795 HEAT:  28.88490
 CYCLE:   694 TIME:   0.184 TIME LEFT:  2.00D  GRAD.:     0.594 HEAT:  28.88488
 CYCLE:   695 TIME:   0.168 TIME LEFT:  2.00D  GRAD.:     2.858 HEAT:  28.88494
 CYCLE:   696 TIME:   0.113 TIME LEFT:  2.00D  GRAD.:     0.400 HEAT:  28.88486
 CYCLE:   697 TIME:   0.125 TIME LEFT:  2.00D  GRAD.:     0.385 HEAT:  28.88487
 CYCLE:   698 TIME:   0.121 TIME LEFT:  2.00D  GRAD.:     0.902 HEAT:  28.88486
 CYCLE:   699 TIME:   0.168 TIME LEFT:  2.00D  GRAD.:     0.598 HEAT:  28.88485
 CYCLE:   700 TIME:   0.117 TIME LEFT:  2.00D  GRAD.:     0.325 HEAT:  28.88485
 CYCLE:   701 TIME:   0.199 TIME LEFT:  2.00D  GRAD.:     0.283 HEAT:  28.88484
 CYCLE:   702 TIME:   0.234 TIME LEFT:  2.00D  GRAD.:     0.688 HEAT:  28.88486
 CYCLE:   703 TIME:   0.133 TIME LEFT:  2.00D  GRAD.:     0.570 HEAT:  28.88484
 CYCLE:   704 TIME:   0.105 TIME LEFT:  2.00D  GRAD.:     0.416 HEAT:  28.88484
 CYCLE:   705 TIME:   0.195 TIME LEFT:  2.00D  GRAD.:     0.224 HEAT:  28.88483
 CYCLE:   706 TIME:   0.133 TIME LEFT:  2.00D  GRAD.:     0.923 HEAT:  28.88486
 CYCLE:   707 TIME:   0.219 TIME LEFT:  2.00D  GRAD.:     0.595 HEAT:  28.88483
 CYCLE:   708 TIME:   0.168 TIME LEFT:  2.00D  GRAD.:     1.305 HEAT:  28.88484
 CYCLE:   709 TIME:   0.145 TIME LEFT:  2.00D  GRAD.:     0.382 HEAT:  28.88482
 CYCLE:   710 TIME:   0.145 TIME LEFT:  2.00D  GRAD.:     0.448 HEAT:  28.88483
 CYCLE:   711 TIME:   0.203 TIME LEFT:  2.00D  GRAD.:     0.164 HEAT:  28.88482
 CYCLE:   712 TIME:   0.094 TIME LEFT:  2.00D  GRAD.:     1.604 HEAT:  28.88490
 CYCLE:   713 TIME:   0.145 TIME LEFT:  2.00D  GRAD.:     0.828 HEAT:  28.88483
 CYCLE:   714 TIME:   0.133 TIME LEFT:  2.00D  GRAD.:     9.797 HEAT:  28.88533
 CYCLE:   715 TIME:   0.152 TIME LEFT:  2.00D  GRAD.:     1.016 HEAT:  28.88483
 CYCLE:   716 TIME:   0.176 TIME LEFT:  2.00D  GRAD.:     0.146 HEAT:  28.88482
 CYCLE:   717 TIME:   0.156 TIME LEFT:  2.00D  GRAD.:     0.201 HEAT:  28.88481
 CYCLE:   718 TIME:   0.176 TIME LEFT:  2.00D  GRAD.:     0.475 HEAT:  28.88482
 CYCLE:   719 TIME:   0.156 TIME LEFT:  2.00D  GRAD.:     0.475 HEAT:  28.88482
 CYCLE:   720 TIME:   0.230 TIME LEFT:  2.00D  GRAD.:     0.549 HEAT:  28.88481
 CYCLE:   721 TIME:   0.219 TIME LEFT:  2.00D  GRAD.:     0.421 HEAT:  28.88479
 CYCLE:   722 TIME:   0.102 TIME LEFT:  2.00D  GRAD.:     0.800 HEAT:  28.88480
 CYCLE:   723 TIME:   0.121 TIME LEFT:  2.00D  GRAD.:     0.381 HEAT:  28.88479
 CYCLE:   724 TIME:   0.121 TIME LEFT:  2.00D  GRAD.:     0.466 HEAT:  28.88479
 CYCLE:   725 TIME:   0.098 TIME LEFT:  2.00D  GRAD.:     0.245 HEAT:  28.88478
 CYCLE:   726 TIME:   0.133 TIME LEFT:  2.00D  GRAD.:     2.570 HEAT:  28.88491
 CYCLE:   727 TIME:   0.125 TIME LEFT:  2.00D  GRAD.:     0.295 HEAT:  28.88478
 CYCLE:   728 TIME:   0.234 TIME LEFT:  2.00D  GRAD.:     0.244 HEAT:  28.88478
 CYCLE:   729 TIME:   0.113 TIME LEFT:  2.00D  GRAD.:     0.307 HEAT:  28.88477
 CYCLE:   730 TIME:   0.074 TIME LEFT:  2.00D  GRAD.:     0.532 HEAT:  28.88477
 CYCLE:   731 TIME:   0.129 TIME LEFT:  2.00D  GRAD.:     0.247 HEAT:  28.88477
 CYCLE:   732 TIME:   0.113 TIME LEFT:  2.00D  GRAD.:     0.235 HEAT:  28.88477
 CYCLE:   733 TIME:   0.117 TIME LEFT:  2.00D  GRAD.:     0.209 HEAT:  28.88476
 CYCLE:   734 TIME:   0.117 TIME LEFT:  2.00D  GRAD.:     0.345 HEAT:  28.88476
 CYCLE:   735 TIME:   0.094 TIME LEFT:  2.00D  GRAD.:     0.241 HEAT:  28.88476
 CYCLE:   736 TIME:   0.160 TIME LEFT:  2.00D  GRAD.:     0.186 HEAT:  28.88475
 CYCLE:   737 TIME:   0.164 TIME LEFT:  2.00D  GRAD.:     0.160 HEAT:  28.88475
 CYCLE:   738 TIME:   0.168 TIME LEFT:  2.00D  GRAD.:     0.136 HEAT:  28.88475
 CYCLE:   739 TIME:   0.094 TIME LEFT:  2.00D  GRAD.:     0.190 HEAT:  28.88475
 CYCLE:   740 TIME:   0.117 TIME LEFT:  2.00D  GRAD.:     0.186 HEAT:  28.88474
 CYCLE:   741 TIME:   0.113 TIME LEFT:  2.00D  GRAD.:     0.154 HEAT:  28.88474
 CYCLE:   742 TIME:   0.109 TIME LEFT:  2.00D  GRAD.:     0.157 HEAT:  28.88474
 CYCLE:   743 TIME:   0.105 TIME LEFT:  2.00D  GRAD.:     0.260 HEAT:  28.88473
 CYCLE:   744 TIME:   0.109 TIME LEFT:  2.00D  GRAD.:     0.201 HEAT:  28.88473
 CYCLE:   745 TIME:   0.164 TIME LEFT:  2.00D  GRAD.:     0.133 HEAT:  28.88473
 CYCLE:   746 TIME:   0.141 TIME LEFT:  2.00D  GRAD.:     0.120 HEAT:  28.88473
 CYCLE:   747 TIME:   0.086 TIME LEFT:  2.00D  GRAD.:     0.238 HEAT:  28.88472
 CYCLE:   748 TIME:   0.172 TIME LEFT:  2.00D  GRAD.:     0.226 HEAT:  28.88472
 CYCLE:   749 TIME:   0.125 TIME LEFT:  2.00D  GRAD.:     0.119 HEAT:  28.88472
 CYCLE:   750 TIME:   0.156 TIME LEFT:  2.00D  GRAD.:     0.114 HEAT:  28.88472
 CYCLE:   751 TIME:   0.109 TIME LEFT:  2.00D  GRAD.:     0.121 HEAT:  28.88472
 CYCLE:   752 TIME:   0.125 TIME LEFT:  2.00D  GRAD.:     0.186 HEAT:  28.88472
 CYCLE:   753 TIME:   0.203 TIME LEFT:  2.00D  GRAD.:     0.144 HEAT:  28.88472
 CYCLE:   754 TIME:   0.137 TIME LEFT:  2.00D  GRAD.:     0.092 HEAT:  28.88472

 -------------------------------------------------------------------------------
 RM1 PRECISE POLAR GNORM=0.1




     HERBERTS TEST WAS SATISFIED IN BFGS                      
     SCF FIELD WAS ACHIEVED                                   


                              RM1 CALCULATION
                                                       MOPAC2016 (Version: 21.013L)
                                                       Mon Oct 18 11:51:51 2021
                                                       No. of days remaining =  87




          FINAL HEAT OF FORMATION =         28.88472 KCAL/MOL =     120.85366 KJ/MOL


          TOTAL ENERGY            =      -7351.35297 EV
          ELECTRONIC ENERGY       =     -67433.52779 EV  POINT GROUP:     C1  
          CORE-CORE REPULSION     =      60082.17482 EV
          COSMO AREA              =        605.93 SQUARE ANGSTROMS
          COSMO VOLUME            =        709.67 CUBIC ANGSTROMS

          GRADIENT NORM           =          0.09187 = 0.01098 PER ATOM
          IONIZATION POTENTIAL    =          8.006065 EV
          HOMO LUMO ENERGIES (EV) =         -8.006 -1.525
          NO. OF FILLED LEVELS    =        113
          MOLECULAR WEIGHT        =        649.7374

          MOLECULAR DIMENSIONS (Angstroms)

            Atom       Atom       Distance
            H    70    H    64    25.02852
            H    52    H    62     8.70468
            H    56    H    68     8.38898


          SCF CALCULATIONS        =        755
 
          WALL-CLOCK TIME         =  1 MINUTE AND 53.414 SECONDS
          COMPUTATION TIME        = 33 MINUTES AND 59.742 SECONDS




  ATOM    CHEMICAL      BOND LENGTH      BOND ANGLE     TWIST ANGLE 
 NUMBER    SYMBOL       (ANGSTROMS)      (DEGREES)       (DEGREES) 
   (I)                     NA:I           NB:NA:I       NC:NB:NA:I       NA    NB    NC 
     1       N          0.00000000       0.0000000       0.0000000        0     0     0
     2       C          1.15641021  *    0.0000000       0.0000000        1     0     0
     3       C          1.41730080  *  179.2307586  *    0.0000000        2     1     0
     4       C          1.34704518  *  123.0217670  * -177.8120291  *     3     2     1
     5       C          1.43436244  *  123.2672876  *   -2.6184954  *     4     3     2
     6       C          1.36903464  *  127.1789511  *  -36.5996118  *     5     4     3
     7       C          1.42998665  *  111.8600843  * -179.2506168  *     6     5     4
     8       C          1.36903426  *  111.9899288  *   -0.0414497  *     7     6     5
     9       S          1.71161199  *  120.5426946  *  145.0196617  *     5     4     3
    10       C          1.42721894  *  124.8004841  *  179.6652925  *     8     7     6
    11       C          1.36752658  *  124.7687149  *  -34.6379571  *    10     8     7
    12       C          1.43250912  *  111.8986670  *  178.9531875  *    11    10     8
    13       C          1.36448160  *  111.8734557  *   -0.0432849  *    12    11    10
    14       S          1.71294850  *  122.9707737  *  143.8639448  *    10     8     7
    15       C          1.44813439  *  125.7395261  *  178.9330402  *    13    12    11
    16       C          1.37212519  *  119.5936369  * -111.4381620  *    15    13    12
    17       C          1.41061787  *  120.4192337  *  178.7789495  *    16    15    13
    18       C          1.37267459  *  120.0895773  *   -0.0580194  *    17    16    15
    19       C          1.41463347  *  120.3966632  *    0.4008317  *    18    17    16
    20       C          1.42247745  *  119.9635566  *   67.7703292  *    15    13    12
    21       C          1.41844599  *  122.0520464  * -178.9861309  *    20    15    16
    22       C          1.36700065  *  120.4326827  * -179.8703031  *    21    20    15
    23       C          1.41218836  *  120.5685961  *   -0.1796140  *    22    21    20
    24       C          1.41511458  *  120.6489297  *  179.6520221  *    19    18    17
    25       C          1.47408686  *  120.3509664  *    0.1846040  *    24    19    18
    26       O          1.22363023  *  122.5883431  * -179.8819519  *    25    24    19
    27       N          1.41545711  *  117.5064874  *    0.1512315  *    25    24    19
    28       C          1.41442088  *  123.6128693  *  179.6677713  *    27    25    26
    29       O          1.22412542  *  119.9905096  * -179.7626292  *    28    27    25
    30       C          1.44230712  *  118.2122320  *   -0.1301273  *    27    25    26
    31       C          1.40409619  *  118.7519411  *   58.5053610  *    30    27    28
    32       C          1.38544622  *  120.6680801  * -179.6139162  *    31    30    27
    33       C          1.39231706  *  117.6861376  *   -0.5590244  *    32    31    30
    34       C          1.42119222  *  121.4250301  *    0.6406301  *    33    32    31
    35       C          1.39355323  *  119.0378564  * -121.3567338  *    30    27    28
    36       C          1.44149987  *  107.0201199  *  179.1505594  *    34    33    32
    37       C          1.38464822  *  132.5768497  *  179.9036988  *    36    34    33
    38       C          1.38747840  *  118.3127559  *  179.2985632  *    37    36    34
    39       C          1.39773377  *  121.0527894  *    0.1283747  *    38    37    36
    40       C          1.38692748  *  121.7514777  *    0.2501800  *    39    38    37
    41       C          1.42130590  *  107.0933143  *   -0.1479141  *    36    34    33
    42       N          1.41198076  *  129.3096768  * -176.2335645  *    33    32    31
    43       C          1.46097659  *  123.4115445  *  162.0246936  *    42    33    34
    44       C          1.52731051  *  112.1568296  *  -70.3445501  *    43    42    33
    45       C          1.47017195  *  117.4619116  *  178.6781985  *     3     2     4
    46       O          1.22260655  *  126.4094888  *    1.2238370  *    45     3     4
    47       O          1.34750010  *  113.9214634  * -178.6459524  *    45     3     4
    48       H          1.10146815  *  120.3411971  *  177.0973047  *     4     3     2
    49       H          1.08875069  *  125.7357757  *   -0.6954228  *     6     5     4
    50       H          1.08770348  *  122.9166393  * -179.3000741  *     7     6     5
    51       H          1.08753992  *  125.1728450  *   -1.6429300  *    11    10     8
    52       H          1.08781238  *  122.9917351  *  179.3851265  *    12    11    10
    53       H          1.09472230  *  120.8068579  *   -0.6256564  *    16    15    13
    54       H          1.09754478  *  118.8194927  * -179.8634948  *    17    16    15
    55       H          1.09544384  *  119.6182600  *    0.3886611  *    21    20    15
    56       H          1.09458457  *  120.6191402  *  179.9698358  *    22    21    20
    57       H          1.09743114  *  118.9719929  *  179.8922341  *    23    22    21
    58       H          1.09507124  *  120.1438196  *  179.6066671  *    31    30    35
[...]
   4.50062   4.50953   4.54849   4.57455   4.58645   4.63634   4.68189   4.70677
   4.71330   4.80738   4.86362   4.86946   4.88513   4.90004   4.95480   4.95713
   5.04861   5.08664   5.12597   5.13502   5.18850   5.19064   5.23830   5.25491
   5.35572   5.45261   5.47856   5.52589   5.64441   5.66695   5.76451   5.81179
   6.04880   6.08268   6.11214   6.16954   6.25303   6.29717   6.40441   6.59042
   6.60755   6.69427   7.05727


              NET ATOMIC CHARGES AND DIPOLE CONTRIBUTIONS

  ATOM NO.   TYPE          CHARGE      No. of ELECS.   s-Pop       p-Pop
   46          O          -0.373861        6.3739     1.91039     4.46347
   45          C           0.400251        3.5997     1.18038     2.41937
   47          O          -0.309669        6.3097     1.83982     4.46985
   70          H           0.246476        0.7535     0.75352
    2          C           0.049393        3.9506     1.19498     2.75562
    1          N          -0.144430        5.1444     1.84820     3.29623
    3          C          -0.133020        4.1330     1.14279     2.99023
    4          C           0.128954        3.8710     1.17227     2.69877
    5          C          -0.405378        4.4054     1.21514     3.19024
    6          C          -0.022358        4.0224     1.18466     2.83770
    7          C          -0.122656        4.1227     1.18471     2.93794
    8          C          -0.230674        4.2307     1.20405     3.02663
    9          S           0.494506        5.5055     1.88483     3.62067
   10          C          -0.275874        4.2759     1.20328     3.07259
   11          C          -0.091630        4.0916     1.18362     2.90801
   12          C          -0.086190        4.0862     1.18237     2.90382
   13          C          -0.330697        4.3307     1.21597     3.11473
   14          S           0.485275        5.5147     1.88579     3.62893
   15          C           0.091340        3.9087     1.14982     2.75884
   16          C          -0.158189        4.1582     1.18261     2.97558
   17          C           0.021100        3.9789     1.18159     2.79731
   18          C          -0.184819        4.1848     1.17451     3.01031
   19          C           0.084752        3.9152     1.14865     2.76659
   20          C          -0.076537        4.0765     1.16058     2.91596
   21          C          -0.030190        4.0302     1.18106     2.84913
   22          C          -0.157328        4.1573     1.18255     2.97477
   23          C           0.024955        3.9750     1.18269     2.79235
   24          C          -0.188117        4.1881     1.17417     3.01395
   25          C           0.440030        3.5600     1.15799     2.40198
   26          O          -0.346537        6.3465     1.90901     4.43753
   27          N          -0.390876        5.3909     1.53348     3.85739
   28          C           0.440567        3.5594     1.15763     2.40181
   29          O          -0.350129        6.3501     1.90903     4.44110
   30          C           0.043253        3.9567     1.14554     2.81121
   31          C          -0.045918        4.0459     1.17670     2.86922
   32          C          -0.162905        4.1629     1.16928     2.99362
   33          C           0.116091        3.8839     1.15348     2.73043
   34          C          -0.086133        4.0861     1.15792     2.92822
   35          C          -0.026080        4.0261     1.17008     2.85600
   36          C          -0.088146        4.0881     1.15920     2.92895
   37          C          -0.034070        4.0341     1.16961     2.86446
   38          C          -0.158735        4.1587     1.17789     2.98085
   39          C          -0.055007        4.0550     1.17610     2.87891
   40          C          -0.168499        4.1685     1.17021     2.99829
   41          C           0.114476        3.8855     1.15370     2.73183
   42          N          -0.286279        5.2863     1.52550     3.76077
   43          C           0.074656        3.9253     1.15309     2.77225
   44          C          -0.228288        4.2283     1.16459     3.06370
   48          H           0.136047        0.8640     0.86395
   49          H           0.139187        0.8608     0.86081
   50          H           0.138507        0.8615     0.86149
   51          H           0.132738        0.8673     0.86726
   52          H           0.134323        0.8657     0.86568
   53          H           0.128246        0.8718     0.87175
   54          H           0.135345        0.8647     0.86465
   55          H           0.120062        0.8799     0.87994
   56          H           0.122695        0.8773     0.87731
   57          H           0.134446        0.8656     0.86555
   58          H           0.117201        0.8828     0.88280
   59          H           0.119347        0.8807     0.88065
   60          H           0.124346        0.8757     0.87565
   61          H           0.108719        0.8913     0.89128
   62          H           0.107315        0.8927     0.89268
   63          H           0.099541        0.9005     0.90046
   64          H           0.115371        0.8846     0.88463
   65          H           0.074975        0.9250     0.92503
   66          H           0.076132        0.9239     0.92387
   67          H           0.080446        0.9196     0.91955
   68          H           0.070064        0.9299     0.92994
   69          H           0.078091        0.9219     0.92191
 DIPOLE           X         Y         Z       TOTAL
 POINT-CHG.     2.906    -0.325     0.090     2.925
 HYBRID        -0.898    -0.066     2.583     2.735
 SUM            2.008    -0.391     2.673     3.366


          ATOMIC ORBITAL ELECTRON POPULATIONS

     Atom    s        px        py        pz   
    1  N   1.84820   1.11215   1.08649   1.09758
    2  C   1.19498   0.91195   0.92058   0.92309
    3  C   1.14279   0.88996   0.93418   1.16609
    4  C   1.17227   0.99137   0.88720   0.82020
    5  C   1.21514   1.05727   1.00410   1.12886
    6  C   1.18466   0.92712   0.95072   0.95986
    7  C   1.18471   0.99956   0.94543   0.99296
    8  C   1.20405   1.02042   0.96469   1.04152
    9  S   1.88483   1.22529   0.92852   1.46686
   10  C   1.20328   1.11025   0.95379   1.00856
   11  C   1.18362   0.99919   0.91204   0.99678
   12  C   1.18237   0.99331   0.98508   0.92543
   13  C   1.21597   1.11631   0.99942   0.99900
   14  S   1.88579   1.66079   0.92386   1.04429
   15  C   1.14982   0.92575   0.91245   0.92065
   16  C   1.18261   0.97284   0.99905   1.00369
   17  C   1.18159   0.98793   0.90584   0.90354
   18  C   1.17451   0.95287   1.01384   1.04360
   19  C   1.14865   0.90730   0.92759   0.93171
   20  C   1.16058   0.93879   0.97701   1.00016
   21  C   1.18106   0.91892   0.97107   0.95914
   22  C   1.18255   0.99854   0.97841   0.99783
   23  C   1.18269   0.95819   0.92747   0.90670
   24  C   1.17417   0.95861   1.01046   1.04488
   25  C   1.15799   0.79808   0.81699   0.78692
   26  O   1.90901   1.44273   1.47899   1.51581
   27  N   1.53348   1.08550   1.32651   1.44539
   28  C   1.15763   0.82825   0.79285   0.78070
   29  O   1.90903   1.22361   1.66006   1.55743
   30  C   1.14554   1.03623   0.88461   0.89037
   31  C   1.17670   0.96287   0.91927   0.98708
   32  C   1.16928   1.04738   1.01010   0.93615
   33  C   1.15348   0.96646   0.86965   0.89432
   34  C   1.15792   1.02366   0.95912   0.94544
   35  C   1.17008   0.97324   0.97058   0.91218
   36  C   1.15920   1.02829   0.95909   0.94157
   37  C   1.16961   0.95721   0.97784   0.92941
   38  C   1.17789   1.02914   0.97754   0.97416
   39  C   1.17610   0.95352   0.94723   0.97817
   40  C   1.17021   1.04527   1.01495   0.93807
   41  C   1.15370   0.94321   0.91870   0.86992
   42  N   1.52550   1.37612   1.25766   1.12700
   43  C   1.15309   0.85984   0.88451   1.02790
   44  C   1.16459   0.97606   1.03673   1.05091
   45  C   1.18038   0.84507   0.85022   0.72408
   46  O   1.91039   1.15832   1.85386   1.45129
   47  O   1.83982   1.41966   1.18745   1.86275
   48  H   0.86395
   49  H   0.86081
   50  H   0.86149
   51  H   0.86726
   52  H   0.86568
   53  H   0.87175
   54  H   0.86465
   55  H   0.87994
   56  H   0.87731
   57  H   0.86555
   58  H   0.88280
   59  H   0.88065
   60  H   0.87565
   61  H   0.89128
   62  H   0.89268
   63  H   0.90046
   64  H   0.88463
   65  H   0.92503
   66  H   0.92387
   67  H   0.91955
   68  H   0.92994
   69  H   0.92191
   70  H   0.75352
 ******************** TDHF POLARIZABILITIES ********************



          MOLECULAR WEIGHT =  649.74



          ROTATIONAL CONSTANTS IN CM(-1)

          A =    0.00633633   B =    0.00048341   C =    0.00048108



           PRINCIPAL MOMENTS OF INERTIA IN UNITS OF 10**(-40)*GRAM-CM**2

          A =     4417.8188   B =    57906.9688   C =    58187.9093


 ROTATION MATRIX FOR ORIENTATION OF MOLECULE:

         0.005307    0.057595    0.998326
        -0.837691    0.545475   -0.027016
        -0.546118   -0.836146    0.051141


          CARTESIAN COORDINATES 

    NO.       ATOM         X         Y         Z

     1         N      -10.5595    1.2800   -2.4115
     2         C      -10.5534    1.3466   -1.2570
     3         C      -10.5618    1.4386    0.1573
     4         C       -9.5972    0.9076    0.9332
     5         C       -8.4958    0.1508    0.4120
     6         C       -8.5172   -0.7223   -0.6422
     7         C       -7.2347   -1.3117   -0.8715
     8         C       -6.2966   -0.8599    0.0173
     9         S       -6.9500    0.2506    1.1400
    10         C       -4.9307   -1.2733    0.0405
    11         C       -4.4913   -2.5312   -0.2672
    12         C       -3.0655   -2.6362   -0.1768
    13         C       -2.4914   -1.4551    0.1936
    14         S       -3.6424   -0.2134    0.4294
    15         C       -1.0753   -1.2298    0.3960
    16         C       -0.6012   -0.9908    1.6613
    17         C        0.7781   -0.7946    1.8820
    18         C        1.6573   -0.8429    0.8290
    19         C        1.1886   -1.0808   -0.4844
    20         C       -0.1834   -1.2739   -0.7112
    21         C       -0.6385   -1.4973   -2.0360
    22         C        0.2483   -1.5359   -3.0756
    23         C        1.6297   -1.3506   -2.8484
    24         C        2.0894   -1.1244   -1.5749
    25         C        3.5337   -0.9260   -1.3565
    26         O        4.3481   -0.9533   -2.2692
    27         N        3.9687   -0.6975   -0.0291
    28         C        3.0959   -0.6434    1.0826
    29         O        3.5440   -0.4371    2.2029
    30         C        5.3792   -0.5050    0.2026
    31         C        6.0440   -1.3742    1.0823
    32         C        7.3966   -1.2205    1.3399
    33         C        8.0659   -0.1877    0.6887
    34         C        7.3880    0.6904   -0.1997
    35         C        6.0359    0.5367   -0.4500
    36         C        8.3606    1.6413   -0.6768
    37         C        8.2739    2.7113   -1.5514
    38         C        9.4188    3.4560   -1.7958
    39         C       10.6319    3.1365   -1.1793
    40         C       10.7468    2.0655   -0.3056
    41         C        9.5999    1.3156   -0.0619
    42         N        9.4382    0.1438    0.7124
    43         C       10.3506   -0.2823    1.7709
    44         C       10.0732    0.4315    3.0923
    45         C      -11.6693    2.1766    0.7821
    46         O      -11.8148    2.3925    1.9767
    47         O      -12.5844    2.6341   -0.0947
    48         H       -9.6226    1.0463    2.0256
    49         H       -9.3916   -0.9782   -1.2383
    50         H       -7.0459   -2.0235   -1.6720
    51         H       -5.1296   -3.3684   -0.5401
    52         H       -2.5259   -3.5598   -0.3744
    53         H       -1.2818   -0.9583    2.5181
    54         H        1.1289   -0.6075    2.9051
    55         H       -1.7088   -1.6352   -2.2247
    56         H       -0.0995   -1.7086   -4.0990
    57         H        2.3185   -1.3885   -3.7019
    58         H        5.4932   -2.1779    1.5822
    59         H        7.9104   -1.8917    2.0306
    60         H        5.5215    1.2087   -1.1421
    61         H        7.3234    2.9543   -2.0329
    62         H        9.3747    4.3066   -2.4812
    63         H       11.5144    3.7481   -1.3924
    64         H       11.7024    1.8283    0.1646
    65         H       10.2615   -1.3874    1.8909
    66         H       11.3998   -0.1101    1.4374
    67         H        9.0515    0.2487    3.4567
    68         H       10.7610    0.0923    3.8800
    69         H       10.1908    1.5216    3.0110
    70         H      -13.2923    3.1147    0.3591


 ENERGY OF "REORIENTED" SYSTEM WITHOUT FIELD:       28.8847180090


  NFREQ=  3  IWFLB=  0  IBET=  1  IGAM=  1
  ATOL= 0.10000D-02  BTOL= 0.10000D-02    MAXITU=  500    MAXITA=  150


 *****************************************************************
 CALCULATION OF STATIC FIELD QUANTITIES
 *****************************************************************

 +++++ ALPHA AT       0.00000 EV.

                           COMPONENTS OF ALPHA

                     *X           *Y           *Z
           *=X:     755.1191      -1.1614      31.1727
           *=Y:      -1.1912     285.2293     -11.5656
           *=Z:      31.1994     -11.5676     364.2281

  ISOTROPIC AVERAGE ALPHA =     468.19217 A.U. =     69.37892 ANG.**3

 +++++ BETA (SECOND HARMONIC GENERATION) AT       0.00000 EV.

                              COMPONENTS OF BETA
            *XX         *XY         *YY         *XZ         *YZ         *ZZ
   *=X  2062.27190  -938.93293   383.15647  -795.38170   334.08560   236.19917
   *=Y  -939.05499   383.27742  -372.23741   334.15804   108.68295    53.35060
   *=Z  -795.19465   333.95439   108.71390   236.14610    53.40114   282.98081


 AVERAGE BETAX(SHG) VALUE AT   0.00000 EV =       1609.0037 a.u. =  0.139009E-28 ESU
 AVERAGE BETAY(SHG) VALUE AT   0.00000 EV =       -754.6960 a.u. = -0.652013E-29 ESU
 AVERAGE BETAZ(SHG) VALUE AT   0.00000 EV =       -242.1872 a.u. = -0.209236E-29 ESU



 AVERAGE BETA (SHG) VALUE AT   0.00000 EV =       1793.6314 a.u. =  0.154959E-28 ESU
   (1 a.u. = 8.639418X10-33 esu)



 +++++ ALPHA AT       0.00000 EV.

                           COMPONENTS OF ALPHA

                     *X           *Y           *Z
           *=X:     755.1191      -1.1614      31.1727
           *=Y:      -1.1912     285.2293     -11.5656
           *=Z:      31.1994     -11.5676     364.2281

  ISOTROPIC AVERAGE ALPHA =     468.19217 A.U. =     69.37892 ANG.**3


 GAMMA (THIRD HARMONIC GENERATION) AT    0.00000 EV.


 GAMMA(X,X,X,X) =       1770387.08596
 GAMMA(Y,Y,Y,Y) =         41143.79439
 GAMMA(Z,Z,Z,Z) =         36415.63362
 GAMMA(X,X,Y,Y) =        134343.53845
 GAMMA(X,X,Z,Z) =         15646.13796
 GAMMA(Y,Y,X,X) =        134343.49228
 GAMMA(Y,Y,Z,Z) =          9101.21752
 GAMMA(Z,Z,X,X) =         15646.13560
 GAMMA(Z,Z,Y,Y) =          9101.23417


 AVERAGE GAMMA VALUE AT    0.00000 =        433225.65399 a.u. =       218202.87691 ESU (X10-39)




 **********************************************************************
 CALCULATION FOR A FREQUENCY OF    0.25000 EV  =       0.00919 A.U. 
                  WAVELENGTH OF    4959.37 NM  =    2016.38525 CM(-1)
 **********************************************************************

 +++++ ALPHA AT       0.25000 EV.

                           COMPONENTS OF ALPHA

                     *X           *Y           *Z
           *=X:     758.1932      -1.3670      31.2634
           *=Y:      -1.3926     285.8540     -11.6316
           *=Z:      31.2860     -11.6332     364.7554

  ISOTROPIC AVERAGE ALPHA =     469.60088 A.U. =     69.58767 ANG.**3

 +++++ BETA (SECOND HARMONIC GENERATION) AT       0.25000 EV.

                              COMPONENTS OF BETA
            *XX         *XY         *YY         *XZ         *YZ         *ZZ
   *=X  2157.81427  -991.61007   402.48783  -821.75032   344.63507   240.12014
   *=Y  -971.56615   400.86939  -385.20588   343.88831   109.16987    54.20213
   *=Z  -801.69510   336.17145   111.71434   238.76634    53.70267   286.76927


 AVERAGE BETAX(SHG) VALUE AT   0.25000 EV =       1679.0644 a.u. =  0.145061E-28 ESU
 AVERAGE BETAY(SHG) VALUE AT   0.25000 EV =       -789.7593 a.u. = -0.682306E-29 ESU
 AVERAGE BETAZ(SHG) VALUE AT   0.25000 EV =       -250.9668 a.u. = -0.216821E-29 ESU



 AVERAGE BETA (SHG) VALUE AT   0.25000 EV =       1872.4213 a.u. =  0.161766E-28 ESU
   (1 a.u. = 8.639418X10-33 esu)



 +++++ ALPHA AT       0.75000 EV.

                           COMPONENTS OF ALPHA

                     *X           *Y           *Z
           *=X:     784.3962      -3.1927      32.0004
           *=Y:      -3.2117     291.0441     -12.1772
           *=Z:      32.0229     -12.1793     369.0621

  ISOTROPIC AVERAGE ALPHA =     481.50080 A.U. =     71.35106 ANG.**3


 GAMMA (THIRD HARMONIC GENERATION) AT    0.25000 EV.


 GAMMA(X,X,X,X) =       1936422.18964
 GAMMA(Y,Y,Y,Y) =         43853.51273
 GAMMA(Z,Z,Z,Z) =         37715.26380
 GAMMA(X,X,Y,Y) =        146701.12099
 GAMMA(X,X,Z,Z) =         16164.20436
 GAMMA(Y,Y,X,X) =        146772.46264
 GAMMA(Y,Y,Z,Z) =          9525.47239
 GAMMA(Z,Z,X,X) =         16634.67263
 GAMMA(Z,Z,Y,Y) =          9509.44226


 AVERAGE GAMMA VALUE AT    0.25000 =        472659.66829 a.u. =       238064.61707 ESU (X10-39)




 **********************************************************************
 CALCULATION FOR A FREQUENCY OF    0.50000 EV  =       0.01837 A.U. 
                  WAVELENGTH OF    2479.68 NM  =    4032.77050 CM(-1)
 **********************************************************************

 +++++ ALPHA AT       0.50000 EV.

                           COMPONENTS OF ALPHA

                     *X           *Y           *Z
           *=X:     767.6618      -2.0073      31.5294
           *=Y:      -2.0288     287.7579     -11.8312
           *=Z:      31.5524     -11.8333     366.3495

  ISOTROPIC AVERAGE ALPHA =     473.92308 A.U. =     70.22815 ANG.**3

 +++++ BETA (SECOND HARMONIC GENERATION) AT       0.50000 EV.

                              COMPONENTS OF BETA
            *XX         *XY         *YY         *XZ         *YZ         *ZZ
   *=X  2493.83803 -1178.41728   471.06198  -913.12485   380.79444   253.08621
   *=Y -1083.08765   461.99504  -428.97929   376.85191   110.13598    57.04322
   *=Z  -819.19367   341.66561   121.73292   246.71974    54.71405   298.87612


 AVERAGE BETAX(SHG) VALUE AT   0.50000 EV =       1924.6184 a.u. =  0.166276E-28 ESU
 AVERAGE BETAY(SHG) VALUE AT   0.50000 EV =       -912.0777 a.u. = -0.787982E-29 ESU
 AVERAGE BETAZ(SHG) VALUE AT   0.50000 EV =       -281.3620 a.u. = -0.243080E-29 ESU



 AVERAGE BETA (SHG) VALUE AT   0.50000 EV =       2148.3031 a.u. =  0.185601E-28 ESU
   (1 a.u. = 8.639418X10-33 esu)



 +++++ ALPHA AT       1.50000 EV.

                           COMPONENTS OF ALPHA

                     *X           *Y           *Z
           *=X:     903.5681     -13.5857      35.3297
           *=Y:     -13.6202     311.9079     -14.3852
           *=Z:      35.3770     -14.3903     385.0718

  ISOTROPIC AVERAGE ALPHA =     533.51593 A.U. =     79.05890 ANG.**3


 GAMMA (THIRD HARMONIC GENERATION) AT    0.50000 EV.


 GAMMA(X,X,X,X) =       2655242.88134
 GAMMA(Y,Y,Y,Y) =         54393.45164
 GAMMA(Z,Z,Z,Z) =         42162.03504
 GAMMA(X,X,Y,Y) =        200140.09587
 GAMMA(X,X,Z,Z) =         17362.02557
 GAMMA(Y,Y,X,X) =        198781.60612
 GAMMA(Y,Y,Z,Z) =         11010.96784
 GAMMA(Z,Z,X,X) =         20078.01051
 GAMMA(Z,Z,Y,Y) =         10907.96020


 AVERAGE GAMMA VALUE AT    0.50000 =        642015.80683 a.u. =       323364.26706 ESU (X10-39)



 **********************
 *                    *
 * JOB ENDED NORMALLY *
 *                    *
 **********************



 TOTAL JOB TIME:           225.84 SECONDS

 == MOPAC DONE ==
