 *******************************************************************************
 ** Site#: 4824         For non-commercial use only    Version 21.013L 64BITS **
 *******************************************************************************
 ** Cite this program as: MOPAC2016, Version: 21.013L, James J. P. Stewart,   **
 ** Stewart Computational Chemistry, web: HTTP://OpenMOPAC.net. Days left:  88**
 *******************************************************************************
 **                                                                           **
 **                                MOPAC2016                                  **
 **                                                                           **
 *******************************************************************************

                              RM1 CALCULATION RESULTS

 *******************************************************************************
 *  CALCULATION DONE:                                Sun Oct 17 09:11:08 2021  *
 *  RM1        - The RM1 Hamiltonian to be used
 *  POLAR      - CALCULATE FIRST, SECOND AND THIRD-ORDER POLARIZABILITIES
 *  PRECISE    - TIGHTER CRITERIA TO BE USED
 *  T=         - A TIME OF 172800.0 SECONDS REQUESTED
 *  DUMP=N     - RESTART FILE WRITTEN EVERY 7200.0 SECONDS REQUESTED
 *  GNORM      - EXIT WHEN GRADIENT NORM DROPS BELOW 0.100
 *******************************************************************************
RM1 PRECISE POLAR GNORM=0.1


  ATOM    CHEMICAL      BOND LENGTH      BOND ANGLE     TWIST ANGLE 
 NUMBER    SYMBOL       (ANGSTROMS)      (DEGREES)       (DEGREES) 
   (I)                     NA:I           NB:NA:I       NC:NB:NA:I       NA    NB    NC 
     1       C          0.00000000       0.0000000       0.0000000        0     0     0
     2       C          1.54730000  *    0.0000000       0.0000000        1     0     0
     3       C          1.55160000  *  111.2809000  *    0.0000000        2     1     0
     4       C          1.55010000  *  111.1632000  *  166.4066000  *     3     2     1
     5       C          1.56480000  *  116.0202000  *  177.4224000  *     4     3     2
     6       C          1.56580000  *  106.2368000  *  172.3596000  *     5     4     3
     7       N          1.45210000  *  113.6753000  * -166.3317000  *     6     5     4
     8       C          1.41700000  *  125.1332000  *   96.9761000  *     7     6     5
     9       C          1.34120000  *  131.2794000  *   -8.6283000  *     8     7     6
    10       C          1.47250000  *  117.8615000  * -174.4113000  *     9     8     7
    11       C          1.35270000  *  120.9509000  *   -0.3121000  *    10     9     8
    12       C          1.48130000  *  120.2166000  *   -2.9690000  *    11    10     9
    13       C          1.33820000  *  117.7597000  *    2.8817000  *    12    11    10
    14       C          1.45700000  *  131.9471000  *  179.7002000  *    13    12    11
    15       C          1.34850000  *  107.8499000  * -176.4655000  *    14    13    12
    16       C          1.46120000  *  120.3508000  * -173.3194000  *    15    14    13
    17       C          1.34440000  *  118.2514000  *    5.2180000  *    16    15    14
    18       C          1.48160000  *  121.1185000  *    0.2064000  *    17    16    15
    19       C          1.34820000  *  120.4175000  *   -5.4461000  *    18    17    16
    20       C          1.45990000  *  116.6547000  *  164.7797000  *    18    17    16
    21       C          1.34260000  *  130.3403000  *  -52.4127000  *    20    18    19
    22       C          1.46440000  *  106.0360000  * -176.8232000  *    21    20    18
    23       C          1.34340000  *  106.2665000  *   -0.7429000  *    22    21    20
    24       O          1.35710000  *  109.2743000  *   -0.4031000  *    23    22    21
    25       C          1.46060000  *  130.3679000  *  176.8636000  *    23    22    21
    26       C          1.34630000  *  123.3140000  *  -59.9383000  *    25    23    22
    27       C          1.47380000  *  119.5032000  * -166.7037000  *    26    25    23
    28       O          1.23210000  *  120.1450000  * -166.6494000  *    27    26    25
    29       O          1.35770000  *  119.1362000  *   28.5183000  *    27    26    25
    30       C          1.42800000  *  121.3718000  *    7.2162000  *    26    25    23
    31       N          1.15900000  *  179.9851000  * -177.9596000  *    30    26    25
    32       C          1.47160000  *  121.0341000  *  173.2719000  *    11    10     9
    33       C          1.48370000  *  119.5264000  *  139.3410000  *    32    11    10
    34       C          1.34600000  *  120.9761000  *  171.7599000  *    33    32    11
    35       C          1.46270000  *  118.2632000  *    0.5466000  *    34    33    32
    36       C          1.34060000  *  120.5382000  *    2.4533000  *    35    34    33
    37       C          1.35080000  *  120.1843000  *  -45.8733000  *    32    11    10
    38       C          1.45370000  *  107.6643000  *  178.5019000  *    36    35    34
    39       N          1.40500000  *  129.5934000  * -169.9826000  *    38    36    35
    40       C          1.29170000  *  117.9766000  *  170.0818000  *    39    38    36
    41       C          1.46720000  *  120.7103000  * -178.9585000  *    40    39    38
    42       C          1.34510000  *  119.9868000  *  178.0504000  *    41    40    39
    43       C          1.47310000  *  121.4128000  *    0.4812000  *    42    41    40
    44       C          1.34610000  *  121.5951000  *    0.2548000  *    43    42    41
    45       C          1.46800000  *  120.1966000  *   -0.6216000  *    44    43    42
    46       N          1.29450000  *  121.2161000  * -178.3921000  *    45    44    43
    47       C          1.34390000  *  107.7810000  *    1.2133000  *    38    36    35
    48       N          1.42040000  *  109.0103000  *  174.0412000  *    47    38    39
    49       C          1.45120000  *  127.3929000  * -172.0448000  *    48    47    38
    50       C          1.56960000  *  114.8919000  * -102.8827000  *    49    48    47
    51       C          1.56650000  *  106.0424000  * -165.8223000  *    50    49    48
    52       C          1.55110000  *  116.3911000  *  174.4915000  *    51    50    49
    53       C          1.55220000  *  111.0843000  *  176.4564000  *    52    51    50
    54       C          1.54760000  *  111.5093000  *  168.3775000  *    53    52    51
    55       C          1.56500000  *  113.2267000  *  -41.0654000  *    50    49    48
    56       C          1.55120000  *  114.1966000  *  -88.9892000  *    55    50    51
    57       C          1.56500000  *  113.6777000  *   48.0660000  *     5     4     3
    58       C          1.55060000  *  113.9369000  *  -89.6045000  *    57     5     4
    59       H          1.05280000  *  116.9157000  *  131.1153000  *    25    23    22
    60       H          1.09070000  *  110.1780000  *   57.1567000  *     1     2     3
    61       H          1.09090000  *  109.5126000  *  177.2047000  *     1     2     3
    62       H          1.09150000  *  109.8542000  *  -63.2678000  *     1     2     3
    63       H          1.09260000  *  108.4197000  *  177.8454000  *     2     1    60
    64       H          1.09210000  *  109.3258000  *  -63.7460000  *     2     1    60
    65       H          1.09170000  *  109.2544000  *  167.7744000  *     3     2    63
    66       H          1.09150000  *  108.2025000  *  167.7111000  *     3     2    64
    67       H          1.09400000  *  107.4677000  *  178.1880000  *     4     3    65
    68       H          1.09410000  *  108.3755000  *  174.8577000  *     4     3    66
    69       H          1.09440000  *  108.6500000  *  166.4202000  *     5     4    67
    70       H          1.09230000  *  109.5589000  *  -45.2045000  *     6     5     4
    71       H          1.09270000  *  108.7729000  *  -44.4275000  *     6     5    69
    72       H          1.04980000  *  121.5491000  *    1.3794000  *     9     8     7
    73       H          1.05160000  *  118.6331000  *  176.3248000  *    10     9     8
    74       H          1.05010000  *  121.3337000  * -178.3592000  *    12    11    10
    75       H          1.04930000  *  121.1880000  * -175.4156000  *    16    15    14
    76       H          1.05190000  *  119.2910000  *  179.3041000  *    17    16    15
    77       H          1.05070000  *  121.1306000  *    5.5793000  *    19    18    20
    78       H          1.04530000  *  127.1500000  *  178.1950000  *    21    20    24
    79       H          1.04490000  *  126.6429000  *  177.1777000  *    22    21    20
    80       H          0.93980000  *  121.4113000  *    2.6148000  *    29    27    28
    81       H          1.05150000  *  119.8197000  *  177.0298000  *    33    32    37
    82       H          1.04970000  *  120.5775000  * -179.8399000  *    34    33    32
    83       H          1.05080000  *  121.5527000  *    2.3660000  *    37    32    11
    84       H          1.05130000  *  120.0578000  *   -1.3865000  *    41    40    39
    85       H          1.05190000  *  119.3631000  * -179.5079000  *    42    41    40
    86       H          1.05160000  *  119.0203000  * -179.7222000  *    43    42    41
    87       H          1.05130000  *  119.8194000  * -179.8153000  *    44    43    42
    88       H          1.09330000  *  108.8160000  *   18.9456000  *    49    48    47
    89       H          1.09300000  *  107.6622000  *  135.0697000  *    49    48    47
    90       H          1.09420000  *  107.3059000  *  -43.8880000  *    50    49    88
    91       H          1.09400000  *  107.9566000  *  171.5814000  *    51    50    55
    92       H          1.09420000  *  108.5803000  *  168.3122000  *    51    50    90
    93       H          1.09160000  *  109.0369000  *  173.8846000  *    52    51    91
    94       H          1.09170000  *  109.7888000  *  -66.1626000  *    52    51    91
    95       H          1.09210000  *  109.3444000  *  169.5991000  *    53    52    93
    96       H          1.09260000  *  109.5925000  *  -71.3097000  *    53    52    93
    97       H          1.09070000  *  110.1917000  *  -63.3241000  *    54    53    95
    98       H          1.09100000  *  109.4795000  *   56.6557000  *    54    53    95
    99       H          1.09150000  *  109.9145000  *  176.1818000  *    54    53    95
   100       H          1.09170000  *  110.0551000  *  155.4432000  *    55    50    90
   101       H          1.08950000  *  109.7375000  *  -85.8061000  *    55    50    90
   102       H          1.09100000  *  109.8875000  *  177.9927000  *    56    55   100
   103       H          1.08710000  *  111.6172000  * -176.5810000  *    56    55   101
   104       H          1.09190000  *  109.0430000  *  -56.8042000  *    56    55   101
   105       H          1.09150000  *  110.1311000  *  155.3181000  *    57     5    69
   106       H          1.08970000  *  109.8350000  *  -86.0613000  *    57     5    69
   107       H          1.09110000  *  109.9165000  * -179.6003000  *    58    57   105
   108       H          1.08730000  *  111.4869000  * -174.0704000  *    58    57   106
   109       H          1.09170000  *  109.0281000  *  -54.2973000  *    58    57   106
 


          CARTESIAN COORDINATES 

    NO.       ATOM           X           Y           Z

     1         C          0.0000      0.0000      0.0000
     2         C          1.5473      0.0000      0.0000
     3         C          2.1104      1.4458      0.0000
     4         C          3.6228      1.4573      0.3397
     5         C          4.3225      2.8566      0.3095
     6         C          5.7671      2.6360      0.8719
     7         N          6.4555      3.8688      1.2108
     8         C          6.5303      4.4304      2.5096
     9         C          5.9097      4.1026      3.6525
    10         C          6.1139      4.9749      4.8211
    11         C          6.9076      6.0675      4.7435
    12         C          7.6403      6.3693      3.4920
    13         C          7.4401      5.5633      2.4426
    14         C          7.9811      5.5730      1.0899
    15         C          7.3892      4.5764      0.4008
    16         C          7.8371      4.2455     -0.9502
    17         C          8.9144      4.8849     -1.4379
    18         C          9.6356      5.8960     -0.6301
    19         C          9.1593      6.2747      0.5730
    20         C         10.9658      6.2781     -1.0947
    21         C         11.5454      7.4867     -1.1721
    22         C         12.8569      7.2678     -1.7858
    23         C         12.9533      5.9462     -2.0064
    24         O         11.8208      5.3361     -1.5738
    25         C         14.0099      5.1688     -2.6487
    26         C         14.3971      5.3595     -3.9240
    27         C         15.2506      4.3539     -4.5815
    28         O         15.8123      4.6194     -5.6455
    29         O         15.1690      3.0575     -4.1863
    30         C         13.8961      6.4501     -4.6978
    31         N         13.4896      7.3352     -5.3261
    32         C          6.9983      7.0203      5.8613
    33         C          8.3165      7.5944      6.2276
    34         C          8.4127      8.5874      7.1312
    35         C          7.1837      9.0792      7.7533
    36         C          6.0015      8.5171      7.4638
    37         C          5.8772      7.4498      6.4803
    38         C          4.9864      9.1918      8.2560
    39         N          3.6369      8.8559      8.4561
    40         C          2.9794      9.5019      9.3610
    41         C          1.5735      9.1846      9.6356
    42         C          0.9140      9.8395     10.6079
    43         C          1.5696     10.8878     11.4087
    44         C          2.8524     11.2373     11.1982
    45         C          3.6408     10.5622     10.1601
    46         N          4.8846     10.8611      9.9616
    47         C          5.5957     10.1523      8.9718
    48         N          6.9777     10.1675      8.6438
    49         C          8.0287     10.9307      9.2909
    50         C          8.4996     12.2050      8.5046
    51         C          9.8460     12.6510      9.1697
    52         C         10.5962     13.8249      8.4878
    53         C         11.8616     14.2224      9.2940
    54         C         12.7691     15.1829      8.4884
    55         C          8.6214     11.9686      6.9624
    56         C          8.3618     13.2335      6.1029
    57         C          3.5400      3.9675      1.0860
    58         C          2.5108      4.7359      0.2174
    59         H         14.3538      4.3165     -2.1353
    60         H         -0.3762      0.5552     -0.8601
    61         H         -0.3644     -1.0270     -0.0501
    62         H         -0.3707      0.4618      0.9169
    63         H          1.8925     -0.5291      0.8914
    64         H          1.9087     -0.5293     -0.8843
    65         H          1.9487      1.8952     -0.9817
    66         H          1.5731      2.0210      0.7562
    67         H          3.7378      1.0303      1.3404
    68         H          4.1405      0.8040     -0.3689
    69         H          4.4233      3.1751     -0.7326
    70         H          5.7193      2.0150      1.7692
    71         H          6.3531      2.0875      0.1304
    72         H          5.2454      3.2913      3.7036
    73         H          5.5874      4.7628      5.7063
    74         H          8.2809      7.1983      3.4205
    75         H          7.3407      3.5215     -1.5251
    76         H          9.2576      4.6514     -2.4045
    77         H          9.6986      6.9347      1.1875
    78         H         11.1262      8.4061     -0.9046
    79         H         13.5594      8.0005     -2.0340
    80         H         15.5623      2.3669     -4.6879
    81         H          9.1915      7.2243      5.7769
    82         H          9.3483      8.9907      7.3838
    83         H          4.9274      7.0918      6.2084
    84         H          1.0835      8.4395      9.0789
    85         H         -0.0915      9.5987     10.8016
    86         H          1.0197     11.3727     12.1626
    87         H          3.2934     11.9873     11.7882
    88         H          7.6807     11.2423     10.2794
    89         H          8.8805     10.2621      9.4396
    90         H          7.7506     12.9852      8.6707
    91         H          9.6329     12.9363     10.2042
    92         H         10.5264     11.7943      9.1881
    93         H         10.9116     13.5142      7.4900
    94         H          9.9346     14.6896      8.4079
    95         H         11.5600     14.7088     10.2241
    96         H         12.4374     13.3263      9.5373
    97         H         12.2128     16.0771      8.2047
    98         H         13.6244     15.4739      9.1000
    99         H         13.1325     14.6837      7.5884
   100         H          9.6033     11.5556      6.7234
   101         H          7.8666     11.2525      6.6392
   102         H          7.3668     13.6279      6.3140
   103         H          9.1002     14.0076      6.2963
   104         H          8.4137     12.9631      5.0463
   105         H          3.0453      3.5380      1.9590
   106         H          4.2334      4.7312      1.4373
   107         H          3.0055      5.1586     -0.6584
   108         H          1.7010      4.0873     -0.1079
   109         H          2.0863      5.5513      0.8063

  H: (RM1): G.B. ROCHA, R.O. FREIRE, A.M.SIMAS, J.J.P. STEWART, J. COMP. CHEM. 27, 1101 (2006)
  C: (RM1): G.B. ROCHA, R.O. FREIRE, A.M.SIMAS, J.J.P. STEWART, J. COMP. CHEM. 27, 1101 (2006)
  N: (RM1): G.B. ROCHA, R.O. FREIRE, A.M.SIMAS, J.J.P. STEWART, J. COMP. CHEM. 27, 1101 (2006)
  O: (RM1): G.B. ROCHA, R.O. FREIRE, A.M.SIMAS, J.J.P. STEWART, J. COMP. CHEM. 27, 1101 (2006)

           Empirical Formula: C50 H51 N5 O3  =   109 atoms



      MOLECULAR POINT GROUP   :   C1  


      RHF CALCULATION, NO. OF DOUBLY OCCUPIED LEVELS = 147


          Geometry optimization using L-BFGS
 CYCLE:     1 TIME:   0.453 TIME LEFT:  2.00D  GRAD.:   548.178 HEAT:  114.6181
 CYCLE:     2 TIME:   0.285 TIME LEFT:  2.00D  GRAD.:   454.006 HEAT:  111.9285
 CYCLE:     3 TIME:   0.348 TIME LEFT:  2.00D  GRAD.:   469.778 HEAT:  101.9075
 CYCLE:     4 TIME:   0.336 TIME LEFT:  2.00D  GRAD.:   455.667 HEAT:  111.9284
 CYCLE:     5 TIME:   0.332 TIME LEFT:  2.00D  GRAD.:   472.750 HEAT:  101.9133
 CYCLE:     6 TIME:   0.297 TIME LEFT:  2.00D  GRAD.:   485.101 HEAT:  95.92737
 CYCLE:     7 TIME:   0.316 TIME LEFT:  2.00D  GRAD.:   603.985 HEAT:  78.55790
 CYCLE:     8 TIME:   0.355 TIME LEFT:  2.00D  GRAD.:   822.490 HEAT:  62.73399
 CYCLE:     9 TIME:   0.312 TIME LEFT:  2.00D  GRAD.:   350.770 HEAT:  54.25198
 CYCLE:    10 TIME:   0.297 TIME LEFT:  2.00D  GRAD.:   263.943 HEAT:  51.84306
 CYCLE:    11 TIME:   0.355 TIME LEFT:  2.00D  GRAD.:   177.726 HEAT:  48.68156
 CYCLE:    12 TIME:   0.324 TIME LEFT:  2.00D  GRAD.:   170.838 HEAT:  45.99988
 CYCLE:    13 TIME:   0.375 TIME LEFT:  2.00D  GRAD.:   163.949 HEAT:  42.98492
 CYCLE:    14 TIME:   0.316 TIME LEFT:  2.00D  GRAD.:   380.803 HEAT:  42.37361
 CYCLE:    15 TIME:   0.312 TIME LEFT:  2.00D  GRAD.:   102.290 HEAT:  40.50134
 CYCLE:    16 TIME:   0.289 TIME LEFT:  2.00D  GRAD.:    79.528 HEAT:  40.04018
 CYCLE:    17 TIME:   0.293 TIME LEFT:  2.00D  GRAD.:   121.376 HEAT:  39.29640
 CYCLE:    18 TIME:   0.320 TIME LEFT:  2.00D  GRAD.:   193.948 HEAT:  38.08451
 CYCLE:    19 TIME:   0.348 TIME LEFT:  2.00D  GRAD.:   351.734 HEAT:  37.48107
 CYCLE:    20 TIME:   0.328 TIME LEFT:  2.00D  GRAD.:   111.667 HEAT:  36.08456
 CYCLE:    21 TIME:   0.320 TIME LEFT:  2.00D  GRAD.:    84.399 HEAT:  35.73362
 CYCLE:    22 TIME:   0.285 TIME LEFT:  2.00D  GRAD.:    79.955 HEAT:  35.29087
 CYCLE:    23 TIME:   0.293 TIME LEFT:  2.00D  GRAD.:   182.504 HEAT:  34.59306
 CYCLE:    24 TIME:   0.289 TIME LEFT:  2.00D  GRAD.:   175.661 HEAT:  33.91590
 CYCLE:    25 TIME:   0.277 TIME LEFT:  2.00D  GRAD.:   123.798 HEAT:  33.24539
 CYCLE:    26 TIME:   0.289 TIME LEFT:  2.00D  GRAD.:    78.042 HEAT:  32.65369
 CYCLE:    27 TIME:   0.266 TIME LEFT:  2.00D  GRAD.:    92.736 HEAT:  32.38852
 CYCLE:    28 TIME:   0.270 TIME LEFT:  2.00D  GRAD.:   105.056 HEAT:  31.64829
 CYCLE:    29 TIME:   0.270 TIME LEFT:  2.00D  GRAD.:   213.175 HEAT:  31.67254
 CYCLE:    30 TIME:   0.250 TIME LEFT:  2.00D  GRAD.:    52.017 HEAT:  31.03376
 CYCLE:    31 TIME:   0.258 TIME LEFT:  2.00D  GRAD.:    41.522 HEAT:  30.91118
 CYCLE:    32 TIME:   0.293 TIME LEFT:  2.00D  GRAD.:    50.838 HEAT:  30.58410
 CYCLE:    33 TIME:   0.320 TIME LEFT:  2.00D  GRAD.:   163.404 HEAT:  30.43474
 CYCLE:    34 TIME:   0.297 TIME LEFT:  2.00D  GRAD.:    59.050 HEAT:  30.07582
 CYCLE:    35 TIME:   0.270 TIME LEFT:  2.00D  GRAD.:    38.048 HEAT:  29.95574
 CYCLE:    36 TIME:   0.289 TIME LEFT:  2.00D  GRAD.:    32.993 HEAT:  29.81221
 CYCLE:    37 TIME:   0.301 TIME LEFT:  2.00D  GRAD.:    77.330 HEAT:  29.65513
 CYCLE:    38 TIME:   0.285 TIME LEFT:  2.00D  GRAD.:    56.584 HEAT:  29.42568
 CYCLE:    39 TIME:   0.340 TIME LEFT:  2.00D  GRAD.:    68.798 HEAT:  29.24878
 CYCLE:    40 TIME:   0.270 TIME LEFT:  2.00D  GRAD.:    34.326 HEAT:  29.12554
 CYCLE:    41 TIME:   0.246 TIME LEFT:  2.00D  GRAD.:    43.284 HEAT:  29.04163
 CYCLE:    42 TIME:   0.254 TIME LEFT:  2.00D  GRAD.:    58.623 HEAT:  28.91577
 CYCLE:    43 TIME:   0.277 TIME LEFT:  2.00D  GRAD.:   112.134 HEAT:  28.73846
 CYCLE:    44 TIME:   0.312 TIME LEFT:  2.00D  GRAD.:    89.445 HEAT:  28.61095
 CYCLE:    45 TIME:   0.301 TIME LEFT:  2.00D  GRAD.:    40.540 HEAT:  28.47255
 CYCLE:    46 TIME:   0.254 TIME LEFT:  2.00D  GRAD.:    36.409 HEAT:  28.38124
 CYCLE:    47 TIME:   0.301 TIME LEFT:  2.00D  GRAD.:    49.535 HEAT:  28.26576
 CYCLE:    48 TIME:   0.328 TIME LEFT:  2.00D  GRAD.:   115.723 HEAT:  28.00084
 CYCLE:    49 TIME:   0.395 TIME LEFT:  2.00D  GRAD.:    94.332 HEAT:  27.75042
 CYCLE:    50 TIME:   0.277 TIME LEFT:  2.00D  GRAD.:    62.478 HEAT:  27.50647
 CYCLE:    51 TIME:   0.270 TIME LEFT:  2.00D  GRAD.:    35.672 HEAT:  27.24234
 CYCLE:    52 TIME:   0.309 TIME LEFT:  2.00D  GRAD.:    82.657 HEAT:  27.07106
 CYCLE:    53 TIME:   0.270 TIME LEFT:  2.00D  GRAD.:    63.510 HEAT:  26.85969
 CYCLE:    54 TIME:   0.281 TIME LEFT:  2.00D  GRAD.:   121.020 HEAT:  26.65386
 CYCLE:    55 TIME:   0.289 TIME LEFT:  2.00D  GRAD.:    46.172 HEAT:  26.43609
 CYCLE:    56 TIME:   0.281 TIME LEFT:  2.00D  GRAD.:    60.344 HEAT:  26.29759
 CYCLE:    57 TIME:   0.289 TIME LEFT:  2.00D  GRAD.:    78.431 HEAT:  26.16335
 CYCLE:    58 TIME:   0.266 TIME LEFT:  2.00D  GRAD.:   113.354 HEAT:  25.87524
 CYCLE:    59 TIME:   0.277 TIME LEFT:  2.00D  GRAD.:   139.856 HEAT:  25.68880
 CYCLE:    60 TIME:   0.266 TIME LEFT:  2.00D  GRAD.:    57.934 HEAT:  25.42007
 CYCLE:    61 TIME:   0.273 TIME LEFT:  2.00D  GRAD.:    45.110 HEAT:  25.26292
 CYCLE:    62 TIME:   0.254 TIME LEFT:  2.00D  GRAD.:    51.957 HEAT:  25.17996
 CYCLE:    63 TIME:   0.254 TIME LEFT:  2.00D  GRAD.:   137.731 HEAT:  25.06490
 CYCLE:    64 TIME:   0.254 TIME LEFT:  2.00D  GRAD.:    58.057 HEAT:  24.87212
 CYCLE:    65 TIME:   0.250 TIME LEFT:  2.00D  GRAD.:    39.646 HEAT:  24.74367
 CYCLE:    66 TIME:   0.254 TIME LEFT:  2.00D  GRAD.:    41.101 HEAT:  24.67783
 CYCLE:    67 TIME:   0.254 TIME LEFT:  2.00D  GRAD.:    38.721 HEAT:  24.55041
 CYCLE:    68 TIME:   0.273 TIME LEFT:  2.00D  GRAD.:    82.298 HEAT:  24.41049
 CYCLE:    69 TIME:   0.254 TIME LEFT:  2.00D  GRAD.:    37.274 HEAT:  24.27079
 CYCLE:    70 TIME:   0.246 TIME LEFT:  2.00D  GRAD.:    27.938 HEAT:  24.18468
 CYCLE:    71 TIME:   0.250 TIME LEFT:  2.00D  GRAD.:    30.399 HEAT:  24.08409
 CYCLE:    72 TIME:   0.273 TIME LEFT:  2.00D  GRAD.:    45.388 HEAT:  23.86153
 CYCLE:    73 TIME:   0.254 TIME LEFT:  2.00D  GRAD.:    82.118 HEAT:  23.66459
 CYCLE:    74 TIME:   0.277 TIME LEFT:  2.00D  GRAD.:    64.582 HEAT:  23.42244
 CYCLE:    75 TIME:   0.266 TIME LEFT:  2.00D  GRAD.:    34.474 HEAT:  23.26179
 CYCLE:    76 TIME:   0.262 TIME LEFT:  2.00D  GRAD.:    36.762 HEAT:  23.10848
 CYCLE:    77 TIME:   0.262 TIME LEFT:  2.00D  GRAD.:    41.297 HEAT:  22.99463
 CYCLE:    78 TIME:   0.285 TIME LEFT:  2.00D  GRAD.:    46.385 HEAT:  22.75629
 CYCLE:    79 TIME:   0.258 TIME LEFT:  2.00D  GRAD.:   184.209 HEAT:  22.78069
 CYCLE:    80 TIME:   0.285 TIME LEFT:  2.00D  GRAD.:    36.911 HEAT:  22.53084
 CYCLE:    81 TIME:   0.258 TIME LEFT:  2.00D  GRAD.:    34.903 HEAT:  22.46704
 CYCLE:    82 TIME:   0.266 TIME LEFT:  2.00D  GRAD.:    61.145 HEAT:  22.31662
 CYCLE:    83 TIME:   0.254 TIME LEFT:  2.00D  GRAD.:    55.454 HEAT:  22.19046
 CYCLE:    84 TIME:   0.273 TIME LEFT:  2.00D  GRAD.:   238.875 HEAT:  22.42994
 CYCLE:    85 TIME:   0.266 TIME LEFT:  2.00D  GRAD.:    28.225 HEAT:  22.05940
 CYCLE:    86 TIME:   0.238 TIME LEFT:  2.00D  GRAD.:    24.464 HEAT:  22.03903
 CYCLE:    87 TIME:   0.258 TIME LEFT:  2.00D  GRAD.:    38.046 HEAT:  21.98430
 CYCLE:    88 TIME:   0.258 TIME LEFT:  2.00D  GRAD.:    45.497 HEAT:  21.91562
 CYCLE:    89 TIME:   0.262 TIME LEFT:  2.00D  GRAD.:    57.171 HEAT:  21.73089
 CYCLE:    90 TIME:   0.258 TIME LEFT:  2.00D  GRAD.:    67.974 HEAT:  21.58520
 CYCLE:    91 TIME:   0.262 TIME LEFT:  2.00D  GRAD.:    63.226 HEAT:  21.42282
 CYCLE:    92 TIME:   0.281 TIME LEFT:  2.00D  GRAD.:    73.606 HEAT:  21.31884
 CYCLE:    93 TIME:   0.254 TIME LEFT:  2.00D  GRAD.:    42.738 HEAT:  21.19741
 CYCLE:    94 TIME:   0.242 TIME LEFT:  2.00D  GRAD.:    31.726 HEAT:  21.15242
 CYCLE:    95 TIME:   0.250 TIME LEFT:  2.00D  GRAD.:    34.700 HEAT:  21.11180
 CYCLE:    96 TIME:   0.273 TIME LEFT:  2.00D  GRAD.:    50.990 HEAT:  20.96921
 CYCLE:    97 TIME:   0.289 TIME LEFT:  2.00D  GRAD.:    42.292 HEAT:  20.82769
 CYCLE:    98 TIME:   0.273 TIME LEFT:  2.00D  GRAD.:    89.337 HEAT:  20.74757
 CYCLE:    99 TIME:   0.262 TIME LEFT:  2.00D  GRAD.:    30.626 HEAT:  20.66021
 CYCLE:   100 TIME:   0.266 TIME LEFT:  2.00D  GRAD.:    25.135 HEAT:  20.62820
 CYCLE:   101 TIME:   0.250 TIME LEFT:  2.00D  GRAD.:    27.646 HEAT:  20.54875
 CYCLE:   102 TIME:   0.266 TIME LEFT:  2.00D  GRAD.:    36.245 HEAT:  20.44597
 CYCLE:   103 TIME:   0.262 TIME LEFT:  2.00D  GRAD.:    30.016 HEAT:  20.32828
 CYCLE:   104 TIME:   0.336 TIME LEFT:  2.00D  GRAD.:    35.001 HEAT:  20.23099
 CYCLE:   105 TIME:   0.344 TIME LEFT:  2.00D  GRAD.:    22.030 HEAT:  20.13785
 CYCLE:   106 TIME:   0.258 TIME LEFT:  2.00D  GRAD.:    24.920 HEAT:  20.08455
 CYCLE:   107 TIME:   0.297 TIME LEFT:  2.00D  GRAD.:    45.956 HEAT:  20.03840
 CYCLE:   108 TIME:   0.262 TIME LEFT:  2.00D  GRAD.:    22.350 HEAT:  20.01043
 CYCLE:   109 TIME:   0.234 TIME LEFT:  2.00D  GRAD.:    27.888 HEAT:  19.97732
 CYCLE:   110 TIME:   0.246 TIME LEFT:  2.00D  GRAD.:    33.075 HEAT:  19.95426
 CYCLE:   111 TIME:   0.262 TIME LEFT:  2.00D  GRAD.:    52.073 HEAT:  19.87002
 CYCLE:   112 TIME:   0.258 TIME LEFT:  2.00D  GRAD.:   185.575 HEAT:  19.98288
 CYCLE:   113 TIME:   0.258 TIME LEFT:  2.00D  GRAD.:    33.219 HEAT:  19.78279
 CYCLE:   114 TIME:   0.258 TIME LEFT:  2.00D  GRAD.:    20.538 HEAT:  19.76279
 CYCLE:   115 TIME:   0.246 TIME LEFT:  2.00D  GRAD.:    22.729 HEAT:  19.73569
 CYCLE:   116 TIME:   0.270 TIME LEFT:  2.00D  GRAD.:    22.654 HEAT:  19.70945
 CYCLE:   117 TIME:   0.270 TIME LEFT:  2.00D  GRAD.:    37.305 HEAT:  19.64990
 CYCLE:   118 TIME:   0.273 TIME LEFT:  2.00D  GRAD.:    51.317 HEAT:  19.62718
 CYCLE:   119 TIME:   0.281 TIME LEFT:  2.00D  GRAD.:    18.245 HEAT:  19.55494
 CYCLE:   120 TIME:   0.289 TIME LEFT:  2.00D  GRAD.:    17.974 HEAT:  19.52663
 CYCLE:   121 TIME:   0.266 TIME LEFT:  2.00D  GRAD.:    36.569 HEAT:  19.49075
 CYCLE:   122 TIME:   0.242 TIME LEFT:  2.00D  GRAD.:    46.274 HEAT:  19.45369
 CYCLE:   123 TIME:   0.246 TIME LEFT:  2.00D  GRAD.:    33.241 HEAT:  19.41955
 CYCLE:   124 TIME:   0.262 TIME LEFT:  2.00D  GRAD.:    12.099 HEAT:  19.36750
 CYCLE:   125 TIME:   0.250 TIME LEFT:  2.00D  GRAD.:    13.159 HEAT:  19.35362
 CYCLE:   126 TIME:   0.273 TIME LEFT:  2.00D  GRAD.:    25.406 HEAT:  19.29759
 CYCLE:   127 TIME:   0.273 TIME LEFT:  2.00D  GRAD.:    54.119 HEAT:  19.24456
 CYCLE:   128 TIME:   0.262 TIME LEFT:  2.00D  GRAD.:    44.298 HEAT:  19.17093
 CYCLE:   129 TIME:   0.250 TIME LEFT:  2.00D  GRAD.:    23.913 HEAT:  19.12088
 CYCLE:   130 TIME:   0.238 TIME LEFT:  2.00D  GRAD.:    19.320 HEAT:  19.09516
 CYCLE:   131 TIME:   0.246 TIME LEFT:  2.00D  GRAD.:    20.101 HEAT:  19.06247
 CYCLE:   132 TIME:   0.266 TIME LEFT:  2.00D  GRAD.:    19.920 HEAT:  18.99812
 CYCLE:   133 TIME:   0.297 TIME LEFT:  2.00D  GRAD.:    54.589 HEAT:  18.96784
 CYCLE:   134 TIME:   0.270 TIME LEFT:  2.00D  GRAD.:    52.353 HEAT:  18.92103
 CYCLE:   135 TIME:   0.250 TIME LEFT:  2.00D  GRAD.:    28.948 HEAT:  18.89100
 CYCLE:   136 TIME:   0.270 TIME LEFT:  2.00D  GRAD.:    18.127 HEAT:  18.87839
 CYCLE:   137 TIME:   0.270 TIME LEFT:  2.00D  GRAD.:    17.331 HEAT:  18.86222
 CYCLE:   138 TIME:   0.262 TIME LEFT:  2.00D  GRAD.:    23.844 HEAT:  18.83609
 CYCLE:   139 TIME:   0.250 TIME LEFT:  2.00D  GRAD.:    38.997 HEAT:  18.80127
 CYCLE:   140 TIME:   0.250 TIME LEFT:  2.00D  GRAD.:    26.573 HEAT:  18.77048
 CYCLE:   141 TIME:   0.250 TIME LEFT:  2.00D  GRAD.:    18.261 HEAT:  18.76059
 CYCLE:   142 TIME:   0.230 TIME LEFT:  2.00D  GRAD.:    13.670 HEAT:  18.75607
 CYCLE:   143 TIME:   0.250 TIME LEFT:  2.00D  GRAD.:    15.496 HEAT:  18.74220
 CYCLE:   144 TIME:   0.254 TIME LEFT:  2.00D  GRAD.:    29.126 HEAT:  18.72068
 CYCLE:   145 TIME:   0.312 TIME LEFT:  2.00D  GRAD.:    24.593 HEAT:  18.70018
 CYCLE:   146 TIME:   0.309 TIME LEFT:  2.00D  GRAD.:    12.243 HEAT:  18.66761
 CYCLE:   147 TIME:   0.266 TIME LEFT:  2.00D  GRAD.:    13.198 HEAT:  18.65185
 CYCLE:   148 TIME:   0.273 TIME LEFT:  2.00D  GRAD.:    28.242 HEAT:  18.61559
 CYCLE:   149 TIME:   0.242 TIME LEFT:  2.00D  GRAD.:    45.572 HEAT:  18.59972
 CYCLE:   150 TIME:   0.258 TIME LEFT:  2.00D  GRAD.:    19.783 HEAT:  18.57698
 CYCLE:   151 TIME:   0.254 TIME LEFT:  2.00D  GRAD.:    14.613 HEAT:  18.56521
 CYCLE:   152 TIME:   0.258 TIME LEFT:  2.00D  GRAD.:    16.064 HEAT:  18.55185
 CYCLE:   153 TIME:   0.266 TIME LEFT:  2.00D  GRAD.:    23.446 HEAT:  18.52637
 CYCLE:   154 TIME:   0.250 TIME LEFT:  2.00D  GRAD.:    27.244 HEAT:  18.49448
 CYCLE:   155 TIME:   0.254 TIME LEFT:  2.00D  GRAD.:   109.429 HEAT:  18.57265
 CYCLE:   156 TIME:   0.250 TIME LEFT:  2.00D  GRAD.:    13.658 HEAT:  18.46012
 CYCLE:   157 TIME:   0.254 TIME LEFT:  2.00D  GRAD.:    11.850 HEAT:  18.45243
 CYCLE:   158 TIME:   0.258 TIME LEFT:  2.00D  GRAD.:    14.900 HEAT:  18.42886
 CYCLE:   159 TIME:   0.281 TIME LEFT:  2.00D  GRAD.:    15.543 HEAT:  18.40369
 CYCLE:   160 TIME:   0.270 TIME LEFT:  2.00D  GRAD.:    67.891 HEAT:  18.43731
 CYCLE:   161 TIME:   0.336 TIME LEFT:  2.00D  GRAD.:    12.826 HEAT:  18.36890
 CYCLE:   162 TIME:   0.312 TIME LEFT:  2.00D  GRAD.:    10.295 HEAT:  18.36009
 CYCLE:   163 TIME:   0.266 TIME LEFT:  2.00D  GRAD.:    24.624 HEAT:  18.34150
 CYCLE:   164 TIME:   0.273 TIME LEFT:  2.00D  GRAD.:    37.996 HEAT:  18.33170
 CYCLE:   165 TIME:   0.230 TIME LEFT:  2.00D  GRAD.:    15.496 HEAT:  18.31673
 CYCLE:   166 TIME:   0.320 TIME LEFT:  2.00D  GRAD.:    14.524 HEAT:  18.30398
 CYCLE:   167 TIME:   0.262 TIME LEFT:  2.00D  GRAD.:    12.042 HEAT:  18.29678
 CYCLE:   168 TIME:   0.258 TIME LEFT:  2.00D  GRAD.:    10.389 HEAT:  18.28416
 CYCLE:   169 TIME:   0.262 TIME LEFT:  2.00D  GRAD.:    71.011 HEAT:  18.29252
 CYCLE:   170 TIME:   0.242 TIME LEFT:  2.00D  GRAD.:    18.234 HEAT:  18.26384
 CYCLE:   171 TIME:   0.262 TIME LEFT:  2.00D  GRAD.:    13.284 HEAT:  18.25609
 CYCLE:   172 TIME:   0.262 TIME LEFT:  2.00D  GRAD.:    15.593 HEAT:  18.24241
 CYCLE:   173 TIME:   0.246 TIME LEFT:  2.00D  GRAD.:    14.862 HEAT:  18.23125
 CYCLE:   174 TIME:   0.254 TIME LEFT:  2.00D  GRAD.:    21.134 HEAT:  18.21828
 CYCLE:   175 TIME:   0.312 TIME LEFT:  2.00D  GRAD.:    12.506 HEAT:  18.20588
 CYCLE:   176 TIME:   0.301 TIME LEFT:  2.00D  GRAD.:    11.490 HEAT:  18.19304
 CYCLE:   177 TIME:   0.270 TIME LEFT:  2.00D  GRAD.:    14.188 HEAT:  18.18261
 CYCLE:   178 TIME:   0.246 TIME LEFT:  2.00D  GRAD.:    20.346 HEAT:  18.17637
 CYCLE:   179 TIME:   0.250 TIME LEFT:  2.00D  GRAD.:    10.361 HEAT:  18.16921
 CYCLE:   180 TIME:   0.254 TIME LEFT:  2.00D  GRAD.:    12.141 HEAT:  18.16222
 CYCLE:   181 TIME:   0.242 TIME LEFT:  2.00D  GRAD.:    13.568 HEAT:  18.14976
 CYCLE:   182 TIME:   0.270 TIME LEFT:  2.00D  GRAD.:    23.746 HEAT:  18.13863
 CYCLE:   183 TIME:   0.316 TIME LEFT:  2.00D  GRAD.:    21.736 HEAT:  18.12694
 CYCLE:   184 TIME:   0.320 TIME LEFT:  2.00D  GRAD.:    19.225 HEAT:  18.12008
 CYCLE:   185 TIME:   0.277 TIME LEFT:  2.00D  GRAD.:    13.548 HEAT:  18.11438
 CYCLE:   186 TIME:   0.270 TIME LEFT:  2.00D  GRAD.:    12.492 HEAT:  18.10443
 CYCLE:   187 TIME:   0.273 TIME LEFT:  2.00D  GRAD.:    13.088 HEAT:  18.09295
 CYCLE:   188 TIME:   0.289 TIME LEFT:  2.00D  GRAD.:    11.643 HEAT:  18.08077
 CYCLE:   189 TIME:   0.285 TIME LEFT:  2.00D  GRAD.:    61.325 HEAT:  18.10583
 CYCLE:   190 TIME:   0.273 TIME LEFT:  2.00D  GRAD.:    10.944 HEAT:  18.07255
 CYCLE:   191 TIME:   0.262 TIME LEFT:  2.00D  GRAD.:     6.626 HEAT:  18.06804
 CYCLE:   192 TIME:   0.289 TIME LEFT:  2.00D  GRAD.:     8.958 HEAT:  18.06470
 CYCLE:   193 TIME:   0.316 TIME LEFT:  2.00D  GRAD.:    16.629 HEAT:  18.05717
 CYCLE:   194 TIME:   0.289 TIME LEFT:  2.00D  GRAD.:    10.667 HEAT:  18.05065
 CYCLE:   195 TIME:   0.309 TIME LEFT:  2.00D  GRAD.:     8.197 HEAT:  18.04512
 CYCLE:   196 TIME:   0.242 TIME LEFT:  2.00D  GRAD.:     9.459 HEAT:  18.03838
 CYCLE:   197 TIME:   0.254 TIME LEFT:  2.00D  GRAD.:    21.623 HEAT:  18.03147
 CYCLE:   198 TIME:   0.250 TIME LEFT:  2.00D  GRAD.:    16.554 HEAT:  18.02103
 CYCLE:   199 TIME:   0.273 TIME LEFT:  2.00D  GRAD.:    16.519 HEAT:  18.01152
 CYCLE:   200 TIME:   0.262 TIME LEFT:  2.00D  GRAD.:    11.702 HEAT:  17.99813
 CYCLE:   201 TIME:   0.250 TIME LEFT:  2.00D  GRAD.:     8.107 HEAT:  17.99134
 CYCLE:   202 TIME:   0.250 TIME LEFT:  2.00D  GRAD.:    11.404 HEAT:  17.98406
 CYCLE:   203 TIME:   0.262 TIME LEFT:  2.00D  GRAD.:    15.667 HEAT:  17.97004
 CYCLE:   204 TIME:   0.258 TIME LEFT:  2.00D  GRAD.:    20.236 HEAT:  17.95812
 CYCLE:   205 TIME:   0.246 TIME LEFT:  2.00D  GRAD.:    20.701 HEAT:  17.95094
 CYCLE:   206 TIME:   0.246 TIME LEFT:  2.00D  GRAD.:    35.773 HEAT:  17.94799
 CYCLE:   207 TIME:   0.250 TIME LEFT:  2.00D  GRAD.:     7.834 HEAT:  17.93325
 CYCLE:   208 TIME:   0.266 TIME LEFT:  2.00D  GRAD.:     9.095 HEAT:  17.93140
 CYCLE:   209 TIME:   0.266 TIME LEFT:  2.00D  GRAD.:    11.863 HEAT:  17.92401
 CYCLE:   210 TIME:   0.293 TIME LEFT:  2.00D  GRAD.:    33.257 HEAT:  17.92460
 CYCLE:   211 TIME:   0.285 TIME LEFT:  2.00D  GRAD.:     6.559 HEAT:  17.91227
 CYCLE:   212 TIME:   0.301 TIME LEFT:  2.00D  GRAD.:     7.627 HEAT:  17.90913
 CYCLE:   213 TIME:   0.340 TIME LEFT:  2.00D  GRAD.:     7.144 HEAT:  17.90108
 CYCLE:   214 TIME:   0.320 TIME LEFT:  2.00D  GRAD.:    11.455 HEAT:  17.89364
 CYCLE:   215 TIME:   0.266 TIME LEFT:  2.00D  GRAD.:    34.978 HEAT:  17.89216
 CYCLE:   216 TIME:   0.258 TIME LEFT:  2.00D  GRAD.:     9.013 HEAT:  17.88034
 CYCLE:   217 TIME:   0.320 TIME LEFT:  2.00D  GRAD.:     8.391 HEAT:  17.87698
 CYCLE:   218 TIME:   0.348 TIME LEFT:  2.00D  GRAD.:     9.927 HEAT:  17.87005
 CYCLE:   219 TIME:   0.332 TIME LEFT:  2.00D  GRAD.:    12.090 HEAT:  17.86369
 CYCLE:   220 TIME:   0.281 TIME LEFT:  2.00D  GRAD.:    13.088 HEAT:  17.85736
 CYCLE:   221 TIME:   0.258 TIME LEFT:  2.00D  GRAD.:    10.656 HEAT:  17.85056
 CYCLE:   222 TIME:   0.242 TIME LEFT:  2.00D  GRAD.:     8.194 HEAT:  17.84514
 CYCLE:   223 TIME:   0.254 TIME LEFT:  2.00D  GRAD.:     5.912 HEAT:  17.83758
 CYCLE:   224 TIME:   0.246 TIME LEFT:  2.00D  GRAD.:    14.698 HEAT:  17.83206
 CYCLE:   225 TIME:   0.250 TIME LEFT:  2.00D  GRAD.:     9.252 HEAT:  17.82695
 CYCLE:   226 TIME:   0.238 TIME LEFT:  2.00D  GRAD.:     6.854 HEAT:  17.82274
 CYCLE:   227 TIME:   0.254 TIME LEFT:  2.00D  GRAD.:     5.397 HEAT:  17.81622
 CYCLE:   228 TIME:   0.266 TIME LEFT:  2.00D  GRAD.:     6.503 HEAT:  17.81078
 CYCLE:   229 TIME:   0.270 TIME LEFT:  2.00D  GRAD.:    27.594 HEAT:  17.80665
 CYCLE:   230 TIME:   0.258 TIME LEFT:  2.00D  GRAD.:     7.402 HEAT:  17.79968
 CYCLE:   231 TIME:   0.270 TIME LEFT:  2.00D  GRAD.:     7.130 HEAT:  17.79757
 CYCLE:   232 TIME:   0.250 TIME LEFT:  2.00D  GRAD.:     6.604 HEAT:  17.79312
 CYCLE:   233 TIME:   0.246 TIME LEFT:  2.00D  GRAD.:     6.312 HEAT:  17.78621
 CYCLE:   234 TIME:   0.250 TIME LEFT:  2.00D  GRAD.:    35.593 HEAT:  17.79244
 CYCLE:   235 TIME:   0.266 TIME LEFT:  2.00D  GRAD.:    27.973 HEAT:  17.78852
 CYCLE:   236 TIME:   0.258 TIME LEFT:  2.00D  GRAD.:     5.319 HEAT:  17.77746
 CYCLE:   237 TIME:   0.258 TIME LEFT:  2.00D  GRAD.:     6.277 HEAT:  17.77558
 CYCLE:   238 TIME:   0.262 TIME LEFT:  2.00D  GRAD.:    11.003 HEAT:  17.77043
 CYCLE:   239 TIME:   0.242 TIME LEFT:  2.00D  GRAD.:    40.372 HEAT:  17.77817
 CYCLE:   240 TIME:   0.262 TIME LEFT:  2.00D  GRAD.:     8.033 HEAT:  17.76585
 CYCLE:   241 TIME:   0.258 TIME LEFT:  2.00D  GRAD.:     5.681 HEAT:  17.76402
 CYCLE:   242 TIME:   0.246 TIME LEFT:  2.00D  GRAD.:     7.071 HEAT:  17.75951
 CYCLE:   243 TIME:   0.242 TIME LEFT:  2.00D  GRAD.:     6.088 HEAT:  17.75636
 CYCLE:   244 TIME:   0.262 TIME LEFT:  2.00D  GRAD.:    21.505 HEAT:  17.75525
 CYCLE:   245 TIME:   0.254 TIME LEFT:  2.00D  GRAD.:     5.539 HEAT:  17.75071
 CYCLE:   246 TIME:   0.250 TIME LEFT:  2.00D  GRAD.:     5.482 HEAT:  17.74983
 CYCLE:   247 TIME:   0.281 TIME LEFT:  2.00D  GRAD.:     6.942 HEAT:  17.74802
 CYCLE:   248 TIME:   0.293 TIME LEFT:  2.00D  GRAD.:     5.732 HEAT:  17.74464
 CYCLE:   249 TIME:   0.293 TIME LEFT:  2.00D  GRAD.:     5.512 HEAT:  17.74020
 CYCLE:   250 TIME:   0.305 TIME LEFT:  2.00D  GRAD.:     6.728 HEAT:  17.73507
 CYCLE:   251 TIME:   0.324 TIME LEFT:  2.00D  GRAD.:    19.763 HEAT:  17.73430
 CYCLE:   252 TIME:   0.324 TIME LEFT:  2.00D  GRAD.:     6.798 HEAT:  17.72990
 CYCLE:   253 TIME:   0.305 TIME LEFT:  2.00D  GRAD.:     5.659 HEAT:  17.72860
 CYCLE:   254 TIME:   0.273 TIME LEFT:  2.00D  GRAD.:     7.843 HEAT:  17.72596
 CYCLE:   255 TIME:   0.277 TIME LEFT:  2.00D  GRAD.:     8.194 HEAT:  17.72252
 CYCLE:   256 TIME:   0.250 TIME LEFT:  2.00D  GRAD.:    10.970 HEAT:  17.71997
 CYCLE:   257 TIME:   0.262 TIME LEFT:  2.00D  GRAD.:     5.742 HEAT:  17.71710
 CYCLE:   258 TIME:   0.258 TIME LEFT:  2.00D  GRAD.:     5.602 HEAT:  17.71614
 CYCLE:   259 TIME:   0.250 TIME LEFT:  2.00D  GRAD.:     6.121 HEAT:  17.71296
 CYCLE:   260 TIME:   0.242 TIME LEFT:  2.00D  GRAD.:    12.089 HEAT:  17.70948
 CYCLE:   261 TIME:   0.242 TIME LEFT:  2.00D  GRAD.:    11.735 HEAT:  17.70695
 CYCLE:   262 TIME:   0.246 TIME LEFT:  2.00D  GRAD.:     4.197 HEAT:  17.70512
 CYCLE:   263 TIME:   0.250 TIME LEFT:  2.00D  GRAD.:     3.730 HEAT:  17.70429
 CYCLE:   264 TIME:   0.262 TIME LEFT:  2.00D  GRAD.:     4.209 HEAT:  17.70247
 CYCLE:   265 TIME:   0.309 TIME LEFT:  2.00D  GRAD.:     5.850 HEAT:  17.69928
 CYCLE:   266 TIME:   0.258 TIME LEFT:  2.00D  GRAD.:    26.652 HEAT:  17.70292
 CYCLE:   267 TIME:   0.270 TIME LEFT:  2.00D  GRAD.:     5.271 HEAT:  17.69510
 CYCLE:   268 TIME:   0.262 TIME LEFT:  2.00D  GRAD.:     4.109 HEAT:  17.69393
 CYCLE:   269 TIME:   0.293 TIME LEFT:  2.00D  GRAD.:     7.615 HEAT:  17.69174
 CYCLE:   270 TIME:   0.273 TIME LEFT:  2.00D  GRAD.:     5.499 HEAT:  17.68963
 CYCLE:   271 TIME:   0.281 TIME LEFT:  2.00D  GRAD.:     9.028 HEAT:  17.68692
 CYCLE:   272 TIME:   0.367 TIME LEFT:  2.00D  GRAD.:     8.118 HEAT:  17.68563
 CYCLE:   273 TIME:   0.320 TIME LEFT:  2.00D  GRAD.:     5.328 HEAT:  17.68501
 CYCLE:   274 TIME:   0.270 TIME LEFT:  2.00D  GRAD.:     5.513 HEAT:  17.68366
 CYCLE:   275 TIME:   0.301 TIME LEFT:  2.00D  GRAD.:     6.860 HEAT:  17.68254
 CYCLE:   276 TIME:   0.305 TIME LEFT:  2.00D  GRAD.:    11.649 HEAT:  17.68023
 CYCLE:   277 TIME:   0.277 TIME LEFT:  2.00D  GRAD.:    17.166 HEAT:  17.68074
 CYCLE:   278 TIME:   0.258 TIME LEFT:  2.00D  GRAD.:     6.013 HEAT:  17.67763
 CYCLE:   279 TIME:   0.238 TIME LEFT:  2.00D  GRAD.:     4.545 HEAT:  17.67659
 CYCLE:   280 TIME:   0.246 TIME LEFT:  2.00D  GRAD.:     6.347 HEAT:  17.67513
 CYCLE:   281 TIME:   0.254 TIME LEFT:  2.00D  GRAD.:     5.998 HEAT:  17.67355
 CYCLE:   282 TIME:   0.262 TIME LEFT:  2.00D  GRAD.:     5.779 HEAT:  17.67190
 CYCLE:   283 TIME:   0.250 TIME LEFT:  2.00D  GRAD.:     7.480 HEAT:  17.67054
 CYCLE:   284 TIME:   0.250 TIME LEFT:  2.00D  GRAD.:     5.564 HEAT:  17.66953
 CYCLE:   285 TIME:   0.305 TIME LEFT:  2.00D  GRAD.:     3.100 HEAT:  17.66764
 CYCLE:   286 TIME:   0.305 TIME LEFT:  2.00D  GRAD.:     3.945 HEAT:  17.66580
 CYCLE:   287 TIME:   0.301 TIME LEFT:  2.00D  GRAD.:    23.981 HEAT:  17.66656
 CYCLE:   288 TIME:   0.266 TIME LEFT:  2.00D  GRAD.:     5.969 HEAT:  17.66322
 CYCLE:   289 TIME:   0.250 TIME LEFT:  2.00D  GRAD.:     2.965 HEAT:  17.66269
 CYCLE:   290 TIME:   0.238 TIME LEFT:  2.00D  GRAD.:     3.545 HEAT:  17.66224
 CYCLE:   291 TIME:   0.254 TIME LEFT:  2.00D  GRAD.:     3.780 HEAT:  17.66140
 CYCLE:   292 TIME:   0.262 TIME LEFT:  2.00D  GRAD.:     8.546 HEAT:  17.66012
 CYCLE:   293 TIME:   0.258 TIME LEFT:  2.00D  GRAD.:     9.363 HEAT:  17.65898
 CYCLE:   294 TIME:   0.234 TIME LEFT:  2.00D  GRAD.:     4.116 HEAT:  17.65788
 CYCLE:   295 TIME:   0.246 TIME LEFT:  2.00D  GRAD.:     5.384 HEAT:  17.65739
 CYCLE:   296 TIME:   0.238 TIME LEFT:  2.00D  GRAD.:     3.840 HEAT:  17.65679
 CYCLE:   297 TIME:   0.270 TIME LEFT:  2.00D  GRAD.:     4.596 HEAT:  17.65527
 CYCLE:   298 TIME:   0.230 TIME LEFT:  2.00D  GRAD.:     4.365 HEAT:  17.65440
 CYCLE:   299 TIME:   0.246 TIME LEFT:  2.00D  GRAD.:     5.530 HEAT:  17.65229
 CYCLE:   300 TIME:   0.242 TIME LEFT:  2.00D  GRAD.:    16.338 HEAT:  17.65446
 CYCLE:   301 TIME:   0.238 TIME LEFT:  2.00D  GRAD.:     3.135 HEAT:  17.65077
 CYCLE:   302 TIME:   0.234 TIME LEFT:  2.00D  GRAD.:     2.468 HEAT:  17.65044
 CYCLE:   303 TIME:   0.246 TIME LEFT:  2.00D  GRAD.:     4.490 HEAT:  17.64876
 CYCLE:   304 TIME:   0.238 TIME LEFT:  2.00D  GRAD.:     4.416 HEAT:  17.64779
 CYCLE:   305 TIME:   0.254 TIME LEFT:  2.00D  GRAD.:    11.200 HEAT:  17.64729
 CYCLE:   306 TIME:   0.254 TIME LEFT:  2.00D  GRAD.:     2.920 HEAT:  17.64619
 CYCLE:   307 TIME:   0.250 TIME LEFT:  2.00D  GRAD.:     3.239 HEAT:  17.64577
 CYCLE:   308 TIME:   0.246 TIME LEFT:  2.00D  GRAD.:     4.155 HEAT:  17.64493
 CYCLE:   309 TIME:   0.258 TIME LEFT:  2.00D  GRAD.:    10.599 HEAT:  17.64434
 CYCLE:   310 TIME:   0.262 TIME LEFT:  2.00D  GRAD.:     3.849 HEAT:  17.64320
 CYCLE:   311 TIME:   0.246 TIME LEFT:  2.00D  GRAD.:     3.132 HEAT:  17.64270
 CYCLE:   312 TIME:   0.285 TIME LEFT:  2.00D  GRAD.:     3.545 HEAT:  17.64223
 CYCLE:   313 TIME:   0.293 TIME LEFT:  2.00D  GRAD.:     4.218 HEAT:  17.64123
 CYCLE:   314 TIME:   0.301 TIME LEFT:  2.00D  GRAD.:     5.128 HEAT:  17.64024
 CYCLE:   315 TIME:   0.266 TIME LEFT:  2.00D  GRAD.:     2.029 HEAT:  17.63932
 CYCLE:   316 TIME:   0.305 TIME LEFT:  2.00D  GRAD.:     3.195 HEAT:  17.63876
 CYCLE:   317 TIME:   0.293 TIME LEFT:  2.00D  GRAD.:     4.934 HEAT:  17.63821
 CYCLE:   318 TIME:   0.301 TIME LEFT:  2.00D  GRAD.:     5.707 HEAT:  17.63762
 CYCLE:   319 TIME:   0.297 TIME LEFT:  2.00D  GRAD.:     6.893 HEAT:  17.63727
 CYCLE:   320 TIME:   0.305 TIME LEFT:  2.00D  GRAD.:     2.213 HEAT:  17.63682
 CYCLE:   321 TIME:   0.262 TIME LEFT:  2.00D  GRAD.:     2.082 HEAT:  17.63665
 CYCLE:   322 TIME:   0.285 TIME LEFT:  2.00D  GRAD.:     3.461 HEAT:  17.63646
 CYCLE:   323 TIME:   0.309 TIME LEFT:  2.00D  GRAD.:     3.426 HEAT:  17.63611
 CYCLE:   324 TIME:   0.281 TIME LEFT:  2.00D  GRAD.:    13.079 HEAT:  17.63650
 CYCLE:   325 TIME:   0.285 TIME LEFT:  2.00D  GRAD.:     2.366 HEAT:  17.63485
 CYCLE:   326 TIME:   0.238 TIME LEFT:  2.00D  GRAD.:     2.063 HEAT:  17.63470
 CYCLE:   327 TIME:   0.266 TIME LEFT:  2.00D  GRAD.:     2.462 HEAT:  17.63441
 CYCLE:   328 TIME:   0.367 TIME LEFT:  2.00D  GRAD.:     3.400 HEAT:  17.63389
 CYCLE:   329 TIME:   0.250 TIME LEFT:  2.00D  GRAD.:     3.183 HEAT:  17.63314
 CYCLE:   330 TIME:   0.258 TIME LEFT:  2.00D  GRAD.:     6.843 HEAT:  17.63242
 CYCLE:   331 TIME:   0.250 TIME LEFT:  2.00D  GRAD.:     2.213 HEAT:  17.63162
 CYCLE:   332 TIME:   0.297 TIME LEFT:  2.00D  GRAD.:     1.939 HEAT:  17.63134
 CYCLE:   333 TIME:   0.270 TIME LEFT:  2.00D  GRAD.:     2.113 HEAT:  17.63096
 CYCLE:   334 TIME:   0.301 TIME LEFT:  2.00D  GRAD.:     2.853 HEAT:  17.63020
 CYCLE:   335 TIME:   0.258 TIME LEFT:  2.00D  GRAD.:     5.362 HEAT:  17.62971
 CYCLE:   336 TIME:   0.246 TIME LEFT:  2.00D  GRAD.:     4.241 HEAT:  17.62926
 CYCLE:   337 TIME:   0.242 TIME LEFT:  2.00D  GRAD.:     1.544 HEAT:  17.62904
 CYCLE:   338 TIME:   0.258 TIME LEFT:  2.00D  GRAD.:     1.940 HEAT:  17.62894
 CYCLE:   339 TIME:   0.246 TIME LEFT:  2.00D  GRAD.:     3.163 HEAT:  17.62866
 CYCLE:   340 TIME:   0.234 TIME LEFT:  2.00D  GRAD.:     6.198 HEAT:  17.62830
 CYCLE:   341 TIME:   0.234 TIME LEFT:  2.00D  GRAD.:     2.926 HEAT:  17.62784
 CYCLE:   342 TIME:   0.238 TIME LEFT:  2.00D  GRAD.:     1.405 HEAT:  17.62759
 CYCLE:   343 TIME:   0.266 TIME LEFT:  2.00D  GRAD.:     1.887 HEAT:  17.62743
 CYCLE:   344 TIME:   0.262 TIME LEFT:  2.00D  GRAD.:     2.483 HEAT:  17.62721
 CYCLE:   345 TIME:   0.258 TIME LEFT:  2.00D  GRAD.:     5.155 HEAT:  17.62697
 CYCLE:   346 TIME:   0.246 TIME LEFT:  2.00D  GRAD.:     2.007 HEAT:  17.62656
 CYCLE:   347 TIME:   0.262 TIME LEFT:  2.00D  GRAD.:     1.316 HEAT:  17.62635
 CYCLE:   348 TIME:   0.254 TIME LEFT:  2.00D  GRAD.:     2.063 HEAT:  17.62618
 CYCLE:   349 TIME:   0.281 TIME LEFT:  2.00D  GRAD.:     2.098 HEAT:  17.62591
 CYCLE:   350 TIME:   0.262 TIME LEFT:  2.00D  GRAD.:     6.226 HEAT:  17.62576
 CYCLE:   351 TIME:   0.230 TIME LEFT:  2.00D  GRAD.:     2.177 HEAT:  17.62511
 CYCLE:   352 TIME:   0.246 TIME LEFT:  2.00D  GRAD.:     1.491 HEAT:  17.62496
 CYCLE:   353 TIME:   0.250 TIME LEFT:  2.00D  GRAD.:     2.120 HEAT:  17.62476
 CYCLE:   354 TIME:   0.238 TIME LEFT:  2.00D  GRAD.:     4.037 HEAT:  17.62456
 CYCLE:   355 TIME:   0.234 TIME LEFT:  2.00D  GRAD.:     1.408 HEAT:  17.62429
 CYCLE:   356 TIME:   0.242 TIME LEFT:  2.00D  GRAD.:     1.729 HEAT:  17.62411
 CYCLE:   357 TIME:   0.293 TIME LEFT:  2.00D  GRAD.:     3.099 HEAT:  17.62388
 CYCLE:   358 TIME:   0.246 TIME LEFT:  2.00D  GRAD.:     8.424 HEAT:  17.62399
 CYCLE:   359 TIME:   0.227 TIME LEFT:  2.00D  GRAD.:     1.613 HEAT:  17.62336
 CYCLE:   360 TIME:   0.258 TIME LEFT:  2.00D  GRAD.:     1.121 HEAT:  17.62336
 CYCLE:   361 TIME:   0.254 TIME LEFT:  2.00D  GRAD.:     1.332 HEAT:  17.62322
 CYCLE:   362 TIME:   0.266 TIME LEFT:  2.00D  GRAD.:     1.454 HEAT:  17.62300
 CYCLE:   363 TIME:   0.277 TIME LEFT:  2.00D  GRAD.:     2.063 HEAT:  17.62275
 CYCLE:   364 TIME:   0.242 TIME LEFT:  2.00D  GRAD.:     2.394 HEAT:  17.62229
 CYCLE:   365 TIME:   0.266 TIME LEFT:  2.00D  GRAD.:     1.611 HEAT:  17.62190
 CYCLE:   366 TIME:   0.262 TIME LEFT:  2.00D  GRAD.:     4.157 HEAT:  17.62179
 CYCLE:   367 TIME:   0.238 TIME LEFT:  2.00D  GRAD.:     1.910 HEAT:  17.62148
 CYCLE:   368 TIME:   0.242 TIME LEFT:  2.00D  GRAD.:     1.804 HEAT:  17.62136
 CYCLE:   369 TIME:   0.246 TIME LEFT:  2.00D  GRAD.:     1.701 HEAT:  17.62117
 CYCLE:   370 TIME:   0.246 TIME LEFT:  2.00D  GRAD.:     4.782 HEAT:  17.62095
 CYCLE:   371 TIME:   0.227 TIME LEFT:  2.00D  GRAD.:     1.491 HEAT:  17.62074
 CYCLE:   372 TIME:   0.238 TIME LEFT:  2.00D  GRAD.:     1.295 HEAT:  17.62065
 CYCLE:   373 TIME:   0.238 TIME LEFT:  2.00D  GRAD.:     1.392 HEAT:  17.62042
 CYCLE:   374 TIME:   0.258 TIME LEFT:  2.00D  GRAD.:     2.442 HEAT:  17.62027
 CYCLE:   375 TIME:   0.262 TIME LEFT:  2.00D  GRAD.:     4.865 HEAT:  17.62033
 CYCLE:   376 TIME:   0.230 TIME LEFT:  2.00D  GRAD.:     1.092 HEAT:  17.62018
 CYCLE:   377 TIME:   0.285 TIME LEFT:  2.00D  GRAD.:     2.213 HEAT:  17.62021
 CYCLE:   378 TIME:   0.246 TIME LEFT:  2.00D  GRAD.:     0.956 HEAT:  17.62008
 CYCLE:   379 TIME:   0.254 TIME LEFT:  2.00D  GRAD.:     0.971 HEAT:  17.62001
 CYCLE:   380 TIME:   0.238 TIME LEFT:  2.00D  GRAD.:     1.205 HEAT:  17.61993
 CYCLE:   381 TIME:   0.238 TIME LEFT:  2.00D  GRAD.:     1.773 HEAT:  17.61983
 CYCLE:   382 TIME:   0.242 TIME LEFT:  2.00D  GRAD.:     1.049 HEAT:  17.61969
 CYCLE:   383 TIME:   0.250 TIME LEFT:  2.00D  GRAD.:     1.104 HEAT:  17.61959
 CYCLE:   384 TIME:   0.238 TIME LEFT:  2.00D  GRAD.:     1.125 HEAT:  17.61944
 CYCLE:   385 TIME:   0.258 TIME LEFT:  2.00D  GRAD.:    12.278 HEAT:  17.62025
 CYCLE:   386 TIME:   0.289 TIME LEFT:  2.00D  GRAD.:     0.887 HEAT:  17.61929
 CYCLE:   387 TIME:   0.328 TIME LEFT:  2.00D  GRAD.:     1.026 HEAT:  17.61924
 CYCLE:   388 TIME:   0.262 TIME LEFT:  2.00D  GRAD.:     3.280 HEAT:  17.61917
 CYCLE:   389 TIME:   0.234 TIME LEFT:  2.00D  GRAD.:     1.420 HEAT:  17.61907
 CYCLE:   390 TIME:   0.242 TIME LEFT:  2.00D  GRAD.:     0.720 HEAT:  17.61902
 CYCLE:   391 TIME:   0.270 TIME LEFT:  2.00D  GRAD.:     1.101 HEAT:  17.61897
 CYCLE:   392 TIME:   0.258 TIME LEFT:  2.00D  GRAD.:     1.505 HEAT:  17.61890
 CYCLE:   393 TIME:   0.254 TIME LEFT:  2.00D  GRAD.:     3.141 HEAT:  17.61876
 CYCLE:   394 TIME:   0.277 TIME LEFT:  2.00D  GRAD.:     1.324 HEAT:  17.61864
 CYCLE:   395 TIME:   0.234 TIME LEFT:  2.00D  GRAD.:     0.781 HEAT:  17.61859
 CYCLE:   396 TIME:   0.309 TIME LEFT:  2.00D  GRAD.:     2.162 HEAT:  17.61856
 CYCLE:   397 TIME:   0.301 TIME LEFT:  2.00D  GRAD.:     1.303 HEAT:  17.61851
 CYCLE:   398 TIME:   0.266 TIME LEFT:  2.00D  GRAD.:     0.674 HEAT:  17.61842
 CYCLE:   399 TIME:   0.293 TIME LEFT:  2.00D  GRAD.:     1.763 HEAT:  17.61833
 CYCLE:   400 TIME:   0.277 TIME LEFT:  2.00D  GRAD.:     1.994 HEAT:  17.61826
 CYCLE:   401 TIME:   0.277 TIME LEFT:  2.00D  GRAD.:     6.013 HEAT:  17.61833
 CYCLE:   402 TIME:   0.258 TIME LEFT:  2.00D  GRAD.:     1.205 HEAT:  17.61811
 CYCLE:   403 TIME:   0.266 TIME LEFT:  2.00D  GRAD.:     0.788 HEAT:  17.61808
 CYCLE:   404 TIME:   0.246 TIME LEFT:  2.00D  GRAD.:     1.026 HEAT:  17.61799
 CYCLE:   405 TIME:   0.238 TIME LEFT:  2.00D  GRAD.:     1.060 HEAT:  17.61793
 CYCLE:   406 TIME:   0.273 TIME LEFT:  2.00D  GRAD.:     2.094 HEAT:  17.61791
 CYCLE:   407 TIME:   0.242 TIME LEFT:  2.00D  GRAD.:    11.286 HEAT:  17.61845
 CYCLE:   408 TIME:   0.238 TIME LEFT:  2.00D  GRAD.:     1.094 HEAT:  17.61777
 CYCLE:   409 TIME:   0.258 TIME LEFT:  2.00D  GRAD.:     1.110 HEAT:  17.61774
 CYCLE:   410 TIME:   0.246 TIME LEFT:  2.00D  GRAD.:     1.036 HEAT:  17.61760
 CYCLE:   411 TIME:   0.262 TIME LEFT:  2.00D  GRAD.:     2.027 HEAT:  17.61748
 CYCLE:   412 TIME:   0.297 TIME LEFT:  2.00D  GRAD.:     1.126 HEAT:  17.61738
 CYCLE:   413 TIME:   0.344 TIME LEFT:  2.00D  GRAD.:     1.132 HEAT:  17.61731
 CYCLE:   414 TIME:   0.340 TIME LEFT:  2.00D  GRAD.:     1.935 HEAT:  17.61721
 CYCLE:   415 TIME:   0.344 TIME LEFT:  2.00D  GRAD.:     2.108 HEAT:  17.61710
 CYCLE:   416 TIME:   0.340 TIME LEFT:  2.00D  GRAD.:     1.087 HEAT:  17.61704
 CYCLE:   417 TIME:   0.340 TIME LEFT:  2.00D  GRAD.:     1.142 HEAT:  17.61700
 CYCLE:   418 TIME:   0.352 TIME LEFT:  2.00D  GRAD.:     1.071 HEAT:  17.61690
 CYCLE:   419 TIME:   0.301 TIME LEFT:  2.00D  GRAD.:     1.084 HEAT:  17.61680
 CYCLE:   420 TIME:   0.277 TIME LEFT:  2.00D  GRAD.:     1.561 HEAT:  17.61671
 CYCLE:   421 TIME:   0.273 TIME LEFT:  2.00D  GRAD.:     4.457 HEAT:  17.61671
 CYCLE:   422 TIME:   0.238 TIME LEFT:  2.00D  GRAD.:     0.804 HEAT:  17.61661
 CYCLE:   423 TIME:   0.250 TIME LEFT:  2.00D  GRAD.:     0.660 HEAT:  17.61659
 CYCLE:   424 TIME:   0.281 TIME LEFT:  2.00D  GRAD.:     0.979 HEAT:  17.61654
 CYCLE:   425 TIME:   0.254 TIME LEFT:  2.00D  GRAD.:     1.112 HEAT:  17.61647
 CYCLE:   426 TIME:   0.242 TIME LEFT:  2.00D  GRAD.:     0.772 HEAT:  17.61643
 CYCLE:   427 TIME:   0.258 TIME LEFT:  2.00D  GRAD.:     1.097 HEAT:  17.61637
 CYCLE:   428 TIME:   0.246 TIME LEFT:  2.00D  GRAD.:     0.914 HEAT:  17.61633
 CYCLE:   429 TIME:   0.258 TIME LEFT:  2.00D  GRAD.:     1.634 HEAT:  17.61626
 CYCLE:   430 TIME:   0.266 TIME LEFT:  2.00D  GRAD.:     2.076 HEAT:  17.61624
 CYCLE:   431 TIME:   0.281 TIME LEFT:  2.00D  GRAD.:     0.795 HEAT:  17.61620
 CYCLE:   432 TIME:   0.254 TIME LEFT:  2.00D  GRAD.:     0.660 HEAT:  17.61618
 CYCLE:   433 TIME:   0.266 TIME LEFT:  2.00D  GRAD.:     0.750 HEAT:  17.61616
 CYCLE:   434 TIME:   0.238 TIME LEFT:  2.00D  GRAD.:     0.809 HEAT:  17.61611
 CYCLE:   435 TIME:   0.258 TIME LEFT:  2.00D  GRAD.:     3.030 HEAT:  17.61609
 CYCLE:   436 TIME:   0.238 TIME LEFT:  2.00D  GRAD.:     0.826 HEAT:  17.61601
 CYCLE:   437 TIME:   0.270 TIME LEFT:  2.00D  GRAD.:     0.714 HEAT:  17.61598
 CYCLE:   438 TIME:   0.246 TIME LEFT:  2.00D  GRAD.:     1.201 HEAT:  17.61593
 CYCLE:   439 TIME:   0.242 TIME LEFT:  2.00D  GRAD.:     2.072 HEAT:  17.61588
 CYCLE:   440 TIME:   0.246 TIME LEFT:  2.00D  GRAD.:     0.987 HEAT:  17.61579
 CYCLE:   441 TIME:   0.266 TIME LEFT:  2.00D  GRAD.:     0.608 HEAT:  17.61572
 CYCLE:   442 TIME:   0.375 TIME LEFT:  2.00D  GRAD.:     0.742 HEAT:  17.61566
 CYCLE:   443 TIME:   0.246 TIME LEFT:  2.00D  GRAD.:     3.229 HEAT:  17.61566
 CYCLE:   444 TIME:   0.273 TIME LEFT:  2.00D  GRAD.:     1.379 HEAT:  17.61554
 CYCLE:   445 TIME:   0.309 TIME LEFT:  2.00D  GRAD.:     0.969 HEAT:  17.61550
 CYCLE:   446 TIME:   0.309 TIME LEFT:  2.00D  GRAD.:     0.807 HEAT:  17.61541
 CYCLE:   447 TIME:   0.277 TIME LEFT:  2.00D  GRAD.:     1.072 HEAT:  17.61528
 CYCLE:   448 TIME:   0.250 TIME LEFT:  2.00D  GRAD.:     1.477 HEAT:  17.61520
 CYCLE:   449 TIME:   0.246 TIME LEFT:  2.00D  GRAD.:     8.721 HEAT:  17.61564
 CYCLE:   450 TIME:   0.273 TIME LEFT:  2.00D  GRAD.:     0.902 HEAT:  17.61512
 CYCLE:   451 TIME:   0.246 TIME LEFT:  2.00D  GRAD.:     1.043 HEAT:  17.61510
 CYCLE:   452 TIME:   0.242 TIME LEFT:  2.00D  GRAD.:     1.194 HEAT:  17.61502
 CYCLE:   453 TIME:   0.230 TIME LEFT:  2.00D  GRAD.:     0.685 HEAT:  17.61496
 CYCLE:   454 TIME:   0.258 TIME LEFT:  2.00D  GRAD.:     1.613 HEAT:  17.61493
 CYCLE:   455 TIME:   0.238 TIME LEFT:  2.00D  GRAD.:     0.860 HEAT:  17.61488
 CYCLE:   456 TIME:   0.230 TIME LEFT:  2.00D  GRAD.:     0.811 HEAT:  17.61485
 CYCLE:   457 TIME:   0.254 TIME LEFT:  2.00D  GRAD.:     2.118 HEAT:  17.61476
 CYCLE:   458 TIME:   0.242 TIME LEFT:  2.00D  GRAD.:     1.110 HEAT:  17.61469
 CYCLE:   459 TIME:   0.238 TIME LEFT:  2.00D  GRAD.:     0.920 HEAT:  17.61462
 CYCLE:   460 TIME:   0.250 TIME LEFT:  2.00D  GRAD.:     0.757 HEAT:  17.61457
 CYCLE:   461 TIME:   0.270 TIME LEFT:  2.00D  GRAD.:     1.414 HEAT:  17.61451
 CYCLE:   462 TIME:   0.254 TIME LEFT:  2.00D  GRAD.:     0.864 HEAT:  17.61444
 CYCLE:   463 TIME:   0.254 TIME LEFT:  2.00D  GRAD.:     0.880 HEAT:  17.61435
 CYCLE:   464 TIME:   0.250 TIME LEFT:  2.00D  GRAD.:     1.507 HEAT:  17.61429
 CYCLE:   465 TIME:   0.273 TIME LEFT:  2.00D  GRAD.:     2.796 HEAT:  17.61427
 CYCLE:   466 TIME:   0.230 TIME LEFT:  2.00D  GRAD.:     0.982 HEAT:  17.61422
 CYCLE:   467 TIME:   0.277 TIME LEFT:  2.00D  GRAD.:     2.190 HEAT:  17.61421
 CYCLE:   468 TIME:   0.234 TIME LEFT:  2.00D  GRAD.:     1.307 HEAT:  17.61414
 CYCLE:   469 TIME:   0.258 TIME LEFT:  2.00D  GRAD.:     1.349 HEAT:  17.61407
 CYCLE:   470 TIME:   0.238 TIME LEFT:  2.00D  GRAD.:     1.153 HEAT:  17.61401
 CYCLE:   471 TIME:   0.270 TIME LEFT:  2.00D  GRAD.:     1.021 HEAT:  17.61395
 CYCLE:   472 TIME:   0.246 TIME LEFT:  2.00D  GRAD.:     1.916 HEAT:  17.61389
 CYCLE:   473 TIME:   0.250 TIME LEFT:  2.00D  GRAD.:     1.187 HEAT:  17.61381
 CYCLE:   474 TIME:   0.305 TIME LEFT:  2.00D  GRAD.:     0.866 HEAT:  17.61375
 CYCLE:   475 TIME:   0.262 TIME LEFT:  2.00D  GRAD.:     0.857 HEAT:  17.61369
 CYCLE:   476 TIME:   0.258 TIME LEFT:  2.00D  GRAD.:     0.861 HEAT:  17.61361
 CYCLE:   477 TIME:   0.262 TIME LEFT:  2.00D  GRAD.:     1.265 HEAT:  17.61347
 CYCLE:   478 TIME:   0.285 TIME LEFT:  2.00D  GRAD.:     1.826 HEAT:  17.61337
 CYCLE:   479 TIME:   0.258 TIME LEFT:  2.00D  GRAD.:     0.965 HEAT:  17.61327
 CYCLE:   480 TIME:   0.238 TIME LEFT:  2.00D  GRAD.:     0.901 HEAT:  17.61322
 CYCLE:   481 TIME:   0.262 TIME LEFT:  2.00D  GRAD.:     1.257 HEAT:  17.61316
 CYCLE:   482 TIME:   0.312 TIME LEFT:  2.00D  GRAD.:     1.096 HEAT:  17.61311
 CYCLE:   483 TIME:   0.250 TIME LEFT:  2.00D  GRAD.:     1.440 HEAT:  17.61299
 CYCLE:   484 TIME:   0.293 TIME LEFT:  2.00D  GRAD.:     1.588 HEAT:  17.61283
 CYCLE:   485 TIME:   0.301 TIME LEFT:  2.00D  GRAD.:     1.528 HEAT:  17.61263
 CYCLE:   486 TIME:   0.281 TIME LEFT:  2.00D  GRAD.:     1.511 HEAT:  17.61249
 CYCLE:   487 TIME:   0.254 TIME LEFT:  2.00D  GRAD.:     1.641 HEAT:  17.61235
 CYCLE:   488 TIME:   0.316 TIME LEFT:  2.00D  GRAD.:     3.028 HEAT:  17.61224
 CYCLE:   489 TIME:   0.270 TIME LEFT:  2.00D  GRAD.:     2.375 HEAT:  17.61206
 CYCLE:   490 TIME:   0.273 TIME LEFT:  2.00D  GRAD.:     3.786 HEAT:  17.61175
 CYCLE:   491 TIME:   0.277 TIME LEFT:  2.00D  GRAD.:     9.141 HEAT:  17.61223
 CYCLE:   492 TIME:   0.242 TIME LEFT:  2.00D  GRAD.:     5.158 HEAT:  17.61174
 CYCLE:   493 TIME:   0.250 TIME LEFT:  2.00D  GRAD.:     5.994 HEAT:  17.61194
 CYCLE:   494 TIME:   0.254 TIME LEFT:  2.00D  GRAD.:     4.856 HEAT:  17.61172
 CYCLE:   495 TIME:   0.266 TIME LEFT:  2.00D  GRAD.:     3.132 HEAT:  17.61147
 CYCLE:   496 TIME:   0.277 TIME LEFT:  2.00D  GRAD.:     0.800 HEAT:  17.61134
 CYCLE:   497 TIME:   0.289 TIME LEFT:  2.00D  GRAD.:     1.150 HEAT:  17.61133
 CYCLE:   498 TIME:   0.336 TIME LEFT:  2.00D  GRAD.:     1.008 HEAT:  17.61125
 CYCLE:   499 TIME:   0.328 TIME LEFT:  2.00D  GRAD.:    10.050 HEAT:  17.61159
 CYCLE:   500 TIME:   0.250 TIME LEFT:  2.00D  GRAD.:     1.744 HEAT:  17.61106
 CYCLE:   501 TIME:   0.234 TIME LEFT:  2.00D  GRAD.:     1.873 HEAT:  17.61104
 CYCLE:   502 TIME:   0.246 TIME LEFT:  2.00D  GRAD.:     1.187 HEAT:  17.61095
 CYCLE:   503 TIME:   0.262 TIME LEFT:  2.00D  GRAD.:     1.016 HEAT:  17.61080
 CYCLE:   504 TIME:   0.250 TIME LEFT:  2.00D  GRAD.:     2.665 HEAT:  17.61069
 CYCLE:   505 TIME:   0.246 TIME LEFT:  2.00D  GRAD.:     1.822 HEAT:  17.61055
 CYCLE:   506 TIME:   0.301 TIME LEFT:  2.00D  GRAD.:     1.125 HEAT:  17.61034
 CYCLE:   507 TIME:   0.258 TIME LEFT:  2.00D  GRAD.:     1.882 HEAT:  17.61011
 CYCLE:   508 TIME:   0.266 TIME LEFT:  2.00D  GRAD.:     1.701 HEAT:  17.60993
 CYCLE:   509 TIME:   0.270 TIME LEFT:  2.00D  GRAD.:     1.653 HEAT:  17.60964
 CYCLE:   510 TIME:   0.262 TIME LEFT:  2.00D  GRAD.:     1.558 HEAT:  17.60946
 CYCLE:   511 TIME:   0.270 TIME LEFT:  2.00D  GRAD.:     2.332 HEAT:  17.60927
 CYCLE:   512 TIME:   0.281 TIME LEFT:  2.00D  GRAD.:     1.384 HEAT:  17.60908
 CYCLE:   513 TIME:   0.273 TIME LEFT:  2.00D  GRAD.:     0.990 HEAT:  17.60890
 CYCLE:   514 TIME:   0.320 TIME LEFT:  2.00D  GRAD.:     1.473 HEAT:  17.60876
 CYCLE:   515 TIME:   0.328 TIME LEFT:  2.00D  GRAD.:     3.456 HEAT:  17.60862
 CYCLE:   516 TIME:   0.344 TIME LEFT:  2.00D  GRAD.:     1.893 HEAT:  17.60840
 CYCLE:   517 TIME:   0.336 TIME LEFT:  2.00D  GRAD.:     1.936 HEAT:  17.60828
 CYCLE:   518 TIME:   0.352 TIME LEFT:  2.00D  GRAD.:     1.725 HEAT:  17.60818
 CYCLE:   519 TIME:   0.312 TIME LEFT:  2.00D  GRAD.:     2.229 HEAT:  17.60803
 CYCLE:   520 TIME:   0.285 TIME LEFT:  2.00D  GRAD.:     1.427 HEAT:  17.60782
 CYCLE:   521 TIME:   0.312 TIME LEFT:  2.00D  GRAD.:     1.489 HEAT:  17.60763
 CYCLE:   522 TIME:   0.270 TIME LEFT:  2.00D  GRAD.:     1.918 HEAT:  17.60731
 CYCLE:   523 TIME:   0.262 TIME LEFT:  2.00D  GRAD.:     3.119 HEAT:  17.60701
 CYCLE:   524 TIME:   0.258 TIME LEFT:  2.00D  GRAD.:     2.449 HEAT:  17.60675
 CYCLE:   525 TIME:   0.258 TIME LEFT:  2.00D  GRAD.:     1.795 HEAT:  17.60655
 CYCLE:   526 TIME:   0.281 TIME LEFT:  2.00D  GRAD.:     1.200 HEAT:  17.60628
 CYCLE:   527 TIME:   0.258 TIME LEFT:  2.00D  GRAD.:     1.227 HEAT:  17.60604
 CYCLE:   528 TIME:   0.258 TIME LEFT:  2.00D  GRAD.:     2.149 HEAT:  17.60579
 CYCLE:   529 TIME:   0.258 TIME LEFT:  2.00D  GRAD.:     1.861 HEAT:  17.60552
 CYCLE:   530 TIME:   0.293 TIME LEFT:  2.00D  GRAD.:     9.912 HEAT:  17.60554
 CYCLE:   531 TIME:   0.262 TIME LEFT:  2.00D  GRAD.:     2.410 HEAT:  17.60485
 CYCLE:   532 TIME:   0.266 TIME LEFT:  2.00D  GRAD.:     3.852 HEAT:  17.60496
 CYCLE:   533 TIME:   0.270 TIME LEFT:  2.00D  GRAD.:     2.146 HEAT:  17.60468
 CYCLE:   534 TIME:   0.273 TIME LEFT:  2.00D  GRAD.:     3.525 HEAT:  17.60474
 CYCLE:   535 TIME:   0.270 TIME LEFT:  2.00D  GRAD.:     1.837 HEAT:  17.60448
 CYCLE:   536 TIME:   0.234 TIME LEFT:  2.00D  GRAD.:     1.933 HEAT:  17.60437
 CYCLE:   537 TIME:   0.250 TIME LEFT:  2.00D  GRAD.:     1.603 HEAT:  17.60420
 CYCLE:   538 TIME:   0.266 TIME LEFT:  2.00D  GRAD.:     8.865 HEAT:  17.60399
 CYCLE:   539 TIME:   0.262 TIME LEFT:  2.00D  GRAD.:     1.967 HEAT:  17.60343
 CYCLE:   540 TIME:   0.242 TIME LEFT:  2.00D  GRAD.:     1.176 HEAT:  17.60342
 CYCLE:   541 TIME:   0.262 TIME LEFT:  2.00D  GRAD.:     2.418 HEAT:  17.60336
 CYCLE:   542 TIME:   0.234 TIME LEFT:  2.00D  GRAD.:     1.630 HEAT:  17.60324
 CYCLE:   543 TIME:   0.254 TIME LEFT:  2.00D  GRAD.:     1.790 HEAT:  17.60300
 CYCLE:   544 TIME:   0.320 TIME LEFT:  2.00D  GRAD.:     2.286 HEAT:  17.60273
 CYCLE:   545 TIME:   0.309 TIME LEFT:  2.00D  GRAD.:     6.812 HEAT:  17.60252
 CYCLE:   546 TIME:   0.285 TIME LEFT:  2.00D  GRAD.:     2.183 HEAT:  17.60223
 CYCLE:   547 TIME:   0.324 TIME LEFT:  2.00D  GRAD.:     1.484 HEAT:  17.60222
 CYCLE:   548 TIME:   0.270 TIME LEFT:  2.00D  GRAD.:     2.963 HEAT:  17.60210
 CYCLE:   549 TIME:   0.250 TIME LEFT:  2.00D  GRAD.:     1.420 HEAT:  17.60184
 CYCLE:   550 TIME:   0.273 TIME LEFT:  2.00D  GRAD.:     1.246 HEAT:  17.60167
 CYCLE:   551 TIME:   0.297 TIME LEFT:  2.00D  GRAD.:     1.740 HEAT:  17.60144
 CYCLE:   552 TIME:   0.297 TIME LEFT:  2.00D  GRAD.:     4.878 HEAT:  17.60124
 CYCLE:   553 TIME:   0.367 TIME LEFT:  2.00D  GRAD.:     2.716 HEAT:  17.60091
 CYCLE:   554 TIME:   0.320 TIME LEFT:  2.00D  GRAD.:     1.822 HEAT:  17.60057
 CYCLE:   555 TIME:   0.301 TIME LEFT:  2.00D  GRAD.:     2.252 HEAT:  17.60034
 CYCLE:   556 TIME:   0.250 TIME LEFT:  2.00D  GRAD.:     2.278 HEAT:  17.60005
 CYCLE:   557 TIME:   0.262 TIME LEFT:  2.00D  GRAD.:     1.909 HEAT:  17.59969
 CYCLE:   558 TIME:   0.262 TIME LEFT:  2.00D  GRAD.:     1.700 HEAT:  17.59949
 CYCLE:   559 TIME:   0.270 TIME LEFT:  2.00D  GRAD.:     2.148 HEAT:  17.59933
 CYCLE:   560 TIME:   0.266 TIME LEFT:  2.00D  GRAD.:     2.124 HEAT:  17.59919
 CYCLE:   561 TIME:   0.254 TIME LEFT:  2.00D  GRAD.:     1.422 HEAT:  17.59908
 CYCLE:   562 TIME:   0.238 TIME LEFT:  2.00D  GRAD.:     2.121 HEAT:  17.59891
 CYCLE:   563 TIME:   0.262 TIME LEFT:  2.00D  GRAD.:     2.068 HEAT:  17.59875
 CYCLE:   564 TIME:   0.262 TIME LEFT:  2.00D  GRAD.:     1.664 HEAT:  17.59842
 CYCLE:   565 TIME:   0.258 TIME LEFT:  2.00D  GRAD.:     2.815 HEAT:  17.59827
 CYCLE:   566 TIME:   0.246 TIME LEFT:  2.00D  GRAD.:     2.006 HEAT:  17.59815
 CYCLE:   567 TIME:   0.246 TIME LEFT:  2.00D  GRAD.:     1.475 HEAT:  17.59809
 CYCLE:   568 TIME:   0.316 TIME LEFT:  2.00D  GRAD.:     1.727 HEAT:  17.59798
 CYCLE:   569 TIME:   0.297 TIME LEFT:  2.00D  GRAD.:     1.070 HEAT:  17.59788
 CYCLE:   570 TIME:   0.293 TIME LEFT:  2.00D  GRAD.:     1.022 HEAT:  17.59771
 CYCLE:   571 TIME:   0.254 TIME LEFT:  2.00D  GRAD.:     1.986 HEAT:  17.59753
 CYCLE:   572 TIME:   0.262 TIME LEFT:  2.00D  GRAD.:     1.477 HEAT:  17.59740
 CYCLE:   573 TIME:   0.250 TIME LEFT:  2.00D  GRAD.:     0.943 HEAT:  17.59732
 CYCLE:   574 TIME:   0.266 TIME LEFT:  2.00D  GRAD.:     1.069 HEAT:  17.59722
 CYCLE:   575 TIME:   0.262 TIME LEFT:  2.00D  GRAD.:     2.196 HEAT:  17.59710
 CYCLE:   576 TIME:   0.254 TIME LEFT:  2.00D  GRAD.:     2.673 HEAT:  17.59692
 CYCLE:   577 TIME:   0.242 TIME LEFT:  2.00D  GRAD.:     1.959 HEAT:  17.59673
 CYCLE:   578 TIME:   0.258 TIME LEFT:  2.00D  GRAD.:     1.066 HEAT:  17.59647
 CYCLE:   579 TIME:   0.250 TIME LEFT:  2.00D  GRAD.:     1.359 HEAT:  17.59636
 CYCLE:   580 TIME:   0.254 TIME LEFT:  2.00D  GRAD.:     2.865 HEAT:  17.59614
 CYCLE:   581 TIME:   0.285 TIME LEFT:  2.00D  GRAD.:     2.076 HEAT:  17.59599
 CYCLE:   582 TIME:   0.246 TIME LEFT:  2.00D  GRAD.:     1.810 HEAT:  17.59589
 CYCLE:   583 TIME:   0.277 TIME LEFT:  2.00D  GRAD.:     1.754 HEAT:  17.59574
 CYCLE:   584 TIME:   0.238 TIME LEFT:  2.00D  GRAD.:     1.261 HEAT:  17.59554
 CYCLE:   585 TIME:   0.270 TIME LEFT:  2.00D  GRAD.:     1.897 HEAT:  17.59518
 CYCLE:   586 TIME:   0.254 TIME LEFT:  2.00D  GRAD.:     4.824 HEAT:  17.59510
 CYCLE:   587 TIME:   0.227 TIME LEFT:  2.00D  GRAD.:     1.854 HEAT:  17.59487
 CYCLE:   588 TIME:   0.270 TIME LEFT:  2.00D  GRAD.:     1.384 HEAT:  17.59479
 CYCLE:   589 TIME:   0.262 TIME LEFT:  2.00D  GRAD.:     1.105 HEAT:  17.59468
 CYCLE:   590 TIME:   0.262 TIME LEFT:  2.00D  GRAD.:     1.947 HEAT:  17.59441
 CYCLE:   591 TIME:   0.266 TIME LEFT:  2.00D  GRAD.:     8.022 HEAT:  17.59457
 CYCLE:   592 TIME:   0.262 TIME LEFT:  2.00D  GRAD.:     2.666 HEAT:  17.59421
 CYCLE:   593 TIME:   0.254 TIME LEFT:  2.00D  GRAD.:     1.403 HEAT:  17.59399
 CYCLE:   594 TIME:   0.242 TIME LEFT:  2.00D  GRAD.:     1.980 HEAT:  17.59378
 CYCLE:   595 TIME:   0.270 TIME LEFT:  2.00D  GRAD.:     3.528 HEAT:  17.59366
 CYCLE:   596 TIME:   0.238 TIME LEFT:  2.00D  GRAD.:     1.543 HEAT:  17.59356
 CYCLE:   597 TIME:   0.234 TIME LEFT:  2.00D  GRAD.:     1.334 HEAT:  17.59351
 CYCLE:   598 TIME:   0.230 TIME LEFT:  2.00D  GRAD.:     1.093 HEAT:  17.59338
 CYCLE:   599 TIME:   0.262 TIME LEFT:  2.00D  GRAD.:     1.443 HEAT:  17.59312
 CYCLE:   600 TIME:   0.270 TIME LEFT:  2.00D  GRAD.:     2.765 HEAT:  17.59295
 CYCLE:   601 TIME:   0.242 TIME LEFT:  2.00D  GRAD.:     2.023 HEAT:  17.59273
 CYCLE:   602 TIME:   0.242 TIME LEFT:  2.00D  GRAD.:     1.686 HEAT:  17.59257
 CYCLE:   603 TIME:   0.258 TIME LEFT:  2.00D  GRAD.:     1.588 HEAT:  17.59225
 CYCLE:   604 TIME:   0.254 TIME LEFT:  2.00D  GRAD.:     1.519 HEAT:  17.59197
 CYCLE:   605 TIME:   0.250 TIME LEFT:  2.00D  GRAD.:     3.467 HEAT:  17.59163
 CYCLE:   606 TIME:   0.242 TIME LEFT:  2.00D  GRAD.:     1.483 HEAT:  17.59131
 CYCLE:   607 TIME:   0.262 TIME LEFT:  2.00D  GRAD.:     1.255 HEAT:  17.59105
 CYCLE:   608 TIME:   0.258 TIME LEFT:  2.00D  GRAD.:     3.094 HEAT:  17.59086
 CYCLE:   609 TIME:   0.234 TIME LEFT:  2.00D  GRAD.:     1.982 HEAT:  17.59070
 CYCLE:   610 TIME:   0.309 TIME LEFT:  2.00D  GRAD.:     1.604 HEAT:  17.59053
 CYCLE:   611 TIME:   0.355 TIME LEFT:  2.00D  GRAD.:     1.945 HEAT:  17.59036
 CYCLE:   612 TIME:   0.262 TIME LEFT:  2.00D  GRAD.:     8.429 HEAT:  17.59062
 CYCLE:   613 TIME:   0.242 TIME LEFT:  2.00D  GRAD.:     1.344 HEAT:  17.59023
 CYCLE:   614 TIME:   0.312 TIME LEFT:  2.00D  GRAD.:     1.396 HEAT:  17.59021
 CYCLE:   615 TIME:   0.285 TIME LEFT:  2.00D  GRAD.:     1.019 HEAT:  17.59005
 CYCLE:   616 TIME:   0.270 TIME LEFT:  2.00D  GRAD.:     1.177 HEAT:  17.58965
 CYCLE:   617 TIME:   0.254 TIME LEFT:  2.00D  GRAD.:     2.974 HEAT:  17.58950
 CYCLE:   618 TIME:   0.234 TIME LEFT:  2.00D  GRAD.:     1.552 HEAT:  17.58927
 CYCLE:   619 TIME:   0.258 TIME LEFT:  2.00D  GRAD.:     1.041 HEAT:  17.58915
 CYCLE:   620 TIME:   0.262 TIME LEFT:  2.00D  GRAD.:     1.324 HEAT:  17.58899
 CYCLE:   621 TIME:   0.277 TIME LEFT:  2.00D  GRAD.:     2.048 HEAT:  17.58881
 CYCLE:   622 TIME:   0.266 TIME LEFT:  2.00D  GRAD.:     2.877 HEAT:  17.58865
 CYCLE:   623 TIME:   0.270 TIME LEFT:  2.00D  GRAD.:     3.656 HEAT:  17.58851
 CYCLE:   624 TIME:   0.238 TIME LEFT:  2.00D  GRAD.:     1.333 HEAT:  17.58825
 CYCLE:   625 TIME:   0.277 TIME LEFT:  2.00D  GRAD.:     2.538 HEAT:  17.58827
 CYCLE:   626 TIME:   0.258 TIME LEFT:  2.00D  GRAD.:     4.960 HEAT:  17.58826
 CYCLE:   627 TIME:   0.242 TIME LEFT:  2.00D  GRAD.:     1.000 HEAT:  17.58807
 CYCLE:   628 TIME:   0.281 TIME LEFT:  2.00D  GRAD.:     1.108 HEAT:  17.58803
 CYCLE:   629 TIME:   0.254 TIME LEFT:  2.00D  GRAD.:     1.214 HEAT:  17.58792
 CYCLE:   630 TIME:   0.285 TIME LEFT:  2.00D  GRAD.:     2.416 HEAT:  17.58774
 CYCLE:   631 TIME:   0.285 TIME LEFT:  2.00D  GRAD.:     1.460 HEAT:  17.58756
 CYCLE:   632 TIME:   0.285 TIME LEFT:  2.00D  GRAD.:     1.449 HEAT:  17.58737
 CYCLE:   633 TIME:   0.309 TIME LEFT:  2.00D  GRAD.:     1.834 HEAT:  17.58723
 CYCLE:   634 TIME:   0.328 TIME LEFT:  2.00D  GRAD.:     1.970 HEAT:  17.58699
 CYCLE:   635 TIME:   0.305 TIME LEFT:  2.00D  GRAD.:     5.044 HEAT:  17.58685
 CYCLE:   636 TIME:   0.246 TIME LEFT:  2.00D  GRAD.:     2.202 HEAT:  17.58659
 CYCLE:   637 TIME:   0.254 TIME LEFT:  2.00D  GRAD.:     1.801 HEAT:  17.58646
 CYCLE:   638 TIME:   0.312 TIME LEFT:  2.00D  GRAD.:     3.050 HEAT:  17.58637
 CYCLE:   639 TIME:   0.234 TIME LEFT:  2.00D  GRAD.:     1.523 HEAT:  17.58616
 CYCLE:   640 TIME:   0.250 TIME LEFT:  2.00D  GRAD.:     1.805 HEAT:  17.58596
 CYCLE:   641 TIME:   0.254 TIME LEFT:  2.00D  GRAD.:     2.906 HEAT:  17.58576
 CYCLE:   642 TIME:   0.234 TIME LEFT:  2.00D  GRAD.:     2.740 HEAT:  17.58568
 CYCLE:   643 TIME:   0.227 TIME LEFT:  2.00D  GRAD.:     1.233 HEAT:  17.58561
 CYCLE:   644 TIME:   0.281 TIME LEFT:  2.00D  GRAD.:     1.687 HEAT:  17.58560
 CYCLE:   645 TIME:   0.270 TIME LEFT:  2.00D  GRAD.:     1.118 HEAT:  17.58553
 CYCLE:   646 TIME:   0.281 TIME LEFT:  2.00D  GRAD.:     1.227 HEAT:  17.58535
 CYCLE:   647 TIME:   0.262 TIME LEFT:  2.00D  GRAD.:     1.696 HEAT:  17.58522
 CYCLE:   648 TIME:   0.258 TIME LEFT:  2.00D  GRAD.:     2.177 HEAT:  17.58514
 CYCLE:   649 TIME:   0.258 TIME LEFT:  2.00D  GRAD.:     1.122 HEAT:  17.58500
 CYCLE:   650 TIME:   0.250 TIME LEFT:  2.00D  GRAD.:     1.192 HEAT:  17.58490
 CYCLE:   651 TIME:   0.258 TIME LEFT:  2.00D  GRAD.:     1.247 HEAT:  17.58478
 CYCLE:   652 TIME:   0.262 TIME LEFT:  2.00D  GRAD.:     1.496 HEAT:  17.58456
 CYCLE:   653 TIME:   0.281 TIME LEFT:  2.00D  GRAD.:     2.285 HEAT:  17.58442
 CYCLE:   654 TIME:   0.242 TIME LEFT:  2.00D  GRAD.:     1.022 HEAT:  17.58429
 CYCLE:   655 TIME:   0.281 TIME LEFT:  2.00D  GRAD.:     0.987 HEAT:  17.58421
 CYCLE:   656 TIME:   0.242 TIME LEFT:  2.00D  GRAD.:     4.838 HEAT:  17.58411
 CYCLE:   657 TIME:   0.230 TIME LEFT:  2.00D  GRAD.:     1.954 HEAT:  17.58398
 CYCLE:   658 TIME:   0.266 TIME LEFT:  2.00D  GRAD.:     1.027 HEAT:  17.58389
 CYCLE:   659 TIME:   0.281 TIME LEFT:  2.00D  GRAD.:     1.248 HEAT:  17.58383
 CYCLE:   660 TIME:   0.270 TIME LEFT:  2.00D  GRAD.:     1.166 HEAT:  17.58378
 CYCLE:   661 TIME:   0.277 TIME LEFT:  2.00D  GRAD.:     6.597 HEAT:  17.58383
 CYCLE:   662 TIME:   0.254 TIME LEFT:  2.00D  GRAD.:     1.311 HEAT:  17.58357
 CYCLE:   663 TIME:   0.297 TIME LEFT:  2.00D  GRAD.:     0.860 HEAT:  17.58353
 CYCLE:   664 TIME:   0.246 TIME LEFT:  2.00D  GRAD.:     0.834 HEAT:  17.58346
 CYCLE:   665 TIME:   0.305 TIME LEFT:  2.00D  GRAD.:     1.151 HEAT:  17.58337
 CYCLE:   666 TIME:   0.348 TIME LEFT:  2.00D  GRAD.:     1.609 HEAT:  17.58333
 CYCLE:   667 TIME:   0.309 TIME LEFT:  2.00D  GRAD.:     0.795 HEAT:  17.58324
 CYCLE:   668 TIME:   0.262 TIME LEFT:  2.00D  GRAD.:     0.665 HEAT:  17.58316
 CYCLE:   669 TIME:   0.309 TIME LEFT:  2.00D  GRAD.:     0.864 HEAT:  17.58304
 CYCLE:   670 TIME:   0.359 TIME LEFT:  2.00D  GRAD.:     1.596 HEAT:  17.58287
 CYCLE:   671 TIME:   0.305 TIME LEFT:  2.00D  GRAD.:     7.474 HEAT:  17.58309
 CYCLE:   672 TIME:   0.250 TIME LEFT:  2.00D  GRAD.:     1.305 HEAT:  17.58276
 CYCLE:   673 TIME:   0.273 TIME LEFT:  2.00D  GRAD.:     3.878 HEAT:  17.58289
 CYCLE:   674 TIME:   0.262 TIME LEFT:  2.00D  GRAD.:     0.937 HEAT:  17.58269
 CYCLE:   675 TIME:   0.285 TIME LEFT:  2.00D  GRAD.:     1.635 HEAT:  17.58262
 CYCLE:   676 TIME:   0.266 TIME LEFT:  2.00D  GRAD.:     1.288 HEAT:  17.58255
 CYCLE:   677 TIME:   0.348 TIME LEFT:  2.00D  GRAD.:     0.675 HEAT:  17.58237
 CYCLE:   678 TIME:   0.266 TIME LEFT:  2.00D  GRAD.:     2.186 HEAT:  17.58226
 CYCLE:   679 TIME:   0.277 TIME LEFT:  2.00D  GRAD.:     2.727 HEAT:  17.58218
 CYCLE:   680 TIME:   0.301 TIME LEFT:  2.00D  GRAD.:     1.543 HEAT:  17.58209
 CYCLE:   681 TIME:   0.281 TIME LEFT:  2.00D  GRAD.:     0.929 HEAT:  17.58202
 CYCLE:   682 TIME:   0.328 TIME LEFT:  2.00D  GRAD.:     1.290 HEAT:  17.58194
 CYCLE:   683 TIME:   0.363 TIME LEFT:  2.00D  GRAD.:     1.544 HEAT:  17.58187
 CYCLE:   684 TIME:   0.332 TIME LEFT:  2.00D  GRAD.:     2.507 HEAT:  17.58178
 CYCLE:   685 TIME:   0.270 TIME LEFT:  2.00D  GRAD.:     1.637 HEAT:  17.58162
 CYCLE:   686 TIME:   0.328 TIME LEFT:  2.00D  GRAD.:     1.003 HEAT:  17.58157
 CYCLE:   687 TIME:   0.289 TIME LEFT:  2.00D  GRAD.:     1.247 HEAT:  17.58151
 CYCLE:   688 TIME:   0.305 TIME LEFT:  2.00D  GRAD.:     1.709 HEAT:  17.58141
 CYCLE:   689 TIME:   0.312 TIME LEFT:  2.00D  GRAD.:     2.204 HEAT:  17.58128
 CYCLE:   690 TIME:   0.305 TIME LEFT:  2.00D  GRAD.:     1.311 HEAT:  17.58119
 CYCLE:   691 TIME:   0.289 TIME LEFT:  2.00D  GRAD.:     0.933 HEAT:  17.58112
 CYCLE:   692 TIME:   0.273 TIME LEFT:  2.00D  GRAD.:     1.583 HEAT:  17.58105
 CYCLE:   693 TIME:   0.273 TIME LEFT:  2.00D  GRAD.:     1.521 HEAT:  17.58095
 CYCLE:   694 TIME:   0.293 TIME LEFT:  2.00D  GRAD.:     9.057 HEAT:  17.58122
 CYCLE:   695 TIME:   0.258 TIME LEFT:  2.00D  GRAD.:     3.836 HEAT:  17.58088
 CYCLE:   696 TIME:   0.238 TIME LEFT:  2.00D  GRAD.:     0.812 HEAT:  17.58073
 CYCLE:   697 TIME:   0.250 TIME LEFT:  2.00D  GRAD.:     0.824 HEAT:  17.58071
 CYCLE:   698 TIME:   0.242 TIME LEFT:  2.00D  GRAD.:     1.158 HEAT:  17.58061
 CYCLE:   699 TIME:   0.273 TIME LEFT:  2.00D  GRAD.:     0.823 HEAT:  17.58051
 CYCLE:   700 TIME:   0.273 TIME LEFT:  2.00D  GRAD.:     1.392 HEAT:  17.58043
 CYCLE:   701 TIME:   0.281 TIME LEFT:  2.00D  GRAD.:     1.397 HEAT:  17.58030
 CYCLE:   702 TIME:   0.258 TIME LEFT:  2.00D  GRAD.:     1.814 HEAT:  17.58023
 CYCLE:   703 TIME:   0.254 TIME LEFT:  2.00D  GRAD.:     1.904 HEAT:  17.58016
 CYCLE:   704 TIME:   0.250 TIME LEFT:  2.00D  GRAD.:     1.148 HEAT:  17.58008
 CYCLE:   705 TIME:   0.266 TIME LEFT:  2.00D  GRAD.:     1.717 HEAT:  17.58005
 CYCLE:   706 TIME:   0.246 TIME LEFT:  2.00D  GRAD.:     0.904 HEAT:  17.57996
 CYCLE:   707 TIME:   0.324 TIME LEFT:  2.00D  GRAD.:     0.812 HEAT:  17.57985
 CYCLE:   708 TIME:   0.312 TIME LEFT:  2.00D  GRAD.:     1.108 HEAT:  17.57975
 CYCLE:   709 TIME:   0.254 TIME LEFT:  2.00D  GRAD.:     3.071 HEAT:  17.57969
 CYCLE:   710 TIME:   0.238 TIME LEFT:  2.00D  GRAD.:     1.189 HEAT:  17.57959
 CYCLE:   711 TIME:   0.266 TIME LEFT:  2.00D  GRAD.:     1.522 HEAT:  17.57954
 CYCLE:   712 TIME:   0.254 TIME LEFT:  2.00D  GRAD.:     0.968 HEAT:  17.57946
 CYCLE:   713 TIME:   0.273 TIME LEFT:  2.00D  GRAD.:     0.944 HEAT:  17.57932
 CYCLE:   714 TIME:   0.297 TIME LEFT:  2.00D  GRAD.:     1.224 HEAT:  17.57918
 CYCLE:   715 TIME:   0.262 TIME LEFT:  2.00D  GRAD.:     6.394 HEAT:  17.57942
 CYCLE:   716 TIME:   0.273 TIME LEFT:  2.00D  GRAD.:     1.023 HEAT:  17.57907
 CYCLE:   717 TIME:   0.234 TIME LEFT:  2.00D  GRAD.:     0.752 HEAT:  17.57906
 CYCLE:   718 TIME:   0.270 TIME LEFT:  2.00D  GRAD.:     1.058 HEAT:  17.57899
 CYCLE:   719 TIME:   0.254 TIME LEFT:  2.00D  GRAD.:     0.946 HEAT:  17.57894
 CYCLE:   720 TIME:   0.363 TIME LEFT:  2.00D  GRAD.:     2.858 HEAT:  17.57887
 CYCLE:   721 TIME:   0.238 TIME LEFT:  2.00D  GRAD.:     1.210 HEAT:  17.57875
 CYCLE:   722 TIME:   0.270 TIME LEFT:  2.00D  GRAD.:     0.886 HEAT:  17.57871
 CYCLE:   723 TIME:   0.254 TIME LEFT:  2.00D  GRAD.:     1.721 HEAT:  17.57864
 CYCLE:   724 TIME:   0.254 TIME LEFT:  2.00D  GRAD.:     1.764 HEAT:  17.57860
 CYCLE:   725 TIME:   0.266 TIME LEFT:  2.00D  GRAD.:     1.092 HEAT:  17.57854
 CYCLE:   726 TIME:   0.273 TIME LEFT:  2.00D  GRAD.:     1.103 HEAT:  17.57847
 CYCLE:   727 TIME:   0.309 TIME LEFT:  2.00D  GRAD.:     1.167 HEAT:  17.57842
 CYCLE:   728 TIME:   0.293 TIME LEFT:  2.00D  GRAD.:     1.035 HEAT:  17.57833
 CYCLE:   729 TIME:   0.250 TIME LEFT:  2.00D  GRAD.:     1.113 HEAT:  17.57817
 CYCLE:   730 TIME:   0.273 TIME LEFT:  2.00D  GRAD.:     2.593 HEAT:  17.57810
 CYCLE:   731 TIME:   0.254 TIME LEFT:  2.00D  GRAD.:     1.383 HEAT:  17.57800
 CYCLE:   732 TIME:   0.258 TIME LEFT:  2.00D  GRAD.:     0.692 HEAT:  17.57796
 CYCLE:   733 TIME:   0.277 TIME LEFT:  2.00D  GRAD.:     0.739 HEAT:  17.57792
 CYCLE:   734 TIME:   0.273 TIME LEFT:  2.00D  GRAD.:     1.077 HEAT:  17.57784
 CYCLE:   735 TIME:   0.293 TIME LEFT:  2.00D  GRAD.:     1.631 HEAT:  17.57779
 CYCLE:   736 TIME:   0.246 TIME LEFT:  2.00D  GRAD.:     0.633 HEAT:  17.57775
 CYCLE:   737 TIME:   0.246 TIME LEFT:  2.00D  GRAD.:     0.612 HEAT:  17.57773
 CYCLE:   738 TIME:   0.262 TIME LEFT:  2.00D  GRAD.:     1.900 HEAT:  17.57770
 CYCLE:   739 TIME:   0.234 TIME LEFT:  2.00D  GRAD.:     1.054 HEAT:  17.57766
 CYCLE:   740 TIME:   0.242 TIME LEFT:  2.00D  GRAD.:     0.707 HEAT:  17.57757
 CYCLE:   741 TIME:   0.246 TIME LEFT:  2.00D  GRAD.:     2.494 HEAT:  17.57750
 CYCLE:   742 TIME:   0.230 TIME LEFT:  2.00D  GRAD.:     1.339 HEAT:  17.57745
 CYCLE:   743 TIME:   0.246 TIME LEFT:  2.00D  GRAD.:     0.825 HEAT:  17.57738
 CYCLE:   744 TIME:   0.254 TIME LEFT:  2.00D  GRAD.:     0.894 HEAT:  17.57736
 CYCLE:   745 TIME:   0.246 TIME LEFT:  2.00D  GRAD.:     1.417 HEAT:  17.57733
 CYCLE:   746 TIME:   0.242 TIME LEFT:  2.00D  GRAD.:     2.559 HEAT:  17.57732
 CYCLE:   747 TIME:   0.223 TIME LEFT:  2.00D  GRAD.:     0.944 HEAT:  17.57727
 CYCLE:   748 TIME:   0.285 TIME LEFT:  2.00D  GRAD.:     0.659 HEAT:  17.57725
 CYCLE:   749 TIME:   0.238 TIME LEFT:  2.00D  GRAD.:     0.869 HEAT:  17.57723
 CYCLE:   750 TIME:   0.238 TIME LEFT:  2.00D  GRAD.:     1.172 HEAT:  17.57719
 CYCLE:   751 TIME:   0.242 TIME LEFT:  2.00D  GRAD.:     1.099 HEAT:  17.57713
 CYCLE:   752 TIME:   0.277 TIME LEFT:  2.00D  GRAD.:     2.516 HEAT:  17.57714
 CYCLE:   753 TIME:   0.250 TIME LEFT:  2.00D  GRAD.:     0.897 HEAT:  17.57704
 CYCLE:   754 TIME:   0.246 TIME LEFT:  2.00D  GRAD.:     0.484 HEAT:  17.57701
 CYCLE:   755 TIME:   0.238 TIME LEFT:  2.00D  GRAD.:     0.603 HEAT:  17.57698
 CYCLE:   756 TIME:   0.250 TIME LEFT:  2.00D  GRAD.:     0.941 HEAT:  17.57696
 CYCLE:   757 TIME:   0.238 TIME LEFT:  2.00D  GRAD.:     1.401 HEAT:  17.57693
 CYCLE:   758 TIME:   0.234 TIME LEFT:  2.00D  GRAD.:     0.871 HEAT:  17.57689
 CYCLE:   759 TIME:   0.242 TIME LEFT:  2.00D  GRAD.:     0.553 HEAT:  17.57685
 CYCLE:   760 TIME:   0.254 TIME LEFT:  2.00D  GRAD.:     0.709 HEAT:  17.57683
 CYCLE:   761 TIME:   0.242 TIME LEFT:  2.00D  GRAD.:     2.050 HEAT:  17.57680
 CYCLE:   762 TIME:   0.230 TIME LEFT:  2.00D  GRAD.:     0.876 HEAT:  17.57676
 CYCLE:   763 TIME:   0.234 TIME LEFT:  2.00D  GRAD.:     0.501 HEAT:  17.57674
 CYCLE:   764 TIME:   0.262 TIME LEFT:  2.00D  GRAD.:     0.819 HEAT:  17.57672
 CYCLE:   765 TIME:   0.254 TIME LEFT:  2.00D  GRAD.:     0.574 HEAT:  17.57669
 CYCLE:   766 TIME:   0.242 TIME LEFT:  2.00D  GRAD.:     0.895 HEAT:  17.57663
 CYCLE:   767 TIME:   0.234 TIME LEFT:  2.00D  GRAD.:     0.922 HEAT:  17.57659
 CYCLE:   768 TIME:   0.230 TIME LEFT:  2.00D  GRAD.:     0.773 HEAT:  17.57656
 CYCLE:   769 TIME:   0.234 TIME LEFT:  2.00D  GRAD.:     0.794 HEAT:  17.57652
 CYCLE:   770 TIME:   0.238 TIME LEFT:  2.00D  GRAD.:     1.283 HEAT:  17.57649
 CYCLE:   771 TIME:   0.230 TIME LEFT:  2.00D  GRAD.:     0.587 HEAT:  17.57647
 CYCLE:   772 TIME:   0.238 TIME LEFT:  2.00D  GRAD.:     0.478 HEAT:  17.57646
[...]
   70          H           0.082174        0.9178     0.91783
   71          H           0.074605        0.9254     0.92539
   72          H           0.119795        0.8802     0.88021
   73          H           0.112186        0.8878     0.88781
   74          H           0.114332        0.8857     0.88567
   75          H           0.124806        0.8752     0.87519
   76          H           0.115767        0.8842     0.88423
   77          H           0.115964        0.8840     0.88404
   78          H           0.149828        0.8502     0.85017
   79          H           0.152140        0.8479     0.84786
   
   81          H           0.110809        0.8892     0.88919
   82          H           0.125603        0.8744     0.87440
   83          H           0.129627        0.8704     0.87037
   84          H           0.126738        0.8733     0.87326
   85          H           0.112073        0.8879     0.88793
   86          H           0.109328        0.8907     0.89067
   87          H           0.129889        0.8701     0.87011
   88          H           0.087874        0.9121     0.91213
   89          H           0.074906        0.9251     0.92509
   90          H           0.104621        0.8954     0.89538
   91          H           0.064862        0.9351     0.93514
   92          H           0.059733        0.9403     0.94027
   93          H           0.066862        0.9331     0.93314
   94          H           0.067089        0.9329     0.93291
   95          H           0.060339        0.9397     0.93966
   96          H           0.058741        0.9413     0.94126
   97          H           0.058553        0.9414     0.94145
   98          H           0.056161        0.9438     0.94384
   99          H           0.057831        0.9422     0.94217
  100          H           0.063306        0.9367     0.93669
  101          H           0.062309        0.9377     0.93769
  102          H           0.062103        0.9379     0.93790
  103          H           0.060825        0.9392     0.93918
  104          H           0.056455        0.9435     0.94354
  105          H           0.064733        0.9353     0.93527
  106          H           0.068433        0.9316     0.93157
  107          H           0.063464        0.9365     0.93654
  108          H           0.059237        0.9408     0.94076
  109          H           0.059615        0.9404     0.94038
 DIPOLE           X         Y         Z       TOTAL
 POINT-CHG.    -1.464    -3.817     5.421     6.790
 HYBRID        -0.059    -0.576    -0.568     0.811
 SUM           -1.523    -4.393     4.853     6.721


          ATOMIC ORBITAL ELECTRON POPULATIONS

     Atom    s        px        py        pz   
    1  C   1.15569   0.96224   1.02970   1.03021
    2  C   1.16735   0.95561   0.96476   1.02595
    3  C   1.17076   0.94404   0.97303   1.03463
    4  C   1.17361   0.96816   0.95632   1.02857
    5  C   1.19163   0.93070   0.96602   1.00909
    6  C   1.16296   0.93141   0.83053   1.01888
    7  N   1.50361   1.50187   1.19230   1.08710
    8  C   1.15206   0.94895   0.87232   0.90841
    9  C   1.17062   1.05134   1.00845   0.93548
   10  C   1.17709   0.95994   0.92649   0.98868
   11  C   1.15892   1.01787   0.94755   0.93789
   12  C   1.16916   0.96211   0.96675   0.93983
   13  C   1.15788   1.04729   0.95562   0.92720
   14  C   1.15880   1.05745   0.95473   0.94120
   15  C   1.15238   0.94959   0.91053   0.84141
   16  C   1.17157   1.07284   1.01621   0.92813
   17  C   1.17479   0.94485   0.92009   0.97148
   18  C   1.15015   1.08161   0.96503   0.91767
   19  C   1.16850   0.94469   0.97439   0.90722
   20  C   1.18487   0.95990   0.90189   0.83216
   21  C   1.18685   1.12423   0.95234   0.97082
   22  C   1.18823   0.96248   0.96241   0.94082
   23  C   1.18296   1.15458   0.88132   0.87699
   24  O   1.85969   1.74603   1.34879   1.15785
   25  C   1.16943   0.83802   0.99208   0.88213
   26  C   1.13963   1.15998   0.90904   0.93201
   27  C   1.18022   0.75779   0.77990   0.88156
   28  O   1.90976   1.45638   1.64475   1.34041
   29  O   1.83998   1.66902   1.43742   1.38611
   30  C   1.19663   0.92130   0.91418   0.92329
   31  N   1.84828   1.10134   1.11241   1.08217
   32  C   1.16123   0.97311   0.98649   0.96750
   33  C   1.17758   0.93373   0.93718   0.97806
   34  C   1.17187   1.03130   1.01620   0.97136
   35  C   1.15110   0.91015   0.87144   0.90651
   36  C   1.15813   0.98679   1.02014   0.96365
   37  C   1.17174   0.96984   0.92235   0.92636
   38  C   1.16700   0.90631   0.94018   0.93757
   39  N   1.75570   1.21282   1.20185   1.02454
   40  C   1.16389   0.96661   0.94230   0.94104
   41  C   1.17769   0.96976   0.97985   0.92413
   42  C   1.17993   0.98740   0.96816   0.98764
   43  C   1.17989   0.94615   0.97547   0.98135
   44  C   1.17852   0.99528   0.98801   0.93377
   45  C   1.16385   0.89949   0.94535   0.92591
   46  N   1.76753   1.24265   1.22428   1.04046
   47  C   1.16297   0.87865   0.91375   0.87316
   48  N   1.50564   1.27679   1.31088   1.20147
   49  C   1.16361   0.85130   0.89458   1.02158
   50  C   1.19140   0.98524   0.93743   0.98623
   51  C   1.17330   0.96762   0.95616   1.02698
   52  C   1.17073   0.98095   0.94027   1.03016
   53  C   1.16737   0.97566   0.94875   1.02197
   54  C   1.15571   1.02594   0.96964   1.02594
   55  C   1.16904   0.97080   1.01408   0.96180
   56  C   1.15659   0.97759   1.01354   1.02999
   57  C   1.16892   1.00261   0.97694   0.96728
   58  C   1.15662   0.99512   0.99758   1.02939
   59  H   0.85664
   60  H   0.94125
   61  H   0.94243
   62  H   0.94103
   63  H   0.93989
   64  H   0.94066
   65  H   0.93484
   66  H   0.93027
   67  H   0.93584
   68  H   0.93995
   69  H   0.91014
   70  H   0.91783
   71  H   0.92539
   72  H   0.88021
   73  H   0.88781
   74  H   0.88567
   75  H   0.87519
   76  H   0.88423
   77  H   0.88404
   78  H   0.85017
   79  H   0.84786
   80  H   0.75450
   81  H   0.88919
   82  H   0.87440
   83  H   0.87037
   84  H   0.87326
   85  H   0.88793
   86  H   0.89067
   87  H   0.87011
   88  H   0.91213
   89  H   0.92509
   90  H   0.89538
   91  H   0.93514
   92  H   0.94027
   93  H   0.93314
   94  H   0.93291
   95  H   0.93966
   96  H   0.94126
   97  H   0.94145
   98  H   0.94384
   99  H   0.94217
  100  H   0.93669
  101  H   0.93769
  102  H   0.93790
  103  H   0.93918
  104  H   0.94354
  105  H   0.93527
  106  H   0.93157
  107  H   0.93654
  108  H   0.94076
  109  H   0.94038
 ******************** TDHF POLARIZABILITIES ********************



          MOLECULAR WEIGHT =  769.98



          ROTATIONAL CONSTANTS IN CM(-1)

          A =    0.00128356   B =    0.00053919   C =    0.00039687



           PRINCIPAL MOMENTS OF INERTIA IN UNITS OF 10**(-40)*GRAM-CM**2

          A =    21808.6762   B =    51916.3496   C =    70533.6992


 ROTATION MATRIX FOR ORIENTATION OF MOLECULE:

         0.338974    0.444126   -0.829367
         0.520748    0.645619    0.558567
         0.783529   -0.621231   -0.012430


          CARTESIAN COORDINATES 

    NO.       ATOM         X         Y         Z

     1         C       -6.7595   -8.8209    1.7470
     2         C       -6.2442   -8.1458    0.4863
     3         C       -5.3167   -6.9830    0.8369
     4         C       -4.7741   -6.3293   -0.4308
     5         C       -3.9591   -5.0650   -0.1252
     6         C       -3.5797   -4.4161   -1.4779
     7         N       -3.0305   -3.0733   -1.3202
     8         C       -1.6685   -2.7067   -1.3430
     9         C       -0.5466   -3.4575   -1.6887
    10         C        0.6829   -2.8210   -1.6554
    11         C        0.8012   -1.4716   -1.2925
    12         C       -0.3156   -0.7179   -0.9532
    13         C       -1.5542   -1.3374   -0.9782
    14         C       -2.8838   -0.8611   -0.6965
    15         C       -3.7695   -1.9565   -0.9023
    16         C       -5.1466   -1.8163   -0.7269
    17         C       -5.6190   -0.5763   -0.3361
    18         C       -4.7477    0.5052   -0.1242
    19         C       -3.3726    0.3719   -0.3070
    20         C       -5.2555    1.7871    0.2987
    21         C       -4.6628    2.8400    0.9676
    22         C       -5.6645    3.8500    1.0940
    23         C       -6.8025    3.3473    0.4953
    24         O       -6.5591    2.0760    0.0070
    25         C       -8.1408    3.8088    0.2883
    26         C       -8.5401    5.0758    0.5129
    27         C       -9.9250    5.5195    0.2941
    28         O      -10.3162    6.6588    0.1044
    29         O      -10.8250    4.5099    0.3213
    30         C       -7.6759    6.1097    0.9514
    31         N       -6.9948    6.9725    1.3115
    32         C        2.1228   -0.8523   -1.2729
    33         C        2.3238    0.3616   -1.9354
    34         C        3.5621    0.9923   -1.9442
    35         C        4.6044    0.3715   -1.2657
    36         C        4.4009   -0.8660   -0.5948
    37         C        3.1657   -1.4817   -0.5939
    38         C        5.6660   -1.2468   -0.0035
    39         N        6.0036   -2.3027    0.7099
    40         C        7.3375   -2.3183    1.1054
    41         C        7.7822   -3.4253    1.8821
    42         C        9.0822   -3.4814    2.2912
    43         C        9.9960   -2.4523    1.9532
    44         C        9.6023   -1.3778    1.2107
    45         C        8.2522   -1.2877    0.7671
    46         N        7.8986   -0.1731    0.0140
    47         C        6.6164   -0.1810   -0.3538
    48         N        5.9545    0.7703   -1.1479
    49         C        6.5520    2.0373   -1.5653
    50         C        6.7548    3.0162   -0.3861
    51         C        7.6037    4.1871   -0.9009
    52         C        7.9849    5.1533    0.2173
    53         C        8.9497    6.2194   -0.3005
    54         C        9.3048    7.2039    0.8019
    55         C        5.4064    3.4936    0.1683
    56         C        5.3647    3.4336    1.6882
    57         C       -2.7041   -5.3817    0.6984
    58         C       -2.8512   -4.9461    2.1489
    59         H       -8.8566    3.0574   -0.0831
    60         H       -7.3204   -8.1286    2.3913
    61         H       -7.4375   -9.6553    1.5159
    62         H       -5.9470   -9.2368    2.3601
    63         H       -5.7178   -8.8838   -0.1552
    64         H       -7.0970   -7.7944   -0.1326
    65         H       -5.8570   -6.2386    1.4593
    66         H       -4.4892   -7.3457    1.4816
    67         H       -4.1640   -7.0561   -1.0083
    68         H       -5.6209   -6.0792   -1.1069
    69         H       -4.6111   -4.3487    0.4389
    70         H       -2.8569   -5.0542   -2.0353
    71         H       -4.4725   -4.3388   -2.1441
    72         H       -0.6200   -4.5071   -1.9800
    73         H        1.5823   -3.3836   -1.9282
    74         H       -0.2309    0.3327   -0.6636
    75         H       -5.8326   -2.6490   -0.8947
    76         H       -6.6959   -0.4436   -0.1865
    77         H       -2.6870    1.2107   -0.1588
    78         H       -3.6496    2.9018    1.3402
    79         H       -5.5238    4.8055    1.5840
    80         H      -11.7229    4.8408    0.1770
    81         H        1.4890    0.8268   -2.4712
    82         H        3.6963    1.9382   -2.4725
    83         H        3.0209   -2.4289   -0.0657
    84         H        7.0683   -4.2157    2.1382
    85         H        9.4393   -4.3257    2.8887
    86         H       11.0308   -2.5348    2.3005
    87         H       10.3036   -0.5793    0.9459
    88         H        7.5302    1.7966   -2.0477
    89         H        5.9267    2.4949   -2.3648
    90         H        7.3332    2.4851    0.4142
    91         H        8.5281    3.7995   -1.3826
    92         H        7.0726    4.7278   -1.7131
    93         H        7.0844    5.6401    0.6460
    94         H        8.4435    4.6044    1.0668
    95         H        9.8724    5.7503   -0.7032
    96         H        8.5078    6.7571   -1.1659
    97         H        9.7828    6.7124    1.6615
    98         H       10.0052    7.9757    0.4509
    99         H        8.4225    7.7332    1.1898
   100         H        5.1684    4.5212   -0.1803
   101         H        4.5627    2.8920   -0.2336
   102         H        5.4518    2.4043    2.0660
   103         H        6.1722    4.0105    2.1607
   104         H        4.4199    3.8333    2.0850
   105         H       -2.4513   -6.4622    0.6464
   106         H       -1.8021   -4.8916    0.2722
   107         H       -2.9556   -3.8554    2.2464
   108         H       -3.7258   -5.3914    2.6437
   109         H       -1.9737   -5.2302    2.7483


 ENERGY OF "REORIENTED" SYSTEM WITHOUT FIELD:       17.5738994530


  NFREQ=  3  IWFLB=  0  IBET=  1  IGAM=  1
  ATOL= 0.10000D-02  BTOL= 0.10000D-02    MAXITU=  500    MAXITA=  150


 *****************************************************************
 CALCULATION OF STATIC FIELD QUANTITIES
 *****************************************************************

 +++++ ALPHA AT       0.00000 EV.

                           COMPONENTS OF ALPHA

                     *X           *Y           *Z
           *=X:     818.7513    -108.2435      57.7384
           *=Y:    -108.2550     638.5616      -9.1788
           *=Z:      57.7103      -9.1565     267.6128

  ISOTROPIC AVERAGE ALPHA =     574.97523 A.U. =     85.20254 ANG.**3

 +++++ BETA (SECOND HARMONIC GENERATION) AT       0.00000 EV.

                              COMPONENTS OF BETA
            *XX         *XY         *YY         *XZ         *YZ         *ZZ
   *=X  3358.69514 -3191.81955  3383.54203  -331.87561   747.07472   -77.52865
   *=Y -3191.59657  3383.73830 -2807.83809   747.00320  -478.21181    47.24909
   *=Z  -332.04851   747.51099  -478.54690   -77.47361    47.17408   -60.66485


 AVERAGE BETAX(SHG) VALUE AT   0.00000 EV =       3998.9256 a.u. =  0.345484E-28 ESU
 AVERAGE BETAY(SHG) VALUE AT   0.00000 EV =      -3571.4305 a.u. = -0.308551E-28 ESU
 AVERAGE BETAZ(SHG) VALUE AT   0.00000 EV =       -522.5530 a.u. = -0.451455E-29 ESU



 AVERAGE BETA (SHG) VALUE AT   0.00000 EV =       5386.9828 a.u. =  0.465404E-28 ESU
   (1 a.u. = 8.639418X10-33 esu)



 +++++ ALPHA AT       0.00000 EV.

                           COMPONENTS OF ALPHA

                     *X           *Y           *Z
           *=X:     818.7513    -108.2435      57.7384
           *=Y:    -108.2550     638.5616      -9.1788
           *=Z:      57.7103      -9.1565     267.6128

  ISOTROPIC AVERAGE ALPHA =     574.97523 A.U. =     85.20254 ANG.**3


 GAMMA (THIRD HARMONIC GENERATION) AT    0.00000 EV.


 GAMMA(X,X,X,X) =       1484919.88173
 GAMMA(Y,Y,Y,Y) =        667541.20064
 GAMMA(Z,Z,Z,Z) =         17738.32826
 GAMMA(X,X,Y,Y) =        613581.61274
 GAMMA(X,X,Z,Z) =         63029.05272
 GAMMA(Y,Y,X,X) =        613581.44957
 GAMMA(Y,Y,Z,Z) =         38210.77678
 GAMMA(Z,Z,X,X) =         63029.00669
 GAMMA(Z,Z,Y,Y) =         38210.79689


 AVERAGE GAMMA VALUE AT    0.00000 =        719968.42120 a.u. =       362626.68045 ESU (X10-39)




 **********************************************************************
 CALCULATION FOR A FREQUENCY OF    0.25000 EV  =       0.00919 A.U. 
                  WAVELENGTH OF    4959.37 NM  =    2016.38525 CM(-1)
 **********************************************************************

 +++++ ALPHA AT       0.25000 EV.

                           COMPONENTS OF ALPHA

                     *X           *Y           *Z
           *=X:     821.6973    -109.3916      57.8068
           *=Y:    -109.4019     640.4692      -9.0854
           *=Z:      57.7824      -9.0662     267.9858

  ISOTROPIC AVERAGE ALPHA =     576.71742 A.U. =     85.46070 ANG.**3

 +++++ BETA (SECOND HARMONIC GENERATION) AT       0.25000 EV.

                              COMPONENTS OF BETA
            *XX         *XY         *YY         *XZ         *YZ         *ZZ
   *=X  3520.14442 -3360.55854  3551.59083  -351.68493   776.54179   -79.46861
   *=Y -3361.05497  3562.23820 -2959.33642   772.67360  -497.37805    46.51998
   *=Z  -350.24901   777.30837  -501.08134   -77.28862    46.18283   -62.06355


 AVERAGE BETAX(SHG) VALUE AT   0.25000 EV =       4200.4909 a.u. =  0.362898E-28 ESU
 AVERAGE BETAY(SHG) VALUE AT   0.25000 EV =      -3764.2591 a.u. = -0.325210E-28 ESU
 AVERAGE BETAZ(SHG) VALUE AT   0.25000 EV =       -547.1294 a.u. = -0.472688E-29 ESU



 AVERAGE BETA (SHG) VALUE AT   0.25000 EV =       5666.8440 a.u. =  0.489582E-28 ESU
   (1 a.u. = 8.639418X10-33 esu)



 +++++ ALPHA AT       0.75000 EV.

                           COMPONENTS OF ALPHA

                     *X           *Y           *Z
           *=X:     846.6946    -119.3854      58.3389
           *=Y:    -119.3948     656.6771      -8.2654
           *=Z:      58.3152      -8.2469     271.0464

  ISOTROPIC AVERAGE ALPHA =     591.47271 A.U. =     87.64721 ANG.**3


 GAMMA (THIRD HARMONIC GENERATION) AT    0.25000 EV.


 GAMMA(X,X,X,X) =       1626973.51532
 GAMMA(Y,Y,Y,Y) =        742449.48061
 GAMMA(Z,Z,Z,Z) =         18496.11999
 GAMMA(X,X,Y,Y) =        687328.26285
 GAMMA(X,X,Z,Z) =         67819.81244
 GAMMA(Y,Y,X,X) =        684541.27628
 GAMMA(Y,Y,Z,Z) =         41435.60566
 GAMMA(Z,Z,X,X) =         67240.79518
 GAMMA(Z,Z,Y,Y) =         41119.56845


 AVERAGE GAMMA VALUE AT    0.25000 =        795480.88736 a.u. =       400660.06376 ESU (X10-39)




 **********************************************************************
 CALCULATION FOR A FREQUENCY OF    0.50000 EV  =       0.01837 A.U. 
                  WAVELENGTH OF    2479.68 NM  =    4032.77050 CM(-1)
 **********************************************************************

 +++++ ALPHA AT       0.50000 EV.

                           COMPONENTS OF ALPHA

                     *X           *Y           *Z
           *=X:     830.7597    -112.9606      58.0198
           *=Y:    -112.9702     646.3396      -8.8025
           *=Z:      57.9925      -8.7806     269.1151

  ISOTROPIC AVERAGE ALPHA =     582.07146 A.U. =     86.25409 ANG.**3

 +++++ BETA (SECOND HARMONIC GENERATION) AT       0.50000 EV.

                              COMPONENTS OF BETA
            *XX         *XY         *YY         *XZ         *YZ         *ZZ
   *=X  4092.94254 -3963.62569  4147.93013  -422.41323   879.38649   -85.79029
   *=Y -3961.50996  4196.47814 -3498.71485   861.02597  -564.80412    43.60522
   *=Z  -416.05817   881.75315  -580.94587   -75.77851    42.08850   -66.61783


 AVERAGE BETAX(SHG) VALUE AT   0.50000 EV =       4916.4733 a.u. =  0.424755E-28 ESU
 AVERAGE BETAY(SHG) VALUE AT   0.50000 EV =      -4451.4247 a.u. = -0.384577E-28 ESU
 AVERAGE BETAZ(SHG) VALUE AT   0.50000 EV =       -634.2584 a.u. = -0.547962E-29 ESU



 AVERAGE BETA (SHG) VALUE AT   0.50000 EV =       6662.5202 a.u. =  0.575603E-28 ESU
   (1 a.u. = 8.639418X10-33 esu)



 +++++ ALPHA AT       1.50000 EV.

                           COMPONENTS OF ALPHA

                     *X           *Y           *Z
           *=X:     958.0751    -169.5200      58.9071
           *=Y:    -169.5381     729.7184      -3.4476
           *=Z:      58.8645      -3.4158     282.7282

  ISOTROPIC AVERAGE ALPHA =     656.84059 A.U. =     97.33373 ANG.**3


 GAMMA (THIRD HARMONIC GENERATION) AT    0.50000 EV.


 GAMMA(X,X,X,X) =       2241355.56077
 GAMMA(Y,Y,Y,Y) =       1084240.41212
 GAMMA(Z,Z,Z,Z) =         21235.75368
 GAMMA(X,X,Y,Y) =       1029333.02935
 GAMMA(X,X,Z,Z) =         87492.79274
 GAMMA(Y,Y,X,X) =       1006690.81751
 GAMMA(Y,Y,Z,Z) =         55335.61126
 GAMMA(Z,Z,X,X) =         83771.29257
 GAMMA(Z,Z,Y,Y) =         53323.61467


 AVERAGE GAMMA VALUE AT    0.50000 =       1132555.77693 a.u. =       570434.66036 ESU (X10-39)



 **********************
 *                    *
 * JOB ENDED NORMALLY *
 *                    *
 **********************



 TOTAL JOB TIME:           692.61 SECONDS

 == MOPAC DONE ==
