 *******************************************************************************
 ** Site#: 4824         For non-commercial use only    Version 21.013L 64BITS **
 *******************************************************************************
 ** Cite this program as: MOPAC2016, Version: 21.013L, James J. P. Stewart,   **
 ** Stewart Computational Chemistry, web: HTTP://OpenMOPAC.net. Days left:  87**
 *******************************************************************************
 **                                                                           **
 **                                MOPAC2016                                  **
 **                                                                           **
 *******************************************************************************

                              RM1 CALCULATION RESULTS

 *******************************************************************************
 *  CALCULATION DONE:                                Mon Oct 18 11:47:28 2021  *
 *  RM1        - The RM1 Hamiltonian to be used
 *  POLAR      - CALCULATE FIRST, SECOND AND THIRD-ORDER POLARIZABILITIES
 *  PRECISE    - TIGHTER CRITERIA TO BE USED
 *  XYZ        - CARTESIAN COORDINATE SYSTEM TO BE USED
 *  T=         - A TIME OF 172800.0 SECONDS REQUESTED
 *  DUMP=N     - RESTART FILE WRITTEN EVERY 7200.0 SECONDS REQUESTED
 *  GNORM      - EXIT WHEN GRADIENT NORM DROPS BELOW 0.100
 *******************************************************************************
RM1 PRECISE POLAR XYZ GNORM=0.1


   ATOM   CHEMICAL          X               Y               Z
  NUMBER   SYMBOL      (ANGSTROMS)     (ANGSTROMS)     (ANGSTROMS)
 
     1       C          0.00000000  *   0.00000000  *   0.00000000  *
     2       C          1.52529417  *   0.00000000  *   0.00000000  *
     3       C          2.08518110  *   1.42251565  *   0.00000000  *
     4       C          3.61431309  *   1.42936559  *   0.00541588  *
     5       C          4.17182528  *   2.85298893  *   0.01446494  *
     6       C          5.70131116  *   2.86458144  *   0.04711594  *
     7       C          6.24995555  *   4.28858710  *   0.09394841  *
     8       C          7.77806893  *   4.35535188  *   0.06795686  *
     9       N          8.44151208  *   3.67319402  *  -1.09407461  *
    10       C          8.31666380  *   4.43087130  *  -2.30724940  *
    11       C          7.17524867  *   4.58745800  *  -3.06863934  *
    12       C          7.22717898  *   5.41574648  *  -4.18782666  *
    13       C          8.42577222  *   6.04239446  *  -4.56711943  *
    14       C          9.62301819  *   5.80654232  *  -3.84865644  *
    15       C          9.60884766  *   5.01591621  *  -2.71221598  *
    16       C         10.63792830  *   4.53711195  *  -1.79474983  *
    17       C          9.95612608  *   3.65531077  *  -0.87778775  *
    18       C         10.65958869  *   2.89918276  *   0.04676581  *
    19       C         12.07745488  *   3.04513528  *   0.17872917  *
    20       C         12.74290577  *   3.85478682  *  -0.71441893  *
    21       C         12.01626108  *   4.67531635  *  -1.69327529  *
    22       N         12.95155613  *   5.45646261  *  -2.46164684  *
    23       C         12.78886840  *   6.91741886  *  -2.63296996  *
    24       C         13.17427160  *   7.36179920  *  -4.05004014  *
    25       C         12.65926826  *   8.75774355  *  -4.40350449  *
    26       C         12.96897226  *   9.09408089  *  -5.86385183  *
    27       C         12.65621346  *  10.54876092  *  -6.21308468  *
    28       C         12.91578095  *  10.82826418  *  -7.69435904  *
    29       C         12.67675974  *  12.29326902  *  -8.05804506  *
    30       C         12.96711773  *  12.55574534  *  -9.53228933  *
    31       C         14.24750623  *   5.03687622  *  -2.00462393  *
    32       C         14.13365127  *   4.08564611  *  -0.95174158  *
    33       C         15.28827804  *   3.56390885  *  -0.40208395  *
    34       C         16.53256828  *   3.97170483  *  -0.91981691  *
    35       C         16.60965136  *   4.86962512  *  -1.97418972  *
    36       C         15.47823787  *   5.40746870  *  -2.50007371  *
    37       N         12.65778122  *   2.25156645  *   1.25255959  *
    38       C         11.52074425  *   1.44278659  *   1.65786868  *
    39       C         10.27102127  *   1.82832054  *   0.94429614  *
    40       C          9.08591317  *   1.15024405  *   1.14651372  *
    41       C          9.06206943  *   0.06618441  *   2.04476220  *
    42       C         10.21021361  *  -0.34785669  *   2.70608791  *
    43       C         11.52341771  *   0.37691857  *   2.52793564  *
    44       C         13.15013883  *   3.11547350  *   2.37725677  *
    45       C         14.20781152  *   2.43748568  *   3.25379689  *
    46       C         14.78545700  *   3.42378727  *   4.27236952  *
    47       C         15.77246498  *   2.75226131  *   5.22775085  *
    48       C         16.30087556  *   3.73919530  *   6.26940843  *
    49       C         17.25624021  *   3.07040882  *   7.25814013  *
    50       C         17.76418040  *   4.05752559  *   8.30939444  *
    51       C         18.70735069  *   3.38511240  *   9.30086158  *
    52       C          8.43055938  *   6.91933517  *  -5.66786377  *
    53       C          8.43565444  *   7.74080109  *  -6.51821223  *
    54       C          8.42534814  *   8.79449813  *  -7.44370233  *
    55       C          8.62760729  *   8.60017749  *  -8.80036777  *
    56       C          8.59744141  *   9.69282961  *  -9.72136967  *
    57       C          8.37027802  *  11.02302729  *  -9.40526568  *
    58       C          8.16583102  *  11.25506305  *  -8.00928472  *
    59       C          8.19577688  *  10.14712122  *  -7.02600723  *
    60       N          7.99428347  *  10.48690124  *  -5.74678015  *
    61       S          7.78506837  *  12.18598142  *  -5.79119019  *
    62       N          7.94697197  *  12.43925139  *  -7.41717399  *
    63       C          8.34859233  *  12.04255009  * -10.42832426  *
    64       C          7.98264104  *  13.36876647  * -10.22874222  *
    65       C          7.97168893  *  14.31527950  * -11.24906779  *
    66       C          8.32773715  *  13.99807520  * -12.56831483  *
    67       C          8.70558336  *  12.64587234  * -12.78140547  *
    68       C          8.72429312  *  11.69798928  * -11.77222820  *
    69       C          8.33085498  *  14.88942546  * -13.69572861  *
    70       C          8.05138309  *  16.22109129  * -13.79745383  *
    71       C          8.11829319  *  16.86209035  * -15.11456048  *
    72       O          7.87045086  *  18.07306095  * -15.22130139  *
    73       O          8.43507610  *  16.20200085  * -16.25367238  *
    74       C          7.69788013  *  17.04722456  * -12.70464065  *
    75       N          7.41261947  *  17.73514576  * -11.81707262  *
    76       H          8.61044155  *  14.39534739  * -14.64627489  *
    77       H         -0.39830115  *  -1.02985068  *  -0.00007161  *
    78       H         -0.40135953  *   0.50902616  *   0.89379148  *
    79       H         -0.40158629  *   0.51001854  *  -0.89303344  *
    80       H          1.89328625  *  -0.55309433  *   0.89175704  *
    81       H          1.89383953  *  -0.55256462  *  -0.89186467  *
    82       H          1.71011810  *   1.96888594  *  -0.89269185  *
    83       H          1.70910198  *   1.96672371  *   0.89384864  *
    84       H          3.98861960  *   0.87427656  *   0.89325539  *
    85       H          3.99679233  *   0.88905297  *  -0.88796136  *
    86       H          3.80654365  *   3.40551805  *  -0.87883376  *
    87       H          3.77369674  *   3.40278026  *   0.89549376  *
    88       H          6.05411757  *   2.29223554  *   0.93282512  *
    89       H          6.09350772  *   2.32784773  *  -0.84401628  *
    90       H          5.80670833  *   4.90886239  *  -0.71425912  *
    91       H          5.88861916  *   4.77866864  *   1.02716676  *
    92       H          8.08425573  *   5.42949055  *   0.13831094  *
    93       H          8.14126763  *   3.88454785  *   1.01240565  *
    94       H          6.22944384  *   4.10494562  *  -2.78463171  *
    95       H          6.31523833  *   5.58083680  *  -4.78049673  *
    96       H         10.55444187  *   6.25788996  *  -4.20558293  *
    97       H         11.76113453  *   7.22771528  *  -2.33502244  *
    98       H         13.45916692  *   7.46608292  *  -1.92605501  *
    99       H         14.28008236  *   7.34371572  *  -4.16857846  *
   100       H         12.78968834  *   6.63734164  *  -4.80162219  *
   101       H         11.56446567  *   8.82545783  *  -4.22230844  *
   102       H         13.14045152  *   9.50800587  *  -3.73891519  *
   103       H         14.04239416  *   8.88900780  *  -6.07146246  *
   104       H         12.38681943  *   8.41458084  *  -6.52484549  *
   105       H         11.59937689  *  10.77668213  *  -5.95918681  *
   106       H         13.28792158  *  11.22258513  *  -5.59393598  *
   107       H         13.96341119  *  10.55109519  *  -7.94375029  *
   108       H         12.25529692  *  10.18223556  *  -8.31354508  *
   109       H         11.62653652  *  12.57286655  *  -7.82666967  *
   110       H         13.32585819  *  12.94747969  *  -7.43582743  *
   111       H         12.74841231  *  13.60338462  *  -9.80320385  *
   112       H         14.02724384  *  12.36161777  *  -9.77252825  *
   113       H         12.35570153  *  11.90826652  * -10.18479176  *
   114       H         15.25910843  *   2.82349489  *   0.40679279  *
   115       H         17.46077224  *   3.56111069  *  -0.49826841  *
   116       H         17.59192650  *   5.16165105  *  -2.37031484  *
   117       H         15.58153766  *   6.12999517  *  -3.31686114  *
   118       H          8.17534283  *   1.40989104  *   0.59210325  *
   119       H          8.12683495  *  -0.48830983  *   2.20595028  *
   120       H         10.16702715  *  -1.21309662  *   3.38247335  *
   121       H         12.43679270  *   0.05547853  *   3.04025397  *
   122       H         13.59110332  *   4.05373936  *   1.96296620  *
   123       H         12.29626893  *   3.45055578  *   3.01703649  *
   124       H         13.75848919  *   1.58568203  *   3.80757801  *
   125       H         15.02377345  *   2.02120227  *   2.62515687  *
   126       H         15.29164310  *   4.26035910  *   3.74243650  *
   127       H         13.95573538  *   3.87591877  *   4.85951359  *
   128       H         15.27201637  *   1.90099716  *   5.73919936  *
   129       H         16.61675760  *   2.31935759  *   4.64845749  *
   130       H         16.81556776  *   4.58291857  *   5.76000548  *
   131       H         15.44828193  *   4.18234034  *   6.82951060  *
   132       H         16.74302740  *   2.21916307  *   7.75658983  *
   133       H         18.11596531  *   2.62982674  *   6.70767925  *
   134       H         18.28088018  *   4.90526867  *   7.80853314  *
   135       H         16.90202747  *   4.50273167  *   8.85290527  *
   136       H         19.06532825  *   4.10303949  *  10.05965795  *
   137       H         18.20573596  *   2.55925352  *   9.83510974  *
   138       H         19.59391961  *   2.96823975  *   8.79189021  *
   139       H          8.80338396  *   7.58508387  *  -9.18731697  *
   140       H          8.75401296  *   9.37123928  * -10.76240460  *
   141       H          7.64747355  *  13.75088411  *  -9.25281749  *
   142       H          7.64592575  *  15.32285571  * -10.96511458  *
   143       H          9.00860227  *  12.30818821  * -13.78646498  *
   144       H          9.06112982  *  10.70693236  * -12.10522863  *
   145       H          8.39590967  *  16.84890298  * -16.97798276  *
 


          CARTESIAN COORDINATES 

    NO.       ATOM           X           Y           Z

     1         C          0.0000      0.0000      0.0000
     2         C          1.5253      0.0000      0.0000
     3         C          2.0852      1.4225      0.0000
     4         C          3.6143      1.4294      0.0054
     5         C          4.1718      2.8530      0.0145
     6         C          5.7013      2.8646      0.0471
     7         C          6.2500      4.2886      0.0939
     8         C          7.7781      4.3554      0.0680
     9         N          8.4415      3.6732     -1.0941
    10         C          8.3167      4.4309     -2.3072
    11         C          7.1752      4.5875     -3.0686
    12         C          7.2272      5.4157     -4.1878
    13         C          8.4258      6.0424     -4.5671
    14         C          9.6230      5.8065     -3.8487
    15         C          9.6088      5.0159     -2.7122
    16         C         10.6379      4.5371     -1.7947
    17         C          9.9561      3.6553     -0.8778
    18         C         10.6596      2.8992      0.0468
    19         C         12.0775      3.0451      0.1787
    20         C         12.7429      3.8548     -0.7144
    21         C         12.0163      4.6753     -1.6933
    22         N         12.9516      5.4565     -2.4616
    23         C         12.7889      6.9174     -2.6330
    24         C         13.1743      7.3618     -4.0500
    25         C         12.6593      8.7577     -4.4035
    26         C         12.9690      9.0941     -5.8639
    27         C         12.6562     10.5488     -6.2131
    28         C         12.9158     10.8283     -7.6944
    29         C         12.6768     12.2933     -8.0580
    30         C         12.9671     12.5557     -9.5323
    31         C         14.2475      5.0369     -2.0046
    32         C         14.1337      4.0856     -0.9517
    33         C         15.2883      3.5639     -0.4021
    34         C         16.5326      3.9717     -0.9198
    35         C         16.6097      4.8696     -1.9742
    36         C         15.4782      5.4075     -2.5001
    37         N         12.6578      2.2516      1.2526
    38         C         11.5207      1.4428      1.6579
    39         C         10.2710      1.8283      0.9443
    40         C          9.0859      1.1502      1.1465
    41         C          9.0621      0.0662      2.0448
    42         C         10.2102     -0.3479      2.7061
    43         C         11.5234      0.3769      2.5279
    44         C         13.1501      3.1155      2.3773
    45         C         14.2078      2.4375      3.2538
    46         C         14.7855      3.4238      4.2724
    47         C         15.7725      2.7523      5.2278
    48         C         16.3009      3.7392      6.2694
    49         C         17.2562      3.0704      7.2581
    50         C         17.7642      4.0575      8.3094
    51         C         18.7074      3.3851      9.3009
    52         C          8.4306      6.9193     -5.6679
    53         C          8.4357      7.7408     -6.5182
    54         C          8.4253      8.7945     -7.4437
    55         C          8.6276      8.6002     -8.8004
    56         C          8.5974      9.6928     -9.7214
    57         C          8.3703     11.0230     -9.4053
    58         C          8.1658     11.2551     -8.0093
    59         C          8.1958     10.1471     -7.0260
    60         N          7.9943     10.4869     -5.7468
    61         S          7.7851     12.1860     -5.7912
    62         N          7.9470     12.4393     -7.4172
    63         C          8.3486     12.0426    -10.4283
    64         C          7.9826     13.3688    -10.2287
    65         C          7.9717     14.3153    -11.2491
    66         C          8.3277     13.9981    -12.5683
    67         C          8.7056     12.6459    -12.7814
    68         C          8.7243     11.6980    -11.7722
    69         C          8.3309     14.8894    -13.6957
    70         C          8.0514     16.2211    -13.7975
    71         C          8.1183     16.8621    -15.1146
    72         O          7.8705     18.0731    -15.2213
    73         O          8.4351     16.2020    -16.2537
    74         C          7.6979     17.0472    -12.7046
    75         N          7.4126     17.7351    -11.8171
    76         H          8.6104     14.3953    -14.6463
    77         H         -0.3983     -1.0299     -0.0001
    78         H         -0.4014      0.5090      0.8938
    79         H         -0.4016      0.5100     -0.8930
    80         H          1.8933     -0.5531      0.8918
    81         H          1.8938     -0.5526     -0.8919
    82         H          1.7101      1.9689     -0.8927
    83         H          1.7091      1.9667      0.8938
    84         H          3.9886      0.8743      0.8933
    85         H          3.9968      0.8891     -0.8880
    86         H          3.8065      3.4055     -0.8788
    87         H          3.7737      3.4028      0.8955
    88         H          6.0541      2.2922      0.9328
    89         H          6.0935      2.3278     -0.8440
    90         H          5.8067      4.9089     -0.7143
    91         H          5.8886      4.7787      1.0272
    92         H          8.0843      5.4295      0.1383
    93         H          8.1413      3.8845      1.0124
    94         H          6.2294      4.1049     -2.7846
    95         H          6.3152      5.5808     -4.7805
    96         H         10.5544      6.2579     -4.2056
    97         H         11.7611      7.2277     -2.3350
    98         H         13.4592      7.4661     -1.9261
    99         H         14.2801      7.3437     -4.1686
   100         H         12.7897      6.6373     -4.8016
   101         H         11.5645      8.8255     -4.2223
   102         H         13.1405      9.5080     -3.7389
   103         H         14.0424      8.8890     -6.0715
   104         H         12.3868      8.4146     -6.5248
   105         H         11.5994     10.7767     -5.9592
   106         H         13.2879     11.2226     -5.5939
   107         H         13.9634     10.5511     -7.9438
   108         H         12.2553     10.1822     -8.3135
   109         H         11.6265     12.5729     -7.8267
   110         H         13.3259     12.9475     -7.4358
   111         H         12.7484     13.6034     -9.8032
   112         H         14.0272     12.3616     -9.7725
   113         H         12.3557     11.9083    -10.1848
   114         H         15.2591      2.8235      0.4068
   115         H         17.4608      3.5611     -0.4983
   116         H         17.5919      5.1617     -2.3703
   117         H         15.5815      6.1300     -3.3169
   118         H          8.1753      1.4099      0.5921
   119         H          8.1268     -0.4883      2.2060
   120         H         10.1670     -1.2131      3.3825
   121         H         12.4368      0.0555      3.0403
   122         H         13.5911      4.0537      1.9630
   123         H         12.2963      3.4506      3.0170
   124         H         13.7585      1.5857      3.8076
   125         H         15.0238      2.0212      2.6252
   126         H         15.2916      4.2604      3.7424
   127         H         13.9557      3.8759      4.8595
   128         H         15.2720      1.9010      5.7392
   129         H         16.6168      2.3194      4.6485
   130         H         16.8156      4.5829      5.7600
   131         H         15.4483      4.1823      6.8295
   132         H         16.7430      2.2192      7.7566
   133         H         18.1160      2.6298      6.7077
   134         H         18.2809      4.9053      7.8085
   135         H         16.9020      4.5027      8.8529
   136         H         19.0653      4.1030     10.0597
   137         H         18.2057      2.5593      9.8351
   138         H         19.5939      2.9682      8.7919
   139         H          8.8034      7.5851     -9.1873
   140         H          8.7540      9.3712    -10.7624
   141         H          7.6475     13.7509     -9.2528
   142         H          7.6459     15.3229    -10.9651
   143         H          9.0086     12.3082    -13.7865
   144         H          9.0611     10.7069    -12.1052
   145         H          8.3959     16.8489    -16.9780

  H: (RM1): G.B. ROCHA, R.O. FREIRE, A.M.SIMAS, J.J.P. STEWART, J. COMP. CHEM. 27, 1101 (2006)
  C: (RM1): G.B. ROCHA, R.O. FREIRE, A.M.SIMAS, J.J.P. STEWART, J. COMP. CHEM. 27, 1101 (2006)
  N: (RM1): G.B. ROCHA, R.O. FREIRE, A.M.SIMAS, J.J.P. STEWART, J. COMP. CHEM. 27, 1101 (2006)
  O: (RM1): G.B. ROCHA, R.O. FREIRE, A.M.SIMAS, J.J.P. STEWART, J. COMP. CHEM. 27, 1101 (2006)
  S: (RM1): G.B. ROCHA, R.O. FREIRE, A.M.SIMAS, J.J.P. STEWART, J. COMP. CHEM. 27, 1101 (2006)

           Empirical Formula: C66 H70 N6 O2 S  =   145 atoms



      MOLECULAR POINT GROUP   :   C1  


      RHF CALCULATION, NO. OF DOUBLY OCCUPIED LEVELS = 191


          Geometry optimization using L-BFGS
 CYCLE:     1 TIME:   0.602 TIME LEFT:  2.00D  GRAD.:   240.023 HEAT:  152.0162
 CYCLE:     2 TIME:   0.324 TIME LEFT:  2.00D  GRAD.:   235.209 HEAT:  151.4457
 CYCLE:     3 TIME:   0.352 TIME LEFT:  2.00D  GRAD.:    84.531 HEAT:  133.7402
 CYCLE:     4 TIME:   0.363 TIME LEFT:  2.00D  GRAD.:   235.482 HEAT:  151.4453
 CYCLE:     5 TIME:   0.348 TIME LEFT:  2.00D  GRAD.:    84.668 HEAT:  133.7403
 CYCLE:     6 TIME:   0.344 TIME LEFT:  2.00D  GRAD.:    89.523 HEAT:  131.8304
 CYCLE:     7 TIME:   0.332 TIME LEFT:  2.00D  GRAD.:    60.947 HEAT:  130.0478
 CYCLE:     8 TIME:   0.328 TIME LEFT:  2.00D  GRAD.:    52.354 HEAT:  128.3515
 CYCLE:     9 TIME:   0.348 TIME LEFT:  2.00D  GRAD.:    54.017 HEAT:  127.2514
 CYCLE:    10 TIME:   0.324 TIME LEFT:  2.00D  GRAD.:    37.467 HEAT:  126.4102
 CYCLE:    11 TIME:   0.344 TIME LEFT:  2.00D  GRAD.:    45.519 HEAT:  125.5786
 CYCLE:    12 TIME:   0.305 TIME LEFT:  2.00D  GRAD.:    45.440 HEAT:  125.1262
 CYCLE:    13 TIME:   0.320 TIME LEFT:  2.00D  GRAD.:    26.474 HEAT:  124.7958
 CYCLE:    14 TIME:   0.328 TIME LEFT:  2.00D  GRAD.:    21.287 HEAT:  124.4062
 CYCLE:    15 TIME:   0.312 TIME LEFT:  2.00D  GRAD.:    23.025 HEAT:  124.1402
 CYCLE:    16 TIME:   0.355 TIME LEFT:  2.00D  GRAD.:    27.796 HEAT:  123.4370
 CYCLE:    17 TIME:   0.355 TIME LEFT:  2.00D  GRAD.:    54.125 HEAT:  123.1436
 CYCLE:    18 TIME:   0.336 TIME LEFT:  2.00D  GRAD.:    21.265 HEAT:  122.4645
 CYCLE:    19 TIME:   0.324 TIME LEFT:  2.00D  GRAD.:    20.201 HEAT:  122.0848
 CYCLE:    20 TIME:   0.312 TIME LEFT:  2.00D  GRAD.:    22.848 HEAT:  121.5196
 CYCLE:    21 TIME:   0.301 TIME LEFT:  2.00D  GRAD.:    68.893 HEAT:  121.5322
 CYCLE:    22 TIME:   0.309 TIME LEFT:  2.00D  GRAD.:    20.731 HEAT:  121.0113
 CYCLE:    23 TIME:   0.305 TIME LEFT:  2.00D  GRAD.:    13.403 HEAT:  120.8851
 CYCLE:    24 TIME:   0.348 TIME LEFT:  2.00D  GRAD.:    15.697 HEAT:  120.7203
 CYCLE:    25 TIME:   0.328 TIME LEFT:  2.00D  GRAD.:    30.761 HEAT:  120.6112
 CYCLE:    26 TIME:   0.301 TIME LEFT:  2.00D  GRAD.:    19.436 HEAT:  120.4719
 CYCLE:    27 TIME:   0.332 TIME LEFT:  2.00D  GRAD.:    12.942 HEAT:  120.2741
 CYCLE:    28 TIME:   0.324 TIME LEFT:  2.00D  GRAD.:    14.733 HEAT:  120.1534
 CYCLE:    29 TIME:   0.355 TIME LEFT:  2.00D  GRAD.:    57.184 HEAT:  120.1172
 CYCLE:    30 TIME:   0.297 TIME LEFT:  2.00D  GRAD.:    16.665 HEAT:  119.8278
 CYCLE:    31 TIME:   0.277 TIME LEFT:  2.00D  GRAD.:     9.797 HEAT:  119.7521
 CYCLE:    32 TIME:   0.262 TIME LEFT:  2.00D  GRAD.:    11.051 HEAT:  119.6782
 CYCLE:    33 TIME:   0.309 TIME LEFT:  2.00D  GRAD.:    11.078 HEAT:  119.5764
 CYCLE:    34 TIME:   0.348 TIME LEFT:  2.00D  GRAD.:    26.191 HEAT:  119.4710
 CYCLE:    35 TIME:   0.301 TIME LEFT:  2.00D  GRAD.:    25.794 HEAT:  119.4165
 CYCLE:    36 TIME:   0.328 TIME LEFT:  2.00D  GRAD.:     6.840 HEAT:  119.3361
 CYCLE:    37 TIME:   0.305 TIME LEFT:  2.00D  GRAD.:     6.341 HEAT:  119.3145
 CYCLE:    38 TIME:   0.305 TIME LEFT:  2.00D  GRAD.:     8.996 HEAT:  119.2615
 CYCLE:    39 TIME:   0.352 TIME LEFT:  2.00D  GRAD.:    13.017 HEAT:  119.1705
 CYCLE:    40 TIME:   0.344 TIME LEFT:  2.00D  GRAD.:    28.109 HEAT:  119.1209
 CYCLE:    41 TIME:   0.273 TIME LEFT:  2.00D  GRAD.:    11.348 HEAT:  119.0037
 CYCLE:    42 TIME:   0.266 TIME LEFT:  2.00D  GRAD.:     8.663 HEAT:  118.9401
 CYCLE:    43 TIME:   0.273 TIME LEFT:  2.00D  GRAD.:    10.685 HEAT:  118.8756
 CYCLE:    44 TIME:   0.277 TIME LEFT:  2.00D  GRAD.:    13.083 HEAT:  118.7798
 CYCLE:    45 TIME:   0.301 TIME LEFT:  2.00D  GRAD.:    14.646 HEAT:  118.6783
 CYCLE:    46 TIME:   0.305 TIME LEFT:  2.00D  GRAD.:     9.842 HEAT:  118.5859
 CYCLE:    47 TIME:   0.336 TIME LEFT:  2.00D  GRAD.:    10.156 HEAT:  118.5115
 CYCLE:    48 TIME:   0.406 TIME LEFT:  2.00D  GRAD.:    21.133 HEAT:  118.4494
 CYCLE:    49 TIME:   0.352 TIME LEFT:  2.00D  GRAD.:    12.745 HEAT:  118.3768
 CYCLE:    50 TIME:   0.316 TIME LEFT:  2.00D  GRAD.:     9.666 HEAT:  118.3158
 CYCLE:    51 TIME:   0.301 TIME LEFT:  2.00D  GRAD.:     9.493 HEAT:  118.2529
 CYCLE:    52 TIME:   0.328 TIME LEFT:  2.00D  GRAD.:    27.769 HEAT:  118.2230
 CYCLE:    53 TIME:   0.285 TIME LEFT:  2.00D  GRAD.:    13.072 HEAT:  118.1403
 CYCLE:    54 TIME:   0.285 TIME LEFT:  2.00D  GRAD.:     7.178 HEAT:  118.0710
 CYCLE:    55 TIME:   0.312 TIME LEFT:  2.00D  GRAD.:     9.914 HEAT:  118.0208
 CYCLE:    56 TIME:   0.309 TIME LEFT:  2.00D  GRAD.:    12.662 HEAT:  117.9474
 CYCLE:    57 TIME:   0.312 TIME LEFT:  2.00D  GRAD.:    21.169 HEAT:  117.8799
 CYCLE:    58 TIME:   0.289 TIME LEFT:  2.00D  GRAD.:     9.871 HEAT:  117.8024
 CYCLE:    59 TIME:   0.273 TIME LEFT:  2.00D  GRAD.:     7.821 HEAT:  117.7752
 CYCLE:    60 TIME:   0.363 TIME LEFT:  2.00D  GRAD.:    10.198 HEAT:  117.7165
 CYCLE:    61 TIME:   0.316 TIME LEFT:  2.00D  GRAD.:    11.239 HEAT:  117.6568
 CYCLE:    62 TIME:   0.320 TIME LEFT:  2.00D  GRAD.:    15.740 HEAT:  117.6077
 CYCLE:    63 TIME:   0.324 TIME LEFT:  2.00D  GRAD.:     8.621 HEAT:  117.5414
 CYCLE:    64 TIME:   0.312 TIME LEFT:  2.00D  GRAD.:     9.074 HEAT:  117.4822
 CYCLE:    65 TIME:   0.301 TIME LEFT:  2.00D  GRAD.:    17.376 HEAT:  117.4310
 CYCLE:    66 TIME:   0.305 TIME LEFT:  2.00D  GRAD.:    10.975 HEAT:  117.3642
 CYCLE:    67 TIME:   0.324 TIME LEFT:  2.00D  GRAD.:     9.512 HEAT:  117.2724
 CYCLE:    68 TIME:   0.305 TIME LEFT:  2.00D  GRAD.:    10.248 HEAT:  117.2006
 CYCLE:    69 TIME:   0.328 TIME LEFT:  2.00D  GRAD.:    19.317 HEAT:  117.0801
 CYCLE:    70 TIME:   0.340 TIME LEFT:  2.00D  GRAD.:    12.439 HEAT:  116.9457
 CYCLE:    71 TIME:   0.312 TIME LEFT:  2.00D  GRAD.:    23.309 HEAT:  116.8994
 CYCLE:    72 TIME:   0.289 TIME LEFT:  2.00D  GRAD.:     9.355 HEAT:  116.7932
 CYCLE:    73 TIME:   0.328 TIME LEFT:  2.00D  GRAD.:     8.822 HEAT:  116.7325
 CYCLE:    74 TIME:   0.348 TIME LEFT:  2.00D  GRAD.:    15.860 HEAT:  116.6537
 CYCLE:    75 TIME:   0.352 TIME LEFT:  2.00D  GRAD.:    13.873 HEAT:  116.5571
 CYCLE:    76 TIME:   0.359 TIME LEFT:  2.00D  GRAD.:    10.117 HEAT:  116.4671
 CYCLE:    77 TIME:   0.355 TIME LEFT:  2.00D  GRAD.:    11.056 HEAT:  116.3565
 CYCLE:    78 TIME:   0.367 TIME LEFT:  2.00D  GRAD.:    17.735 HEAT:  116.2333
 CYCLE:    79 TIME:   0.336 TIME LEFT:  2.00D  GRAD.:    12.787 HEAT:  116.0833
 CYCLE:    80 TIME:   0.375 TIME LEFT:  2.00D  GRAD.:    16.008 HEAT:  115.9356
 CYCLE:    81 TIME:   0.359 TIME LEFT:  2.00D  GRAD.:    30.704 HEAT:  115.7913
 CYCLE:    82 TIME:   0.312 TIME LEFT:  2.00D  GRAD.:    17.248 HEAT:  115.6419
 CYCLE:    83 TIME:   0.309 TIME LEFT:  2.00D  GRAD.:    17.079 HEAT:  115.4755
 CYCLE:    84 TIME:   0.332 TIME LEFT:  2.00D  GRAD.:    17.306 HEAT:  115.3157
 CYCLE:    85 TIME:   0.359 TIME LEFT:  2.00D  GRAD.:    22.554 HEAT:  115.0892
 CYCLE:    86 TIME:   0.336 TIME LEFT:  2.00D  GRAD.:    32.073 HEAT:  114.8468
 CYCLE:    87 TIME:   0.391 TIME LEFT:  2.00D  GRAD.:    20.231 HEAT:  114.6229
 CYCLE:    88 TIME:   0.379 TIME LEFT:  2.00D  GRAD.:    15.504 HEAT:  114.4474
 CYCLE:    89 TIME:   0.379 TIME LEFT:  2.00D  GRAD.:    19.958 HEAT:  114.3168
 CYCLE:    90 TIME:   0.320 TIME LEFT:  2.00D  GRAD.:    19.082 HEAT:  114.1472
 CYCLE:    91 TIME:   0.438 TIME LEFT:  2.00D  GRAD.:    17.736 HEAT:  114.0047
 CYCLE:    92 TIME:   0.367 TIME LEFT:  2.00D  GRAD.:    19.952 HEAT:  113.8001
 CYCLE:    93 TIME:   0.363 TIME LEFT:  2.00D  GRAD.:    24.641 HEAT:  113.6310
 CYCLE:    94 TIME:   0.312 TIME LEFT:  2.00D  GRAD.:    15.188 HEAT:  113.4471
 CYCLE:    95 TIME:   0.312 TIME LEFT:  2.00D  GRAD.:    13.963 HEAT:  113.2565
 CYCLE:    96 TIME:   0.312 TIME LEFT:  2.00D  GRAD.:    40.147 HEAT:  113.2172
 CYCLE:    97 TIME:   0.348 TIME LEFT:  2.00D  GRAD.:    17.631 HEAT:  113.0717
 CYCLE:    98 TIME:   0.297 TIME LEFT:  2.00D  GRAD.:    10.913 HEAT:  112.9657
 CYCLE:    99 TIME:   0.336 TIME LEFT:  2.00D  GRAD.:    15.332 HEAT:  112.8602
 CYCLE:   100 TIME:   0.395 TIME LEFT:  2.00D  GRAD.:    16.918 HEAT:  112.6933
 CYCLE:   101 TIME:   0.344 TIME LEFT:  2.00D  GRAD.:    29.433 HEAT:  112.5446
 CYCLE:   102 TIME:   0.348 TIME LEFT:  2.00D  GRAD.:    15.998 HEAT:  112.3743
 CYCLE:   103 TIME:   0.324 TIME LEFT:  2.00D  GRAD.:    11.333 HEAT:  112.3016
 CYCLE:   104 TIME:   0.367 TIME LEFT:  2.00D  GRAD.:    11.675 HEAT:  112.1857
 CYCLE:   105 TIME:   0.336 TIME LEFT:  2.00D  GRAD.:    36.394 HEAT:  112.1393
 CYCLE:   106 TIME:   0.305 TIME LEFT:  2.00D  GRAD.:    12.307 HEAT:  112.0103
 CYCLE:   107 TIME:   0.316 TIME LEFT:  2.00D  GRAD.:     9.906 HEAT:  111.9527
 CYCLE:   108 TIME:   0.324 TIME LEFT:  2.00D  GRAD.:    12.158 HEAT:  111.8917
 CYCLE:   109 TIME:   0.348 TIME LEFT:  2.00D  GRAD.:    14.882 HEAT:  111.7733
 CYCLE:   110 TIME:   0.352 TIME LEFT:  2.00D  GRAD.:    36.164 HEAT:  111.7777
 CYCLE:   111 TIME:   0.340 TIME LEFT:  2.00D  GRAD.:    10.496 HEAT:  111.5838
 CYCLE:   112 TIME:   0.301 TIME LEFT:  2.00D  GRAD.:     8.102 HEAT:  111.5375
 CYCLE:   113 TIME:   0.336 TIME LEFT:  2.00D  GRAD.:    12.287 HEAT:  111.4627
 CYCLE:   114 TIME:   0.301 TIME LEFT:  2.00D  GRAD.:    12.022 HEAT:  111.3866
 CYCLE:   115 TIME:   0.340 TIME LEFT:  2.00D  GRAD.:     8.847 HEAT:  111.3097
 CYCLE:   116 TIME:   0.336 TIME LEFT:  2.00D  GRAD.:    13.698 HEAT:  111.2262
 CYCLE:   117 TIME:   0.348 TIME LEFT:  2.00D  GRAD.:    11.604 HEAT:  111.1480
 CYCLE:   118 TIME:   0.301 TIME LEFT:  2.00D  GRAD.:     9.297 HEAT:  111.0886
 CYCLE:   119 TIME:   0.312 TIME LEFT:  2.00D  GRAD.:    11.264 HEAT:  111.0118
 CYCLE:   120 TIME:   0.328 TIME LEFT:  2.00D  GRAD.:     9.512 HEAT:  110.9544
 CYCLE:   121 TIME:   0.312 TIME LEFT:  2.00D  GRAD.:     9.970 HEAT:  110.9005
 CYCLE:   122 TIME:   0.316 TIME LEFT:  2.00D  GRAD.:    19.950 HEAT:  110.8443
 CYCLE:   123 TIME:   0.320 TIME LEFT:  2.00D  GRAD.:     9.012 HEAT:  110.7955
 CYCLE:   124 TIME:   0.289 TIME LEFT:  2.00D  GRAD.:     6.069 HEAT:  110.7763
 CYCLE:   125 TIME:   0.367 TIME LEFT:  2.00D  GRAD.:     6.171 HEAT:  110.7405
 CYCLE:   126 TIME:   0.293 TIME LEFT:  2.00D  GRAD.:     6.886 HEAT:  110.7071
 CYCLE:   127 TIME:   0.328 TIME LEFT:  2.00D  GRAD.:    23.441 HEAT:  110.7146
 CYCLE:   128 TIME:   0.270 TIME LEFT:  2.00D  GRAD.:     6.245 HEAT:  110.6538
 CYCLE:   129 TIME:   0.270 TIME LEFT:  2.00D  GRAD.:     4.593 HEAT:  110.6413
 CYCLE:   130 TIME:   0.273 TIME LEFT:  2.00D  GRAD.:     5.630 HEAT:  110.6206
 CYCLE:   131 TIME:   0.289 TIME LEFT:  2.00D  GRAD.:     6.748 HEAT:  110.5967
 CYCLE:   132 TIME:   0.289 TIME LEFT:  2.00D  GRAD.:     6.355 HEAT:  110.5697
 CYCLE:   133 TIME:   0.312 TIME LEFT:  2.00D  GRAD.:     5.182 HEAT:  110.5470
 CYCLE:   134 TIME:   0.312 TIME LEFT:  2.00D  GRAD.:     5.097 HEAT:  110.5170
 CYCLE:   135 TIME:   0.324 TIME LEFT:  2.00D  GRAD.:    14.076 HEAT:  110.5077
 CYCLE:   136 TIME:   0.297 TIME LEFT:  2.00D  GRAD.:     5.806 HEAT:  110.4841
 CYCLE:   137 TIME:   0.281 TIME LEFT:  2.00D  GRAD.:     4.297 HEAT:  110.4693
 CYCLE:   138 TIME:   0.297 TIME LEFT:  2.00D  GRAD.:     5.739 HEAT:  110.4560
 CYCLE:   139 TIME:   0.312 TIME LEFT:  2.00D  GRAD.:    12.064 HEAT:  110.4412
 CYCLE:   140 TIME:   0.344 TIME LEFT:  2.00D  GRAD.:     5.135 HEAT:  110.4205
 CYCLE:   141 TIME:   0.402 TIME LEFT:  2.00D  GRAD.:     4.603 HEAT:  110.4075
 CYCLE:   142 TIME:   0.438 TIME LEFT:  2.00D  GRAD.:     5.249 HEAT:  110.3958
 CYCLE:   143 TIME:   0.406 TIME LEFT:  2.00D  GRAD.:     6.017 HEAT:  110.3737
 CYCLE:   144 TIME:   0.496 TIME LEFT:  2.00D  GRAD.:    13.173 HEAT:  110.3677
 CYCLE:   145 TIME:   0.473 TIME LEFT:  2.00D  GRAD.:     4.671 HEAT:  110.3493
 CYCLE:   146 TIME:   0.484 TIME LEFT:  2.00D  GRAD.:     3.563 HEAT:  110.3448
 CYCLE:   147 TIME:   0.426 TIME LEFT:  2.00D  GRAD.:     4.419 HEAT:  110.3351
 CYCLE:   148 TIME:   0.395 TIME LEFT:  2.00D  GRAD.:     4.810 HEAT:  110.3229
 CYCLE:   149 TIME:   0.453 TIME LEFT:  2.00D  GRAD.:    16.800 HEAT:  110.3306
 CYCLE:   150 TIME:   0.445 TIME LEFT:  2.00D  GRAD.:     3.613 HEAT:  110.2958
 CYCLE:   151 TIME:   0.367 TIME LEFT:  2.00D  GRAD.:     2.908 HEAT:  110.2890
 CYCLE:   152 TIME:   0.441 TIME LEFT:  2.00D  GRAD.:     4.826 HEAT:  110.2744
 CYCLE:   153 TIME:   0.434 TIME LEFT:  2.00D  GRAD.:     6.668 HEAT:  110.2629
 CYCLE:   154 TIME:   0.371 TIME LEFT:  2.00D  GRAD.:     4.491 HEAT:  110.2527
 CYCLE:   155 TIME:   0.430 TIME LEFT:  2.00D  GRAD.:     3.646 HEAT:  110.2395
 CYCLE:   156 TIME:   0.391 TIME LEFT:  2.00D  GRAD.:     4.572 HEAT:  110.2276
 CYCLE:   157 TIME:   0.488 TIME LEFT:  2.00D  GRAD.:     4.687 HEAT:  110.2148
 CYCLE:   158 TIME:   0.488 TIME LEFT:  2.00D  GRAD.:     4.895 HEAT:  110.1954
 CYCLE:   159 TIME:   0.445 TIME LEFT:  2.00D  GRAD.:     5.733 HEAT:  110.1790
 CYCLE:   160 TIME:   0.414 TIME LEFT:  2.00D  GRAD.:     5.077 HEAT:  110.1639
 CYCLE:   161 TIME:   0.434 TIME LEFT:  2.00D  GRAD.:     5.906 HEAT:  110.1495
 CYCLE:   162 TIME:   0.402 TIME LEFT:  2.00D  GRAD.:     3.661 HEAT:  110.1291
 CYCLE:   163 TIME:   0.379 TIME LEFT:  2.00D  GRAD.:     3.907 HEAT:  110.1150
 CYCLE:   164 TIME:   0.398 TIME LEFT:  2.00D  GRAD.:     6.358 HEAT:  110.0990
 CYCLE:   165 TIME:   0.402 TIME LEFT:  2.00D  GRAD.:     3.808 HEAT:  110.0798
 CYCLE:   166 TIME:   0.363 TIME LEFT:  2.00D  GRAD.:     3.558 HEAT:  110.0680
 CYCLE:   167 TIME:   0.363 TIME LEFT:  2.00D  GRAD.:     4.322 HEAT:  110.0566
 CYCLE:   168 TIME:   0.375 TIME LEFT:  2.00D  GRAD.:     4.232 HEAT:  110.0420
 CYCLE:   169 TIME:   0.398 TIME LEFT:  2.00D  GRAD.:     6.298 HEAT:  110.0291
 CYCLE:   170 TIME:   0.348 TIME LEFT:  2.00D  GRAD.:     4.084 HEAT:  110.0159
 CYCLE:   171 TIME:   0.301 TIME LEFT:  2.00D  GRAD.:     3.852 HEAT:  110.0055
 CYCLE:   172 TIME:   0.402 TIME LEFT:  2.00D  GRAD.:     8.409 HEAT:  109.9914
 CYCLE:   173 TIME:   0.375 TIME LEFT:  2.00D  GRAD.:     8.536 HEAT:  109.9828
 CYCLE:   174 TIME:   0.375 TIME LEFT:  2.00D  GRAD.:     3.749 HEAT:  109.9732
 CYCLE:   175 TIME:   0.375 TIME LEFT:  2.00D  GRAD.:     3.839 HEAT:  109.9664
 CYCLE:   176 TIME:   0.348 TIME LEFT:  2.00D  GRAD.:     3.825 HEAT:  109.9573
 CYCLE:   177 TIME:   0.375 TIME LEFT:  2.00D  GRAD.:    16.713 HEAT:  109.9547
 CYCLE:   178 TIME:   0.363 TIME LEFT:  2.00D  GRAD.:     3.806 HEAT:  109.9283
 CYCLE:   179 TIME:   0.301 TIME LEFT:  2.00D  GRAD.:     3.189 HEAT:  109.9241
 CYCLE:   180 TIME:   0.363 TIME LEFT:  2.00D  GRAD.:     4.599 HEAT:  109.9144
 CYCLE:   181 TIME:   0.367 TIME LEFT:  2.00D  GRAD.:     4.262 HEAT:  109.9025
 CYCLE:   182 TIME:   0.355 TIME LEFT:  2.00D  GRAD.:    10.160 HEAT:  109.8956
 CYCLE:   183 TIME:   0.320 TIME LEFT:  2.00D  GRAD.:     3.261 HEAT:  109.8806
 CYCLE:   184 TIME:   0.355 TIME LEFT:  2.00D  GRAD.:     2.601 HEAT:  109.8757
 CYCLE:   185 TIME:   0.422 TIME LEFT:  2.00D  GRAD.:     3.237 HEAT:  109.8673
 CYCLE:   186 TIME:   0.398 TIME LEFT:  2.00D  GRAD.:     6.425 HEAT:  109.8559
 CYCLE:   187 TIME:   0.418 TIME LEFT:  2.00D  GRAD.:     6.224 HEAT:  109.8438
 CYCLE:   188 TIME:   0.430 TIME LEFT:  2.00D  GRAD.:     3.337 HEAT:  109.8372
 CYCLE:   189 TIME:   0.379 TIME LEFT:  2.00D  GRAD.:     3.429 HEAT:  109.8321
 CYCLE:   190 TIME:   0.324 TIME LEFT:  2.00D  GRAD.:     3.238 HEAT:  109.8242
 CYCLE:   191 TIME:   0.336 TIME LEFT:  2.00D  GRAD.:     2.583 HEAT:  109.8175
 CYCLE:   192 TIME:   0.348 TIME LEFT:  2.00D  GRAD.:     2.802 HEAT:  109.8101
 CYCLE:   193 TIME:   0.332 TIME LEFT:  2.00D  GRAD.:     5.775 HEAT:  109.8052
 CYCLE:   194 TIME:   0.316 TIME LEFT:  2.00D  GRAD.:     2.732 HEAT:  109.7990
 CYCLE:   195 TIME:   0.348 TIME LEFT:  2.00D  GRAD.:     3.080 HEAT:  109.7945
 CYCLE:   196 TIME:   0.320 TIME LEFT:  2.00D  GRAD.:     2.931 HEAT:  109.7893
 CYCLE:   197 TIME:   0.348 TIME LEFT:  2.00D  GRAD.:     2.709 HEAT:  109.7792
 CYCLE:   198 TIME:   0.383 TIME LEFT:  2.00D  GRAD.:     5.991 HEAT:  109.7692
 CYCLE:   199 TIME:   0.324 TIME LEFT:  2.00D  GRAD.:     3.717 HEAT:  109.7603
 CYCLE:   200 TIME:   0.305 TIME LEFT:  2.00D  GRAD.:     2.742 HEAT:  109.7547
 CYCLE:   201 TIME:   0.340 TIME LEFT:  2.00D  GRAD.:     7.569 HEAT:  109.7478
 CYCLE:   202 TIME:   0.316 TIME LEFT:  2.00D  GRAD.:     4.432 HEAT:  109.7386
 CYCLE:   203 TIME:   0.293 TIME LEFT:  2.00D  GRAD.:     2.735 HEAT:  109.7317
 CYCLE:   204 TIME:   0.328 TIME LEFT:  2.00D  GRAD.:     3.409 HEAT:  109.7230
 CYCLE:   205 TIME:   0.336 TIME LEFT:  2.00D  GRAD.:     7.725 HEAT:  109.7156
 CYCLE:   206 TIME:   0.277 TIME LEFT:  2.00D  GRAD.:     3.272 HEAT:  109.7066
 CYCLE:   207 TIME:   0.266 TIME LEFT:  2.00D  GRAD.:     3.409 HEAT:  109.7029
 CYCLE:   208 TIME:   0.312 TIME LEFT:  2.00D  GRAD.:     3.981 HEAT:  109.6950
 CYCLE:   209 TIME:   0.379 TIME LEFT:  2.00D  GRAD.:    12.362 HEAT:  109.6925
 CYCLE:   210 TIME:   0.293 TIME LEFT:  2.00D  GRAD.:     3.783 HEAT:  109.6774
 CYCLE:   211 TIME:   0.336 TIME LEFT:  2.00D  GRAD.:     2.432 HEAT:  109.6727
 CYCLE:   212 TIME:   0.395 TIME LEFT:  2.00D  GRAD.:     2.643 HEAT:  109.6678
 CYCLE:   213 TIME:   0.395 TIME LEFT:  2.00D  GRAD.:     4.593 HEAT:  109.6617
 CYCLE:   214 TIME:   0.355 TIME LEFT:  2.00D  GRAD.:     7.704 HEAT:  109.6529
 CYCLE:   215 TIME:   0.320 TIME LEFT:  2.00D  GRAD.:     5.707 HEAT:  109.6421
 CYCLE:   216 TIME:   0.297 TIME LEFT:  2.00D  GRAD.:     2.784 HEAT:  109.6373
 CYCLE:   217 TIME:   0.344 TIME LEFT:  2.00D  GRAD.:     6.122 HEAT:  109.6335
 CYCLE:   218 TIME:   0.379 TIME LEFT:  2.00D  GRAD.:     6.077 HEAT:  109.6289
 CYCLE:   219 TIME:   0.379 TIME LEFT:  2.00D  GRAD.:     5.257 HEAT:  109.6224
 CYCLE:   220 TIME:   0.352 TIME LEFT:  2.00D  GRAD.:    26.777 HEAT:  109.6826
 CYCLE:   221 TIME:   0.289 TIME LEFT:  2.00D  GRAD.:     3.168 HEAT:  109.6094
 CYCLE:   222 TIME:   0.316 TIME LEFT:  2.00D  GRAD.:     2.800 HEAT:  109.6059
 CYCLE:   223 TIME:   0.355 TIME LEFT:  2.00D  GRAD.:     4.695 HEAT:  109.5942
 CYCLE:   224 TIME:   0.312 TIME LEFT:  2.00D  GRAD.:    15.458 HEAT:  109.6037
 CYCLE:   225 TIME:   0.312 TIME LEFT:  2.00D  GRAD.:     3.551 HEAT:  109.5852
 CYCLE:   226 TIME:   0.305 TIME LEFT:  2.00D  GRAD.:     3.120 HEAT:  109.5815
 CYCLE:   227 TIME:   0.301 TIME LEFT:  2.00D  GRAD.:     2.645 HEAT:  109.5726
 CYCLE:   228 TIME:   0.312 TIME LEFT:  2.00D  GRAD.:     3.910 HEAT:  109.5568
 CYCLE:   229 TIME:   0.344 TIME LEFT:  2.00D  GRAD.:     5.299 HEAT:  109.5443
 CYCLE:   230 TIME:   0.297 TIME LEFT:  2.00D  GRAD.:     3.790 HEAT:  109.5320
 CYCLE:   231 TIME:   0.297 TIME LEFT:  2.00D  GRAD.:     4.298 HEAT:  109.5134
 CYCLE:   232 TIME:   0.305 TIME LEFT:  2.00D  GRAD.:    10.058 HEAT:  109.5028
 CYCLE:   233 TIME:   0.297 TIME LEFT:  2.00D  GRAD.:     3.563 HEAT:  109.4869
 CYCLE:   234 TIME:   0.320 TIME LEFT:  2.00D  GRAD.:     3.291 HEAT:  109.4781
 CYCLE:   235 TIME:   0.332 TIME LEFT:  2.00D  GRAD.:     4.714 HEAT:  109.4666
 CYCLE:   236 TIME:   0.305 TIME LEFT:  2.00D  GRAD.:     8.989 HEAT:  109.4513
 CYCLE:   237 TIME:   0.316 TIME LEFT:  2.00D  GRAD.:     5.182 HEAT:  109.4354
 CYCLE:   238 TIME:   0.340 TIME LEFT:  2.00D  GRAD.:     3.222 HEAT:  109.4284
 CYCLE:   239 TIME:   0.383 TIME LEFT:  2.00D  GRAD.:     7.427 HEAT:  109.4191
 CYCLE:   240 TIME:   0.305 TIME LEFT:  2.00D  GRAD.:     5.336 HEAT:  109.4113
 CYCLE:   241 TIME:   0.352 TIME LEFT:  2.00D  GRAD.:     4.033 HEAT:  109.3934
 CYCLE:   242 TIME:   0.285 TIME LEFT:  2.00D  GRAD.:     4.840 HEAT:  109.3868
 CYCLE:   243 TIME:   0.285 TIME LEFT:  2.00D  GRAD.:     4.241 HEAT:  109.3777
 CYCLE:   244 TIME:   0.355 TIME LEFT:  2.00D  GRAD.:     8.149 HEAT:  109.3660
 CYCLE:   245 TIME:   0.277 TIME LEFT:  2.00D  GRAD.:     3.290 HEAT:  109.3555
 CYCLE:   246 TIME:   0.316 TIME LEFT:  2.00D  GRAD.:     3.588 HEAT:  109.3500
 CYCLE:   247 TIME:   0.355 TIME LEFT:  2.00D  GRAD.:     4.218 HEAT:  109.3402
 CYCLE:   248 TIME:   0.348 TIME LEFT:  2.00D  GRAD.:     4.963 HEAT:  109.3237
 CYCLE:   249 TIME:   0.375 TIME LEFT:  2.00D  GRAD.:     7.265 HEAT:  109.3137
 CYCLE:   250 TIME:   0.328 TIME LEFT:  2.00D  GRAD.:     3.365 HEAT:  109.3035
 CYCLE:   251 TIME:   0.305 TIME LEFT:  2.00D  GRAD.:     3.888 HEAT:  109.2940
 CYCLE:   252 TIME:   0.297 TIME LEFT:  2.00D  GRAD.:     4.121 HEAT:  109.2862
 CYCLE:   253 TIME:   0.293 TIME LEFT:  2.00D  GRAD.:     8.117 HEAT:  109.2734
 CYCLE:   254 TIME:   0.297 TIME LEFT:  2.00D  GRAD.:     6.394 HEAT:  109.2626
 CYCLE:   255 TIME:   0.285 TIME LEFT:  2.00D  GRAD.:     3.492 HEAT:  109.2549
 CYCLE:   256 TIME:   0.281 TIME LEFT:  2.00D  GRAD.:     3.443 HEAT:  109.2467
 CYCLE:   257 TIME:   0.297 TIME LEFT:  2.00D  GRAD.:     3.982 HEAT:  109.2368
 CYCLE:   258 TIME:   0.352 TIME LEFT:  2.00D  GRAD.:     7.319 HEAT:  109.2235
 CYCLE:   259 TIME:   0.324 TIME LEFT:  2.00D  GRAD.:     3.730 HEAT:  109.2088
 CYCLE:   260 TIME:   0.312 TIME LEFT:  2.00D  GRAD.:     3.223 HEAT:  109.2003
 CYCLE:   261 TIME:   0.336 TIME LEFT:  2.00D  GRAD.:     5.011 HEAT:  109.1911
 CYCLE:   262 TIME:   0.336 TIME LEFT:  2.00D  GRAD.:     4.402 HEAT:  109.1833
 CYCLE:   263 TIME:   0.305 TIME LEFT:  2.00D  GRAD.:     3.787 HEAT:  109.1764
 CYCLE:   264 TIME:   0.344 TIME LEFT:  2.00D  GRAD.:     4.461 HEAT:  109.1609
 CYCLE:   265 TIME:   0.375 TIME LEFT:  2.00D  GRAD.:    10.174 HEAT:  109.1533
 CYCLE:   266 TIME:   0.340 TIME LEFT:  2.00D  GRAD.:     4.884 HEAT:  109.1395
 CYCLE:   267 TIME:   0.379 TIME LEFT:  2.00D  GRAD.:     3.782 HEAT:  109.1264
 CYCLE:   268 TIME:   0.309 TIME LEFT:  2.00D  GRAD.:     4.501 HEAT:  109.1161
 CYCLE:   269 TIME:   0.324 TIME LEFT:  2.00D  GRAD.:     7.347 HEAT:  109.0981
 CYCLE:   270 TIME:   0.332 TIME LEFT:  2.00D  GRAD.:     9.441 HEAT:  109.0868
 CYCLE:   271 TIME:   0.348 TIME LEFT:  2.00D  GRAD.:     3.808 HEAT:  109.0724
 CYCLE:   272 TIME:   0.305 TIME LEFT:  2.00D  GRAD.:     4.248 HEAT:  109.0646
 CYCLE:   273 TIME:   0.344 TIME LEFT:  2.00D  GRAD.:     5.361 HEAT:  109.0506
 CYCLE:   274 TIME:   0.316 TIME LEFT:  2.00D  GRAD.:     5.539 HEAT:  109.0340
 CYCLE:   275 TIME:   0.312 TIME LEFT:  2.00D  GRAD.:     4.364 HEAT:  109.0225
 CYCLE:   276 TIME:   0.332 TIME LEFT:  2.00D  GRAD.:     3.584 HEAT:  109.0152
 CYCLE:   277 TIME:   0.320 TIME LEFT:  2.00D  GRAD.:     4.278 HEAT:  109.0050
 CYCLE:   278 TIME:   0.332 TIME LEFT:  2.00D  GRAD.:     6.770 HEAT:  108.9952
 CYCLE:   279 TIME:   0.316 TIME LEFT:  2.00D  GRAD.:     3.447 HEAT:  108.9862
 CYCLE:   280 TIME:   0.312 TIME LEFT:  2.00D  GRAD.:     3.364 HEAT:  108.9783
 CYCLE:   281 TIME:   0.320 TIME LEFT:  2.00D  GRAD.:     5.927 HEAT:  108.9698
 CYCLE:   282 TIME:   0.305 TIME LEFT:  2.00D  GRAD.:     3.849 HEAT:  108.9583
 CYCLE:   283 TIME:   0.352 TIME LEFT:  2.00D  GRAD.:     3.020 HEAT:  108.9454
 CYCLE:   284 TIME:   0.305 TIME LEFT:  2.00D  GRAD.:     4.199 HEAT:  108.9376
 CYCLE:   285 TIME:   0.324 TIME LEFT:  2.00D  GRAD.:     5.534 HEAT:  108.9288
 CYCLE:   286 TIME:   0.332 TIME LEFT:  2.00D  GRAD.:     3.189 HEAT:  108.9176
 CYCLE:   287 TIME:   0.344 TIME LEFT:  2.00D  GRAD.:     3.506 HEAT:  108.9083
 CYCLE:   288 TIME:   0.375 TIME LEFT:  2.00D  GRAD.:     4.686 HEAT:  108.8942
 CYCLE:   289 TIME:   0.383 TIME LEFT:  2.00D  GRAD.:    10.314 HEAT:  108.8872
 CYCLE:   290 TIME:   0.340 TIME LEFT:  2.00D  GRAD.:     3.171 HEAT:  108.8721
 CYCLE:   291 TIME:   0.363 TIME LEFT:  2.00D  GRAD.:     6.692 HEAT:  108.8711
 CYCLE:   292 TIME:   0.285 TIME LEFT:  2.00D  GRAD.:     3.823 HEAT:  108.8618
 CYCLE:   293 TIME:   0.289 TIME LEFT:  2.00D  GRAD.:     3.699 HEAT:  108.8529
 CYCLE:   294 TIME:   0.266 TIME LEFT:  2.00D  GRAD.:     4.177 HEAT:  108.8451
 CYCLE:   295 TIME:   0.289 TIME LEFT:  2.00D  GRAD.:     4.830 HEAT:  108.8359
 CYCLE:   296 TIME:   0.320 TIME LEFT:  2.00D  GRAD.:     5.184 HEAT:  108.8247
 CYCLE:   297 TIME:   0.281 TIME LEFT:  2.00D  GRAD.:     4.105 HEAT:  108.8172
 CYCLE:   298 TIME:   0.289 TIME LEFT:  2.00D  GRAD.:     3.309 HEAT:  108.8110
 CYCLE:   299 TIME:   0.355 TIME LEFT:  2.00D  GRAD.:     6.061 HEAT:  108.7973
 CYCLE:   300 TIME:   0.312 TIME LEFT:  2.00D  GRAD.:    13.876 HEAT:  108.7994
 CYCLE:   301 TIME:   0.281 TIME LEFT:  2.00D  GRAD.:     3.772 HEAT:  108.7809
 CYCLE:   302 TIME:   0.348 TIME LEFT:  2.00D  GRAD.:     3.606 HEAT:  108.7734
 CYCLE:   303 TIME:   0.340 TIME LEFT:  2.00D  GRAD.:     2.846 HEAT:  108.7650
 CYCLE:   304 TIME:   0.355 TIME LEFT:  2.00D  GRAD.:     3.501 HEAT:  108.7470
 CYCLE:   305 TIME:   0.305 TIME LEFT:  2.00D  GRAD.:     8.644 HEAT:  108.7422
 CYCLE:   306 TIME:   0.254 TIME LEFT:  2.00D  GRAD.:     3.612 HEAT:  108.7299
 CYCLE:   307 TIME:   0.328 TIME LEFT:  2.00D  GRAD.:     5.641 HEAT:  108.7270
 CYCLE:   308 TIME:   0.301 TIME LEFT:  2.00D  GRAD.:     8.761 HEAT:  108.7206
 CYCLE:   309 TIME:   0.258 TIME LEFT:  2.00D  GRAD.:     3.053 HEAT:  108.7067
 CYCLE:   310 TIME:   0.316 TIME LEFT:  2.00D  GRAD.:     2.294 HEAT:  108.7018
 CYCLE:   311 TIME:   0.379 TIME LEFT:  2.00D  GRAD.:     4.521 HEAT:  108.6952
 CYCLE:   312 TIME:   0.406 TIME LEFT:  2.00D  GRAD.:     6.538 HEAT:  108.6914
 CYCLE:   313 TIME:   0.277 TIME LEFT:  2.00D  GRAD.:     3.470 HEAT:  108.6860
 CYCLE:   314 TIME:   0.301 TIME LEFT:  2.00D  GRAD.:     4.771 HEAT:  108.6775
 CYCLE:   315 TIME:   0.277 TIME LEFT:  2.00D  GRAD.:     3.570 HEAT:  108.6724
 CYCLE:   316 TIME:   0.301 TIME LEFT:  2.00D  GRAD.:     3.778 HEAT:  108.6577
 CYCLE:   317 TIME:   0.320 TIME LEFT:  2.00D  GRAD.:     7.188 HEAT:  108.6511
 CYCLE:   318 TIME:   0.305 TIME LEFT:  2.00D  GRAD.:     5.146 HEAT:  108.6423
 CYCLE:   319 TIME:   0.312 TIME LEFT:  2.00D  GRAD.:     4.305 HEAT:  108.6320
 CYCLE:   320 TIME:   0.293 TIME LEFT:  2.00D  GRAD.:     3.917 HEAT:  108.6212
 CYCLE:   321 TIME:   0.355 TIME LEFT:  2.00D  GRAD.:     3.909 HEAT:  108.6065
 CYCLE:   322 TIME:   0.344 TIME LEFT:  2.00D  GRAD.:     7.062 HEAT:  108.5956
 CYCLE:   323 TIME:   0.301 TIME LEFT:  2.00D  GRAD.:     3.481 HEAT:  108.5854
 CYCLE:   324 TIME:   0.297 TIME LEFT:  2.00D  GRAD.:     3.357 HEAT:  108.5785
 CYCLE:   325 TIME:   0.344 TIME LEFT:  2.00D  GRAD.:     4.418 HEAT:  108.5620
 CYCLE:   326 TIME:   0.375 TIME LEFT:  2.00D  GRAD.:     5.808 HEAT:  108.5496
 CYCLE:   327 TIME:   0.359 TIME LEFT:  2.00D  GRAD.:     3.585 HEAT:  108.5352
 CYCLE:   328 TIME:   0.355 TIME LEFT:  2.00D  GRAD.:     3.777 HEAT:  108.5190
 CYCLE:   329 TIME:   0.363 TIME LEFT:  2.00D  GRAD.:     7.250 HEAT:  108.5059
 CYCLE:   330 TIME:   0.367 TIME LEFT:  2.00D  GRAD.:     5.140 HEAT:  108.4923
 CYCLE:   331 TIME:   0.320 TIME LEFT:  2.00D  GRAD.:     3.819 HEAT:  108.4795
 CYCLE:   332 TIME:   0.340 TIME LEFT:  2.00D  GRAD.:     7.038 HEAT:  108.4649
 CYCLE:   333 TIME:   0.316 TIME LEFT:  2.00D  GRAD.:    13.368 HEAT:  108.4567
 CYCLE:   334 TIME:   0.297 TIME LEFT:  2.00D  GRAD.:     5.553 HEAT:  108.4369
 CYCLE:   335 TIME:   0.348 TIME LEFT:  2.00D  GRAD.:     4.269 HEAT:  108.4224
 CYCLE:   336 TIME:   0.312 TIME LEFT:  2.00D  GRAD.:     5.902 HEAT:  108.4059
 CYCLE:   337 TIME:   0.316 TIME LEFT:  2.00D  GRAD.:     7.104 HEAT:  108.3801
 CYCLE:   338 TIME:   0.328 TIME LEFT:  2.00D  GRAD.:    16.548 HEAT:  108.3615
 CYCLE:   339 TIME:   0.316 TIME LEFT:  2.00D  GRAD.:     6.679 HEAT:  108.3271
 CYCLE:   340 TIME:   0.293 TIME LEFT:  2.00D  GRAD.:     4.409 HEAT:  108.3125
 CYCLE:   341 TIME:   0.324 TIME LEFT:  2.00D  GRAD.:     5.037 HEAT:  108.2938
 CYCLE:   342 TIME:   0.371 TIME LEFT:  2.00D  GRAD.:     8.978 HEAT:  108.2754
 CYCLE:   343 TIME:   0.324 TIME LEFT:  2.00D  GRAD.:     5.926 HEAT:  108.2542
 CYCLE:   344 TIME:   0.316 TIME LEFT:  2.00D  GRAD.:     4.987 HEAT:  108.2343
 CYCLE:   345 TIME:   0.332 TIME LEFT:  2.00D  GRAD.:     8.992 HEAT:  108.2295
 CYCLE:   346 TIME:   0.316 TIME LEFT:  2.00D  GRAD.:     6.980 HEAT:  108.2100
 CYCLE:   347 TIME:   0.316 TIME LEFT:  2.00D  GRAD.:     6.468 HEAT:  108.1861
 CYCLE:   348 TIME:   0.324 TIME LEFT:  2.00D  GRAD.:     5.338 HEAT:  108.1674
 CYCLE:   349 TIME:   0.324 TIME LEFT:  2.00D  GRAD.:     7.381 HEAT:  108.1426
 CYCLE:   350 TIME:   0.316 TIME LEFT:  2.00D  GRAD.:     5.688 HEAT:  108.1096
 CYCLE:   351 TIME:   0.328 TIME LEFT:  2.00D  GRAD.:     4.726 HEAT:  108.0876
 CYCLE:   352 TIME:   0.355 TIME LEFT:  2.00D  GRAD.:     5.086 HEAT:  108.0650
 CYCLE:   353 TIME:   0.320 TIME LEFT:  2.00D  GRAD.:    13.657 HEAT:  108.0545
 CYCLE:   354 TIME:   0.297 TIME LEFT:  2.00D  GRAD.:     5.011 HEAT:  108.0313
 CYCLE:   355 TIME:   0.332 TIME LEFT:  2.00D  GRAD.:     4.128 HEAT:  108.0213
 CYCLE:   356 TIME:   0.348 TIME LEFT:  2.00D  GRAD.:     9.954 HEAT:  108.0165
 CYCLE:   357 TIME:   0.379 TIME LEFT:  2.00D  GRAD.:     8.625 HEAT:  107.9975
 CYCLE:   358 TIME:   0.316 TIME LEFT:  2.00D  GRAD.:     3.414 HEAT:  107.9820
 CYCLE:   359 TIME:   0.340 TIME LEFT:  2.00D  GRAD.:     4.450 HEAT:  107.9689
 CYCLE:   360 TIME:   0.324 TIME LEFT:  2.00D  GRAD.:     5.721 HEAT:  107.9497
 CYCLE:   361 TIME:   0.340 TIME LEFT:  2.00D  GRAD.:    19.262 HEAT:  107.9640
 CYCLE:   362 TIME:   0.293 TIME LEFT:  2.00D  GRAD.:     5.201 HEAT:  107.9316
 CYCLE:   363 TIME:   0.289 TIME LEFT:  2.00D  GRAD.:     2.982 HEAT:  107.9245
 CYCLE:   364 TIME:   0.340 TIME LEFT:  2.00D  GRAD.:     3.983 HEAT:  107.9155
 CYCLE:   365 TIME:   0.297 TIME LEFT:  2.00D  GRAD.:     3.909 HEAT:  107.9059
 CYCLE:   366 TIME:   0.344 TIME LEFT:  2.00D  GRAD.:    15.491 HEAT:  107.9139
 CYCLE:   367 TIME:   0.285 TIME LEFT:  2.00D  GRAD.:     3.180 HEAT:  107.8857
 CYCLE:   368 TIME:   0.309 TIME LEFT:  2.00D  GRAD.:     2.711 HEAT:  107.8814
 CYCLE:   369 TIME:   0.336 TIME LEFT:  2.00D  GRAD.:     4.234 HEAT:  107.8697
 CYCLE:   370 TIME:   0.359 TIME LEFT:  2.00D  GRAD.:     6.697 HEAT:  107.8599
 CYCLE:   371 TIME:   0.352 TIME LEFT:  2.00D  GRAD.:     3.959 HEAT:  107.8481
 CYCLE:   372 TIME:   0.309 TIME LEFT:  2.00D  GRAD.:     3.376 HEAT:  107.8391
 CYCLE:   373 TIME:   0.336 TIME LEFT:  2.00D  GRAD.:     4.854 HEAT:  107.8261
 CYCLE:   374 TIME:   0.359 TIME LEFT:  2.00D  GRAD.:     7.409 HEAT:  107.8157
 CYCLE:   375 TIME:   0.281 TIME LEFT:  2.00D  GRAD.:     3.920 HEAT:  107.8014
 CYCLE:   376 TIME:   0.340 TIME LEFT:  2.00D  GRAD.:     3.517 HEAT:  107.7920
 CYCLE:   377 TIME:   0.328 TIME LEFT:  2.00D  GRAD.:     5.941 HEAT:  107.7817
 CYCLE:   378 TIME:   0.328 TIME LEFT:  2.00D  GRAD.:     5.326 HEAT:  107.7720
 CYCLE:   379 TIME:   0.281 TIME LEFT:  2.00D  GRAD.:     3.791 HEAT:  107.7621
 CYCLE:   380 TIME:   0.270 TIME LEFT:  2.00D  GRAD.:     3.682 HEAT:  107.7536
 CYCLE:   381 TIME:   0.289 TIME LEFT:  2.00D  GRAD.:     4.026 HEAT:  107.7412
 CYCLE:   382 TIME:   0.332 TIME LEFT:  2.00D  GRAD.:     6.468 HEAT:  107.7278
 CYCLE:   383 TIME:   0.328 TIME LEFT:  2.00D  GRAD.:     4.432 HEAT:  107.7151
 CYCLE:   384 TIME:   0.281 TIME LEFT:  2.00D  GRAD.:     3.389 HEAT:  107.7071
 CYCLE:   385 TIME:   0.273 TIME LEFT:  2.00D  GRAD.:     3.359 HEAT:  107.7007
 CYCLE:   386 TIME:   0.312 TIME LEFT:  2.00D  GRAD.:     7.300 HEAT:  107.6925
 CYCLE:   387 TIME:   0.301 TIME LEFT:  2.00D  GRAD.:     3.454 HEAT:  107.6801
 CYCLE:   388 TIME:   0.281 TIME LEFT:  2.00D  GRAD.:     3.166 HEAT:  107.6733
 CYCLE:   389 TIME:   0.312 TIME LEFT:  2.00D  GRAD.:     4.599 HEAT:  107.6633
 CYCLE:   390 TIME:   0.316 TIME LEFT:  2.00D  GRAD.:     5.192 HEAT:  107.6495
 CYCLE:   391 TIME:   0.363 TIME LEFT:  2.00D  GRAD.:     3.764 HEAT:  107.6318
 CYCLE:   392 TIME:   0.359 TIME LEFT:  2.00D  GRAD.:     4.598 HEAT:  107.6221
 CYCLE:   393 TIME:   0.332 TIME LEFT:  2.00D  GRAD.:     3.726 HEAT:  107.6129
 CYCLE:   394 TIME:   0.371 TIME LEFT:  2.00D  GRAD.:     4.079 HEAT:  107.6043
 CYCLE:   395 TIME:   0.340 TIME LEFT:  2.00D  GRAD.:     3.056 HEAT:  107.5938
 CYCLE:   396 TIME:   0.320 TIME LEFT:  2.00D  GRAD.:     3.477 HEAT:  107.5827
 CYCLE:   397 TIME:   0.332 TIME LEFT:  2.00D  GRAD.:     6.371 HEAT:  107.5759
 CYCLE:   398 TIME:   0.301 TIME LEFT:  2.00D  GRAD.:     3.159 HEAT:  107.5679
 CYCLE:   399 TIME:   0.297 TIME LEFT:  2.00D  GRAD.:     2.405 HEAT:  107.5638
 CYCLE:   400 TIME:   0.344 TIME LEFT:  2.00D  GRAD.:     3.497 HEAT:  107.5580
 CYCLE:   401 TIME:   0.387 TIME LEFT:  2.00D  GRAD.:     7.199 HEAT:  107.5545
 CYCLE:   402 TIME:   0.305 TIME LEFT:  2.00D  GRAD.:     3.237 HEAT:  107.5476
 CYCLE:   403 TIME:   0.379 TIME LEFT:  2.00D  GRAD.:     2.834 HEAT:  107.5422
 CYCLE:   404 TIME:   0.348 TIME LEFT:  2.00D  GRAD.:     2.725 HEAT:  107.5385
 CYCLE:   405 TIME:   0.426 TIME LEFT:  2.00D  GRAD.:     3.855 HEAT:  107.5292
 CYCLE:   406 TIME:   0.316 TIME LEFT:  2.00D  GRAD.:     5.739 HEAT:  107.5237
 CYCLE:   407 TIME:   0.305 TIME LEFT:  2.00D  GRAD.:     3.640 HEAT:  107.5183
 CYCLE:   408 TIME:   0.301 TIME LEFT:  2.00D  GRAD.:     2.659 HEAT:  107.5151
 CYCLE:   409 TIME:   0.332 TIME LEFT:  2.00D  GRAD.:     2.688 HEAT:  107.5086
 CYCLE:   410 TIME:   0.316 TIME LEFT:  2.00D  GRAD.:     3.552 HEAT:  107.5002
 CYCLE:   411 TIME:   0.301 TIME LEFT:  2.00D  GRAD.:     3.781 HEAT:  107.4912
 CYCLE:   412 TIME:   0.320 TIME LEFT:  2.00D  GRAD.:     3.338 HEAT:  107.4846
 CYCLE:   413 TIME:   0.301 TIME LEFT:  2.00D  GRAD.:     3.341 HEAT:  107.4781
 CYCLE:   414 TIME:   0.332 TIME LEFT:  2.00D  GRAD.:     5.689 HEAT:  107.4697
 CYCLE:   415 TIME:   0.309 TIME LEFT:  2.00D  GRAD.:     3.064 HEAT:  107.4601
 CYCLE:   416 TIME:   0.340 TIME LEFT:  2.00D  GRAD.:     2.793 HEAT:  107.4532
 CYCLE:   417 TIME:   0.332 TIME LEFT:  2.00D  GRAD.:     5.593 HEAT:  107.4490
 CYCLE:   418 TIME:   0.281 TIME LEFT:  2.00D  GRAD.:     3.159 HEAT:  107.4440
 CYCLE:   419 TIME:   0.328 TIME LEFT:  2.00D  GRAD.:     2.634 HEAT:  107.4380
 CYCLE:   420 TIME:   0.320 TIME LEFT:  2.00D  GRAD.:     3.009 HEAT:  107.4330
 CYCLE:   421 TIME:   0.359 TIME LEFT:  2.00D  GRAD.:     6.397 HEAT:  107.4281
 CYCLE:   422 TIME:   0.301 TIME LEFT:  2.00D  GRAD.:     2.845 HEAT:  107.4214
 CYCLE:   423 TIME:   0.316 TIME LEFT:  2.00D  GRAD.:     2.617 HEAT:  107.4175
 CYCLE:   424 TIME:   0.320 TIME LEFT:  2.00D  GRAD.:     3.746 HEAT:  107.4107
 CYCLE:   425 TIME:   0.352 TIME LEFT:  2.00D  GRAD.:     3.608 HEAT:  107.4043
 CYCLE:   426 TIME:   0.344 TIME LEFT:  2.00D  GRAD.:     2.381 HEAT:  107.3954
 CYCLE:   427 TIME:   0.352 TIME LEFT:  2.00D  GRAD.:     2.772 HEAT:  107.3895
 CYCLE:   428 TIME:   0.320 TIME LEFT:  2.00D  GRAD.:     5.480 HEAT:  107.3840
 CYCLE:   429 TIME:   0.332 TIME LEFT:  2.00D  GRAD.:     3.359 HEAT:  107.3753
 CYCLE:   430 TIME:   0.281 TIME LEFT:  2.00D  GRAD.:     2.762 HEAT:  107.3688
 CYCLE:   431 TIME:   0.324 TIME LEFT:  2.00D  GRAD.:     2.940 HEAT:  107.3622
 CYCLE:   432 TIME:   0.340 TIME LEFT:  2.00D  GRAD.:     3.746 HEAT:  107.3554
 CYCLE:   433 TIME:   0.305 TIME LEFT:  2.00D  GRAD.:     3.427 HEAT:  107.3483
 CYCLE:   434 TIME:   0.309 TIME LEFT:  2.00D  GRAD.:     2.832 HEAT:  107.3438
 CYCLE:   435 TIME:   0.301 TIME LEFT:  2.00D  GRAD.:     2.824 HEAT:  107.3393
 CYCLE:   436 TIME:   0.367 TIME LEFT:  2.00D  GRAD.:     7.449 HEAT:  107.3317
 CYCLE:   437 TIME:   0.281 TIME LEFT:  2.00D  GRAD.:     3.965 HEAT:  107.3245
 CYCLE:   438 TIME:   0.445 TIME LEFT:  2.00D  GRAD.:     2.886 HEAT:  107.3207
 CYCLE:   439 TIME:   0.293 TIME LEFT:  2.00D  GRAD.:     3.761 HEAT:  107.3126
 CYCLE:   440 TIME:   0.277 TIME LEFT:  2.00D  GRAD.:     3.006 HEAT:  107.3044
 CYCLE:   441 TIME:   0.316 TIME LEFT:  2.00D  GRAD.:     2.729 HEAT:  107.2952
 CYCLE:   442 TIME:   0.332 TIME LEFT:  2.00D  GRAD.:     4.716 HEAT:  107.2860
 CYCLE:   443 TIME:   0.297 TIME LEFT:  2.00D  GRAD.:     2.784 HEAT:  107.2759
 CYCLE:   444 TIME:   0.312 TIME LEFT:  2.00D  GRAD.:     3.296 HEAT:  107.2685
 CYCLE:   445 TIME:   0.324 TIME LEFT:  2.00D  GRAD.:     4.397 HEAT:  107.2610
 CYCLE:   446 TIME:   0.289 TIME LEFT:  2.00D  GRAD.:     3.316 HEAT:  107.2531
 CYCLE:   447 TIME:   0.328 TIME LEFT:  2.00D  GRAD.:     3.224 HEAT:  107.2442
 CYCLE:   448 TIME:   0.324 TIME LEFT:  2.00D  GRAD.:     4.196 HEAT:  107.2358
 CYCLE:   449 TIME:   0.340 TIME LEFT:  2.00D  GRAD.:     5.086 HEAT:  107.2291
 CYCLE:   450 TIME:   0.367 TIME LEFT:  2.00D  GRAD.:     4.197 HEAT:  107.2204
 CYCLE:   451 TIME:   0.387 TIME LEFT:  2.00D  GRAD.:     7.729 HEAT:  107.2030
 CYCLE:   452 TIME:   0.391 TIME LEFT:  2.00D  GRAD.:     5.728 HEAT:  107.1897
 CYCLE:   453 TIME:   0.387 TIME LEFT:  2.00D  GRAD.:     3.745 HEAT:  107.1802
 CYCLE:   454 TIME:   0.469 TIME LEFT:  2.00D  GRAD.:     3.795 HEAT:  107.1679
 CYCLE:   455 TIME:   0.414 TIME LEFT:  2.00D  GRAD.:     7.078 HEAT:  107.1475
 CYCLE:   456 TIME:   0.617 TIME LEFT:  2.00D  GRAD.:     5.295 HEAT:  107.1254
 CYCLE:   457 TIME:   0.574 TIME LEFT:  2.00D  GRAD.:     3.724 HEAT:  107.1061
 CYCLE:   458 TIME:   0.422 TIME LEFT:  2.00D  GRAD.:     5.274 HEAT:  107.0909
 CYCLE:   459 TIME:   0.426 TIME LEFT:  2.00D  GRAD.:     6.212 HEAT:  107.0773
 CYCLE:   460 TIME:   0.406 TIME LEFT:  2.00D  GRAD.:     3.754 HEAT:  107.0640
 CYCLE:   461 TIME:   0.480 TIME LEFT:  2.00D  GRAD.:     3.242 HEAT:  107.0539
 CYCLE:   462 TIME:   0.559 TIME LEFT:  2.00D  GRAD.:     5.013 HEAT:  107.0413
 CYCLE:   463 TIME:   0.492 TIME LEFT:  2.00D  GRAD.:     7.614 HEAT:  107.0332
 CYCLE:   464 TIME:   0.363 TIME LEFT:  2.00D  GRAD.:     3.572 HEAT:  107.0223
 CYCLE:   465 TIME:   0.492 TIME LEFT:  2.00D  GRAD.:     2.900 HEAT:  107.0144
 CYCLE:   466 TIME:   0.594 TIME LEFT:  2.00D  GRAD.:     4.869 HEAT:  107.0037
 CYCLE:   467 TIME:   0.551 TIME LEFT:  2.00D  GRAD.:     6.228 HEAT:  106.9902
 CYCLE:   468 TIME:   0.488 TIME LEFT:  2.00D  GRAD.:     5.185 HEAT:  106.9761
 CYCLE:   469 TIME:   0.547 TIME LEFT:  2.00D  GRAD.:     6.997 HEAT:  106.9671
 CYCLE:   470 TIME:   0.426 TIME LEFT:  2.00D  GRAD.:     4.131 HEAT:  106.9600
 CYCLE:   471 TIME:   0.406 TIME LEFT:  2.00D  GRAD.:     4.098 HEAT:  106.9502
 CYCLE:   472 TIME:   0.590 TIME LEFT:  2.00D  GRAD.:     6.459 HEAT:  106.9395
 CYCLE:   473 TIME:   0.617 TIME LEFT:  2.00D  GRAD.:     7.567 HEAT:  106.9217
 CYCLE:   474 TIME:   0.633 TIME LEFT:  2.00D  GRAD.:     5.234 HEAT:  106.9032
 CYCLE:   475 TIME:   0.590 TIME LEFT:  2.00D  GRAD.:     4.332 HEAT:  106.8920
 CYCLE:   476 TIME:   0.469 TIME LEFT:  2.00D  GRAD.:     3.869 HEAT:  106.8856
 CYCLE:   477 TIME:   0.617 TIME LEFT:  2.00D  GRAD.:     3.708 HEAT:  106.8743
 CYCLE:   478 TIME:   0.641 TIME LEFT:  2.00D  GRAD.:     9.617 HEAT:  106.8713
 CYCLE:   479 TIME:   0.441 TIME LEFT:  2.00D  GRAD.:     3.282 HEAT:  106.8587
 CYCLE:   480 TIME:   0.777 TIME LEFT:  2.00D  GRAD.:     3.714 HEAT:  106.8540
 CYCLE:   481 TIME:   0.566 TIME LEFT:  2.00D  GRAD.:     7.379 HEAT:  106.8470
 CYCLE:   482 TIME:   0.664 TIME LEFT:  2.00D  GRAD.:     4.383 HEAT:  106.8305
 CYCLE:   483 TIME:   0.594 TIME LEFT:  2.00D  GRAD.:     3.439 HEAT:  106.8216
 CYCLE:   484 TIME:   0.551 TIME LEFT:  2.00D  GRAD.:     5.588 HEAT:  106.8112
 CYCLE:   485 TIME:   0.559 TIME LEFT:  2.00D  GRAD.:     4.641 HEAT:  106.7998
 CYCLE:   486 TIME:   0.480 TIME LEFT:  2.00D  GRAD.:     3.532 HEAT:  106.7922
 CYCLE:   487 TIME:   0.660 TIME LEFT:  2.00D  GRAD.:     3.270 HEAT:  106.7797
 CYCLE:   488 TIME:   0.500 TIME LEFT:  2.00D  GRAD.:     4.533 HEAT:  106.7689
 CYCLE:   489 TIME:   0.609 TIME LEFT:  2.00D  GRAD.:     5.479 HEAT:  106.7595
 CYCLE:   490 TIME:   0.457 TIME LEFT:  2.00D  GRAD.:     2.831 HEAT:  106.7519
 CYCLE:   491 TIME:   0.539 TIME LEFT:  2.00D  GRAD.:     3.037 HEAT:  106.7455
 CYCLE:   492 TIME:   0.535 TIME LEFT:  2.00D  GRAD.:     4.089 HEAT:  106.7383
 CYCLE:   493 TIME:   0.426 TIME LEFT:  2.00D  GRAD.:     6.415 HEAT:  106.7297
 CYCLE:   494 TIME:   0.547 TIME LEFT:  2.00D  GRAD.:     3.163 HEAT:  106.7185
 CYCLE:   495 TIME:   0.660 TIME LEFT:  2.00D  GRAD.:     2.789 HEAT:  106.7112
 CYCLE:   496 TIME:   0.492 TIME LEFT:  2.00D  GRAD.:     4.614 HEAT:  106.7061
 CYCLE:   497 TIME:   0.473 TIME LEFT:  2.00D  GRAD.:     3.330 HEAT:  106.6999
 CYCLE:   498 TIME:   0.426 TIME LEFT:  2.00D  GRAD.:     2.824 HEAT:  106.6944
 CYCLE:   499 TIME:   0.508 TIME LEFT:  2.00D  GRAD.:     6.995 HEAT:  106.6896
 CYCLE:   500 TIME:   0.371 TIME LEFT:  2.00D  GRAD.:     3.968 HEAT:  106.6843
 CYCLE:   501 TIME:   0.395 TIME LEFT:  2.00D  GRAD.:     2.713 HEAT:  106.6809
 CYCLE:   502 TIME:   0.598 TIME LEFT:  2.00D  GRAD.:     3.623 HEAT:  106.6704
 CYCLE:   503 TIME:   0.449 TIME LEFT:  2.00D  GRAD.:     2.927 HEAT:  106.6633
 CYCLE:   504 TIME:   0.598 TIME LEFT:  2.00D  GRAD.:     3.227 HEAT:  106.6519
 CYCLE:   505 TIME:   0.539 TIME LEFT:  2.00D  GRAD.:     3.874 HEAT:  106.6440
 CYCLE:   506 TIME:   0.605 TIME LEFT:  2.00D  GRAD.:     3.403 HEAT:  106.6365
 CYCLE:   507 TIME:   0.562 TIME LEFT:  2.00D  GRAD.:     2.790 HEAT:  106.6263
 CYCLE:   508 TIME:   0.727 TIME LEFT:  2.00D  GRAD.:     3.991 HEAT:  106.6167
 CYCLE:   509 TIME:   0.637 TIME LEFT:  2.00D  GRAD.:     3.709 HEAT:  106.6101
 CYCLE:   510 TIME:   0.379 TIME LEFT:  2.00D  GRAD.:     2.562 HEAT:  106.6048
 CYCLE:   511 TIME:   0.543 TIME LEFT:  2.00D  GRAD.:     2.996 HEAT:  106.5981
 CYCLE:   512 TIME:   0.535 TIME LEFT:  2.00D  GRAD.:     3.583 HEAT:  106.5923
 CYCLE:   513 TIME:   0.465 TIME LEFT:  2.00D  GRAD.:     3.104 HEAT:  106.5877
 CYCLE:   514 TIME:   0.398 TIME LEFT:  2.00D  GRAD.:     1.963 HEAT:  106.5839
 CYCLE:   515 TIME:   0.398 TIME LEFT:  2.00D  GRAD.:     2.650 HEAT:  106.5803
 CYCLE:   516 TIME:   0.488 TIME LEFT:  2.00D  GRAD.:     6.916 HEAT:  106.5783
 CYCLE:   517 TIME:   0.430 TIME LEFT:  2.00D  GRAD.:     2.540 HEAT:  106.5728
 CYCLE:   518 TIME:   0.480 TIME LEFT:  2.00D  GRAD.:     1.889 HEAT:  106.5699
 CYCLE:   519 TIME:   0.609 TIME LEFT:  2.00D  GRAD.:     3.587 HEAT:  106.5646
 CYCLE:   520 TIME:   0.406 TIME LEFT:  2.00D  GRAD.:     3.527 HEAT:  106.5596
 CYCLE:   521 TIME:   0.562 TIME LEFT:  2.00D  GRAD.:     3.052 HEAT:  106.5528
 CYCLE:   522 TIME:   0.617 TIME LEFT:  2.00D  GRAD.:     4.392 HEAT:  106.5482
 CYCLE:   523 TIME:   0.574 TIME LEFT:  2.00D  GRAD.:     2.985 HEAT:  106.5434
 CYCLE:   524 TIME:   0.414 TIME LEFT:  2.00D  GRAD.:     2.892 HEAT:  106.5391
 CYCLE:   525 TIME:   0.637 TIME LEFT:  2.00D  GRAD.:     2.970 HEAT:  106.5332
 CYCLE:   526 TIME:   0.531 TIME LEFT:  2.00D  GRAD.:     5.156 HEAT:  106.5288
 CYCLE:   527 TIME:   0.457 TIME LEFT:  2.00D  GRAD.:     2.391 HEAT:  106.5238
 CYCLE:   528 TIME:   0.477 TIME LEFT:  2.00D  GRAD.:     2.304 HEAT:  106.5221
 CYCLE:   529 TIME:   0.504 TIME LEFT:  2.00D  GRAD.:     2.491 HEAT:  106.5190
 CYCLE:   530 TIME:   0.504 TIME LEFT:  2.00D  GRAD.:    13.678 HEAT:  106.5292
 CYCLE:   531 TIME:   0.543 TIME LEFT:  2.00D  GRAD.:     1.988 HEAT:  106.5112
 CYCLE:   532 TIME:   0.484 TIME LEFT:  2.00D  GRAD.:     1.621 HEAT:  106.5102
 CYCLE:   533 TIME:   0.645 TIME LEFT:  2.00D  GRAD.:     4.901 HEAT:  106.5086
 CYCLE:   534 TIME:   0.496 TIME LEFT:  2.00D  GRAD.:     2.254 HEAT:  106.5047
 CYCLE:   535 TIME:   0.406 TIME LEFT:  2.00D  GRAD.:     1.459 HEAT:  106.5022
 CYCLE:   536 TIME:   0.383 TIME LEFT:  2.00D  GRAD.:     1.943 HEAT:  106.4999
 CYCLE:   537 TIME:   0.434 TIME LEFT:  2.00D  GRAD.:     2.931 HEAT:  106.4966
 CYCLE:   538 TIME:   0.578 TIME LEFT:  2.00D  GRAD.:     4.128 HEAT:  106.4936
 CYCLE:   539 TIME:   0.406 TIME LEFT:  2.00D  GRAD.:     1.776 HEAT:  106.4902
 CYCLE:   540 TIME:   0.562 TIME LEFT:  2.00D  GRAD.:     1.781 HEAT:  106.4878
 CYCLE:   541 TIME:   0.590 TIME LEFT:  2.00D  GRAD.:     2.640 HEAT:  106.4852
 CYCLE:   542 TIME:   0.520 TIME LEFT:  2.00D  GRAD.:     3.914 HEAT:  106.4824
 CYCLE:   543 TIME:   0.438 TIME LEFT:  2.00D  GRAD.:     2.174 HEAT:  106.4791
 CYCLE:   544 TIME:   0.570 TIME LEFT:  2.00D  GRAD.:     2.273 HEAT:  106.4757
 CYCLE:   545 TIME:   0.469 TIME LEFT:  2.00D  GRAD.:     2.784 HEAT:  106.4725
 CYCLE:   546 TIME:   0.609 TIME LEFT:  2.00D  GRAD.:     6.418 HEAT:  106.4692
 CYCLE:   547 TIME:   0.551 TIME LEFT:  2.00D  GRAD.:     2.523 HEAT:  106.4633
 CYCLE:   548 TIME:   0.363 TIME LEFT:  2.00D  GRAD.:     1.801 HEAT:  106.4608
 CYCLE:   549 TIME:   0.410 TIME LEFT:  2.00D  GRAD.:     2.946 HEAT:  106.4580
 CYCLE:   550 TIME:   0.375 TIME LEFT:  2.00D  GRAD.:     2.814 HEAT:  106.4543
 CYCLE:   551 TIME:   0.430 TIME LEFT:  2.00D  GRAD.:     3.832 HEAT:  106.4507
 CYCLE:   552 TIME:   0.527 TIME LEFT:  2.00D  GRAD.:     1.917 HEAT:  106.4479
 CYCLE:   553 TIME:   0.539 TIME LEFT:  2.00D  GRAD.:     2.110 HEAT:  106.4460
 CYCLE:   554 TIME:   0.398 TIME LEFT:  2.00D  GRAD.:     2.518 HEAT:  106.4432
 CYCLE:   555 TIME:   0.551 TIME LEFT:  2.00D  GRAD.:     3.374 HEAT:  106.4393
 CYCLE:   556 TIME:   0.562 TIME LEFT:  2.00D  GRAD.:     2.611 HEAT:  106.4366
 CYCLE:   557 TIME:   0.637 TIME LEFT:  2.00D  GRAD.:     1.660 HEAT:  106.4353
 CYCLE:   558 TIME:   0.543 TIME LEFT:  2.00D  GRAD.:     1.729 HEAT:  106.4339
 CYCLE:   559 TIME:   0.488 TIME LEFT:  2.00D  GRAD.:     2.020 HEAT:  106.4316
 CYCLE:   560 TIME:   0.531 TIME LEFT:  2.00D  GRAD.:     2.407 HEAT:  106.4296
 CYCLE:   561 TIME:   0.527 TIME LEFT:  2.00D  GRAD.:     1.317 HEAT:  106.4281
 CYCLE:   562 TIME:   0.426 TIME LEFT:  2.00D  GRAD.:     1.769 HEAT:  106.4268
 CYCLE:   563 TIME:   0.590 TIME LEFT:  2.00D  GRAD.:     3.090 HEAT:  106.4250
 CYCLE:   564 TIME:   0.477 TIME LEFT:  2.00D  GRAD.:     2.679 HEAT:  106.4227
 CYCLE:   565 TIME:   0.402 TIME LEFT:  2.00D  GRAD.:     1.910 HEAT:  106.4201
 CYCLE:   566 TIME:   0.559 TIME LEFT:  2.00D  GRAD.:     1.826 HEAT:  106.4180
 CYCLE:   567 TIME:   0.730 TIME LEFT:  2.00D  GRAD.:     2.374 HEAT:  106.4157
 CYCLE:   568 TIME:   0.535 TIME LEFT:  2.00D  GRAD.:     1.957 HEAT:  106.4128
 CYCLE:   569 TIME:   0.457 TIME LEFT:  2.00D  GRAD.:     1.522 HEAT:  106.4090
 CYCLE:   570 TIME:   0.422 TIME LEFT:  2.00D  GRAD.:     3.312 HEAT:  106.4064
 CYCLE:   571 TIME:   0.547 TIME LEFT:  2.00D  GRAD.:     2.060 HEAT:  106.4037
 CYCLE:   572 TIME:   0.430 TIME LEFT:  2.00D  GRAD.:     1.485 HEAT:  106.4007
 CYCLE:   573 TIME:   0.449 TIME LEFT:  2.00D  GRAD.:     2.262 HEAT:  106.3979
 CYCLE:   574 TIME:   0.637 TIME LEFT:  2.00D  GRAD.:     3.696 HEAT:  106.3958
 CYCLE:   575 TIME:   0.492 TIME LEFT:  2.00D  GRAD.:     2.070 HEAT:  106.3924
 CYCLE:   576 TIME:   0.625 TIME LEFT:  2.00D  GRAD.:     1.705 HEAT:  106.3885
 CYCLE:   577 TIME:   0.578 TIME LEFT:  2.00D  GRAD.:     2.424 HEAT:  106.3850
 CYCLE:   578 TIME:   0.426 TIME LEFT:  2.00D  GRAD.:     4.698 HEAT:  106.3830
 CYCLE:   579 TIME:   0.363 TIME LEFT:  2.00D  GRAD.:     1.862 HEAT:  106.3795
 CYCLE:   580 TIME:   0.477 TIME LEFT:  2.00D  GRAD.:     1.475 HEAT:  106.3780
 CYCLE:   581 TIME:   0.527 TIME LEFT:  2.00D  GRAD.:     2.375 HEAT:  106.3759
 CYCLE:   582 TIME:   0.547 TIME LEFT:  2.00D  GRAD.:     2.872 HEAT:  106.3730
 CYCLE:   583 TIME:   0.461 TIME LEFT:  2.00D  GRAD.:     3.262 HEAT:  106.3701
 CYCLE:   584 TIME:   0.461 TIME LEFT:  2.00D  GRAD.:     1.851 HEAT:  106.3683
 CYCLE:   585 TIME:   0.559 TIME LEFT:  2.00D  GRAD.:     1.704 HEAT:  106.3674
 CYCLE:   586 TIME:   0.480 TIME LEFT:  2.00D  GRAD.:     2.391 HEAT:  106.3644
 CYCLE:   587 TIME:   0.426 TIME LEFT:  2.00D  GRAD.:     2.912 HEAT:  106.3621
 CYCLE:   588 TIME:   0.422 TIME LEFT:  2.00D  GRAD.:     1.609 HEAT:  106.3597
 CYCLE:   589 TIME:   0.453 TIME LEFT:  2.00D  GRAD.:     1.709 HEAT:  106.3578
 CYCLE:   590 TIME:   0.426 TIME LEFT:  2.00D  GRAD.:     2.216 HEAT:  106.3551
 CYCLE:   591 TIME:   0.434 TIME LEFT:  2.00D  GRAD.:     4.169 HEAT:  106.3528
 CYCLE:   592 TIME:   0.363 TIME LEFT:  2.00D  GRAD.:     1.634 HEAT:  106.3498
 CYCLE:   593 TIME:   0.477 TIME LEFT:  2.00D  GRAD.:     2.097 HEAT:  106.3485
 CYCLE:   594 TIME:   0.508 TIME LEFT:  2.00D  GRAD.:     2.092 HEAT:  106.3458
 CYCLE:   595 TIME:   0.582 TIME LEFT:  2.00D  GRAD.:     4.393 HEAT:  106.3430
 CYCLE:   596 TIME:   0.406 TIME LEFT:  2.00D  GRAD.:     1.829 HEAT:  106.3396
 CYCLE:   597 TIME:   0.508 TIME LEFT:  2.00D  GRAD.:     1.510 HEAT:  106.3386
 CYCLE:   598 TIME:   0.578 TIME LEFT:  2.00D  GRAD.:     2.279 HEAT:  106.3360
 CYCLE:   599 TIME:   0.516 TIME LEFT:  2.00D  GRAD.:     2.345 HEAT:  106.3332
 CYCLE:   600 TIME:   0.543 TIME LEFT:  2.00D  GRAD.:     2.990 HEAT:  106.3314
 CYCLE:   601 TIME:   0.520 TIME LEFT:  2.00D  GRAD.:     1.413 HEAT:  106.3298
 CYCLE:   602 TIME:   0.430 TIME LEFT:  2.00D  GRAD.:     1.439 HEAT:  106.3284
 CYCLE:   603 TIME:   0.430 TIME LEFT:  2.00D  GRAD.:     2.322 HEAT:  106.3262
 CYCLE:   604 TIME:   0.586 TIME LEFT:  2.00D  GRAD.:     2.474 HEAT:  106.3236
 CYCLE:   605 TIME:   0.422 TIME LEFT:  2.00D  GRAD.:     2.360 HEAT:  106.3207
 CYCLE:   606 TIME:   0.410 TIME LEFT:  2.00D  GRAD.:     2.597 HEAT:  106.3188
 CYCLE:   607 TIME:   0.402 TIME LEFT:  2.00D  GRAD.:     1.559 HEAT:  106.3174
 CYCLE:   608 TIME:   0.562 TIME LEFT:  2.00D  GRAD.:     2.162 HEAT:  106.3159
 CYCLE:   609 TIME:   0.445 TIME LEFT:  2.00D  GRAD.:     2.249 HEAT:  106.3134
 CYCLE:   610 TIME:   0.605 TIME LEFT:  2.00D  GRAD.:     4.068 HEAT:  106.3110
 CYCLE:   611 TIME:   0.562 TIME LEFT:  2.00D  GRAD.:     1.959 HEAT:  106.3074
 CYCLE:   612 TIME:   0.492 TIME LEFT:  2.00D  GRAD.:     1.769 HEAT:  106.3046
 CYCLE:   613 TIME:   0.496 TIME LEFT:  2.00D  GRAD.:     2.404 HEAT:  106.3021
 CYCLE:   614 TIME:   0.609 TIME LEFT:  2.00D  GRAD.:     2.923 HEAT:  106.2977
 CYCLE:   615 TIME:   0.562 TIME LEFT:  2.00D  GRAD.:     5.989 HEAT:  106.2962
 CYCLE:   616 TIME:   0.418 TIME LEFT:  2.00D  GRAD.:     2.304 HEAT:  106.2912
 CYCLE:   617 TIME:   0.551 TIME LEFT:  2.00D  GRAD.:     3.984 HEAT:  106.2908
 CYCLE:   618 TIME:   0.395 TIME LEFT:  2.00D  GRAD.:     3.779 HEAT:  106.2884
 CYCLE:   619 TIME:   0.359 TIME LEFT:  2.00D  GRAD.:     1.969 HEAT:  106.2858
 CYCLE:   620 TIME:   0.445 TIME LEFT:  2.00D  GRAD.:     1.677 HEAT:  106.2828
 CYCLE:   621 TIME:   0.645 TIME LEFT:  2.00D  GRAD.:     1.856 HEAT:  106.2801
 CYCLE:   622 TIME:   0.457 TIME LEFT:  2.00D  GRAD.:     4.015 HEAT:  106.2760
 CYCLE:   623 TIME:   0.727 TIME LEFT:  2.00D  GRAD.:     2.948 HEAT:  106.2724
 CYCLE:   624 TIME:   0.492 TIME LEFT:  2.00D  GRAD.:     1.430 HEAT:  106.2704
 CYCLE:   625 TIME:   0.594 TIME LEFT:  2.00D  GRAD.:     1.441 HEAT:  106.2687
 CYCLE:   626 TIME:   0.660 TIME LEFT:  2.00D  GRAD.:     2.171 HEAT:  106.2665
 CYCLE:   627 TIME:   0.547 TIME LEFT:  2.00D  GRAD.:     2.920 HEAT:  106.2637
 CYCLE:   628 TIME:   0.492 TIME LEFT:  2.00D  GRAD.:     2.284 HEAT:  106.2596
 CYCLE:   629 TIME:   0.410 TIME LEFT:  2.00D  GRAD.:     3.496 HEAT:  106.2572
 CYCLE:   630 TIME:   0.402 TIME LEFT:  2.00D  GRAD.:     1.748 HEAT:  106.2552
 CYCLE:   631 TIME:   0.590 TIME LEFT:  2.00D  GRAD.:     1.755 HEAT:  106.2536
 CYCLE:   632 TIME:   0.406 TIME LEFT:  2.00D  GRAD.:     2.295 HEAT:  106.2510
 CYCLE:   633 TIME:   0.719 TIME LEFT:  2.00D  GRAD.:     4.405 HEAT:  106.2491
 CYCLE:   634 TIME:   0.418 TIME LEFT:  2.00D  GRAD.:     2.106 HEAT:  106.2466
 CYCLE:   635 TIME:   0.609 TIME LEFT:  2.00D  GRAD.:     1.808 HEAT:  106.2457
 CYCLE:   636 TIME:   0.598 TIME LEFT:  2.00D  GRAD.:     1.646 HEAT:  106.2436
 CYCLE:   637 TIME:   0.508 TIME LEFT:  2.00D  GRAD.:     2.503 HEAT:  106.2395
 CYCLE:   638 TIME:   0.594 TIME LEFT:  2.00D  GRAD.:     3.365 HEAT:  106.2372
 CYCLE:   639 TIME:   0.383 TIME LEFT:  2.00D  GRAD.:     1.597 HEAT:  106.2355
 CYCLE:   640 TIME:   0.641 TIME LEFT:  2.00D  GRAD.:     1.642 HEAT:  106.2339
 CYCLE:   641 TIME:   0.539 TIME LEFT:  2.00D  GRAD.:     1.846 HEAT:  106.2323
 CYCLE:   642 TIME:   0.641 TIME LEFT:  2.00D  GRAD.:     2.898 HEAT:  106.2301
 CYCLE:   643 TIME:   0.480 TIME LEFT:  2.00D  GRAD.:     2.569 HEAT:  106.2282
 CYCLE:   644 TIME:   0.488 TIME LEFT:  2.00D  GRAD.:     1.509 HEAT:  106.2267
 CYCLE:   645 TIME:   0.609 TIME LEFT:  2.00D  GRAD.:     2.332 HEAT:  106.2247
 CYCLE:   646 TIME:   0.492 TIME LEFT:  2.00D  GRAD.:     1.780 HEAT:  106.2231
 CYCLE:   647 TIME:   0.543 TIME LEFT:  2.00D  GRAD.:     2.062 HEAT:  106.2195
 CYCLE:   648 TIME:   0.547 TIME LEFT:  2.00D  GRAD.:     4.323 HEAT:  106.2183
 CYCLE:   649 TIME:   0.559 TIME LEFT:  2.00D  GRAD.:     2.093 HEAT:  106.2162
 CYCLE:   650 TIME:   0.516 TIME LEFT:  2.00D  GRAD.:     1.621 HEAT:  106.2139
 CYCLE:   651 TIME:   0.633 TIME LEFT:  2.00D  GRAD.:     1.705 HEAT:  106.2122
 CYCLE:   652 TIME:   0.625 TIME LEFT:  2.00D  GRAD.:     1.984 HEAT:  106.2086
 CYCLE:   653 TIME:   0.523 TIME LEFT:  2.00D  GRAD.:     5.543 HEAT:  106.2088
 CYCLE:   654 TIME:   0.449 TIME LEFT:  2.00D  GRAD.:     2.600 HEAT:  106.2059
 CYCLE:   655 TIME:   0.516 TIME LEFT:  2.00D  GRAD.:     1.734 HEAT:  106.2046
 CYCLE:   656 TIME:   0.410 TIME LEFT:  2.00D  GRAD.:     3.918 HEAT:  106.2036
 CYCLE:   657 TIME:   0.367 TIME LEFT:  2.00D  GRAD.:     1.910 HEAT:  106.2013
 CYCLE:   658 TIME:   0.387 TIME LEFT:  2.00D  GRAD.:     1.243 HEAT:  106.1991
 CYCLE:   659 TIME:   0.398 TIME LEFT:  2.00D  GRAD.:     1.295 HEAT:  106.1979
 CYCLE:   660 TIME:   0.496 TIME LEFT:  2.00D  GRAD.:     5.901 HEAT:  106.1976
 CYCLE:   661 TIME:   0.441 TIME LEFT:  2.00D  GRAD.:     2.131 HEAT:  106.1941
 CYCLE:   662 TIME:   0.484 TIME LEFT:  2.00D  GRAD.:     1.010 HEAT:  106.1928
 CYCLE:   663 TIME:   0.598 TIME LEFT:  2.00D  GRAD.:     1.337 HEAT:  106.1911
 CYCLE:   664 TIME:   0.531 TIME LEFT:  2.00D  GRAD.:     2.886 HEAT:  106.1901
 CYCLE:   665 TIME:   0.406 TIME LEFT:  2.00D  GRAD.:     1.395 HEAT:  106.1885
 CYCLE:   666 TIME:   0.668 TIME LEFT:  2.00D  GRAD.:     1.161 HEAT:  106.1872
 CYCLE:   667 TIME:   0.566 TIME LEFT:  2.00D  GRAD.:     1.743 HEAT:  106.1858
 CYCLE:   668 TIME:   0.586 TIME LEFT:  2.00D  GRAD.:     1.742 HEAT:  106.1839
 CYCLE:   669 TIME:   0.477 TIME LEFT:  2.00D  GRAD.:     2.399 HEAT:  106.1819
 CYCLE:   670 TIME:   0.488 TIME LEFT:  2.00D  GRAD.:     1.192 HEAT:  106.1808
 CYCLE:   671 TIME:   0.566 TIME LEFT:  2.00D  GRAD.:     1.100 HEAT:  106.1803
 CYCLE:   672 TIME:   0.504 TIME LEFT:  2.00D  GRAD.:     2.404 HEAT:  106.1788
 CYCLE:   673 TIME:   0.523 TIME LEFT:  2.00D  GRAD.:     3.308 HEAT:  106.1781
 CYCLE:   674 TIME:   0.336 TIME LEFT:  2.00D  GRAD.:     0.972 HEAT:  106.1767
 CYCLE:   675 TIME:   0.344 TIME LEFT:  2.00D  GRAD.:     0.917 HEAT:  106.1761
 CYCLE:   676 TIME:   0.305 TIME LEFT:  2.00D  GRAD.:     1.508 HEAT:  106.1750
 CYCLE:   677 TIME:   0.352 TIME LEFT:  2.00D  GRAD.:     2.425 HEAT:  106.1735
 CYCLE:   678 TIME:   0.297 TIME LEFT:  2.00D  GRAD.:     1.272 HEAT:  106.1722
 CYCLE:   679 TIME:   0.305 TIME LEFT:  2.00D  GRAD.:     1.270 HEAT:  106.1712
 CYCLE:   680 TIME:   0.340 TIME LEFT:  2.00D  GRAD.:     1.455 HEAT:  106.1697
 CYCLE:   681 TIME:   0.312 TIME LEFT:  2.00D  GRAD.:     1.729 HEAT:  106.1676
 CYCLE:   682 TIME:   0.332 TIME LEFT:  2.00D  GRAD.:     7.244 HEAT:  106.1700
 CYCLE:   683 TIME:   0.348 TIME LEFT:  2.00D  GRAD.:     1.342 HEAT:  106.1646
 CYCLE:   684 TIME:   0.359 TIME LEFT:  2.00D  GRAD.:     1.194 HEAT:  106.1638
 CYCLE:   685 TIME:   0.309 TIME LEFT:  2.00D  GRAD.:     1.498 HEAT:  106.1618
 CYCLE:   686 TIME:   0.320 TIME LEFT:  2.00D  GRAD.:     3.350 HEAT:  106.1599
 CYCLE:   687 TIME:   0.297 TIME LEFT:  2.00D  GRAD.:     2.107 HEAT:  106.1580
 CYCLE:   688 TIME:   0.289 TIME LEFT:  2.00D  GRAD.:     1.604 HEAT:  106.1570
 CYCLE:   689 TIME:   0.324 TIME LEFT:  2.00D  GRAD.:     2.347 HEAT:  106.1545
 CYCLE:   690 TIME:   0.348 TIME LEFT:  2.00D  GRAD.:     1.807 HEAT:  106.1524
 CYCLE:   691 TIME:   0.344 TIME LEFT:  2.00D  GRAD.:     1.468 HEAT:  106.1491
 CYCLE:   692 TIME:   0.312 TIME LEFT:  2.00D  GRAD.:     3.232 HEAT:  106.1473
 CYCLE:   693 TIME:   0.293 TIME LEFT:  2.00D  GRAD.:     1.717 HEAT:  106.1451
 CYCLE:   694 TIME:   0.332 TIME LEFT:  2.00D  GRAD.:     1.749 HEAT:  106.1430
 CYCLE:   695 TIME:   0.355 TIME LEFT:  2.00D  GRAD.:     2.701 HEAT:  106.1407
 CYCLE:   696 TIME:   0.328 TIME LEFT:  2.00D  GRAD.:     6.652 HEAT:  106.1407
 CYCLE:   697 TIME:   0.277 TIME LEFT:  2.00D  GRAD.:     2.030 HEAT:  106.1365
 CYCLE:   698 TIME:   0.285 TIME LEFT:  2.00D  GRAD.:     1.291 HEAT:  106.1355
 CYCLE:   699 TIME:   0.344 TIME LEFT:  2.00D  GRAD.:     2.427 HEAT:  106.1333
 CYCLE:   700 TIME:   0.281 TIME LEFT:  2.00D  GRAD.:     1.791 HEAT:  106.1309
 CYCLE:   701 TIME:   0.312 TIME LEFT:  2.00D  GRAD.:     2.868 HEAT:  106.1282
 CYCLE:   702 TIME:   0.312 TIME LEFT:  2.00D  GRAD.:     2.787 HEAT:  106.1269
 CYCLE:   703 TIME:   0.301 TIME LEFT:  2.00D  GRAD.:     1.649 HEAT:  106.1259
 CYCLE:   704 TIME:   0.309 TIME LEFT:  2.00D  GRAD.:     1.939 HEAT:  106.1242
 CYCLE:   705 TIME:   0.328 TIME LEFT:  2.00D  GRAD.:     1.732 HEAT:  106.1226
 CYCLE:   706 TIME:   0.371 TIME LEFT:  2.00D  GRAD.:     1.459 HEAT:  106.1197
 CYCLE:   707 TIME:   0.371 TIME LEFT:  2.00D  GRAD.:     4.582 HEAT:  106.1182
 CYCLE:   708 TIME:   0.281 TIME LEFT:  2.00D  GRAD.:     1.643 HEAT:  106.1153
 CYCLE:   709 TIME:   0.309 TIME LEFT:  2.00D  GRAD.:     1.420 HEAT:  106.1143
 CYCLE:   710 TIME:   0.336 TIME LEFT:  2.00D  GRAD.:     2.436 HEAT:  106.1109
 CYCLE:   711 TIME:   0.301 TIME LEFT:  2.00D  GRAD.:     9.421 HEAT:  106.1162
 CYCLE:   712 TIME:   0.305 TIME LEFT:  2.00D  GRAD.:     1.850 HEAT:  106.1074
 CYCLE:   713 TIME:   0.332 TIME LEFT:  2.00D  GRAD.:     2.354 HEAT:  106.1063
 CYCLE:   714 TIME:   0.344 TIME LEFT:  2.00D  GRAD.:     1.659 HEAT:  106.1015
 CYCLE:   715 TIME:   0.320 TIME LEFT:  2.00D  GRAD.:     3.232 HEAT:  106.0970
 CYCLE:   716 TIME:   0.289 TIME LEFT:  2.00D  GRAD.:     2.952 HEAT:  106.0936
 CYCLE:   717 TIME:   0.273 TIME LEFT:  2.00D  GRAD.:     1.725 HEAT:  106.0912
 CYCLE:   718 TIME:   0.340 TIME LEFT:  2.00D  GRAD.:     1.654 HEAT:  106.0876
 CYCLE:   719 TIME:   0.320 TIME LEFT:  2.00D  GRAD.:     2.625 HEAT:  106.0850
 CYCLE:   720 TIME:   0.348 TIME LEFT:  2.00D  GRAD.:     2.509 HEAT:  106.0814
 CYCLE:   721 TIME:   0.277 TIME LEFT:  2.00D  GRAD.:     1.583 HEAT:  106.0787
 CYCLE:   722 TIME:   0.344 TIME LEFT:  2.00D  GRAD.:     1.866 HEAT:  106.0759
 CYCLE:   723 TIME:   0.316 TIME LEFT:  2.00D  GRAD.:     3.554 HEAT:  106.0740
 CYCLE:   724 TIME:   0.297 TIME LEFT:  2.00D  GRAD.:     2.092 HEAT:  106.0715
 CYCLE:   725 TIME:   0.301 TIME LEFT:  2.00D  GRAD.:     1.811 HEAT:  106.0689
 CYCLE:   726 TIME:   0.324 TIME LEFT:  2.00D  GRAD.:     3.208 HEAT:  106.0661
 CYCLE:   727 TIME:   0.305 TIME LEFT:  2.00D  GRAD.:     3.843 HEAT:  106.0638
 CYCLE:   728 TIME:   0.297 TIME LEFT:  2.00D  GRAD.:     2.279 HEAT:  106.0608
 CYCLE:   729 TIME:   0.293 TIME LEFT:  2.00D  GRAD.:     1.547 HEAT:  106.0582
 CYCLE:   730 TIME:   0.340 TIME LEFT:  2.00D  GRAD.:     1.920 HEAT:  106.0559
 CYCLE:   731 TIME:   0.316 TIME LEFT:  2.00D  GRAD.:     4.432 HEAT:  106.0524
 CYCLE:   732 TIME:   0.293 TIME LEFT:  2.00D  GRAD.:     1.907 HEAT:  106.0480
 CYCLE:   733 TIME:   0.309 TIME LEFT:  2.00D  GRAD.:     1.730 HEAT:  106.0459
 CYCLE:   734 TIME:   0.320 TIME LEFT:  2.00D  GRAD.:     2.511 HEAT:  106.0440
 CYCLE:   735 TIME:   0.328 TIME LEFT:  2.00D  GRAD.:     2.519 HEAT:  106.0412
 CYCLE:   736 TIME:   0.355 TIME LEFT:  2.00D  GRAD.:     3.195 HEAT:  106.0381
 CYCLE:   737 TIME:   0.316 TIME LEFT:  2.00D  GRAD.:     1.767 HEAT:  106.0348
 CYCLE:   738 TIME:   0.344 TIME LEFT:  2.00D  GRAD.:     1.892 HEAT:  106.0324
 CYCLE:   739 TIME:   0.320 TIME LEFT:  2.00D  GRAD.:     1.886 HEAT:  106.0301
[...]
    7  C   1.17747   0.95799   0.98763   1.02618
    8  C   1.16169   0.87545   1.01607   0.90012
    9  N   1.52307   1.09360   1.48519   1.17510
   10  C   1.15577   0.94651   0.92693   0.87837
   11  C   1.17275   0.97276   1.03384   0.98210
   12  C   1.17695   0.96288   0.96685   0.94291
   13  C   1.13157   0.94218   1.02475   0.91399
   14  C   1.17185   0.98078   0.96163   0.93621
   15  C   1.15428   0.91423   1.02542   0.95522
   16  C   1.15135   0.91003   1.10999   1.01869
   17  C   1.14333   0.79270   0.91943   0.92494
   18  C   1.15334   0.92935   1.07513   1.03723
   19  C   1.14655   0.90004   0.86464   0.88040
   20  C   1.15274   0.93935   1.09784   1.00317
   21  C   1.14521   0.87182   0.92611   0.84974
   22  N   1.56092   1.06128   1.18537   1.47031
   23  C   1.16237   1.03656   0.79427   0.96056
   24  C   1.17807   1.03226   0.98347   0.95711
   25  C   1.17064   1.02223   0.96356   0.97040
   26  C   1.17059   1.01445   0.97487   0.96142
   27  C   1.17132   1.01795   0.97403   0.96564
   28  C   1.17084   1.01499   0.97348   0.96277
   29  C   1.16735   1.01032   0.97755   0.96124
   30  C   1.15631   1.02601   1.02337   0.97395
   31  C   1.15900   0.85766   0.96782   0.95256
   32  C   1.15571   0.91634   0.98608   0.97251
   33  C   1.17245   0.92397   0.98141   0.99909
   34  C   1.17790   0.97280   0.99186   0.99233
   35  C   1.17609   0.97477   0.95729   0.97131
   36  C   1.17245   0.92224   1.02567   1.02230
   37  N   1.56014   1.10773   1.43758   1.17085
   38  C   1.15914   0.85196   0.98121   0.94639
   39  C   1.15578   0.92799   0.98309   0.95964
   40  C   1.17451   0.96718   0.98139   0.97242
   41  C   1.17705   0.98093   1.00002   0.97076
   42  C   1.17605   0.92808   0.98901   0.98804
   43  C   1.17265   0.98422   1.00319   0.97946
   44  C   1.16266   0.87027   0.96997   0.95103
   45  C   1.17788   0.96594   0.97433   1.03220
   46  C   1.17056   0.95844   0.98331   1.01279
   47  C   1.17061   0.96517   0.97302   1.01372
   48  C   1.17075   0.96189   0.97951   1.01172
   49  C   1.17074   0.96438   0.97527   1.01254
   50  C   1.16678   0.96273   0.97348   1.00928
   51  C   1.15573   1.01063   0.98893   1.02203
   52  C   1.16643   0.98177   0.95592   0.93018
   53  C   1.15850   1.02670   1.01613   0.95040
   54  C   1.11882   0.89491   0.95371   0.90127
   55  C   1.18186   0.98290   0.99775   0.95262
   56  C   1.18032   0.98220   0.96225   0.95227
   57  C   1.15271   0.90162   1.00233   0.94827
   58  C   1.18300   0.92854   0.95472   0.93290
   59  C   1.18530   0.92246   0.97994   0.92449
   60  N   1.81792   1.07537   1.21984   1.27274
   61  S   1.87562   1.12977   1.37569   0.97060
   62  N   1.81823   1.06620   1.24672   1.26624
   63  C   1.15904   0.95518   0.95670   0.92457
   64  C   1.18033   0.97548   0.98866   0.92856
   65  C   1.17939   0.95823   0.95325   0.97984
   66  C   1.16328   0.98778   1.00245   0.94546
   67  C   1.17651   0.97224   0.98542   0.94044
   68  C   1.18008   0.98308   0.96982   0.97725
   69  C   1.18479   0.96880   0.85898   0.91153
   70  C   1.14275   0.91349   1.08782   0.96927
   71  C   1.18198   0.80684   0.76438   0.85170
   72  O   1.90961   1.46212   1.51883   1.45591
   73  O   1.84003   1.34109   1.70213   1.44824
   74  C   1.19694   0.91519   0.92817   0.92541
   75  N   1.84792   1.10442   1.08737   1.08969
   76  H   0.86766
   77  H   0.94436
   78  H   0.94323
   79  H   0.94253
   80  H   0.93992
   81  H   0.93887
   82  H   0.93806
   83  H   0.93944
   84  H   0.93666
   85  H   0.93379
   86  H   0.93806
   87  H   0.94134
   88  H   0.93120
   89  H   0.91528
   90  H   0.92512
   91  H   0.93008
   92  H   0.93738
   93  H   0.90483
   94  H   0.87468
   95  H   0.88093
   96  H   0.87456
   97  H   0.90996
   98  H   0.93853
   99  H   0.92537
  100  H   0.91316
  101  H   0.92982
  102  H   0.93593
  103  H   0.93670
  104  H   0.93845
  105  H   0.93348
  106  H   0.93472
  107  H   0.93554
  108  H   0.94243
  109  H   0.93968
  110  H   0.93554
  111  H   0.94428
  112  H   0.93842
  113  H   0.94558
  114  H   0.88243
  115  H   0.89463
  116  H   0.89779
  117  H   0.88039
  118  H   0.88072
  119  H   0.89475
  120  H   0.89664
  121  H   0.87930
  122  H   0.90890
  123  H   0.93874
  124  H   0.92507
  125  H   0.91373
  126  H   0.93362
  127  H   0.93688
  128  H   0.93704
  129  H   0.93528
  130  H   0.93752
  131  H   0.93798
  132  H   0.93755
  133  H   0.93710
  134  H   0.94020
  135  H   0.94034
  136  H   0.94396
  137  H   0.94221
  138  H   0.94203
  139  H   0.87067
  140  H   0.87812
  141  H   0.86950
  142  H   0.87874
  143  H   0.88832
  144  H   0.88095
  145  H   0.75427
 ******************** TDHF POLARIZABILITIES ********************



          MOLECULAR WEIGHT = 1011.38



          ROTATIONAL CONSTANTS IN CM(-1)

          A =    0.00115862   B =    0.00027548   C =    0.00023029



           PRINCIPAL MOMENTS OF INERTIA IN UNITS OF 10**(-40)*GRAM-CM**2

          A =    24160.4038   B =   101613.0364   C =   121553.3369


 ROTATION MATRIX FOR ORIENTATION OF MOLECULE:

         0.235075    0.946387   -0.221567
        -0.544239    0.317030    0.776721
         0.805322   -0.062003    0.589586


          CARTESIAN COORDINATES 

    NO.       ATOM         X         Y         Z

     1         C        4.0142  -10.2018   -3.8293
     2         C        4.2406   -8.7463   -3.4541
     3         C        3.9036   -8.5072   -1.9844
     4         C        4.1302   -7.0450   -1.6075
     5         C        3.7877   -6.8061   -0.1386
     6         C        4.0221   -5.3445    0.2375
     7         C        3.6566   -5.1021    1.6971
     8         C        4.0120   -3.6848    2.1721
     9         N        3.4576   -2.6511    1.2935
    10         C        2.0662   -2.4075    1.2736
    11         C        1.0269   -3.2718    1.6105
    12         C       -0.2681   -2.8406    1.3880
    13         C       -0.5129   -1.5832    0.8147
    14         C        0.5257   -0.7116    0.4932
    15         C        1.8247   -1.0960    0.7847
    16         C        3.1125   -0.4700    0.6251
    17         C        4.1070   -1.4659    0.8802
    18         C        5.4618   -1.1992    0.6669
    19         C        5.8337    0.1310    0.3075
    20         C        4.8852    1.1092    0.0263
    21         C        3.5175    0.8173    0.2858
    22         N        2.7285    1.9743    0.0493
    23         C        1.6234    2.3729    0.9418
    24         C        0.4765    2.9719    0.1140
    25         C       -0.7747    3.1063    0.9777
    26         C       -1.8963    3.7799    0.1897
    27         C       -3.1748    3.8508    1.0215
    28         C       -4.2970    4.5188    0.2301
    29         C       -5.5900    4.5471    1.0413
    30         C       -6.7091    5.2033    0.2490
    31         C        3.6271    2.9836   -0.4012
    32         C        4.9378    2.4497   -0.5075
    33         C        5.9195    3.2004   -1.1348
    34         C        5.6207    4.4974   -1.5323
    35         C        4.3505    5.0401   -1.3372
    36         C        3.3276    4.2851   -0.7815
    37         N        7.2457    0.2376    0.2248
    38         C        7.7587   -1.0562    0.5161
    39         C        6.6875   -1.9671    0.7128
    40         C        6.9881   -3.3152    0.8296
    41         C        8.3147   -3.7229    0.8408
    42         C        9.3545   -2.8017    0.7170
    43         C        9.0900   -1.4518    0.5425
    44         C        7.9750    1.4123    0.7410
    45         C        9.1636    1.7395   -0.1748
    46         C        9.7643    3.0862    0.2204
    47         C       10.9977    3.3923   -0.6264
    48         C       11.5958    4.7433   -0.2399
    49         C       12.8338    5.0461   -1.0807
    50         C       13.4339    6.3959   -0.6953
    51         C       14.6676    6.6953   -1.5312
    52         C       -1.8435   -1.2025    0.5641
    53         C       -2.9668   -0.8877    0.3652
    54         C       -4.3009   -0.5211    0.1407
    55         C       -4.6444    0.6533   -0.4494
    56         C       -6.0141    1.0207   -0.6599
    57         C       -7.0413    0.2160   -0.2916
    58         C       -6.7479   -1.0459    0.3292
    59         C       -5.3423   -1.4234    0.5597
    60         N       -5.2006   -2.6029    1.1544
    61         S       -6.7345   -3.2201    1.4187
    62         N       -7.6147   -1.9573    0.7594
    63         C       -8.4349    0.5954   -0.4907
    64         C       -9.3338   -0.2999   -1.0643
    65         C      -10.6609    0.0721   -1.2434
    66         C      -11.0842    1.3392   -0.8521
    67         C      -10.1798    2.2422   -0.2937
    68         C       -8.8577    1.8682   -0.1072
    69         C      -12.4672    1.7529   -1.0415
    70         C      -13.5088    0.9897   -0.6765
    71         C      -14.9099    1.3819   -0.9001
    72         O      -15.8777    0.6477   -0.9978
    73         O      -15.0799    2.7196   -1.0010
    74         C      -13.3559   -0.2658   -0.0309
    75         N      -13.2487   -1.2822    0.5092
    76         H      -12.6157    2.7392   -1.5032
    77         H        4.2504  -10.3935   -4.8860
    78         H        4.6385  -10.8870   -3.2379
    79         H        2.9707  -10.5138   -3.6786
    80         H        5.2918   -8.4561   -3.6647
    81         H        3.6316   -8.0845   -4.1058
    82         H        2.8528   -8.8018   -1.7790
    83         H        4.5133   -9.1733   -1.3379
    84         H        5.1820   -6.7524   -1.8111
    85         H        3.5230   -6.3805   -2.2581
    86         H        2.7336   -7.0919    0.0630
    87         H        4.3901   -7.4760    0.5110
    88         H        5.0844   -5.0614    0.0578
    89         H        3.4361   -4.6760   -0.4279
    90         H        2.5752   -5.3101    1.8623
    91         H        4.1795   -5.8271    2.3585
    92         H        3.6377   -3.5358    3.2154
    93         H        5.1165   -3.5626    2.2470
    94         H        1.2220   -4.2673    2.0228
    95         H       -1.1120   -3.4888    1.6457
    96         H        0.3114    0.2342   -0.0085
    97         H        1.2907    1.5011    1.5497
    98         H        1.9734    3.1164    1.7001
    99         H        0.7800    3.9631   -0.2953
   100         H        0.2665    2.3613   -0.7896
   101         H       -1.1025    2.1083    1.3397
   102         H       -0.5517    3.6826    1.9004
   103         H       -1.5867    4.7972   -0.1306
   104         H       -2.0830    3.2322   -0.7587
   105         H       -3.4828    2.8326    1.3427
   106         H       -2.9904    4.4002    1.9686
   107         H       -4.0041    5.5486   -0.0642
   108         H       -4.4613    3.9877   -0.7320
   109         H       -5.8860    3.5178    1.3379
   110         H       -5.4354    5.0821    2.0020
   111         H       -7.6511    5.2298    0.8159
   112         H       -6.4749    6.2432   -0.0207
   113         H       -6.9211    4.6728   -0.6911
   114         H        6.9022    2.7763   -1.3507
   115         H        6.3930    5.1030   -2.0152
   116         H        4.1521    6.0713   -1.6439
   117         H        2.3179    4.6933   -0.6651
   118         H        6.1882   -4.0624    0.8976
   119         H        8.5498   -4.7862    0.9430
   120         H       10.3912   -3.1497    0.7446
   121         H        9.8999   -0.7258    0.4121
   122         H        7.2810    2.2771    0.8454
   123         H        8.3381    1.2248    1.7819
   124         H        9.9298    0.9330   -0.1089
   125         H        8.8644    1.7398   -1.2440
   126         H        9.0099    3.8940    0.1076
   127         H       10.0260    3.0924    1.2998
   128         H       11.7552    2.5884   -0.5107
   129         H       10.7371    3.3797   -1.7059
   130         H       10.8408    5.5487   -0.3612
   131         H       11.8509    4.7577    0.8409
   132         H       13.5901    4.2417   -0.9603
   133         H       12.5803    5.0333   -2.1619
   134         H       12.6832    7.2051   -0.8181
   135         H       13.6907    6.4138    0.3851
   136         H       15.1148    7.6648   -1.2681
   137         H       15.4549    5.9392   -1.3987
   138         H       14.4432    6.7338   -2.6070
   139         H       -3.8705    1.3566   -0.7774
   140         H       -6.2070    1.9877   -1.1394
   141         H       -9.0066   -1.2970   -1.3769
   142         H      -11.3610   -0.6312   -1.7061
   143         H      -10.5135    3.2398    0.0086
   144         H       -8.1533    2.5718    0.3502
   145         H      -16.0113    2.9429   -1.1413


 ENERGY OF "REORIENTED" SYSTEM WITHOUT FIELD:      105.0628605563


  NFREQ=  3  IWFLB=  0  IBET=  1  IGAM=  1
  ATOL= 0.10000D-02  BTOL= 0.10000D-02    MAXITU=  500    MAXITA=  150


 *****************************************************************
 CALCULATION OF STATIC FIELD QUANTITIES
 *****************************************************************

 +++++ ALPHA AT       0.00000 EV.

                           COMPONENTS OF ALPHA

                     *X           *Y           *Z
           *=X:    1178.3152     -23.8271       1.7635
           *=Y:     -23.8714     772.3552    -129.0952
           *=Z:       1.7820    -129.0959     321.8982

  ISOTROPIC AVERAGE ALPHA =     757.52286 A.U. =    112.25330 ANG.**3

 +++++ BETA (SECOND HARMONIC GENERATION) AT       0.00000 EV.

                              COMPONENTS OF BETA
            *XX         *XY         *YY         *XZ         *YZ         *ZZ
   *=X  9744.33876 -1053.63075 -1365.71953   522.68576   295.05887   -94.08646
   *=Y -1054.38852 -1365.58786  -336.89743   295.04418   116.51332  -117.67513
   *=Z   522.87095   295.01247   116.49223   -94.06215  -117.67418    48.25548


 AVERAGE BETAX(SHG) VALUE AT   0.00000 EV =       4970.7821 a.u. =  0.429447E-28 ESU
 AVERAGE BETAY(SHG) VALUE AT   0.00000 EV =       -905.0732 a.u. = -0.781931E-29 ESU
 AVERAGE BETAZ(SHG) VALUE AT   0.00000 EV =        412.5056 a.u. =  0.356381E-29 ESU



 AVERAGE BETA (SHG) VALUE AT   0.00000 EV =       5069.3187 a.u. =  0.437960E-28 ESU
   (1 a.u. = 8.639418X10-33 esu)



 +++++ ALPHA AT       0.00000 EV.

                           COMPONENTS OF ALPHA

                     *X           *Y           *Z
           *=X:    1178.3152     -23.8271       1.7635
           *=Y:     -23.8714     772.3552    -129.0952
           *=Z:       1.7820    -129.0959     321.8982

  ISOTROPIC AVERAGE ALPHA =     757.52286 A.U. =    112.25330 ANG.**3


 GAMMA (THIRD HARMONIC GENERATION) AT    0.00000 EV.


 GAMMA(X,X,X,X) =       4167228.17929
 GAMMA(Y,Y,Y,Y) =        227835.87047
 GAMMA(Z,Z,Z,Z) =         11717.08551
 GAMMA(X,X,Y,Y) =        164358.13163
 GAMMA(X,X,Z,Z) =         35433.31921
 GAMMA(Y,Y,X,X) =        164357.59453
 GAMMA(Y,Y,Z,Z) =         27261.87246
 GAMMA(Z,Z,X,X) =         35433.11303
 GAMMA(Z,Z,Y,Y) =         27261.96677


 AVERAGE GAMMA VALUE AT    0.00000 =        972177.42658 a.u. =       489656.85526 ESU (X10-39)




 **********************************************************************
 CALCULATION FOR A FREQUENCY OF    0.25000 EV  =       0.00919 A.U. 
                  WAVELENGTH OF    4959.37 NM  =    2016.38525 CM(-1)
 **********************************************************************

 +++++ ALPHA AT       0.25000 EV.

                           COMPONENTS OF ALPHA

                     *X           *Y           *Z
           *=X:    1183.0204     -24.0726       1.8510
           *=Y:     -24.1110     773.8255    -129.4450
           *=Z:       1.8667    -129.4457     322.2585

  ISOTROPIC AVERAGE ALPHA =     759.70148 A.U. =    112.57614 ANG.**3

 +++++ BETA (SECOND HARMONIC GENERATION) AT       0.25000 EV.

                              COMPONENTS OF BETA
            *XX         *XY         *YY         *XZ         *YZ         *ZZ
   *=X 10203.92581 -1093.33302 -1410.71430   545.03295   305.94213   -98.22054
   *=Y -1098.08431 -1394.64788  -344.22579   301.19618   120.53573  -120.19742
   *=Z   549.03030   301.20036   121.28227   -95.43578  -120.00971    49.04799


 AVERAGE BETAX(SHG) VALUE AT   0.25000 EV =       5224.5351 a.u. =  0.451369E-28 ESU
 AVERAGE BETAY(SHG) VALUE AT   0.25000 EV =       -935.5289 a.u. = -0.808243E-29 ESU
 AVERAGE BETAZ(SHG) VALUE AT   0.25000 EV =        429.7188 a.u. =  0.371252E-29 ESU



 AVERAGE BETA (SHG) VALUE AT   0.25000 EV =       5325.0013 a.u. =  0.460049E-28 ESU
   (1 a.u. = 8.639418X10-33 esu)



 +++++ ALPHA AT       0.75000 EV.

                           COMPONENTS OF ALPHA

                     *X           *Y           *Z
           *=X:    1223.2485     -26.1804       2.6118
           *=Y:     -26.2177     785.9682    -132.3541
           *=Z:       2.6303    -132.3553     325.2016

  ISOTROPIC AVERAGE ALPHA =     778.13943 A.U. =    115.30837 ANG.**3


 GAMMA (THIRD HARMONIC GENERATION) AT    0.25000 EV.


 GAMMA(X,X,X,X) =       4633827.60971
 GAMMA(Y,Y,Y,Y) =        241522.62980
 GAMMA(Z,Z,Z,Z) =         12053.35117
 GAMMA(X,X,Y,Y) =        176864.13641
 GAMMA(X,X,Z,Z) =         38409.66165
 GAMMA(Y,Y,X,X) =        177570.48669
 GAMMA(Y,Y,Z,Z) =         28741.67843
 GAMMA(Z,Z,X,X) =         37872.43739
 GAMMA(Z,Z,Y,Y) =         28668.65239


 AVERAGE GAMMA VALUE AT    0.25000 =       1075106.12873 a.u. =       541498.98122 ESU (X10-39)




 **********************************************************************
 CALCULATION FOR A FREQUENCY OF    0.50000 EV  =       0.01837 A.U. 
                  WAVELENGTH OF    2479.68 NM  =    4032.77050 CM(-1)
 **********************************************************************

 +++++ ALPHA AT       0.50000 EV.

                           COMPONENTS OF ALPHA

                     *X           *Y           *Z
           *=X:    1197.5402     -24.8166       2.1169
           *=Y:     -24.8590     778.2956    -130.5116
           *=Z:       2.1341    -130.5123     323.3481

  ISOTROPIC AVERAGE ALPHA =     766.39467 A.U. =    113.56797 ANG.**3

 +++++ BETA (SECOND HARMONIC GENERATION) AT       0.50000 EV.

                              COMPONENTS OF BETA
            *XX         *XY         *YY         *XZ         *YZ         *ZZ
   *=X 11829.18710 -1230.57210 -1567.14886   622.25952   344.36354  -113.02861
   *=Y -1252.84859 -1488.47195  -367.97887   320.92813   133.70724  -128.40292
   *=Z   641.46227   321.01813   136.90096   -99.63228  -127.55721    51.61202


 AVERAGE BETAX(SHG) VALUE AT   0.50000 EV =       6126.2351 a.u. =  0.529271E-28 ESU
 AVERAGE BETAY(SHG) VALUE AT   0.50000 EV =      -1040.2893 a.u. = -0.898749E-29 ESU
 AVERAGE BETAZ(SHG) VALUE AT   0.50000 EV =        489.0266 a.u. =  0.422490E-29 ESU



 AVERAGE BETA (SHG) VALUE AT   0.50000 EV =       6233.1457 a.u. =  0.538508E-28 ESU
   (1 a.u. = 8.639418X10-33 esu)



 +++++ ALPHA AT       1.50000 EV.

                           COMPONENTS OF ALPHA

                     *X           *Y           *Z
           *=X:    1409.4478     -37.2373       6.9926
           *=Y:     -37.2862     833.1380    -144.0220
           *=Z:       7.0127    -144.0232     336.1846

  ISOTROPIC AVERAGE ALPHA =     859.59013 A.U. =    127.37811 ANG.**3


 GAMMA (THIRD HARMONIC GENERATION) AT    0.50000 EV.


 GAMMA(X,X,X,X) =       6750653.37473
 GAMMA(Y,Y,Y,Y) =        291927.63310
 GAMMA(Z,Z,Z,Z) =         13248.52483
 GAMMA(X,X,Y,Y) =        228233.56493
 GAMMA(X,X,Z,Z) =         51218.94265
 GAMMA(Y,Y,X,X) =        231050.69082
 GAMMA(Y,Y,Z,Z) =         34170.01033
 GAMMA(Z,Z,X,X) =         48052.52652
 GAMMA(Z,Z,Y,Y) =         33971.35888


 AVERAGE GAMMA VALUE AT    0.50000 =       1536505.32536 a.u. =       773892.03363 ESU (X10-39)



 **********************
 *                    *
 * JOB ENDED NORMALLY *
 *                    *
 **********************



 TOTAL JOB TIME:          1261.07 SECONDS

 == MOPAC DONE ==
