 *******************************************************************************
 ** Site#: 4824         For non-commercial use only    Version 21.013L 64BITS **
 *******************************************************************************
 ** Cite this program as: MOPAC2016, Version: 21.013L, James J. P. Stewart,   **
 ** Stewart Computational Chemistry, web: HTTP://OpenMOPAC.net. Days left:  87**
 *******************************************************************************
 **                                                                           **
 **                                MOPAC2016                                  **
 **                                                                           **
 *******************************************************************************

                              RM1 CALCULATION RESULTS

 *******************************************************************************
 *  CALCULATION DONE:                                Mon Oct 18 11:48:43 2021  *
 *  RM1        - The RM1 Hamiltonian to be used
 *  POLAR      - CALCULATE FIRST, SECOND AND THIRD-ORDER POLARIZABILITIES
 *  PRECISE    - TIGHTER CRITERIA TO BE USED
 *  XYZ        - CARTESIAN COORDINATE SYSTEM TO BE USED
 *  T=         - A TIME OF 172800.0 SECONDS REQUESTED
 *  DUMP=N     - RESTART FILE WRITTEN EVERY 7200.0 SECONDS REQUESTED
 *  GNORM      - EXIT WHEN GRADIENT NORM DROPS BELOW 0.100
 *******************************************************************************
RM1 PRECISE POLAR XYZ GNORM=0.1


   ATOM   CHEMICAL          X               Y               Z
  NUMBER   SYMBOL      (ANGSTROMS)     (ANGSTROMS)     (ANGSTROMS)
 
     1       C          0.00000000  *   0.00000000  *   0.00000000  *
     2       C          1.52343277  *   0.00000000  *   0.00000000  *
     3       C          2.08170410  *   1.42124030  *   0.00000000  *
     4       C          3.60927081  *   1.42879891  *  -0.00035826  *
     5       C          4.16262412  *   2.85210498  *   0.00074190  *
     6       C          5.69108456  *   2.86188419  *  -0.00117305  *
     7       C          6.24414599  *   4.28320158  *   0.00970903  *
     8       C          7.76721651  *   4.34210324  *  -0.09836155  *
     9       N          8.34198988  *   3.62061114  *  -1.27629246  *
    10       C          8.14577671  *   4.33079495  *  -2.52754550  *
    11       C          6.96198101  *   4.48595694  *  -3.24821809  *
    12       C          6.99049975  *   5.22716009  *  -4.42306046  *
    13       C          8.16201833  *   5.80653990  *  -4.96270129  *
    14       C          9.35884251  *   5.55749209  *  -4.25362209  *
    15       C          9.35293952  *   4.87017522  *  -3.04779855  *
    16       C         10.42782317  *   4.46140444  *  -2.13852142  *
    17       C          9.82011479  *   3.62705857  *  -1.14394665  *
    18       C         10.60904066  *   2.91507283  *  -0.26666342  *
    19       C         12.05392641  *   3.06424677  *  -0.25852866  *
    20       C         12.65677828  *   3.88655014  *  -1.21412538  *
    21       C         11.80557151  *   4.64968576  *  -2.13646712  *
    22       N         12.63569995  *   5.47769130  *  -2.99379261  *
    23       C         12.35397297  *   6.95386938  *  -2.89246449  *
    24       C         12.40584351  *   7.64208127  *  -4.26535445  *
    25       C         13.17856134  *   8.96218826  *  -4.25097748  *
    26       C         13.16233729  *   9.61850633  *  -5.63118836  *
    27       C         13.92209353  *  10.94302815  *  -5.63976595  *
    28       C         13.89192225  *  11.59070295  *  -7.02320656  *
    29       C         14.64869167  *  12.91709861  *  -7.04076208  *
    30       C         14.61399532  *  13.55927674  *  -8.42171788  *
    31       C         14.02154888  *   5.12995549  *  -2.67945017  *
    32       C         14.03581223  *   4.15233696  *  -1.58250904  *
    33       C         15.24951427  *   3.64084286  *  -1.16085267  *
    34       C         16.44237558  *   4.12414644  *  -1.73336112  *
    35       C         16.42005548  *   5.10422171  *  -2.72170307  *
    36       C         15.18557462  *   5.60352572  *  -3.25183122  *
    37       N         12.65042171  *   2.23600663  *   0.77911039  *
    38       C         11.54384464  *   1.49427859  *   1.36880666  *
    39       C         10.29112104  *   1.90470494  *   0.74621720  *
    40       C          9.11413620  *   1.28613406  *   1.13271082  *
    41       C          9.15033340  *   0.31049665  *   2.15108776  *
    42       C         10.34647781  *  -0.05923335  *   2.76012740  *
    43       C         11.54776245  *   0.51393518  *   2.34457524  *
    44       C         13.45404937  *   3.01600286  *   1.78253981  *
    45       C         14.70390140  *   2.25343521  *   2.24202236  *
    46       C         15.80052212  *   3.20811219  *   2.71546592  *
    47       C         17.03581337  *   2.44990324  *   3.19822336  *
    48       C         18.13265883  *   3.40681124  *   3.66138061  *
    49       C         19.37015622  *   2.65451915  *   4.14736768  *
    50       C         20.46313137  *   3.61390228  *   4.61311252  *
    51       C         21.69587115  *   2.86189767  *   5.09805705  *
    52       C          8.20254160  *   6.58973205  *  -6.18743164  *
    53       C          9.39722754  *   6.81290896  *  -6.85254050  *
    54       C          9.53889016  *   7.58757241  *  -8.05541438  *
    55       C          8.50307957  *   8.21235986  *  -8.72536415  *
    56       C          7.22701835  *   8.02657955  *  -8.08564177  *
    57       C          7.05916715  *   7.21851018  *  -6.81196912  *
    58       N          5.81854859  *   7.18543233  *  -6.32469764  *
    59       S          4.86400941  *   8.09536355  *  -7.38784295  *
    60       N          6.08317489  *   8.57171722  *  -8.50902106  *
    61       C          8.73638362  *   8.97651132  *  -9.94268398  *
    62       C          7.74843134  *   9.33000087  * -10.86370576  *
    63       C          8.03171632  *  10.07255538  * -12.01310366  *
    64       C          9.33070283  *  10.51613354  * -12.31104029  *
    65       C         10.32950036  *  10.15117330  * -11.36531932  *
    66       C         10.04764070  *   9.41454252  * -10.22336088  *
    67       C          9.73622977  *  11.29189140  * -13.46420774  *
    68       C          9.02265889  *  11.78574641  * -14.51230318  *
    69       C          9.72100484  *  12.55716646  * -15.56239172  *
    70       O          9.08519895  *  13.01281688  * -16.52274862  *
    71       O         11.05271709  *  12.80299210  * -15.53781407  *
    72       C          7.61741984  *  11.61612422  * -14.68274994  *
    73       N          6.47742816  *  11.48593935  * -14.83407870  *
    74       H         10.82053515  *  11.51637089  * -13.48266215  *
    75       H         -0.39818593  *  -1.02720645  *   0.00000321  *
    76       H         -0.40172014  *   0.50731262  *   0.89154761  *
    77       H         -0.40174031  *   0.50726919  *  -0.89152493  *
    78       H          1.89179851  *  -0.55404356  *   0.88985320  *
    79       H          1.89218346  *  -0.55426003  *  -0.88955511  *
    80       H          1.70288064  *   1.97217810  *  -0.88731969  *
    81       H          1.70861334  *   1.96965443  *   0.89144910  *
    82       H          3.98400883  *   0.87224932  *   0.88529728  *
    83       H          3.98304640  *   0.87664259  *  -0.88928822  *
    84       H          3.77931660  *   3.40520987  *  -0.88345220  *
    85       H          3.79319018  *   3.39840187  *   0.89515025  *
    86       H          6.06661278  *   2.29786683  *   0.87932543  *
    87       H          6.05948906  *   2.31455761  *  -0.89537331  *
    88       H          5.76196342  *   4.89923835  *  -0.77878581  *
    89       H          5.93402952  *   4.78273544  *   0.95526376  *
    90       H          8.08367931  *   5.41531839  *  -0.07374215  *
    91       H          8.18928004  *   3.89112136  *   0.83094345  *
    92       H          6.02896944  *   4.02627510  *  -2.89634614  *
    93       H          6.02061312  *   5.27321253  *  -4.93851798  *
    94       H         10.33772388  *   5.89478142  *  -4.60921314  *
    95       H         11.37464256  *   7.14444849  *  -2.39358236  *
    96       H         13.09787073  *   7.44745302  *  -2.21843913  *
    97       H         12.84403348  *   6.96395222  *  -5.02959306  *
    98       H         11.37366204  *   7.86405473  *  -4.61643172  *
    99       H         12.73454410  *   9.64909843  *  -3.49909205  *
   100       H         14.22707447  *   8.78806392  *  -3.92713477  *
   101       H         13.60203901  *   8.92131383  *  -6.37678423  *
   102       H         12.11111553  *   9.77879695  *  -5.95491347  *
   103       H         13.47784881  *  11.63072275  *  -4.88896056  *
   104       H         14.97586479  *  10.76945687  *  -5.33356749  *
   105       H         14.33247906  *  10.89493733  *  -7.76897949  *
   106       H         12.83800522  *  11.76322640  *  -7.33031168  *
   107       H         14.20798806  *  13.61064196  *  -6.29312515  *
   108       H         15.70500166  *  12.75054227  *  -6.73915840  *
   109       H         15.16601118  *  14.51250728  *  -8.43164664  *
   110       H         15.07042812  *  12.90436978  *  -9.18096689  *
   111       H         13.58092928  *  13.77155221  *  -8.74021242  *
   112       H         15.30425406  *   2.85316749  *  -0.40131464  *
   113       H         17.40750788  *   3.71954256  *  -1.40286560  *
   114       H         17.35883249  *   5.45708960  *  -3.16420584  *
   115       H         15.16734923  *   6.34679170  *  -4.05519718  *
   116       H          8.15995496  *   1.51820707  *   0.64596817  *
   117       H          8.22362958  *  -0.18843557  *   2.46089438  *
   118       H         10.34170605  *  -0.83569882  *   3.53653701  *
   119       H         12.47707891  *   0.16442529  *   2.80424627  *
   120       H         13.75529988  *   4.00529806  *   1.36137297  *
   121       H         12.83580766  *   3.28537588  *   2.67412282  *
   122       H         14.44708360  *   1.56907420  *   3.07883105  *
   123       H         15.09106964  *   1.60743371  *   1.42466294  *
   124       H         16.08771849  *   3.89014879  *   1.88573875  *
   125       H         15.40570159  *   3.84646551  *   3.53479912  *
   126       H         16.75354040  *   1.76974653  *   4.03011933  *
   127       H         17.42244079  *   1.80931939  *   2.37673697  *
   128       H         18.41060303  *   4.08915956  *   2.82968040  *
   129       H         17.74614008  *   4.05160777  *   4.47967745  *
   130       H         19.08725400  *   1.96941392  *   4.97507585  *
   131       H         19.75676855  *   2.00754502  *   3.33097556  *
   132       H         20.74120034  *   4.29766349  *   3.78283263  *
   133       H         20.07645681  *   4.25168474  *   5.43674143  *
   134       H         22.47812836  *   3.55814497  *   5.43986480  *
   135       H         21.45404577  *   2.19566116  *   5.94145868  *
   136       H         22.13022763  *   2.24338018  *   4.29656603  *
   137       H         10.33933967  *   6.35377336  *  -6.51644412  *
   138       H         10.56228700  *   7.61221549  *  -8.45933640  *
   139       H          6.70811115  *   8.98781435  * -10.76164408  *
   140       H          7.18134337  *  10.27698690  * -12.67303277  *
   141       H         11.37478321  *  10.46420183  * -11.51355063  *
   142       H         10.90935454  *   9.23923207  *  -9.56645511  *
   143       H         11.26401982  *  13.32336918  * -16.33083589  *
 


          CARTESIAN COORDINATES 

    NO.       ATOM           X           Y           Z

     1         C          0.0000      0.0000      0.0000
     2         C          1.5234      0.0000      0.0000
     3         C          2.0817      1.4212      0.0000
     4         C          3.6093      1.4288     -0.0004
     5         C          4.1626      2.8521      0.0007
     6         C          5.6911      2.8619     -0.0012
     7         C          6.2441      4.2832      0.0097
     8         C          7.7672      4.3421     -0.0984
     9         N          8.3420      3.6206     -1.2763
    10         C          8.1458      4.3308     -2.5275
    11         C          6.9620      4.4860     -3.2482
    12         C          6.9905      5.2272     -4.4231
    13         C          8.1620      5.8065     -4.9627
    14         C          9.3588      5.5575     -4.2536
    15         C          9.3529      4.8702     -3.0478
    16         C         10.4278      4.4614     -2.1385
    17         C          9.8201      3.6271     -1.1439
    18         C         10.6090      2.9151     -0.2667
    19         C         12.0539      3.0642     -0.2585
    20         C         12.6568      3.8866     -1.2141
    21         C         11.8056      4.6497     -2.1365
    22         N         12.6357      5.4777     -2.9938
    23         C         12.3540      6.9539     -2.8925
    24         C         12.4058      7.6421     -4.2654
    25         C         13.1786      8.9622     -4.2510
    26         C         13.1623      9.6185     -5.6312
    27         C         13.9221     10.9430     -5.6398
    28         C         13.8919     11.5907     -7.0232
    29         C         14.6487     12.9171     -7.0408
    30         C         14.6140     13.5593     -8.4217
    31         C         14.0215      5.1300     -2.6795
    32         C         14.0358      4.1523     -1.5825
    33         C         15.2495      3.6408     -1.1609
    34         C         16.4424      4.1241     -1.7334
    35         C         16.4201      5.1042     -2.7217
    36         C         15.1856      5.6035     -3.2518
    37         N         12.6504      2.2360      0.7791
    38         C         11.5438      1.4943      1.3688
    39         C         10.2911      1.9047      0.7462
    40         C          9.1141      1.2861      1.1327
    41         C          9.1503      0.3105      2.1511
    42         C         10.3465     -0.0592      2.7601
    43         C         11.5478      0.5139      2.3446
    44         C         13.4540      3.0160      1.7825
    45         C         14.7039      2.2534      2.2420
    46         C         15.8005      3.2081      2.7155
    47         C         17.0358      2.4499      3.1982
    48         C         18.1327      3.4068      3.6614
    49         C         19.3702      2.6545      4.1474
    50         C         20.4631      3.6139      4.6131
    51         C         21.6959      2.8619      5.0981
    52         C          8.2025      6.5897     -6.1874
    53         C          9.3972      6.8129     -6.8525
    54         C          9.5389      7.5876     -8.0554
    55         C          8.5031      8.2124     -8.7254
    56         C          7.2270      8.0266     -8.0856
    57         C          7.0592      7.2185     -6.8120
    58         N          5.8185      7.1854     -6.3247
    59         S          4.8640      8.0954     -7.3878
    60         N          6.0832      8.5717     -8.5090
    61         C          8.7364      8.9765     -9.9427
    62         C          7.7484      9.3300    -10.8637
    63         C          8.0317     10.0726    -12.0131
    64         C          9.3307     10.5161    -12.3110
    65         C         10.3295     10.1512    -11.3653
    66         C         10.0476      9.4145    -10.2234
    67         C          9.7362     11.2919    -13.4642
    68         C          9.0227     11.7857    -14.5123
    69         C          9.7210     12.5572    -15.5624
    70         O          9.0852     13.0128    -16.5227
    71         O         11.0527     12.8030    -15.5378
    72         C          7.6174     11.6161    -14.6827
    73         N          6.4774     11.4859    -14.8341
    74         H         10.8205     11.5164    -13.4827
    75         H         -0.3982     -1.0272      0.0000
    76         H         -0.4017      0.5073      0.8915
    77         H         -0.4017      0.5073     -0.8915
    78         H          1.8918     -0.5540      0.8899
    79         H          1.8922     -0.5543     -0.8896
    80         H          1.7029      1.9722     -0.8873
    81         H          1.7086      1.9697      0.8914
    82         H          3.9840      0.8722      0.8853
    83         H          3.9830      0.8766     -0.8893
    84         H          3.7793      3.4052     -0.8835
    85         H          3.7932      3.3984      0.8952
    86         H          6.0666      2.2979      0.8793
    87         H          6.0595      2.3146     -0.8954
    88         H          5.7620      4.8992     -0.7788
    89         H          5.9340      4.7827      0.9553
    90         H          8.0837      5.4153     -0.0737
    91         H          8.1893      3.8911      0.8309
    92         H          6.0290      4.0263     -2.8963
    93         H          6.0206      5.2732     -4.9385
    94         H         10.3377      5.8948     -4.6092
    95         H         11.3746      7.1444     -2.3936
    96         H         13.0979      7.4475     -2.2184
    97         H         12.8440      6.9640     -5.0296
    98         H         11.3737      7.8641     -4.6164
    99         H         12.7345      9.6491     -3.4991
   100         H         14.2271      8.7881     -3.9271
   101         H         13.6020      8.9213     -6.3768
   102         H         12.1111      9.7788     -5.9549
   103         H         13.4778     11.6307     -4.8890
   104         H         14.9759     10.7695     -5.3336
   105         H         14.3325     10.8949     -7.7690
   106         H         12.8380     11.7632     -7.3303
   107         H         14.2080     13.6106     -6.2931
   108         H         15.7050     12.7505     -6.7392
   109         H         15.1660     14.5125     -8.4316
   110         H         15.0704     12.9044     -9.1810
   111         H         13.5809     13.7716     -8.7402
   112         H         15.3043      2.8532     -0.4013
   113         H         17.4075      3.7195     -1.4029
   114         H         17.3588      5.4571     -3.1642
   115         H         15.1673      6.3468     -4.0552
   116         H          8.1600      1.5182      0.6460
   117         H          8.2236     -0.1884      2.4609
   118         H         10.3417     -0.8357      3.5365
   119         H         12.4771      0.1644      2.8042
   120         H         13.7553      4.0053      1.3614
   121         H         12.8358      3.2854      2.6741
   122         H         14.4471      1.5691      3.0788
   123         H         15.0911      1.6074      1.4247
   124         H         16.0877      3.8901      1.8857
   125         H         15.4057      3.8465      3.5348
   126         H         16.7535      1.7697      4.0301
   127         H         17.4224      1.8093      2.3767
   128         H         18.4106      4.0892      2.8297
   129         H         17.7461      4.0516      4.4797
   130         H         19.0873      1.9694      4.9751
   131         H         19.7568      2.0075      3.3310
   132         H         20.7412      4.2977      3.7828
   133         H         20.0765      4.2517      5.4367
   134         H         22.4781      3.5581      5.4399
   135         H         21.4540      2.1957      5.9415
   136         H         22.1302      2.2434      4.2966
   137         H         10.3393      6.3538     -6.5164
   138         H         10.5623      7.6122     -8.4593
   139         H          6.7081      8.9878    -10.7616
   140         H          7.1813     10.2770    -12.6730
   141         H         11.3748     10.4642    -11.5136
   142         H         10.9094      9.2392     -9.5665
   143         H         11.2640     13.3234    -16.3308

  H: (RM1): G.B. ROCHA, R.O. FREIRE, A.M.SIMAS, J.J.P. STEWART, J. COMP. CHEM. 27, 1101 (2006)
  C: (RM1): G.B. ROCHA, R.O. FREIRE, A.M.SIMAS, J.J.P. STEWART, J. COMP. CHEM. 27, 1101 (2006)
  N: (RM1): G.B. ROCHA, R.O. FREIRE, A.M.SIMAS, J.J.P. STEWART, J. COMP. CHEM. 27, 1101 (2006)
  O: (RM1): G.B. ROCHA, R.O. FREIRE, A.M.SIMAS, J.J.P. STEWART, J. COMP. CHEM. 27, 1101 (2006)
  S: (RM1): G.B. ROCHA, R.O. FREIRE, A.M.SIMAS, J.J.P. STEWART, J. COMP. CHEM. 27, 1101 (2006)

           Empirical Formula: C64 H70 N6 O2 S  =   143 atoms



      MOLECULAR POINT GROUP   :   C1  


      RHF CALCULATION, NO. OF DOUBLY OCCUPIED LEVELS = 187


          Geometry optimization using L-BFGS
 CYCLE:     1 TIME:   1.613 TIME LEFT:  2.00D  GRAD.:   178.227 HEAT:  96.98384
 CYCLE:     2 TIME:   0.730 TIME LEFT:  2.00D  GRAD.:   174.530 HEAT:  96.66936
 CYCLE:     3 TIME:   0.984 TIME LEFT:  2.00D  GRAD.:    63.944 HEAT:  86.56425
 CYCLE:     4 TIME:   1.059 TIME LEFT:  2.00D  GRAD.:   174.759 HEAT:  96.66910
 CYCLE:     5 TIME:   1.051 TIME LEFT:  2.00D  GRAD.:    64.012 HEAT:  86.56274
 CYCLE:     6 TIME:   0.934 TIME LEFT:  2.00D  GRAD.:    62.179 HEAT:  84.76453
 CYCLE:     7 TIME:   0.816 TIME LEFT:  2.00D  GRAD.:    77.373 HEAT:  82.63552
 CYCLE:     8 TIME:   0.832 TIME LEFT:  2.00D  GRAD.:    81.041 HEAT:  81.59422
 CYCLE:     9 TIME:   0.668 TIME LEFT:  2.00D  GRAD.:    43.930 HEAT:  80.79359
 CYCLE:    10 TIME:   0.914 TIME LEFT:  2.00D  GRAD.:    33.155 HEAT:  79.99478
 CYCLE:    11 TIME:   0.738 TIME LEFT:  2.00D  GRAD.:    36.827 HEAT:  79.41547
 CYCLE:    12 TIME:   0.891 TIME LEFT:  2.00D  GRAD.:    34.965 HEAT:  78.37182
 CYCLE:    13 TIME:   0.695 TIME LEFT:  2.00D  GRAD.:    67.136 HEAT:  78.11610
 CYCLE:    14 TIME:   0.754 TIME LEFT:  2.00D  GRAD.:    22.292 HEAT:  77.33349
 CYCLE:    15 TIME:   0.660 TIME LEFT:  2.00D  GRAD.:    17.640 HEAT:  77.05134
 CYCLE:    16 TIME:   0.719 TIME LEFT:  2.00D  GRAD.:    22.857 HEAT:  76.60931
 CYCLE:    17 TIME:   0.773 TIME LEFT:  2.00D  GRAD.:    33.297 HEAT:  76.09045
 CYCLE:    18 TIME:   0.754 TIME LEFT:  2.00D  GRAD.:    23.461 HEAT:  75.50366
 CYCLE:    19 TIME:   0.637 TIME LEFT:  2.00D  GRAD.:    18.584 HEAT:  75.03607
 CYCLE:    20 TIME:   0.871 TIME LEFT:  2.00D  GRAD.:    32.014 HEAT:  74.65446
 CYCLE:    21 TIME:   0.707 TIME LEFT:  2.00D  GRAD.:    22.107 HEAT:  74.39455
 CYCLE:    22 TIME:   0.625 TIME LEFT:  2.00D  GRAD.:    16.815 HEAT:  74.23185
 CYCLE:    23 TIME:   0.684 TIME LEFT:  2.00D  GRAD.:    18.224 HEAT:  73.87451
 CYCLE:    24 TIME:   0.707 TIME LEFT:  2.00D  GRAD.:    35.917 HEAT:  73.70022
 CYCLE:    25 TIME:   0.672 TIME LEFT:  2.00D  GRAD.:    23.059 HEAT:  73.48252
 CYCLE:    26 TIME:   0.676 TIME LEFT:  2.00D  GRAD.:    15.547 HEAT:  73.23995
 CYCLE:    27 TIME:   0.789 TIME LEFT:  2.00D  GRAD.:    18.862 HEAT:  73.11251
 CYCLE:    28 TIME:   0.734 TIME LEFT:  2.00D  GRAD.:    15.537 HEAT:  72.88304
 CYCLE:    29 TIME:   0.699 TIME LEFT:  2.00D  GRAD.:    14.751 HEAT:  72.66833
 CYCLE:    30 TIME:   0.855 TIME LEFT:  2.00D  GRAD.:    15.537 HEAT:  72.50942
 CYCLE:    31 TIME:   0.746 TIME LEFT:  2.00D  GRAD.:    12.389 HEAT:  72.40536
 CYCLE:    32 TIME:   0.762 TIME LEFT:  2.00D  GRAD.:     9.735 HEAT:  72.32437
 CYCLE:    33 TIME:   0.797 TIME LEFT:  2.00D  GRAD.:    11.056 HEAT:  72.17176
 CYCLE:    34 TIME:   0.926 TIME LEFT:  2.00D  GRAD.:    26.032 HEAT:  72.06137
 CYCLE:    35 TIME:   0.965 TIME LEFT:  2.00D  GRAD.:    14.240 HEAT:  71.89743
 CYCLE:    36 TIME:   0.809 TIME LEFT:  2.00D  GRAD.:    11.943 HEAT:  71.72788
 CYCLE:    37 TIME:   0.758 TIME LEFT:  2.00D  GRAD.:    13.681 HEAT:  71.58308
 CYCLE:    38 TIME:   0.797 TIME LEFT:  2.00D  GRAD.:    29.755 HEAT:  71.46132
 CYCLE:    39 TIME:   0.922 TIME LEFT:  2.00D  GRAD.:    12.381 HEAT:  71.25319
 CYCLE:    40 TIME:   0.695 TIME LEFT:  2.00D  GRAD.:    10.467 HEAT:  71.14756
 CYCLE:    41 TIME:   0.758 TIME LEFT:  2.00D  GRAD.:    15.145 HEAT:  71.00555
 CYCLE:    42 TIME:   0.953 TIME LEFT:  2.00D  GRAD.:    37.603 HEAT:  70.97677
 CYCLE:    43 TIME:   0.734 TIME LEFT:  2.00D  GRAD.:    13.994 HEAT:  70.79450
 CYCLE:    44 TIME:   0.840 TIME LEFT:  2.00D  GRAD.:    10.116 HEAT:  70.69676
 CYCLE:    45 TIME:   0.605 TIME LEFT:  2.00D  GRAD.:    17.817 HEAT:  70.57427
 CYCLE:    46 TIME:   0.742 TIME LEFT:  2.00D  GRAD.:    29.746 HEAT:  70.46867
 CYCLE:    47 TIME:   0.762 TIME LEFT:  2.00D  GRAD.:    17.054 HEAT:  70.32972
 CYCLE:    48 TIME:   0.625 TIME LEFT:  2.00D  GRAD.:    15.657 HEAT:  70.10564
 CYCLE:    49 TIME:   0.629 TIME LEFT:  2.00D  GRAD.:    17.191 HEAT:  69.95887
 CYCLE:    50 TIME:   0.676 TIME LEFT:  2.00D  GRAD.:    22.492 HEAT:  69.69017
 CYCLE:    51 TIME:   0.793 TIME LEFT:  2.00D  GRAD.:    23.456 HEAT:  69.50080
 CYCLE:    52 TIME:   0.707 TIME LEFT:  2.00D  GRAD.:    18.215 HEAT:  69.29318
 CYCLE:    53 TIME:   0.801 TIME LEFT:  2.00D  GRAD.:    13.265 HEAT:  69.13141
 CYCLE:    54 TIME:   0.652 TIME LEFT:  2.00D  GRAD.:    14.492 HEAT:  68.96146
 CYCLE:    55 TIME:   0.816 TIME LEFT:  2.00D  GRAD.:    18.287 HEAT:  68.79518
 CYCLE:    56 TIME:   0.781 TIME LEFT:  2.00D  GRAD.:    13.689 HEAT:  68.59985
 CYCLE:    57 TIME:   0.570 TIME LEFT:  2.00D  GRAD.:    15.489 HEAT:  68.43855
 CYCLE:    58 TIME:   0.680 TIME LEFT:  2.00D  GRAD.:    18.869 HEAT:  68.26326
 CYCLE:    59 TIME:   0.633 TIME LEFT:  2.00D  GRAD.:    14.370 HEAT:  68.05257
 CYCLE:    60 TIME:   0.633 TIME LEFT:  2.00D  GRAD.:    42.358 HEAT:  67.92708
 CYCLE:    61 TIME:   0.645 TIME LEFT:  2.00D  GRAD.:    18.109 HEAT:  67.71206
 CYCLE:    62 TIME:   0.668 TIME LEFT:  2.00D  GRAD.:    16.278 HEAT:  67.64108
 CYCLE:    63 TIME:   0.762 TIME LEFT:  2.00D  GRAD.:    14.855 HEAT:  67.31389
 CYCLE:    64 TIME:   0.723 TIME LEFT:  2.00D  GRAD.:    35.375 HEAT:  67.16196
 CYCLE:    65 TIME:   0.801 TIME LEFT:  2.00D  GRAD.:    12.690 HEAT:  66.87410
 CYCLE:    66 TIME:   0.641 TIME LEFT:  2.00D  GRAD.:    11.918 HEAT:  66.76002
 CYCLE:    67 TIME:   0.688 TIME LEFT:  2.00D  GRAD.:    19.569 HEAT:  66.54557
 CYCLE:    68 TIME:   0.742 TIME LEFT:  2.00D  GRAD.:    26.269 HEAT:  66.45902
 CYCLE:    69 TIME:   0.707 TIME LEFT:  2.00D  GRAD.:     9.975 HEAT:  66.30917
 CYCLE:    70 TIME:   0.695 TIME LEFT:  2.00D  GRAD.:     8.470 HEAT:  66.23498
 CYCLE:    71 TIME:   0.652 TIME LEFT:  2.00D  GRAD.:    12.008 HEAT:  66.12652
 CYCLE:    72 TIME:   0.789 TIME LEFT:  2.00D  GRAD.:    33.955 HEAT:  66.11130
 CYCLE:    73 TIME:   0.699 TIME LEFT:  2.00D  GRAD.:    11.386 HEAT:  65.97101
 CYCLE:    74 TIME:   0.605 TIME LEFT:  2.00D  GRAD.:     7.367 HEAT:  65.92184
 CYCLE:    75 TIME:   0.773 TIME LEFT:  2.00D  GRAD.:     9.226 HEAT:  65.86721
 CYCLE:    76 TIME:   0.727 TIME LEFT:  2.00D  GRAD.:    13.779 HEAT:  65.79881
 CYCLE:    77 TIME:   0.730 TIME LEFT:  2.00D  GRAD.:    18.993 HEAT:  65.74043
 CYCLE:    78 TIME:   0.641 TIME LEFT:  2.00D  GRAD.:     7.890 HEAT:  65.67279
 CYCLE:    79 TIME:   0.953 TIME LEFT:  2.00D  GRAD.:     9.470 HEAT:  65.63029
 CYCLE:    80 TIME:   0.695 TIME LEFT:  2.00D  GRAD.:    10.125 HEAT:  65.57828
 CYCLE:    81 TIME:   0.781 TIME LEFT:  2.00D  GRAD.:    14.057 HEAT:  65.45549
 CYCLE:    82 TIME:   0.754 TIME LEFT:  2.00D  GRAD.:    20.602 HEAT:  65.40444
 CYCLE:    83 TIME:   0.652 TIME LEFT:  2.00D  GRAD.:     7.423 HEAT:  65.30544
 CYCLE:    84 TIME:   0.586 TIME LEFT:  2.00D  GRAD.:     7.357 HEAT:  65.25821
 CYCLE:    85 TIME:   0.797 TIME LEFT:  2.00D  GRAD.:     8.654 HEAT:  65.16785
 CYCLE:    86 TIME:   0.781 TIME LEFT:  2.00D  GRAD.:    29.310 HEAT:  65.17107
 CYCLE:    87 TIME:   0.668 TIME LEFT:  2.00D  GRAD.:     8.465 HEAT:  65.04366
 CYCLE:    88 TIME:   0.621 TIME LEFT:  2.00D  GRAD.:     6.156 HEAT:  65.00452
 CYCLE:    89 TIME:   0.730 TIME LEFT:  2.00D  GRAD.:     9.668 HEAT:  64.94108
 CYCLE:    90 TIME:   0.797 TIME LEFT:  2.00D  GRAD.:    16.553 HEAT:  64.88197
 CYCLE:    91 TIME:   0.707 TIME LEFT:  2.00D  GRAD.:     9.810 HEAT:  64.80320
 CYCLE:    92 TIME:   0.883 TIME LEFT:  2.00D  GRAD.:    14.544 HEAT:  64.73625
 CYCLE:    93 TIME:   0.766 TIME LEFT:  2.00D  GRAD.:    15.173 HEAT:  64.69139
 CYCLE:    94 TIME:   0.820 TIME LEFT:  2.00D  GRAD.:     9.804 HEAT:  64.66046
 CYCLE:    95 TIME:   0.703 TIME LEFT:  2.00D  GRAD.:     7.524 HEAT:  64.60140
 CYCLE:    96 TIME:   0.629 TIME LEFT:  2.00D  GRAD.:    10.056 HEAT:  64.54444
 CYCLE:    97 TIME:   0.629 TIME LEFT:  2.00D  GRAD.:    10.453 HEAT:  64.45191
 CYCLE:    98 TIME:   0.707 TIME LEFT:  2.00D  GRAD.:    23.603 HEAT:  64.41306
 CYCLE:    99 TIME:   0.793 TIME LEFT:  2.00D  GRAD.:     7.350 HEAT:  64.28845
 CYCLE:   100 TIME:   0.734 TIME LEFT:  2.00D  GRAD.:     6.881 HEAT:  64.23785
 CYCLE:   101 TIME:   0.820 TIME LEFT:  2.00D  GRAD.:     9.558 HEAT:  64.15164
 CYCLE:   102 TIME:   0.730 TIME LEFT:  2.00D  GRAD.:    21.766 HEAT:  64.11878
 CYCLE:   103 TIME:   0.777 TIME LEFT:  2.00D  GRAD.:    10.081 HEAT:  64.03270
 CYCLE:   104 TIME:   0.754 TIME LEFT:  2.00D  GRAD.:     7.188 HEAT:  63.96270
 CYCLE:   105 TIME:   0.863 TIME LEFT:  2.00D  GRAD.:     9.194 HEAT:  63.90071
 CYCLE:   106 TIME:   0.734 TIME LEFT:  2.00D  GRAD.:    15.220 HEAT:  63.81424
 CYCLE:   107 TIME:   0.965 TIME LEFT:  2.00D  GRAD.:    13.698 HEAT:  63.73286
 CYCLE:   108 TIME:   0.777 TIME LEFT:  2.00D  GRAD.:     9.574 HEAT:  63.67305
 CYCLE:   109 TIME:   0.660 TIME LEFT:  2.00D  GRAD.:     8.649 HEAT:  63.63395
 CYCLE:   110 TIME:   0.750 TIME LEFT:  2.00D  GRAD.:     9.447 HEAT:  63.57706
 CYCLE:   111 TIME:   0.621 TIME LEFT:  2.00D  GRAD.:    19.858 HEAT:  63.51851
 CYCLE:   112 TIME:   0.773 TIME LEFT:  2.00D  GRAD.:     8.138 HEAT:  63.44512
 CYCLE:   113 TIME:   0.781 TIME LEFT:  2.00D  GRAD.:     7.656 HEAT:  63.40536
 CYCLE:   114 TIME:   0.738 TIME LEFT:  2.00D  GRAD.:     7.940 HEAT:  63.35717
 CYCLE:   115 TIME:   0.879 TIME LEFT:  2.00D  GRAD.:    12.429 HEAT:  63.30363
 CYCLE:   116 TIME:   0.867 TIME LEFT:  2.00D  GRAD.:     7.369 HEAT:  63.25713
 CYCLE:   117 TIME:   0.652 TIME LEFT:  2.00D  GRAD.:     5.161 HEAT:  63.23471
 CYCLE:   118 TIME:   0.699 TIME LEFT:  2.00D  GRAD.:     6.073 HEAT:  63.20009
 CYCLE:   119 TIME:   0.789 TIME LEFT:  2.00D  GRAD.:     8.244 HEAT:  63.17832
 CYCLE:   120 TIME:   0.695 TIME LEFT:  2.00D  GRAD.:     5.367 HEAT:  63.15613
 CYCLE:   121 TIME:   0.789 TIME LEFT:  2.00D  GRAD.:     4.974 HEAT:  63.13173
 CYCLE:   122 TIME:   0.633 TIME LEFT:  2.00D  GRAD.:     8.569 HEAT:  63.12152
 CYCLE:   123 TIME:   0.633 TIME LEFT:  2.00D  GRAD.:     5.111 HEAT:  63.10736
 CYCLE:   124 TIME:   0.648 TIME LEFT:  2.00D  GRAD.:     4.880 HEAT:  63.08643
 CYCLE:   125 TIME:   0.910 TIME LEFT:  2.00D  GRAD.:     4.876 HEAT:  63.07218
 CYCLE:   126 TIME:   0.785 TIME LEFT:  2.00D  GRAD.:     8.449 HEAT:  63.05573
 CYCLE:   127 TIME:   0.828 TIME LEFT:  2.00D  GRAD.:     4.122 HEAT:  63.03724
 CYCLE:   128 TIME:   0.816 TIME LEFT:  2.00D  GRAD.:     3.895 HEAT:  63.02452
 CYCLE:   129 TIME:   0.785 TIME LEFT:  2.00D  GRAD.:     4.015 HEAT:  63.00897
 CYCLE:   130 TIME:   0.703 TIME LEFT:  2.00D  GRAD.:     7.054 HEAT:  62.99740
 CYCLE:   131 TIME:   0.652 TIME LEFT:  2.00D  GRAD.:     3.254 HEAT:  62.98525
 CYCLE:   132 TIME:   0.777 TIME LEFT:  2.00D  GRAD.:     3.407 HEAT:  62.97665
 CYCLE:   133 TIME:   0.832 TIME LEFT:  2.00D  GRAD.:     4.185 HEAT:  62.96608
 CYCLE:   134 TIME:   0.824 TIME LEFT:  2.00D  GRAD.:     9.252 HEAT:  62.95739
 CYCLE:   135 TIME:   0.660 TIME LEFT:  2.00D  GRAD.:     4.106 HEAT:  62.94084
 CYCLE:   136 TIME:   0.582 TIME LEFT:  2.00D  GRAD.:     3.090 HEAT:  62.93039
 CYCLE:   137 TIME:   0.785 TIME LEFT:  2.00D  GRAD.:     4.201 HEAT:  62.92010
 CYCLE:   138 TIME:   0.660 TIME LEFT:  2.00D  GRAD.:    14.762 HEAT:  62.91911
 CYCLE:   139 TIME:   0.746 TIME LEFT:  2.00D  GRAD.:     5.163 HEAT:  62.89991
 CYCLE:   140 TIME:   0.609 TIME LEFT:  2.00D  GRAD.:     3.469 HEAT:  62.89188
 CYCLE:   141 TIME:   0.711 TIME LEFT:  2.00D  GRAD.:     4.701 HEAT:  62.88195
 CYCLE:   142 TIME:   0.688 TIME LEFT:  2.00D  GRAD.:     5.234 HEAT:  62.86931
 CYCLE:   143 TIME:   0.883 TIME LEFT:  2.00D  GRAD.:     9.675 HEAT:  62.84976
 CYCLE:   144 TIME:   0.906 TIME LEFT:  2.00D  GRAD.:     6.847 HEAT:  62.82615
 CYCLE:   145 TIME:   0.848 TIME LEFT:  2.00D  GRAD.:     6.551 HEAT:  62.81008
 CYCLE:   146 TIME:   0.781 TIME LEFT:  2.00D  GRAD.:     5.463 HEAT:  62.78816
 CYCLE:   147 TIME:   0.648 TIME LEFT:  2.00D  GRAD.:     6.004 HEAT:  62.76486
 CYCLE:   148 TIME:   0.688 TIME LEFT:  2.00D  GRAD.:     5.782 HEAT:  62.74062
 CYCLE:   149 TIME:   0.699 TIME LEFT:  2.00D  GRAD.:     6.525 HEAT:  62.70857
 CYCLE:   150 TIME:   0.613 TIME LEFT:  2.00D  GRAD.:     5.392 HEAT:  62.67923
 CYCLE:   151 TIME:   0.652 TIME LEFT:  2.00D  GRAD.:     7.135 HEAT:  62.65384
 CYCLE:   152 TIME:   0.633 TIME LEFT:  2.00D  GRAD.:    10.567 HEAT:  62.62469
 CYCLE:   153 TIME:   0.719 TIME LEFT:  2.00D  GRAD.:     5.779 HEAT:  62.59398
 CYCLE:   154 TIME:   0.828 TIME LEFT:  2.00D  GRAD.:     5.728 HEAT:  62.56679
 CYCLE:   155 TIME:   0.746 TIME LEFT:  2.00D  GRAD.:     6.535 HEAT:  62.53936
 CYCLE:   156 TIME:   0.680 TIME LEFT:  2.00D  GRAD.:     7.422 HEAT:  62.48709
 CYCLE:   157 TIME:   0.711 TIME LEFT:  2.00D  GRAD.:    15.549 HEAT:  62.45907
 CYCLE:   158 TIME:   0.699 TIME LEFT:  2.00D  GRAD.:     7.218 HEAT:  62.40223
 CYCLE:   159 TIME:   0.762 TIME LEFT:  2.00D  GRAD.:     6.557 HEAT:  62.36450
 CYCLE:   160 TIME:   0.758 TIME LEFT:  2.00D  GRAD.:    11.175 HEAT:  62.33967
 CYCLE:   161 TIME:   0.656 TIME LEFT:  2.00D  GRAD.:     6.637 HEAT:  62.30305
 CYCLE:   162 TIME:   0.633 TIME LEFT:  2.00D  GRAD.:     6.438 HEAT:  62.26485
 CYCLE:   163 TIME:   0.688 TIME LEFT:  2.00D  GRAD.:    10.847 HEAT:  62.23464
 CYCLE:   164 TIME:   0.676 TIME LEFT:  2.00D  GRAD.:     6.937 HEAT:  62.20430
 CYCLE:   165 TIME:   0.785 TIME LEFT:  2.00D  GRAD.:     4.939 HEAT:  62.18264
 CYCLE:   166 TIME:   0.617 TIME LEFT:  2.00D  GRAD.:     5.871 HEAT:  62.15612
 CYCLE:   167 TIME:   0.664 TIME LEFT:  2.00D  GRAD.:     7.029 HEAT:  62.13472
 CYCLE:   168 TIME:   0.664 TIME LEFT:  2.00D  GRAD.:     4.850 HEAT:  62.10804
 CYCLE:   169 TIME:   0.801 TIME LEFT:  2.00D  GRAD.:     5.678 HEAT:  62.08356
 CYCLE:   170 TIME:   0.746 TIME LEFT:  2.00D  GRAD.:    12.492 HEAT:  62.06624
 CYCLE:   171 TIME:   0.590 TIME LEFT:  2.00D  GRAD.:     5.566 HEAT:  62.04457
 CYCLE:   172 TIME:   0.703 TIME LEFT:  2.00D  GRAD.:     3.878 HEAT:  62.03206
 CYCLE:   173 TIME:   0.613 TIME LEFT:  2.00D  GRAD.:     4.912 HEAT:  62.02092
 CYCLE:   174 TIME:   0.742 TIME LEFT:  2.00D  GRAD.:     4.251 HEAT:  62.00703
 CYCLE:   175 TIME:   0.758 TIME LEFT:  2.00D  GRAD.:    14.270 HEAT:  62.00768
 CYCLE:   176 TIME:   0.672 TIME LEFT:  2.00D  GRAD.:     3.926 HEAT:  61.98172
 CYCLE:   177 TIME:   0.754 TIME LEFT:  2.00D  GRAD.:     2.922 HEAT:  61.97479
 CYCLE:   178 TIME:   0.723 TIME LEFT:  2.00D  GRAD.:     4.154 HEAT:  61.96441
 CYCLE:   179 TIME:   0.723 TIME LEFT:  2.00D  GRAD.:     5.865 HEAT:  61.95262
 CYCLE:   180 TIME:   0.656 TIME LEFT:  2.00D  GRAD.:     4.433 HEAT:  61.93679
 CYCLE:   181 TIME:   0.680 TIME LEFT:  2.00D  GRAD.:     4.351 HEAT:  61.92089
 CYCLE:   182 TIME:   0.855 TIME LEFT:  2.00D  GRAD.:     5.245 HEAT:  61.90563
 CYCLE:   183 TIME:   0.715 TIME LEFT:  2.00D  GRAD.:     4.207 HEAT:  61.89324
 CYCLE:   184 TIME:   0.715 TIME LEFT:  2.00D  GRAD.:     4.104 HEAT:  61.87538
 CYCLE:   185 TIME:   0.727 TIME LEFT:  2.00D  GRAD.:     8.965 HEAT:  61.85715
 CYCLE:   186 TIME:   0.691 TIME LEFT:  2.00D  GRAD.:     5.590 HEAT:  61.83945
 CYCLE:   187 TIME:   0.824 TIME LEFT:  2.00D  GRAD.:     3.996 HEAT:  61.82571
 CYCLE:   188 TIME:   0.676 TIME LEFT:  2.00D  GRAD.:     4.415 HEAT:  61.80983
 CYCLE:   189 TIME:   0.871 TIME LEFT:  2.00D  GRAD.:     6.183 HEAT:  61.79414
 CYCLE:   190 TIME:   0.812 TIME LEFT:  2.00D  GRAD.:     4.651 HEAT:  61.77514
 CYCLE:   191 TIME:   0.805 TIME LEFT:  2.00D  GRAD.:     6.402 HEAT:  61.75590
 CYCLE:   192 TIME:   0.711 TIME LEFT:  2.00D  GRAD.:     5.976 HEAT:  61.74015
 CYCLE:   193 TIME:   0.688 TIME LEFT:  2.00D  GRAD.:     5.037 HEAT:  61.72572
 CYCLE:   194 TIME:   0.754 TIME LEFT:  2.00D  GRAD.:     9.062 HEAT:  61.70022
 CYCLE:   195 TIME:   0.734 TIME LEFT:  2.00D  GRAD.:     6.606 HEAT:  61.67989
 CYCLE:   196 TIME:   0.762 TIME LEFT:  2.00D  GRAD.:     5.168 HEAT:  61.66796
 CYCLE:   197 TIME:   0.648 TIME LEFT:  2.00D  GRAD.:     4.294 HEAT:  61.63572
 CYCLE:   198 TIME:   0.652 TIME LEFT:  2.00D  GRAD.:    10.301 HEAT:  61.61733
 CYCLE:   199 TIME:   0.660 TIME LEFT:  2.00D  GRAD.:     5.403 HEAT:  61.59441
 CYCLE:   200 TIME:   0.730 TIME LEFT:  2.00D  GRAD.:     4.002 HEAT:  61.57310
 CYCLE:   201 TIME:   0.805 TIME LEFT:  2.00D  GRAD.:     5.504 HEAT:  61.55685
 CYCLE:   202 TIME:   0.828 TIME LEFT:  2.00D  GRAD.:    10.917 HEAT:  61.54000
 CYCLE:   203 TIME:   0.598 TIME LEFT:  2.00D  GRAD.:     5.110 HEAT:  61.51569
 CYCLE:   204 TIME:   0.715 TIME LEFT:  2.00D  GRAD.:     5.251 HEAT:  61.49906
 CYCLE:   205 TIME:   0.852 TIME LEFT:  2.00D  GRAD.:     5.844 HEAT:  61.47582
 CYCLE:   206 TIME:   0.824 TIME LEFT:  2.00D  GRAD.:    16.058 HEAT:  61.46896
 CYCLE:   207 TIME:   0.691 TIME LEFT:  2.00D  GRAD.:     5.131 HEAT:  61.43356
 CYCLE:   208 TIME:   0.738 TIME LEFT:  2.00D  GRAD.:     4.095 HEAT:  61.42056
 CYCLE:   209 TIME:   0.625 TIME LEFT:  2.00D  GRAD.:     4.727 HEAT:  61.40149
 CYCLE:   210 TIME:   0.730 TIME LEFT:  2.00D  GRAD.:     5.967 HEAT:  61.37119
 CYCLE:   211 TIME:   0.738 TIME LEFT:  2.00D  GRAD.:    16.291 HEAT:  61.37022
 CYCLE:   212 TIME:   0.758 TIME LEFT:  2.00D  GRAD.:     4.208 HEAT:  61.33142
 CYCLE:   213 TIME:   0.820 TIME LEFT:  2.00D  GRAD.:     4.018 HEAT:  61.32282
 CYCLE:   214 TIME:   0.609 TIME LEFT:  2.00D  GRAD.:     6.161 HEAT:  61.29529
 CYCLE:   215 TIME:   0.648 TIME LEFT:  2.00D  GRAD.:     8.068 HEAT:  61.27569
 CYCLE:   216 TIME:   0.684 TIME LEFT:  2.00D  GRAD.:     5.023 HEAT:  61.25581
 CYCLE:   217 TIME:   0.648 TIME LEFT:  2.00D  GRAD.:     5.020 HEAT:  61.24188
 CYCLE:   218 TIME:   0.809 TIME LEFT:  2.00D  GRAD.:     5.999 HEAT:  61.22736
 CYCLE:   219 TIME:   0.656 TIME LEFT:  2.00D  GRAD.:     7.182 HEAT:  61.20585
 CYCLE:   220 TIME:   0.891 TIME LEFT:  2.00D  GRAD.:     5.122 HEAT:  61.18220
 CYCLE:   221 TIME:   0.762 TIME LEFT:  2.00D  GRAD.:     5.365 HEAT:  61.15800
 CYCLE:   222 TIME:   0.934 TIME LEFT:  2.00D  GRAD.:    15.189 HEAT:  61.14380
 CYCLE:   223 TIME:   0.781 TIME LEFT:  2.00D  GRAD.:     6.773 HEAT:  61.11538
 CYCLE:   224 TIME:   0.793 TIME LEFT:  2.00D  GRAD.:     4.517 HEAT:  61.09592
 CYCLE:   225 TIME:   0.734 TIME LEFT:  2.00D  GRAD.:     5.886 HEAT:  61.07839
 CYCLE:   226 TIME:   0.855 TIME LEFT:  2.00D  GRAD.:     6.733 HEAT:  61.04632
 CYCLE:   227 TIME:   0.812 TIME LEFT:  2.00D  GRAD.:    12.176 HEAT:  61.01820
 CYCLE:   228 TIME:   0.762 TIME LEFT:  2.00D  GRAD.:     6.297 HEAT:  60.97202
 CYCLE:   229 TIME:   0.648 TIME LEFT:  2.00D  GRAD.:     6.142 HEAT:  60.94439
 CYCLE:   230 TIME:   0.746 TIME LEFT:  2.00D  GRAD.:     7.531 HEAT:  60.91746
 CYCLE:   231 TIME:   0.734 TIME LEFT:  2.00D  GRAD.:     7.218 HEAT:  60.89096
 CYCLE:   232 TIME:   0.641 TIME LEFT:  2.00D  GRAD.:     8.507 HEAT:  60.86098
 CYCLE:   233 TIME:   0.773 TIME LEFT:  2.00D  GRAD.:     7.097 HEAT:  60.83328
 CYCLE:   234 TIME:   0.852 TIME LEFT:  2.00D  GRAD.:     6.073 HEAT:  60.81516
 CYCLE:   235 TIME:   0.773 TIME LEFT:  2.00D  GRAD.:     6.117 HEAT:  60.78961
 CYCLE:   236 TIME:   0.820 TIME LEFT:  2.00D  GRAD.:     8.341 HEAT:  60.76355
 CYCLE:   237 TIME:   0.859 TIME LEFT:  2.00D  GRAD.:     5.883 HEAT:  60.73392
 CYCLE:   238 TIME:   0.750 TIME LEFT:  2.00D  GRAD.:     5.584 HEAT:  60.70629
 CYCLE:   239 TIME:   0.656 TIME LEFT:  2.00D  GRAD.:     6.019 HEAT:  60.68502
 CYCLE:   240 TIME:   0.785 TIME LEFT:  2.00D  GRAD.:     9.312 HEAT:  60.66190
 CYCLE:   241 TIME:   0.625 TIME LEFT:  2.00D  GRAD.:     5.352 HEAT:  60.63686
 CYCLE:   242 TIME:   0.836 TIME LEFT:  2.00D  GRAD.:     4.378 HEAT:  60.62044
 CYCLE:   243 TIME:   0.715 TIME LEFT:  2.00D  GRAD.:     5.334 HEAT:  60.60204
 CYCLE:   244 TIME:   0.727 TIME LEFT:  2.00D  GRAD.:     6.486 HEAT:  60.57592
 CYCLE:   245 TIME:   0.863 TIME LEFT:  2.00D  GRAD.:     6.947 HEAT:  60.54995
 CYCLE:   246 TIME:   0.848 TIME LEFT:  2.00D  GRAD.:     7.517 HEAT:  60.52375
 CYCLE:   247 TIME:   0.633 TIME LEFT:  2.00D  GRAD.:     8.162 HEAT:  60.50064
 CYCLE:   248 TIME:   0.605 TIME LEFT:  2.00D  GRAD.:     6.442 HEAT:  60.47989
 CYCLE:   249 TIME:   0.812 TIME LEFT:  2.00D  GRAD.:     5.758 HEAT:  60.43689
 CYCLE:   250 TIME:   0.828 TIME LEFT:  2.00D  GRAD.:    10.087 HEAT:  60.40419
 CYCLE:   251 TIME:   0.754 TIME LEFT:  2.00D  GRAD.:     7.876 HEAT:  60.36796
 CYCLE:   252 TIME:   0.645 TIME LEFT:  2.00D  GRAD.:     5.755 HEAT:  60.33447
 CYCLE:   253 TIME:   0.766 TIME LEFT:  2.00D  GRAD.:     6.129 HEAT:  60.29498
 CYCLE:   254 TIME:   0.707 TIME LEFT:  2.00D  GRAD.:    12.928 HEAT:  60.26503
 CYCLE:   255 TIME:   0.770 TIME LEFT:  2.00D  GRAD.:     6.927 HEAT:  60.22574
 CYCLE:   256 TIME:   0.734 TIME LEFT:  2.00D  GRAD.:     6.517 HEAT:  60.18749
 CYCLE:   257 TIME:   0.781 TIME LEFT:  2.00D  GRAD.:     7.912 HEAT:  60.15748
 CYCLE:   258 TIME:   0.770 TIME LEFT:  2.00D  GRAD.:     9.165 HEAT:  60.10881
 CYCLE:   259 TIME:   0.801 TIME LEFT:  2.00D  GRAD.:     7.613 HEAT:  60.05780
 CYCLE:   260 TIME:   0.633 TIME LEFT:  2.00D  GRAD.:     8.366 HEAT:  60.00510
 CYCLE:   261 TIME:   0.801 TIME LEFT:  2.00D  GRAD.:    12.104 HEAT:  59.97449
 CYCLE:   262 TIME:   0.895 TIME LEFT:  2.00D  GRAD.:     7.467 HEAT:  59.93631
 CYCLE:   263 TIME:   0.910 TIME LEFT:  2.00D  GRAD.:     6.975 HEAT:  59.89745
 CYCLE:   264 TIME:   0.762 TIME LEFT:  2.00D  GRAD.:     7.583 HEAT:  59.85370
 CYCLE:   265 TIME:   0.660 TIME LEFT:  2.00D  GRAD.:     9.588 HEAT:  59.81987
 CYCLE:   266 TIME:   0.812 TIME LEFT:  2.00D  GRAD.:     9.737 HEAT:  59.74764
 CYCLE:   267 TIME:   0.848 TIME LEFT:  2.00D  GRAD.:     8.063 HEAT:  59.69104
 CYCLE:   268 TIME:   0.840 TIME LEFT:  2.00D  GRAD.:     6.101 HEAT:  59.65614
 CYCLE:   269 TIME:   0.605 TIME LEFT:  2.00D  GRAD.:     7.834 HEAT:  59.63262
 CYCLE:   270 TIME:   0.797 TIME LEFT:  2.00D  GRAD.:     8.904 HEAT:  59.59685
 CYCLE:   271 TIME:   0.645 TIME LEFT:  2.00D  GRAD.:     5.935 HEAT:  59.56263
 CYCLE:   272 TIME:   0.820 TIME LEFT:  2.00D  GRAD.:     4.790 HEAT:  59.53819
 CYCLE:   273 TIME:   0.816 TIME LEFT:  2.00D  GRAD.:     8.184 HEAT:  59.50941
 CYCLE:   274 TIME:   0.801 TIME LEFT:  2.00D  GRAD.:     4.988 HEAT:  59.47943
 CYCLE:   275 TIME:   0.758 TIME LEFT:  2.00D  GRAD.:     5.393 HEAT:  59.45558
 CYCLE:   276 TIME:   0.715 TIME LEFT:  2.00D  GRAD.:    15.202 HEAT:  59.43970
 CYCLE:   277 TIME:   0.770 TIME LEFT:  2.00D  GRAD.:     5.677 HEAT:  59.40685
 CYCLE:   278 TIME:   0.656 TIME LEFT:  2.00D  GRAD.:     5.472 HEAT:  59.39144
 CYCLE:   279 TIME:   0.723 TIME LEFT:  2.00D  GRAD.:     6.452 HEAT:  59.36212
 CYCLE:   280 TIME:   0.742 TIME LEFT:  2.00D  GRAD.:     8.790 HEAT:  59.33867
 CYCLE:   281 TIME:   0.684 TIME LEFT:  2.00D  GRAD.:     6.242 HEAT:  59.30452
 CYCLE:   282 TIME:   0.680 TIME LEFT:  2.00D  GRAD.:     6.652 HEAT:  59.27525
 CYCLE:   283 TIME:   0.816 TIME LEFT:  2.00D  GRAD.:    13.731 HEAT:  59.25442
 CYCLE:   284 TIME:   0.656 TIME LEFT:  2.00D  GRAD.:     5.636 HEAT:  59.22618
 CYCLE:   285 TIME:   0.680 TIME LEFT:  2.00D  GRAD.:     4.675 HEAT:  59.21212
 CYCLE:   286 TIME:   0.773 TIME LEFT:  2.00D  GRAD.:     6.439 HEAT:  59.18964
 CYCLE:   287 TIME:   0.750 TIME LEFT:  2.00D  GRAD.:     6.533 HEAT:  59.16712
 CYCLE:   288 TIME:   0.707 TIME LEFT:  2.00D  GRAD.:    12.283 HEAT:  59.15880
 CYCLE:   289 TIME:   0.812 TIME LEFT:  2.00D  GRAD.:     6.632 HEAT:  59.12986
 CYCLE:   290 TIME:   0.852 TIME LEFT:  2.00D  GRAD.:     4.141 HEAT:  59.11612
 CYCLE:   291 TIME:   0.730 TIME LEFT:  2.00D  GRAD.:     4.050 HEAT:  59.10160
 CYCLE:   292 TIME:   0.766 TIME LEFT:  2.00D  GRAD.:     5.602 HEAT:  59.08430
 CYCLE:   293 TIME:   0.676 TIME LEFT:  2.00D  GRAD.:     9.738 HEAT:  59.07238
 CYCLE:   294 TIME:   0.633 TIME LEFT:  2.00D  GRAD.:     5.114 HEAT:  59.05148
 CYCLE:   295 TIME:   0.746 TIME LEFT:  2.00D  GRAD.:     3.772 HEAT:  59.04256
 CYCLE:   296 TIME:   0.836 TIME LEFT:  2.00D  GRAD.:     4.344 HEAT:  59.02756
 CYCLE:   297 TIME:   0.566 TIME LEFT:  2.00D  GRAD.:     7.097 HEAT:  59.01345
 CYCLE:   298 TIME:   0.859 TIME LEFT:  2.00D  GRAD.:     4.744 HEAT:  58.99751
 CYCLE:   299 TIME:   0.961 TIME LEFT:  2.00D  GRAD.:     3.898 HEAT:  58.98071
 CYCLE:   300 TIME:   0.906 TIME LEFT:  2.00D  GRAD.:     5.463 HEAT:  58.96692
 CYCLE:   301 TIME:   0.934 TIME LEFT:  2.00D  GRAD.:     4.589 HEAT:  58.95132
 CYCLE:   302 TIME:   0.641 TIME LEFT:  2.00D  GRAD.:     3.918 HEAT:  58.93497
 CYCLE:   303 TIME:   0.820 TIME LEFT:  2.00D  GRAD.:     7.548 HEAT:  58.92171
 CYCLE:   304 TIME:   0.805 TIME LEFT:  2.00D  GRAD.:     4.159 HEAT:  58.90766
 CYCLE:   305 TIME:   0.734 TIME LEFT:  2.00D  GRAD.:     4.085 HEAT:  58.89819
 CYCLE:   306 TIME:   0.699 TIME LEFT:  2.00D  GRAD.:     4.654 HEAT:  58.88213
 CYCLE:   307 TIME:   0.676 TIME LEFT:  2.00D  GRAD.:    12.205 HEAT:  58.87876
 CYCLE:   308 TIME:   0.621 TIME LEFT:  2.00D  GRAD.:     4.592 HEAT:  58.85885
 CYCLE:   309 TIME:   0.605 TIME LEFT:  2.00D  GRAD.:     3.131 HEAT:  58.84903
 CYCLE:   310 TIME:   0.656 TIME LEFT:  2.00D  GRAD.:     4.364 HEAT:  58.83586
 CYCLE:   311 TIME:   0.727 TIME LEFT:  2.00D  GRAD.:     6.520 HEAT:  58.82208
 CYCLE:   312 TIME:   0.750 TIME LEFT:  2.00D  GRAD.:     4.875 HEAT:  58.80733
 CYCLE:   313 TIME:   0.766 TIME LEFT:  2.00D  GRAD.:     3.393 HEAT:  58.79646
 CYCLE:   314 TIME:   0.801 TIME LEFT:  2.00D  GRAD.:     4.533 HEAT:  58.78307
 CYCLE:   315 TIME:   0.797 TIME LEFT:  2.00D  GRAD.:     6.120 HEAT:  58.76959
 CYCLE:   316 TIME:   0.613 TIME LEFT:  2.00D  GRAD.:     5.814 HEAT:  58.75094
 CYCLE:   317 TIME:   0.742 TIME LEFT:  2.00D  GRAD.:     4.891 HEAT:  58.73641
 CYCLE:   318 TIME:   0.738 TIME LEFT:  2.00D  GRAD.:     3.990 HEAT:  58.72488
 CYCLE:   319 TIME:   0.777 TIME LEFT:  2.00D  GRAD.:     4.310 HEAT:  58.71259
 CYCLE:   320 TIME:   0.738 TIME LEFT:  2.00D  GRAD.:     6.291 HEAT:  58.69857
 CYCLE:   321 TIME:   0.609 TIME LEFT:  2.00D  GRAD.:     3.653 HEAT:  58.68580
 CYCLE:   322 TIME:   0.824 TIME LEFT:  2.00D  GRAD.:     3.816 HEAT:  58.67294
 CYCLE:   323 TIME:   0.738 TIME LEFT:  2.00D  GRAD.:     4.656 HEAT:  58.66024
 CYCLE:   324 TIME:   0.871 TIME LEFT:  2.00D  GRAD.:     8.806 HEAT:  58.64439
 CYCLE:   325 TIME:   0.762 TIME LEFT:  2.00D  GRAD.:     4.766 HEAT:  58.62697
 CYCLE:   326 TIME:   0.750 TIME LEFT:  2.00D  GRAD.:     3.812 HEAT:  58.61696
 CYCLE:   327 TIME:   0.648 TIME LEFT:  2.00D  GRAD.:     4.879 HEAT:  58.60564
 CYCLE:   328 TIME:   0.777 TIME LEFT:  2.00D  GRAD.:     5.957 HEAT:  58.59277
 CYCLE:   329 TIME:   0.758 TIME LEFT:  2.00D  GRAD.:     4.068 HEAT:  58.58054
 CYCLE:   330 TIME:   0.781 TIME LEFT:  2.00D  GRAD.:     4.352 HEAT:  58.56655
 CYCLE:   331 TIME:   0.812 TIME LEFT:  2.00D  GRAD.:     5.045 HEAT:  58.55914
 CYCLE:   332 TIME:   0.789 TIME LEFT:  2.00D  GRAD.:     3.525 HEAT:  58.55088
 CYCLE:   333 TIME:   0.773 TIME LEFT:  2.00D  GRAD.:     3.246 HEAT:  58.53759
 CYCLE:   334 TIME:   0.816 TIME LEFT:  2.00D  GRAD.:     5.130 HEAT:  58.53014
 CYCLE:   335 TIME:   0.730 TIME LEFT:  2.00D  GRAD.:     3.578 HEAT:  58.52092
 CYCLE:   336 TIME:   0.902 TIME LEFT:  2.00D  GRAD.:     2.921 HEAT:  58.51168
 CYCLE:   337 TIME:   0.738 TIME LEFT:  2.00D  GRAD.:     3.737 HEAT:  58.50165
 CYCLE:   338 TIME:   0.770 TIME LEFT:  2.00D  GRAD.:     5.276 HEAT:  58.49245
 CYCLE:   339 TIME:   0.676 TIME LEFT:  2.00D  GRAD.:     2.936 HEAT:  58.48368
 CYCLE:   340 TIME:   0.758 TIME LEFT:  2.00D  GRAD.:     2.752 HEAT:  58.47657
 CYCLE:   341 TIME:   0.660 TIME LEFT:  2.00D  GRAD.:     3.543 HEAT:  58.46834
 CYCLE:   342 TIME:   0.898 TIME LEFT:  2.00D  GRAD.:     7.911 HEAT:  58.46241
 CYCLE:   343 TIME:   0.840 TIME LEFT:  2.00D  GRAD.:     3.141 HEAT:  58.45227
 CYCLE:   344 TIME:   0.777 TIME LEFT:  2.00D  GRAD.:     2.970 HEAT:  58.44741
 CYCLE:   345 TIME:   0.820 TIME LEFT:  2.00D  GRAD.:     3.594 HEAT:  58.43893
 CYCLE:   346 TIME:   0.773 TIME LEFT:  2.00D  GRAD.:     5.707 HEAT:  58.42766
 CYCLE:   347 TIME:   0.844 TIME LEFT:  2.00D  GRAD.:     4.541 HEAT:  58.41670
 CYCLE:   348 TIME:   0.844 TIME LEFT:  2.00D  GRAD.:     3.720 HEAT:  58.40935
 CYCLE:   349 TIME:   0.664 TIME LEFT:  2.00D  GRAD.:     2.960 HEAT:  58.40376
 CYCLE:   350 TIME:   0.816 TIME LEFT:  2.00D  GRAD.:     3.030 HEAT:  58.39791
 CYCLE:   351 TIME:   1.039 TIME LEFT:  2.00D  GRAD.:     5.454 HEAT:  58.38991
 CYCLE:   352 TIME:   0.871 TIME LEFT:  2.00D  GRAD.:     2.806 HEAT:  58.38157
 CYCLE:   353 TIME:   0.781 TIME LEFT:  2.00D  GRAD.:     2.770 HEAT:  58.37538
 CYCLE:   354 TIME:   0.738 TIME LEFT:  2.00D  GRAD.:     3.274 HEAT:  58.36771
 CYCLE:   355 TIME:   0.688 TIME LEFT:  2.00D  GRAD.:     8.124 HEAT:  58.36423
 CYCLE:   356 TIME:   0.758 TIME LEFT:  2.00D  GRAD.:     3.169 HEAT:  58.35384
 CYCLE:   357 TIME:   0.613 TIME LEFT:  2.00D  GRAD.:     2.177 HEAT:  58.34944
 CYCLE:   358 TIME:   0.730 TIME LEFT:  2.00D  GRAD.:     2.993 HEAT:  58.34456
 CYCLE:   359 TIME:   0.793 TIME LEFT:  2.00D  GRAD.:     6.394 HEAT:  58.33837
 CYCLE:   360 TIME:   0.812 TIME LEFT:  2.00D  GRAD.:     3.579 HEAT:  58.33140
 CYCLE:   361 TIME:   1.008 TIME LEFT:  2.00D  GRAD.:     2.748 HEAT:  58.32403
 CYCLE:   362 TIME:   0.625 TIME LEFT:  2.00D  GRAD.:     3.447 HEAT:  58.31917
 CYCLE:   363 TIME:   0.711 TIME LEFT:  2.00D  GRAD.:     4.840 HEAT:  58.31113
 CYCLE:   364 TIME:   0.664 TIME LEFT:  2.00D  GRAD.:     4.866 HEAT:  58.30301
 CYCLE:   365 TIME:   0.703 TIME LEFT:  2.00D  GRAD.:     3.506 HEAT:  58.29632
 CYCLE:   366 TIME:   0.914 TIME LEFT:  2.00D  GRAD.:     3.510 HEAT:  58.28561
 CYCLE:   367 TIME:   0.652 TIME LEFT:  2.00D  GRAD.:     5.135 HEAT:  58.27695
 CYCLE:   368 TIME:   0.574 TIME LEFT:  2.00D  GRAD.:     4.495 HEAT:  58.26531
 CYCLE:   369 TIME:   0.816 TIME LEFT:  2.00D  GRAD.:     5.165 HEAT:  58.25007
 CYCLE:   370 TIME:   0.766 TIME LEFT:  2.00D  GRAD.:     5.365 HEAT:  58.23488
 CYCLE:   371 TIME:   0.754 TIME LEFT:  2.00D  GRAD.:     3.692 HEAT:  58.22276
 CYCLE:   372 TIME:   0.777 TIME LEFT:  2.00D  GRAD.:     4.140 HEAT:  58.21164
 CYCLE:   373 TIME:   0.676 TIME LEFT:  2.00D  GRAD.:     7.109 HEAT:  58.19965
 CYCLE:   374 TIME:   0.738 TIME LEFT:  2.00D  GRAD.:     4.480 HEAT:  58.18225
 CYCLE:   375 TIME:   0.785 TIME LEFT:  2.00D  GRAD.:     4.094 HEAT:  58.16859
 CYCLE:   376 TIME:   0.715 TIME LEFT:  2.00D  GRAD.:     4.838 HEAT:  58.15681
 CYCLE:   377 TIME:   0.617 TIME LEFT:  2.00D  GRAD.:     5.483 HEAT:  58.14669
 CYCLE:   378 TIME:   0.793 TIME LEFT:  2.00D  GRAD.:     3.938 HEAT:  58.13395
 CYCLE:   379 TIME:   0.844 TIME LEFT:  2.00D  GRAD.:     4.008 HEAT:  58.11920
 CYCLE:   380 TIME:   0.754 TIME LEFT:  2.00D  GRAD.:     8.264 HEAT:  58.11023
 CYCLE:   381 TIME:   0.719 TIME LEFT:  2.00D  GRAD.:     4.252 HEAT:  58.09329
 CYCLE:   382 TIME:   0.824 TIME LEFT:  2.00D  GRAD.:     3.507 HEAT:  58.07961
 CYCLE:   383 TIME:   0.746 TIME LEFT:  2.00D  GRAD.:     3.842 HEAT:  58.07084
 CYCLE:   384 TIME:   0.762 TIME LEFT:  2.00D  GRAD.:     8.800 HEAT:  58.06199
 CYCLE:   385 TIME:   0.891 TIME LEFT:  2.00D  GRAD.:     3.852 HEAT:  58.04586
 CYCLE:   386 TIME:   0.738 TIME LEFT:  2.00D  GRAD.:     3.347 HEAT:  58.03711
 CYCLE:   387 TIME:   0.840 TIME LEFT:  2.00D  GRAD.:     3.986 HEAT:  58.02689
 CYCLE:   388 TIME:   0.910 TIME LEFT:  2.00D  GRAD.:     7.675 HEAT:  58.01587
 CYCLE:   389 TIME:   0.785 TIME LEFT:  2.00D  GRAD.:     4.046 HEAT:  57.99983
 CYCLE:   390 TIME:   0.750 TIME LEFT:  2.00D  GRAD.:     3.579 HEAT:  57.98903
 CYCLE:   391 TIME:   0.809 TIME LEFT:  2.00D  GRAD.:     5.001 HEAT:  57.98127
 CYCLE:   392 TIME:   0.887 TIME LEFT:  2.00D  GRAD.:     4.172 HEAT:  57.97042
 CYCLE:   393 TIME:   0.762 TIME LEFT:  2.00D  GRAD.:     5.557 HEAT:  57.95688
 CYCLE:   394 TIME:   0.695 TIME LEFT:  2.00D  GRAD.:     3.701 HEAT:  57.94523
 CYCLE:   395 TIME:   0.684 TIME LEFT:  2.00D  GRAD.:     3.494 HEAT:  57.93656
 CYCLE:   396 TIME:   0.773 TIME LEFT:  2.00D  GRAD.:     4.088 HEAT:  57.92002
 CYCLE:   397 TIME:   0.852 TIME LEFT:  2.00D  GRAD.:    10.031 HEAT:  57.91223
 CYCLE:   398 TIME:   0.621 TIME LEFT:  2.00D  GRAD.:     3.919 HEAT:  57.89386
 CYCLE:   399 TIME:   0.750 TIME LEFT:  2.00D  GRAD.:     3.155 HEAT:  57.88380
 CYCLE:   400 TIME:   0.883 TIME LEFT:  2.00D  GRAD.:     3.876 HEAT:  57.87298
 CYCLE:   401 TIME:   0.699 TIME LEFT:  2.00D  GRAD.:     9.879 HEAT:  57.86536
 CYCLE:   402 TIME:   0.805 TIME LEFT:  2.00D  GRAD.:     4.058 HEAT:  57.84952
 CYCLE:   403 TIME:   0.719 TIME LEFT:  2.00D  GRAD.:     3.347 HEAT:  57.83946
 CYCLE:   404 TIME:   0.852 TIME LEFT:  2.00D  GRAD.:     4.036 HEAT:  57.82966
 CYCLE:   405 TIME:   0.758 TIME LEFT:  2.00D  GRAD.:     9.686 HEAT:  57.81969
 CYCLE:   406 TIME:   0.797 TIME LEFT:  2.00D  GRAD.:     4.197 HEAT:  57.80483
 CYCLE:   407 TIME:   0.762 TIME LEFT:  2.00D  GRAD.:     3.410 HEAT:  57.79518
 CYCLE:   408 TIME:   0.762 TIME LEFT:  2.00D  GRAD.:     4.402 HEAT:  57.78495
 CYCLE:   409 TIME:   0.750 TIME LEFT:  2.00D  GRAD.:     7.526 HEAT:  57.77727
 CYCLE:   410 TIME:   0.758 TIME LEFT:  2.00D  GRAD.:     3.741 HEAT:  57.76558
 CYCLE:   411 TIME:   0.875 TIME LEFT:  2.00D  GRAD.:     3.360 HEAT:  57.75450
 CYCLE:   412 TIME:   0.684 TIME LEFT:  2.00D  GRAD.:     3.943 HEAT:  57.74475
 CYCLE:   413 TIME:   0.711 TIME LEFT:  2.00D  GRAD.:     7.240 HEAT:  57.72734
 CYCLE:   414 TIME:   0.727 TIME LEFT:  2.00D  GRAD.:     4.626 HEAT:  57.71002
 CYCLE:   415 TIME:   0.840 TIME LEFT:  2.00D  GRAD.:     2.883 HEAT:  57.69985
 CYCLE:   416 TIME:   0.715 TIME LEFT:  2.00D  GRAD.:     3.495 HEAT:  57.68951
 CYCLE:   417 TIME:   0.625 TIME LEFT:  2.00D  GRAD.:     4.563 HEAT:  57.68244
 CYCLE:   418 TIME:   0.648 TIME LEFT:  2.00D  GRAD.:     3.207 HEAT:  57.67423
 CYCLE:   419 TIME:   0.727 TIME LEFT:  2.00D  GRAD.:     3.331 HEAT:  57.66213
 CYCLE:   420 TIME:   0.695 TIME LEFT:  2.00D  GRAD.:     5.141 HEAT:  57.65501
 CYCLE:   421 TIME:   0.734 TIME LEFT:  2.00D  GRAD.:     3.779 HEAT:  57.64705
 CYCLE:   422 TIME:   0.723 TIME LEFT:  2.00D  GRAD.:     5.130 HEAT:  57.63341
 CYCLE:   423 TIME:   0.691 TIME LEFT:  2.00D  GRAD.:    10.297 HEAT:  57.63343
 CYCLE:   424 TIME:   0.965 TIME LEFT:  2.00D  GRAD.:     3.714 HEAT:  57.62462
 CYCLE:   425 TIME:   0.637 TIME LEFT:  2.00D  GRAD.:     2.886 HEAT:  57.62041
 CYCLE:   426 TIME:   0.715 TIME LEFT:  2.00D  GRAD.:     4.685 HEAT:  57.61003
 CYCLE:   427 TIME:   0.828 TIME LEFT:  2.00D  GRAD.:     5.001 HEAT:  57.60062
 CYCLE:   428 TIME:   0.758 TIME LEFT:  2.00D  GRAD.:     8.988 HEAT:  57.58987
 CYCLE:   429 TIME:   0.809 TIME LEFT:  2.00D  GRAD.:     3.790 HEAT:  57.57370
 CYCLE:   430 TIME:   0.699 TIME LEFT:  2.00D  GRAD.:     2.986 HEAT:  57.56541
 CYCLE:   431 TIME:   0.844 TIME LEFT:  2.00D  GRAD.:     4.145 HEAT:  57.55563
 CYCLE:   432 TIME:   0.727 TIME LEFT:  2.00D  GRAD.:     5.506 HEAT:  57.54337
 CYCLE:   433 TIME:   0.656 TIME LEFT:  2.00D  GRAD.:     4.853 HEAT:  57.52572
 CYCLE:   434 TIME:   0.688 TIME LEFT:  2.00D  GRAD.:     4.142 HEAT:  57.50790
 CYCLE:   435 TIME:   0.688 TIME LEFT:  2.00D  GRAD.:     5.101 HEAT:  57.49003
 CYCLE:   436 TIME:   0.809 TIME LEFT:  2.00D  GRAD.:     5.201 HEAT:  57.47689
 CYCLE:   437 TIME:   1.004 TIME LEFT:  2.00D  GRAD.:     4.243 HEAT:  57.46458
 CYCLE:   438 TIME:   0.645 TIME LEFT:  2.00D  GRAD.:     6.216 HEAT:  57.44524
 CYCLE:   439 TIME:   0.730 TIME LEFT:  2.00D  GRAD.:    10.551 HEAT:  57.43674
 CYCLE:   440 TIME:   0.711 TIME LEFT:  2.00D  GRAD.:     4.529 HEAT:  57.42523
 CYCLE:   441 TIME:   0.730 TIME LEFT:  2.00D  GRAD.:     3.378 HEAT:  57.41578
 CYCLE:   442 TIME:   0.766 TIME LEFT:  2.00D  GRAD.:     4.579 HEAT:  57.40624
 CYCLE:   443 TIME:   0.746 TIME LEFT:  2.00D  GRAD.:     4.648 HEAT:  57.39305
 CYCLE:   444 TIME:   0.629 TIME LEFT:  2.00D  GRAD.:    11.820 HEAT:  57.38368
 CYCLE:   445 TIME:   0.680 TIME LEFT:  2.00D  GRAD.:     4.276 HEAT:  57.36136
 CYCLE:   446 TIME:   0.773 TIME LEFT:  2.00D  GRAD.:     2.728 HEAT:  57.35358
 CYCLE:   447 TIME:   0.656 TIME LEFT:  2.00D  GRAD.:     3.372 HEAT:  57.34443
 CYCLE:   448 TIME:   0.625 TIME LEFT:  2.00D  GRAD.:     8.197 HEAT:  57.34102
 CYCLE:   449 TIME:   0.762 TIME LEFT:  2.00D  GRAD.:     3.522 HEAT:  57.33031
 CYCLE:   450 TIME:   0.742 TIME LEFT:  2.00D  GRAD.:     2.217 HEAT:  57.32330
 CYCLE:   451 TIME:   0.785 TIME LEFT:  2.00D  GRAD.:     2.867 HEAT:  57.31729
 CYCLE:   452 TIME:   0.672 TIME LEFT:  2.00D  GRAD.:     3.388 HEAT:  57.30824
 CYCLE:   453 TIME:   0.730 TIME LEFT:  2.00D  GRAD.:     5.765 HEAT:  57.30143
 CYCLE:   454 TIME:   0.738 TIME LEFT:  2.00D  GRAD.:     3.516 HEAT:  57.29317
 CYCLE:   455 TIME:   0.703 TIME LEFT:  2.00D  GRAD.:     2.638 HEAT:  57.28895
 CYCLE:   456 TIME:   0.758 TIME LEFT:  2.00D  GRAD.:     2.524 HEAT:  57.28439
 CYCLE:   457 TIME:   0.742 TIME LEFT:  2.00D  GRAD.:     7.786 HEAT:  57.27829
 CYCLE:   458 TIME:   0.531 TIME LEFT:  2.00D  GRAD.:     2.808 HEAT:  57.26962
 CYCLE:   459 TIME:   0.664 TIME LEFT:  2.00D  GRAD.:     2.195 HEAT:  57.26568
 CYCLE:   460 TIME:   0.844 TIME LEFT:  2.00D  GRAD.:     2.669 HEAT:  57.26251
 CYCLE:   461 TIME:   0.977 TIME LEFT:  2.00D  GRAD.:     3.099 HEAT:  57.25614
 CYCLE:   462 TIME:   1.332 TIME LEFT:  2.00D  GRAD.:    10.309 HEAT:  57.26108
 CYCLE:   463 TIME:   1.250 TIME LEFT:  2.00D  GRAD.:     2.017 HEAT:  57.24860
 CYCLE:   464 TIME:   1.168 TIME LEFT:  2.00D  GRAD.:     1.782 HEAT:  57.24699
 CYCLE:   465 TIME:   1.184 TIME LEFT:  2.00D  GRAD.:     2.527 HEAT:  57.24272
 CYCLE:   466 TIME:   1.512 TIME LEFT:  2.00D  GRAD.:     3.334 HEAT:  57.23728
 CYCLE:   467 TIME:   1.211 TIME LEFT:  2.00D  GRAD.:     4.939 HEAT:  57.23131
 CYCLE:   468 TIME:   1.277 TIME LEFT:  2.00D  GRAD.:     2.446 HEAT:  57.22407
 CYCLE:   469 TIME:   1.562 TIME LEFT:  2.00D  GRAD.:     2.306 HEAT:  57.21950
 CYCLE:   470 TIME:   1.422 TIME LEFT:  2.00D  GRAD.:     3.372 HEAT:  57.21308
 CYCLE:   471 TIME:   1.402 TIME LEFT:  2.00D  GRAD.:     9.239 HEAT:  57.21305
 CYCLE:   472 TIME:   1.371 TIME LEFT:  2.00D  GRAD.:     2.712 HEAT:  57.20502
 CYCLE:   473 TIME:   1.324 TIME LEFT:  2.00D  GRAD.:     2.035 HEAT:  57.20234
 CYCLE:   474 TIME:   1.305 TIME LEFT:  2.00D  GRAD.:     3.043 HEAT:  57.19867
 CYCLE:   475 TIME:   1.105 TIME LEFT:  2.00D  GRAD.:     3.583 HEAT:  57.19352
 CYCLE:   476 TIME:   1.227 TIME LEFT:  2.00D  GRAD.:     5.396 HEAT:  57.18424
 CYCLE:   477 TIME:   1.441 TIME LEFT:  2.00D  GRAD.:     3.375 HEAT:  57.17648
 CYCLE:   478 TIME:   1.078 TIME LEFT:  2.00D  GRAD.:     2.082 HEAT:  57.17149
 CYCLE:   479 TIME:   1.258 TIME LEFT:  2.00D  GRAD.:     3.399 HEAT:  57.16533
 CYCLE:   480 TIME:   1.332 TIME LEFT:  2.00D  GRAD.:     4.843 HEAT:  57.16098
 CYCLE:   481 TIME:   1.168 TIME LEFT:  2.00D  GRAD.:     3.254 HEAT:  57.15439
 CYCLE:   482 TIME:   1.238 TIME LEFT:  2.00D  GRAD.:     2.862 HEAT:  57.14858
 CYCLE:   483 TIME:   1.430 TIME LEFT:  2.00D  GRAD.:     3.014 HEAT:  57.14421
 CYCLE:   484 TIME:   1.355 TIME LEFT:  2.00D  GRAD.:     3.515 HEAT:  57.13990
 CYCLE:   485 TIME:   1.199 TIME LEFT:  2.00D  GRAD.:     3.888 HEAT:  57.13009
 CYCLE:   486 TIME:   1.309 TIME LEFT:  2.00D  GRAD.:     9.923 HEAT:  57.13252
 CYCLE:   487 TIME:   1.020 TIME LEFT:  2.00D  GRAD.:     2.793 HEAT:  57.11719
 CYCLE:   488 TIME:   1.051 TIME LEFT:  2.00D  GRAD.:     2.178 HEAT:  57.11302
 CYCLE:   489 TIME:   1.027 TIME LEFT:  2.00D  GRAD.:     2.867 HEAT:  57.10401
 CYCLE:   490 TIME:   1.180 TIME LEFT:  2.00D  GRAD.:    11.600 HEAT:  57.10712
 CYCLE:   491 TIME:   1.152 TIME LEFT:  2.00D  GRAD.:     3.868 HEAT:  57.09389
 CYCLE:   492 TIME:   1.230 TIME LEFT:  2.00D  GRAD.:     2.094 HEAT:  57.08989
 CYCLE:   493 TIME:   1.137 TIME LEFT:  2.00D  GRAD.:     3.505 HEAT:  57.08421
 CYCLE:   494 TIME:   0.977 TIME LEFT:  2.00D  GRAD.:     3.630 HEAT:  57.07923
 CYCLE:   495 TIME:   1.145 TIME LEFT:  2.00D  GRAD.:     9.118 HEAT:  57.07560
 CYCLE:   496 TIME:   1.051 TIME LEFT:  2.00D  GRAD.:     2.855 HEAT:  57.06138
 CYCLE:   497 TIME:   1.152 TIME LEFT:  2.00D  GRAD.:     2.417 HEAT:  57.05731
 CYCLE:   498 TIME:   1.164 TIME LEFT:  2.00D  GRAD.:     3.353 HEAT:  57.05004
 CYCLE:   499 TIME:   0.961 TIME LEFT:  2.00D  GRAD.:    10.562 HEAT:  57.05058
 CYCLE:   500 TIME:   0.965 TIME LEFT:  2.00D  GRAD.:     2.589 HEAT:  57.04009
 CYCLE:   501 TIME:   0.949 TIME LEFT:  2.00D  GRAD.:     2.225 HEAT:  57.03610
 CYCLE:   502 TIME:   1.137 TIME LEFT:  2.00D  GRAD.:     3.279 HEAT:  57.02502
 CYCLE:   503 TIME:   1.230 TIME LEFT:  2.00D  GRAD.:     5.890 HEAT:  57.01953
 CYCLE:   504 TIME:   1.066 TIME LEFT:  2.00D  GRAD.:     2.446 HEAT:  57.01181
 CYCLE:   505 TIME:   0.898 TIME LEFT:  2.00D  GRAD.:     2.782 HEAT:  57.00692
 CYCLE:   506 TIME:   0.918 TIME LEFT:  2.00D  GRAD.:     3.328 HEAT:  56.99952
 CYCLE:   507 TIME:   1.090 TIME LEFT:  2.00D  GRAD.:     7.594 HEAT:  56.99278
 CYCLE:   508 TIME:   0.973 TIME LEFT:  2.00D  GRAD.:     2.936 HEAT:  56.98440
 CYCLE:   509 TIME:   1.102 TIME LEFT:  2.00D  GRAD.:     2.045 HEAT:  56.98075
 CYCLE:   510 TIME:   1.059 TIME LEFT:  2.00D  GRAD.:     2.518 HEAT:  56.97682
 CYCLE:   511 TIME:   1.023 TIME LEFT:  2.00D  GRAD.:     3.198 HEAT:  56.97063
 CYCLE:   512 TIME:   1.148 TIME LEFT:  2.00D  GRAD.:     6.572 HEAT:  56.96653
 CYCLE:   513 TIME:   0.969 TIME LEFT:  2.00D  GRAD.:     2.520 HEAT:  56.95836
 CYCLE:   514 TIME:   0.941 TIME LEFT:  2.00D  GRAD.:     2.135 HEAT:  56.95503
 CYCLE:   515 TIME:   1.188 TIME LEFT:  2.00D  GRAD.:     2.771 HEAT:  56.94975
 CYCLE:   516 TIME:   0.969 TIME LEFT:  2.00D  GRAD.:     3.618 HEAT:  56.94383
 CYCLE:   517 TIME:   1.070 TIME LEFT:  2.00D  GRAD.:     3.943 HEAT:  56.93707
 CYCLE:   518 TIME:   1.707 TIME LEFT:  2.00D  GRAD.:     2.802 HEAT:  56.93161
 CYCLE:   519 TIME:   0.941 TIME LEFT:  2.00D  GRAD.:     2.913 HEAT:  56.92702
 CYCLE:   520 TIME:   0.988 TIME LEFT:  2.00D  GRAD.:     3.114 HEAT:  56.92027
 CYCLE:   521 TIME:   1.164 TIME LEFT:  2.00D  GRAD.:     6.910 HEAT:  56.91643
 CYCLE:   522 TIME:   0.824 TIME LEFT:  2.00D  GRAD.:     2.488 HEAT:  56.90784
 CYCLE:   523 TIME:   0.930 TIME LEFT:  2.00D  GRAD.:     2.068 HEAT:  56.90398
 CYCLE:   524 TIME:   0.902 TIME LEFT:  2.00D  GRAD.:     3.558 HEAT:  56.89941
 CYCLE:   525 TIME:   0.934 TIME LEFT:  2.00D  GRAD.:     3.638 HEAT:  56.89401
 CYCLE:   526 TIME:   1.020 TIME LEFT:  2.00D  GRAD.:     2.715 HEAT:  56.88765
 CYCLE:   527 TIME:   1.008 TIME LEFT:  2.00D  GRAD.:     2.966 HEAT:  56.87728
 CYCLE:   528 TIME:   0.879 TIME LEFT:  2.00D  GRAD.:     7.720 HEAT:  56.87336
 CYCLE:   529 TIME:   0.762 TIME LEFT:  2.00D  GRAD.:     3.562 HEAT:  56.86463
 CYCLE:   530 TIME:   0.812 TIME LEFT:  2.00D  GRAD.:     2.737 HEAT:  56.85708
 CYCLE:   531 TIME:   0.887 TIME LEFT:  2.00D  GRAD.:     3.187 HEAT:  56.85045
 CYCLE:   532 TIME:   0.980 TIME LEFT:  2.00D  GRAD.:     5.410 HEAT:  56.84288
 CYCLE:   533 TIME:   0.957 TIME LEFT:  2.00D  GRAD.:     3.826 HEAT:  56.83591
 CYCLE:   534 TIME:   0.758 TIME LEFT:  2.00D  GRAD.:     2.100 HEAT:  56.83174
 CYCLE:   535 TIME:   0.895 TIME LEFT:  2.00D  GRAD.:     2.262 HEAT:  56.82785
 CYCLE:   536 TIME:   0.891 TIME LEFT:  2.00D  GRAD.:     2.493 HEAT:  56.82306
 CYCLE:   537 TIME:   0.918 TIME LEFT:  2.00D  GRAD.:     8.397 HEAT:  56.82331
 CYCLE:   538 TIME:   0.902 TIME LEFT:  2.00D  GRAD.:     2.251 HEAT:  56.81326
 CYCLE:   539 TIME:   0.832 TIME LEFT:  1.99D  GRAD.:     1.660 HEAT:  56.81124
 CYCLE:   540 TIME:   0.805 TIME LEFT:  1.99D  GRAD.:     2.613 HEAT:  56.80792
 CYCLE:   541 TIME:   0.902 TIME LEFT:  1.99D  GRAD.:     3.143 HEAT:  56.80452
 CYCLE:   542 TIME:   0.859 TIME LEFT:  1.99D  GRAD.:     2.300 HEAT:  56.80071
 CYCLE:   543 TIME:   0.801 TIME LEFT:  1.99D  GRAD.:     1.695 HEAT:  56.79623
 CYCLE:   544 TIME:   0.789 TIME LEFT:  1.99D  GRAD.:     3.073 HEAT:  56.79258
 CYCLE:   545 TIME:   0.805 TIME LEFT:  1.99D  GRAD.:     2.179 HEAT:  56.78910
 CYCLE:   546 TIME:   1.004 TIME LEFT:  1.99D  GRAD.:     1.954 HEAT:  56.78627
 CYCLE:   547 TIME:   1.043 TIME LEFT:  1.99D  GRAD.:     2.186 HEAT:  56.78346
 CYCLE:   548 TIME:   0.910 TIME LEFT:  1.99D  GRAD.:     2.358 HEAT:  56.78131
 CYCLE:   549 TIME:   0.844 TIME LEFT:  1.99D  GRAD.:     2.028 HEAT:  56.77874
 CYCLE:   550 TIME:   0.828 TIME LEFT:  1.99D  GRAD.:     2.956 HEAT:  56.77487
 CYCLE:   551 TIME:   1.004 TIME LEFT:  1.99D  GRAD.:     2.803 HEAT:  56.77133
 CYCLE:   552 TIME:   0.660 TIME LEFT:  1.99D  GRAD.:     1.947 HEAT:  56.76837
 CYCLE:   553 TIME:   0.789 TIME LEFT:  1.99D  GRAD.:     1.706 HEAT:  56.76457
 CYCLE:   554 TIME:   0.809 TIME LEFT:  1.99D  GRAD.:     3.318 HEAT:  56.76193
 CYCLE:   555 TIME:   0.812 TIME LEFT:  1.99D  GRAD.:     2.377 HEAT:  56.75834
 CYCLE:   556 TIME:   1.203 TIME LEFT:  1.99D  GRAD.:     1.954 HEAT:  56.75380
 CYCLE:   557 TIME:   1.262 TIME LEFT:  1.99D  GRAD.:     3.056 HEAT:  56.75066
 CYCLE:   558 TIME:   0.773 TIME LEFT:  1.99D  GRAD.:     1.811 HEAT:  56.74762
 CYCLE:   559 TIME:   0.727 TIME LEFT:  1.99D  GRAD.:     1.784 HEAT:  56.74458
 CYCLE:   560 TIME:   0.672 TIME LEFT:  1.99D  GRAD.:     2.473 HEAT:  56.74202
 CYCLE:   561 TIME:   0.676 TIME LEFT:  1.99D  GRAD.:     2.032 HEAT:  56.73922
 CYCLE:   562 TIME:   0.586 TIME LEFT:  1.99D  GRAD.:     2.166 HEAT:  56.73690
 CYCLE:   563 TIME:   0.695 TIME LEFT:  1.99D  GRAD.:     1.735 HEAT:  56.73441
 CYCLE:   564 TIME:   0.730 TIME LEFT:  1.99D  GRAD.:     1.651 HEAT:  56.73228
 CYCLE:   565 TIME:   0.609 TIME LEFT:  1.99D  GRAD.:     3.099 HEAT:  56.73014
 CYCLE:   566 TIME:   0.590 TIME LEFT:  1.99D  GRAD.:     1.643 HEAT:  56.72775
 CYCLE:   567 TIME:   0.668 TIME LEFT:  1.99D  GRAD.:     1.594 HEAT:  56.72617
 CYCLE:   568 TIME:   0.680 TIME LEFT:  1.99D  GRAD.:     1.854 HEAT:  56.72380
 CYCLE:   569 TIME:   0.633 TIME LEFT:  1.99D  GRAD.:     4.342 HEAT:  56.72263
 CYCLE:   570 TIME:   0.566 TIME LEFT:  1.99D  GRAD.:     1.772 HEAT:  56.71972
 CYCLE:   571 TIME:   0.652 TIME LEFT:  1.99D  GRAD.:     1.198 HEAT:  56.71823
 CYCLE:   572 TIME:   0.613 TIME LEFT:  1.99D  GRAD.:     2.056 HEAT:  56.71589
 CYCLE:   573 TIME:   0.668 TIME LEFT:  1.99D  GRAD.:     3.312 HEAT:  56.71355
 CYCLE:   574 TIME:   0.633 TIME LEFT:  1.99D  GRAD.:     1.869 HEAT:  56.71048
 CYCLE:   575 TIME:   0.699 TIME LEFT:  1.99D  GRAD.:     2.024 HEAT:  56.70838
 CYCLE:   576 TIME:   0.680 TIME LEFT:  1.99D  GRAD.:     2.104 HEAT:  56.70624
 CYCLE:   577 TIME:   0.781 TIME LEFT:  1.99D  GRAD.:     2.080 HEAT:  56.70351
 CYCLE:   578 TIME:   0.762 TIME LEFT:  1.99D  GRAD.:     6.042 HEAT:  56.70167
 CYCLE:   579 TIME:   0.648 TIME LEFT:  1.99D  GRAD.:     1.642 HEAT:  56.69665
 CYCLE:   580 TIME:   0.535 TIME LEFT:  1.99D  GRAD.:     1.280 HEAT:  56.69532
 CYCLE:   581 TIME:   0.578 TIME LEFT:  1.99D  GRAD.:     1.923 HEAT:  56.69307
 CYCLE:   582 TIME:   0.633 TIME LEFT:  1.99D  GRAD.:     3.163 HEAT:  56.69145
 CYCLE:   583 TIME:   0.586 TIME LEFT:  1.99D  GRAD.:     1.626 HEAT:  56.68954
 CYCLE:   584 TIME:   0.594 TIME LEFT:  1.99D  GRAD.:     1.338 HEAT:  56.68794
 CYCLE:   585 TIME:   0.723 TIME LEFT:  1.99D  GRAD.:     1.534 HEAT:  56.68644
 CYCLE:   586 TIME:   0.621 TIME LEFT:  1.99D  GRAD.:     1.905 HEAT:  56.68360
 CYCLE:   587 TIME:   0.707 TIME LEFT:  1.99D  GRAD.:     4.049 HEAT:  56.68295
 CYCLE:   588 TIME:   0.559 TIME LEFT:  1.99D  GRAD.:     1.457 HEAT:  56.68006
 CYCLE:   589 TIME:   0.570 TIME LEFT:  1.99D  GRAD.:     1.206 HEAT:  56.67912
 CYCLE:   590 TIME:   0.637 TIME LEFT:  1.99D  GRAD.:     1.785 HEAT:  56.67738
 CYCLE:   591 TIME:   0.613 TIME LEFT:  1.99D  GRAD.:     4.457 HEAT:  56.67681
 CYCLE:   592 TIME:   0.512 TIME LEFT:  1.99D  GRAD.:     1.751 HEAT:  56.67477
 CYCLE:   593 TIME:   0.605 TIME LEFT:  1.99D  GRAD.:     1.218 HEAT:  56.67356
 CYCLE:   594 TIME:   0.566 TIME LEFT:  1.99D  GRAD.:     1.578 HEAT:  56.67248
 CYCLE:   595 TIME:   0.668 TIME LEFT:  1.99D  GRAD.:     1.916 HEAT:  56.67028
 CYCLE:   596 TIME:   0.613 TIME LEFT:  1.99D  GRAD.:     3.822 HEAT:  56.66775
 CYCLE:   597 TIME:   0.551 TIME LEFT:  1.99D  GRAD.:     1.742 HEAT:  56.66457
 CYCLE:   598 TIME:   0.598 TIME LEFT:  1.99D  GRAD.:     1.312 HEAT:  56.66318
 CYCLE:   599 TIME:   0.535 TIME LEFT:  1.99D  GRAD.:     1.552 HEAT:  56.66201
 CYCLE:   600 TIME:   0.551 TIME LEFT:  1.99D  GRAD.:     1.515 HEAT:  56.66075
 CYCLE:   601 TIME:   0.559 TIME LEFT:  1.99D  GRAD.:     1.419 HEAT:  56.65837
 CYCLE:   602 TIME:   1.414 TIME LEFT:  1.99D  GRAD.:     4.399 HEAT:  56.65815
 CYCLE:   603 TIME:   0.656 TIME LEFT:  1.99D  GRAD.:     1.502 HEAT:  56.65574
 CYCLE:   604 TIME:   0.520 TIME LEFT:  1.99D  GRAD.:     1.076 HEAT:  56.65481
 CYCLE:   605 TIME:   0.613 TIME LEFT:  1.99D  GRAD.:     1.715 HEAT:  56.65321
 CYCLE:   606 TIME:   0.578 TIME LEFT:  1.99D  GRAD.:     1.799 HEAT:  56.65152
 CYCLE:   607 TIME:   0.727 TIME LEFT:  1.99D  GRAD.:     4.706 HEAT:  56.65046
 CYCLE:   608 TIME:   0.531 TIME LEFT:  1.99D  GRAD.:     1.631 HEAT:  56.64704
 CYCLE:   609 TIME:   0.574 TIME LEFT:  1.99D  GRAD.:     1.499 HEAT:  56.64538
 CYCLE:   610 TIME:   0.625 TIME LEFT:  1.99D  GRAD.:     1.716 HEAT:  56.64223
 CYCLE:   611 TIME:   0.578 TIME LEFT:  1.99D  GRAD.:     3.771 HEAT:  56.63981
 CYCLE:   612 TIME:   0.547 TIME LEFT:  1.99D  GRAD.:     1.752 HEAT:  56.63625
 CYCLE:   613 TIME:   0.551 TIME LEFT:  1.99D  GRAD.:     1.662 HEAT:  56.63421
 CYCLE:   614 TIME:   0.605 TIME LEFT:  1.99D  GRAD.:     3.175 HEAT:  56.63189
 CYCLE:   615 TIME:   0.578 TIME LEFT:  1.99D  GRAD.:     2.076 HEAT:  56.62957
 CYCLE:   616 TIME:   0.648 TIME LEFT:  1.99D  GRAD.:     1.758 HEAT:  56.62757
 CYCLE:   617 TIME:   0.582 TIME LEFT:  1.99D  GRAD.:     1.727 HEAT:  56.62330
 CYCLE:   618 TIME:   0.688 TIME LEFT:  1.99D  GRAD.:     3.970 HEAT:  56.62203
 CYCLE:   619 TIME:   0.461 TIME LEFT:  1.99D  GRAD.:     1.432 HEAT:  56.61920
 CYCLE:   620 TIME:   0.590 TIME LEFT:  1.99D  GRAD.:     1.017 HEAT:  56.61785
 CYCLE:   621 TIME:   0.586 TIME LEFT:  1.99D  GRAD.:     1.999 HEAT:  56.61607
 CYCLE:   622 TIME:   0.555 TIME LEFT:  1.99D  GRAD.:     3.011 HEAT:  56.61523
 CYCLE:   623 TIME:   0.512 TIME LEFT:  1.99D  GRAD.:     1.555 HEAT:  56.61378
 CYCLE:   624 TIME:   0.520 TIME LEFT:  1.99D  GRAD.:     1.247 HEAT:  56.61238
 CYCLE:   625 TIME:   0.500 TIME LEFT:  1.99D  GRAD.:     1.290 HEAT:  56.61131
 CYCLE:   626 TIME:   0.617 TIME LEFT:  1.99D  GRAD.:     2.217 HEAT:  56.60943
 CYCLE:   627 TIME:   0.516 TIME LEFT:  1.99D  GRAD.:     1.916 HEAT:  56.60808
 CYCLE:   628 TIME:   0.980 TIME LEFT:  1.99D  GRAD.:     1.131 HEAT:  56.60715
 CYCLE:   629 TIME:   0.555 TIME LEFT:  1.99D  GRAD.:     1.145 HEAT:  56.60613
 CYCLE:   630 TIME:   0.570 TIME LEFT:  1.99D  GRAD.:     2.000 HEAT:  56.60510
 CYCLE:   631 TIME:   0.605 TIME LEFT:  1.99D  GRAD.:     1.317 HEAT:  56.60364
 CYCLE:   632 TIME:   0.559 TIME LEFT:  1.99D  GRAD.:     1.026 HEAT:  56.60225
 CYCLE:   633 TIME:   0.676 TIME LEFT:  1.99D  GRAD.:     1.685 HEAT:  56.60109
 CYCLE:   634 TIME:   0.684 TIME LEFT:  1.99D  GRAD.:     1.335 HEAT:  56.59993
 CYCLE:   635 TIME:   0.492 TIME LEFT:  1.99D  GRAD.:     1.025 HEAT:  56.59886
 CYCLE:   636 TIME:   0.504 TIME LEFT:  1.99D  GRAD.:     1.796 HEAT:  56.59794
 CYCLE:   637 TIME:   0.547 TIME LEFT:  1.99D  GRAD.:     1.757 HEAT:  56.59703
 CYCLE:   638 TIME:   0.469 TIME LEFT:  1.99D  GRAD.:     1.277 HEAT:  56.59633
 CYCLE:   639 TIME:   0.539 TIME LEFT:  1.99D  GRAD.:     1.021 HEAT:  56.59496
 CYCLE:   640 TIME:   0.586 TIME LEFT:  1.99D  GRAD.:     1.542 HEAT:  56.59394
 CYCLE:   641 TIME:   0.559 TIME LEFT:  1.99D  GRAD.:     1.248 HEAT:  56.59258
 CYCLE:   642 TIME:   0.527 TIME LEFT:  1.99D  GRAD.:     2.150 HEAT:  56.59146
 CYCLE:   643 TIME:   0.562 TIME LEFT:  1.99D  GRAD.:     0.923 HEAT:  56.59020
 CYCLE:   644 TIME:   0.516 TIME LEFT:  1.99D  GRAD.:     0.872 HEAT:  56.58952
 CYCLE:   645 TIME:   0.543 TIME LEFT:  1.99D  GRAD.:     1.468 HEAT:  56.58871
 CYCLE:   646 TIME:   0.539 TIME LEFT:  1.99D  GRAD.:     1.583 HEAT:  56.58799
 CYCLE:   647 TIME:   0.594 TIME LEFT:  1.99D  GRAD.:     0.944 HEAT:  56.58725
 CYCLE:   648 TIME:   0.715 TIME LEFT:  1.99D  GRAD.:     1.034 HEAT:  56.58638
 CYCLE:   649 TIME:   0.672 TIME LEFT:  1.99D  GRAD.:     1.153 HEAT:  56.58546
 CYCLE:   650 TIME:   0.660 TIME LEFT:  1.99D  GRAD.:     2.288 HEAT:  56.58420
 CYCLE:   651 TIME:   0.641 TIME LEFT:  1.99D  GRAD.:     1.520 HEAT:  56.58260
 CYCLE:   652 TIME:   0.902 TIME LEFT:  1.99D  GRAD.:     0.975 HEAT:  56.58189
 CYCLE:   653 TIME:   1.215 TIME LEFT:  1.99D  GRAD.:     1.090 HEAT:  56.58111
 CYCLE:   654 TIME:   0.633 TIME LEFT:  1.99D  GRAD.:     1.368 HEAT:  56.58010
 CYCLE:   655 TIME:   0.582 TIME LEFT:  1.99D  GRAD.:     2.155 HEAT:  56.57885
 CYCLE:   656 TIME:   0.520 TIME LEFT:  1.99D  GRAD.:     1.168 HEAT:  56.57747
 CYCLE:   657 TIME:   0.676 TIME LEFT:  1.99D  GRAD.:     1.092 HEAT:  56.57664
 CYCLE:   658 TIME:   0.578 TIME LEFT:  1.99D  GRAD.:     1.330 HEAT:  56.57530
 CYCLE:   659 TIME:   0.559 TIME LEFT:  1.99D  GRAD.:     3.512 HEAT:  56.57475
 CYCLE:   660 TIME:   0.578 TIME LEFT:  1.99D  GRAD.:     1.393 HEAT:  56.57302
 CYCLE:   661 TIME:   0.559 TIME LEFT:  1.99D  GRAD.:     0.977 HEAT:  56.57207
 CYCLE:   662 TIME:   0.535 TIME LEFT:  1.99D  GRAD.:     1.404 HEAT:  56.57113
 CYCLE:   663 TIME:   0.516 TIME LEFT:  1.99D  GRAD.:     2.501 HEAT:  56.57014
 CYCLE:   664 TIME:   0.551 TIME LEFT:  1.99D  GRAD.:     1.275 HEAT:  56.56883
 CYCLE:   665 TIME:   0.586 TIME LEFT:  1.99D  GRAD.:     1.162 HEAT:  56.56747
 CYCLE:   666 TIME:   0.512 TIME LEFT:  1.99D  GRAD.:     1.467 HEAT:  56.56621
 CYCLE:   667 TIME:   0.566 TIME LEFT:  1.99D  GRAD.:     2.586 HEAT:  56.56505
 CYCLE:   668 TIME:   0.605 TIME LEFT:  1.99D  GRAD.:     1.357 HEAT:  56.56327
 CYCLE:   669 TIME:   0.547 TIME LEFT:  1.99D  GRAD.:     1.327 HEAT:  56.56175
 CYCLE:   670 TIME:   0.664 TIME LEFT:  1.99D  GRAD.:     1.529 HEAT:  56.55983
 CYCLE:   671 TIME:   0.625 TIME LEFT:  1.99D  GRAD.:     3.966 HEAT:  56.55897
 CYCLE:   672 TIME:   0.609 TIME LEFT:  1.99D  GRAD.:     1.270 HEAT:  56.55616
 CYCLE:   673 TIME:   0.512 TIME LEFT:  1.99D  GRAD.:     1.195 HEAT:  56.55471
 CYCLE:   674 TIME:   0.520 TIME LEFT:  1.99D  GRAD.:     1.459 HEAT:  56.55209
 CYCLE:   675 TIME:   0.559 TIME LEFT:  1.99D  GRAD.:     3.829 HEAT:  56.55020
 CYCLE:   676 TIME:   0.520 TIME LEFT:  1.99D  GRAD.:     1.657 HEAT:  56.54762
 CYCLE:   677 TIME:   0.480 TIME LEFT:  1.99D  GRAD.:     1.111 HEAT:  56.54630
 CYCLE:   678 TIME:   0.578 TIME LEFT:  1.99D  GRAD.:     1.758 HEAT:  56.54501
 CYCLE:   679 TIME:   0.539 TIME LEFT:  1.99D  GRAD.:     3.069 HEAT:  56.54399
 CYCLE:   680 TIME:   0.590 TIME LEFT:  1.99D  GRAD.:     1.620 HEAT:  56.54265
 CYCLE:   681 TIME:   0.582 TIME LEFT:  1.99D  GRAD.:     1.121 HEAT:  56.54116
 CYCLE:   682 TIME:   0.598 TIME LEFT:  1.99D  GRAD.:     1.164 HEAT:  56.54042
 CYCLE:   683 TIME:   0.562 TIME LEFT:  1.99D  GRAD.:     1.792 HEAT:  56.53824
 CYCLE:   684 TIME:   0.523 TIME LEFT:  1.99D  GRAD.:     3.793 HEAT:  56.53844
 CYCLE:   685 TIME:   0.453 TIME LEFT:  1.99D  GRAD.:     1.001 HEAT:  56.53610
 CYCLE:   686 TIME:   0.633 TIME LEFT:  1.99D  GRAD.:     0.965 HEAT:  56.53549
 CYCLE:   687 TIME:   0.551 TIME LEFT:  1.99D  GRAD.:     1.357 HEAT:  56.53391
 CYCLE:   688 TIME:   0.562 TIME LEFT:  1.99D  GRAD.:     2.547 HEAT:  56.53238
 CYCLE:   689 TIME:   0.492 TIME LEFT:  1.99D  GRAD.:     1.413 HEAT:  56.53087
 CYCLE:   690 TIME:   0.504 TIME LEFT:  1.99D  GRAD.:     1.190 HEAT:  56.53007
 CYCLE:   691 TIME:   0.582 TIME LEFT:  1.99D  GRAD.:     1.458 HEAT:  56.52856
 CYCLE:   692 TIME:   0.551 TIME LEFT:  1.99D  GRAD.:     2.313 HEAT:  56.52696
 CYCLE:   693 TIME:   0.629 TIME LEFT:  1.99D  GRAD.:     1.559 HEAT:  56.52521
 CYCLE:   694 TIME:   0.566 TIME LEFT:  1.99D  GRAD.:     1.818 HEAT:  56.52382
 CYCLE:   695 TIME:   0.570 TIME LEFT:  1.99D  GRAD.:     1.555 HEAT:  56.52267
 CYCLE:   696 TIME:   0.562 TIME LEFT:  1.99D  GRAD.:     1.546 HEAT:  56.52172
 CYCLE:   697 TIME:   0.547 TIME LEFT:  1.99D  GRAD.:     1.497 HEAT:  56.51914
 CYCLE:   698 TIME:   0.543 TIME LEFT:  1.99D  GRAD.:     3.438 HEAT:  56.51871
 CYCLE:   699 TIME:   0.555 TIME LEFT:  1.99D  GRAD.:     1.125 HEAT:  56.51678
 CYCLE:   700 TIME:   0.566 TIME LEFT:  1.99D  GRAD.:     1.090 HEAT:  56.51599
 CYCLE:   701 TIME:   0.590 TIME LEFT:  1.99D  GRAD.:     1.375 HEAT:  56.51401
 CYCLE:   702 TIME:   0.578 TIME LEFT:  1.99D  GRAD.:     2.120 HEAT:  56.51231
 CYCLE:   703 TIME:   0.539 TIME LEFT:  1.99D  GRAD.:     1.785 HEAT:  56.51131
 CYCLE:   704 TIME:   0.965 TIME LEFT:  1.99D  GRAD.:     1.255 HEAT:  56.51060
 CYCLE:   705 TIME:   0.664 TIME LEFT:  1.99D  GRAD.:     1.079 HEAT:  56.50911
 CYCLE:   706 TIME:   0.625 TIME LEFT:  1.99D  GRAD.:     1.314 HEAT:  56.50791
 CYCLE:   707 TIME:   0.594 TIME LEFT:  1.99D  GRAD.:     1.893 HEAT:  56.50689
 CYCLE:   708 TIME:   0.566 TIME LEFT:  1.99D  GRAD.:     1.243 HEAT:  56.50586
 CYCLE:   709 TIME:   0.645 TIME LEFT:  1.99D  GRAD.:     1.144 HEAT:  56.50495
 CYCLE:   710 TIME:   0.691 TIME LEFT:  1.99D  GRAD.:     2.068 HEAT:  56.50375
 CYCLE:   711 TIME:   0.559 TIME LEFT:  1.99D  GRAD.:     1.292 HEAT:  56.50224
 CYCLE:   712 TIME:   0.523 TIME LEFT:  1.99D  GRAD.:     1.028 HEAT:  56.50117
 CYCLE:   713 TIME:   0.551 TIME LEFT:  1.99D  GRAD.:     1.315 HEAT:  56.49967
 CYCLE:   714 TIME:   0.562 TIME LEFT:  1.99D  GRAD.:     2.558 HEAT:  56.49868
 CYCLE:   715 TIME:   0.488 TIME LEFT:  1.99D  GRAD.:     1.368 HEAT:  56.49730
 CYCLE:   716 TIME:   0.562 TIME LEFT:  1.99D  GRAD.:     1.088 HEAT:  56.49604
 CYCLE:   717 TIME:   0.578 TIME LEFT:  1.99D  GRAD.:     1.277 HEAT:  56.49507
 CYCLE:   718 TIME:   0.574 TIME LEFT:  1.99D  GRAD.:     3.930 HEAT:  56.49455
 CYCLE:   719 TIME:   0.500 TIME LEFT:  1.99D  GRAD.:     1.410 HEAT:  56.49265
 CYCLE:   720 TIME:   0.535 TIME LEFT:  1.99D  GRAD.:     0.940 HEAT:  56.49197
 CYCLE:   721 TIME:   0.547 TIME LEFT:  1.99D  GRAD.:     1.344 HEAT:  56.49098
 CYCLE:   722 TIME:   0.559 TIME LEFT:  1.99D  GRAD.:     3.069 HEAT:  56.48997
 CYCLE:   723 TIME:   0.504 TIME LEFT:  1.99D  GRAD.:     1.590 HEAT:  56.48845
 CYCLE:   724 TIME:   0.527 TIME LEFT:  1.99D  GRAD.:     1.078 HEAT:  56.48701
 CYCLE:   725 TIME:   0.504 TIME LEFT:  1.99D  GRAD.:     1.438 HEAT:  56.48604
 CYCLE:   726 TIME:   0.578 TIME LEFT:  1.99D  GRAD.:     1.700 HEAT:  56.48475
 CYCLE:   727 TIME:   0.609 TIME LEFT:  1.99D  GRAD.:     1.382 HEAT:  56.48334
 CYCLE:   728 TIME:   0.570 TIME LEFT:  1.99D  GRAD.:     1.197 HEAT:  56.48178
 CYCLE:   729 TIME:   0.566 TIME LEFT:  1.99D  GRAD.:     1.165 HEAT:  56.48028
 CYCLE:   730 TIME:   0.645 TIME LEFT:  1.99D  GRAD.:     2.535 HEAT:  56.47982
 CYCLE:   731 TIME:   0.480 TIME LEFT:  1.99D  GRAD.:     0.847 HEAT:  56.47859
 CYCLE:   732 TIME:   0.477 TIME LEFT:  1.99D  GRAD.:     0.809 HEAT:  56.47820
 CYCLE:   733 TIME:   0.555 TIME LEFT:  1.99D  GRAD.:     1.625 HEAT:  56.47694
 CYCLE:   734 TIME:   0.586 TIME LEFT:  1.99D  GRAD.:     3.335 HEAT:  56.47672
 CYCLE:   735 TIME:   0.535 TIME LEFT:  1.99D  GRAD.:     1.208 HEAT:  56.47538
 CYCLE:   736 TIME:   0.594 TIME LEFT:  1.99D  GRAD.:     1.050 HEAT:  56.47463
 CYCLE:   737 TIME:   0.617 TIME LEFT:  1.99D  GRAD.:     1.031 HEAT:  56.47393
 CYCLE:   738 TIME:   0.578 TIME LEFT:  1.99D  GRAD.:     2.243 HEAT:  56.47297
 CYCLE:   739 TIME:   0.625 TIME LEFT:  1.99D  GRAD.:     1.242 HEAT:  56.47179
 CYCLE:   740 TIME:   0.531 TIME LEFT:  1.99D  GRAD.:     1.159 HEAT:  56.47092
 CYCLE:   741 TIME:   0.578 TIME LEFT:  1.99D  GRAD.:     1.512 HEAT:  56.46973
 CYCLE:   742 TIME:   0.562 TIME LEFT:  1.99D  GRAD.:     2.537 HEAT:  56.46935
[...]
    3  C   1.17075   0.96676   0.96595   1.01904
    4  C   1.17069   0.96944   0.96202   1.02196
    5  C   1.17106   0.96622   0.96900   1.01783
    6  C   1.17060   0.96861   0.94660   1.03777
    7  C   1.17602   0.95011   0.98776   1.02809
    8  C   1.16257   0.90528   1.00709   0.88292
    9  N   1.56701   1.08721   1.50874   1.10923
   10  C   1.15950   0.94458   0.93431   0.88351
   11  C   1.17389   0.96971   1.03998   0.96938
   12  C   1.17541   0.96416   0.95788   0.94184
   13  C   1.15646   0.94475   1.03972   0.93329
   14  C   1.17322   0.97678   0.97917   0.93881
   15  C   1.15540   0.91321   1.02324   0.94764
   16  C   1.15224   0.91526   1.11084   1.01363
   17  C   1.14675   0.81002   0.91786   0.92339
   18  C   1.15259   0.92452   1.07304   1.03703
   19  C   1.14435   0.89466   0.87652   0.87129
   20  C   1.15264   0.93289   1.10542   1.00108
   21  C   1.14503   0.87447   0.92063   0.85319
   22  N   1.55276   1.05224   1.21004   1.46520
   23  C   1.16236   1.03242   0.80495   0.95263
   24  C   1.17794   1.04679   0.97471   0.95039
   25  C   1.17053   1.03096   0.95646   0.96815
   26  C   1.17048   1.02513   0.97103   0.95427
   27  C   1.17086   1.02834   0.96232   0.96385
   28  C   1.17061   1.02190   0.96983   0.95800
   29  C   1.16690   1.02617   0.96321   0.95779
   30  C   1.15565   1.02300   1.02832   0.96880
   31  C   1.15844   0.84799   0.97587   0.95012
   32  C   1.15553   0.91341   0.98710   0.97598
   33  C   1.17423   0.92027   0.98773   1.00087
   34  C   1.17757   0.97466   0.98690   0.99667
   35  C   1.17624   0.97013   0.96195   0.97058
   36  C   1.17080   0.91880   1.02506   1.02830
   37  N   1.53847   1.12739   1.43849   1.17775
   38  C   1.15703   0.85202   0.97154   0.94616
   39  C   1.15525   0.93139   0.98904   0.96113
   40  C   1.17470   0.97183   0.96561   0.96860
   41  C   1.17753   0.98268   1.00765   0.97023
   42  C   1.17620   0.92984   0.98459   0.98536
   43  C   1.17065   0.98880   1.00957   0.97739
   44  C   1.16134   0.85792   0.97624   0.95173
   45  C   1.17845   0.96806   0.98668   1.02100
   46  C   1.17039   0.96332   0.99108   0.99989
   47  C   1.17062   0.96391   0.98131   1.00676
   48  C   1.17076   0.96421   0.98695   1.00197
   49  C   1.17074   0.96416   0.98318   1.00485
   50  C   1.16678   0.96340   0.98122   1.00087
   51  C   1.15572   0.99860   0.99464   1.02836
   52  C   1.15333   0.95102   0.90784   0.94176
   53  C   1.18144   1.00194   1.00570   0.92941
   54  C   1.18062   0.97524   0.95294   0.96543
   55  C   1.15252   0.98340   0.95414   0.91942
   56  C   1.18361   0.96441   0.90965   0.94172
   57  C   1.18580   0.96387   0.96870   0.89003
   58  N   1.81793   1.17981   1.10900   1.28656
   59  S   1.87574   1.42833   1.19171   0.86399
   60  N   1.81828   1.17817   1.16557   1.23422
   61  C   1.15900   0.93951   0.97540   0.91940
   62  C   1.18020   0.98357   0.96520   0.94516
   63  C   1.17931   0.96263   0.97367   0.95447
   64  C   1.16323   0.95779   1.03708   0.94177
   65  C   1.17650   0.96796   0.97228   0.95727
   66  C   1.17925   0.97264   1.00107   0.95585
   67  C   1.18481   0.87556   0.90857   0.95466
   68  C   1.14274   1.06852   0.98893   0.91375
   69  C   1.18197   0.79079   0.77744   0.85461
   70  O   1.90960   1.44529   1.32206   1.66963
   71  O   1.84003   1.46343   1.71200   1.31597
   72  C   1.19693   0.92297   0.92327   0.92221
   73  N   1.84792   1.09695   1.08830   1.09671
   74  H   0.86760
   75  H   0.94439
   76  H   0.94291
   77  H   0.94270
   78  H   0.93987
   79  H   0.93947
   80  H   0.93841
   81  H   0.93891
   82  H   0.93703
   83  H   0.93491
   84  H   0.93930
   85  H   0.94048
   86  H   0.93170
   87  H   0.91547
   88  H   0.92844
   89  H   0.93054
   90  H   0.94224
   91  H   0.90866
   92  H   0.87390
   93  H   0.88403
   94  H   0.87581
   95  H   0.91092
   96  H   0.93358
   97  H   0.91953
   98  H   0.92204
   99  H   0.93193
  100  H   0.93612
  101  H   0.93764
  102  H   0.93886
  103  H   0.93460
  104  H   0.93695
  105  H   0.93937
  106  H   0.94197
  107  H   0.93516
  108  H   0.93945
  109  H   0.94175
  110  H   0.94414
  111  H   0.94510
  112  H   0.88050
  113  H   0.89488
  114  H   0.89784
  115  H   0.88272
  116  H   0.87820
  117  H   0.89437
  118  H   0.89794
  119  H   0.88284
  120  H   0.91241
  121  H   0.93325
  122  H   0.91804
  123  H   0.91770
  124  H   0.93494
  125  H   0.93694
  126  H   0.93583
  127  H   0.93582
  128  H   0.93767
  129  H   0.93802
  130  H   0.93727
  131  H   0.93722
  132  H   0.94026
  133  H   0.94031
  134  H   0.94395
  135  H   0.94211
  136  H   0.94211
  137  H   0.87281
  138  H   0.88062
  139  H   0.87017
  140  H   0.87902
  141  H   0.88817
  142  H   0.88350
  143  H   0.75428
 ******************** TDHF POLARIZABILITIES ********************



          MOLECULAR WEIGHT =  987.36



          ROTATIONAL CONSTANTS IN CM(-1)

          A =    0.00109293   B =    0.00035565   C =    0.00028291



           PRINCIPAL MOMENTS OF INERTIA IN UNITS OF 10**(-40)*GRAM-CM**2

          A =    25612.5609   B =    78707.7857   C =    98946.5845


 ROTATION MATRIX FOR ORIENTATION OF MOLECULE:

         0.283001    0.935426   -0.211868
        -0.503918    0.332967    0.796994
         0.816075   -0.118786    0.565608


          CARTESIAN COORDINATES 

    NO.       ATOM         X         Y         Z

     1         C        2.9664  -10.9205   -2.9932
     2         C        3.1672   -9.4200   -2.8563
     3         C        2.9262   -8.9709   -1.4172
     4         C        3.1312   -7.4642   -1.2776
     5         C        2.8886   -7.0168    0.1621
     6         C        3.0997   -5.5103    0.3006
     7         C        2.8288   -5.0610    1.7315
     8         C        3.1873   -3.5904    1.9838
     9         N        2.6466   -2.7003    0.9385
    10         C        1.2440   -2.4498    0.9172
    11         C        0.2047   -3.3492    1.1176
    12         C       -1.0884   -2.9123    0.8703
    13         C       -1.3266   -1.6171    0.4027
    14         C       -0.2876   -0.7052    0.2298
    15         C        1.0000   -1.1005    0.5465
    16         C        2.2842   -0.4451    0.4837
    17         C        3.2749   -1.4548    0.6453
    18         C        4.6236   -1.1744    0.4472
    19         C        5.0149    0.1848    0.2435
    20         C        4.0678    1.1940    0.0872
    21         C        2.6963    0.8714    0.3042
    22         N        1.9118    2.0506    0.2383
    23         C        0.7688    2.3003    1.1352
    24         C       -0.4507    2.7674    0.3260
    25         C       -1.5773    3.1678    1.2754
    26         C       -2.7928    3.6574    0.4914
    27         C       -3.9201    4.0585    1.4404
    28         C       -5.1240    4.5807    0.6601
    29         C       -6.2592    4.9638    1.6064
    30         C       -7.4557    5.4869    0.8285
    31         C        2.8097    3.1151   -0.0487
    32         C        4.1171    2.5974   -0.2488
    33         C        5.0913    3.4315   -0.7735
    34         C        4.7994    4.7768   -0.9555
    35         C        3.5408    5.2919   -0.6446
    36         C        2.5192    4.4654   -0.1995
    37         N        6.4255    0.2611    0.1886
    38         C        6.9176   -1.0621    0.3273
    39         C        5.8274   -1.9688    0.3955
    40         C        6.0840   -3.3292    0.3196
    41         C        7.4009   -3.7663    0.3015
    42         C        8.4632   -2.8618    0.3385
    43         C        8.2395   -1.4932    0.3405
    44         C        7.2186    1.3901    0.6983
    45         C        8.1675    1.9128   -0.3914
    46         C        9.0674    3.0026    0.1854
    47         C        9.9942    3.5592   -0.8933
    48         C       10.8975    4.6484   -0.3191
    49         C       11.8230    5.2068   -1.3975
    50         C       12.7267    6.2961   -0.8252
    51         C       13.6470    6.8520   -1.8995
    52         C       -2.6857   -1.2152    0.0642
    53         C       -2.9930   -0.6397   -1.1237
    54         C       -4.3330   -0.2494   -1.4578
    55         C       -5.3695   -0.4353   -0.6048
    56         C       -5.1150   -1.0363    0.6750
    57         C       -3.7381   -1.4354    1.0196
    58         N       -3.6308   -1.9622    2.2348
    59         S       -5.1583   -1.9645    2.9220
    60         N       -5.9933   -1.2781    1.6425
    61         C       -6.7318   -0.0348   -0.9360
    62         C       -7.7930   -0.9144   -0.7387
    63         C       -9.0873   -0.5181   -1.0544
    64         C       -9.3163    0.7544   -1.5701
    65         C       -8.2515    1.6296   -1.7831
    66         C       -6.9614    1.2372   -1.4603
    67         C      -10.6625    1.1845   -1.9196
    68         C      -11.7101    1.0308   -1.0951
    69         C      -13.0812    1.4266   -1.4559
    70         O      -14.1229    0.9828   -1.0052
    71         O      -13.1261    2.3947   -2.3988
    72         C      -11.5911    0.4795    0.2080
    73         N      -11.5084    0.0475    1.2771
    74         H      -10.7773    1.6516   -2.9079
    75         H        3.1353  -11.2636   -4.0242
    76         H        3.6539  -11.4933   -2.3542
    77         H        1.9475  -11.2316   -2.7210
    78         H        4.1901   -9.1396   -3.1857
    79         H        2.4911   -8.8786   -3.5515
    80         H        1.9022   -9.2539   -1.0935
    81         H        3.6007   -9.5194   -0.7262
    82         H        4.1554   -7.1824   -1.6017
    83         H        2.4574   -6.9173   -1.9707
    84         H        1.8625   -7.2939    0.4843
    85         H        3.5591   -7.5686    0.8545
    86         H        4.1353   -5.2343   -0.0013
    87         H        2.4451   -4.9613   -0.4093
    88         H        1.7620   -5.2500    1.9918
    89         H        3.4017   -5.6823    2.4541
    90         H        2.8116   -3.2870    2.9932
    91         H        4.2902   -3.4559    2.0536
    92         H        0.3922   -4.3767    1.4468
    93         H       -1.9228   -3.6043    1.0217
    94         H       -0.4875    0.2942   -0.1725
    95         H        0.5311    1.3828    1.7229
    96         H        1.0427    3.0651    1.9026
    97         H       -0.1886    3.6075   -0.3498
    98         H       -0.7837    1.9563   -0.3618
    99         H       -1.8556    2.3125    1.9271
   100         H       -1.2325    3.9569    1.9771
   101         H       -2.5132    4.5128   -0.1594
   102         H       -3.1413    2.8712   -0.2114
   103         H       -4.2151    3.1959    2.0746
   104         H       -3.5658    4.8275    2.1592
   105         H       -4.8331    5.4524    0.0365
   106         H       -5.4735    3.8182   -0.0679
   107         H       -6.5586    4.0933    2.2279
   108         H       -5.9158    5.7258    2.3378
   109         H       -8.2845    5.7684    1.4942
   110         H       -7.2105    6.3799    0.2358
   111         H       -7.8558    4.7401    0.1275
   112         H        6.0649    3.0389   -1.0837
   113         H        5.5678    5.4449   -1.3548
   114         H        3.3505    6.3619   -0.7714
   115         H        1.5274    4.8689    0.0133
   116         H        5.2647   -4.0531    0.2419
   117         H        7.6120   -4.8384    0.2531
   118         H        9.4903   -3.2390    0.3501
   119         H        9.0760   -0.7921    0.3455
   120         H        6.5446    2.1967    1.0704
   121         H        7.7994    1.0720    1.5986
   122         H        8.7731    1.0920   -0.8275
   123         H        7.5780    2.3037   -1.2528
   124         H        8.4546    3.8177    0.6258
   125         H        9.6620    2.6055    1.0355
   126         H       10.6053    2.7440   -1.3353
   127         H        9.4012    3.9582   -1.7434
   128         H       10.2863    5.4630    0.1241
   129         H       11.4918    4.2494    0.5300
   130         H       12.4357    4.3937   -1.8411
   131         H       11.2305    5.6071   -2.2472
   132         H       12.1190    7.1133   -0.3821
   133         H       13.3245    5.9002    0.0230
   134         H       14.3072    7.6385   -1.5060
   135         H       14.3000    6.0793   -2.3302
   136         H       13.0899    7.2982   -2.7359
   137         H       -2.2135   -0.4665   -1.8741
   138         H       -4.4963    0.1991   -2.4441
   139         H       -7.6193   -1.9175   -0.3360
   140         H       -9.9168   -1.2178   -0.9086
   141         H       -8.4330    2.6287   -2.1915
   142         H       -6.1289    1.9323   -1.6072
   143         H      -14.0401    2.6351   -2.6084


 ENERGY OF "REORIENTED" SYSTEM WITHOUT FIELD:       56.3482261377


  NFREQ=  3  IWFLB=  0  IBET=  1  IGAM=  1
  ATOL= 0.10000D-02  BTOL= 0.10000D-02    MAXITU=  500    MAXITA=  150


 *****************************************************************
 CALCULATION OF STATIC FIELD QUANTITIES
 *****************************************************************

 +++++ ALPHA AT       0.00000 EV.

                           COMPONENTS OF ALPHA

                     *X           *Y           *Z
           *=X:    1009.1763     -33.2705     -30.8810
           *=Y:     -33.3035     679.5660    -113.9687
           *=Z:     -30.8611    -113.9698     403.4478

  ISOTROPIC AVERAGE ALPHA =     697.39673 A.U. =    103.34353 ANG.**3

 +++++ BETA (SECOND HARMONIC GENERATION) AT       0.00000 EV.

                              COMPONENTS OF BETA
            *XX         *XY         *YY         *XZ         *YZ         *ZZ
   *=X  6206.42067  -593.38204 -1173.80834   396.76323   133.70572  -117.48585
   *=Y  -593.87205 -1173.64417  -305.58078   133.72027   156.47675   -53.06056
   *=Z   397.06313   133.58239   156.40488  -117.49874   -53.05601   112.64366


 AVERAGE BETAX(SHG) VALUE AT   0.00000 EV =       2949.1364 a.u. =  0.254788E-28 ESU
 AVERAGE BETAY(SHG) VALUE AT   0.00000 EV =       -571.3102 a.u. = -0.493579E-29 ESU
 AVERAGE BETAZ(SHG) VALUE AT   0.00000 EV =        399.5758 a.u. =  0.345210E-29 ESU



 AVERAGE BETA (SHG) VALUE AT   0.00000 EV =       3030.4227 a.u. =  0.261811E-28 ESU
   (1 a.u. = 8.639418X10-33 esu)



 +++++ ALPHA AT       0.00000 EV.

                           COMPONENTS OF ALPHA

                     *X           *Y           *Z
           *=X:    1009.1763     -33.2705     -30.8810
           *=Y:     -33.3035     679.5660    -113.9687
           *=Z:     -30.8611    -113.9698     403.4478

  ISOTROPIC AVERAGE ALPHA =     697.39673 A.U. =    103.34353 ANG.**3


 GAMMA (THIRD HARMONIC GENERATION) AT    0.00000 EV.


 GAMMA(X,X,X,X) =       2174804.07398
 GAMMA(Y,Y,Y,Y) =        266401.96295
 GAMMA(Z,Z,Z,Z) =         14688.26835
 GAMMA(X,X,Y,Y) =        171215.88900
 GAMMA(X,X,Z,Z) =         24703.26151
 GAMMA(Y,Y,X,X) =        171215.78498
 GAMMA(Y,Y,Z,Z) =         17286.11502
 GAMMA(Z,Z,X,X) =         24702.99840
 GAMMA(Z,Z,Y,Y) =         17286.24872


 AVERAGE GAMMA VALUE AT    0.00000 =        576460.92058 a.u. =       290346.22059 ESU (X10-39)




 **********************************************************************
 CALCULATION FOR A FREQUENCY OF    0.25000 EV  =       0.00919 A.U. 
                  WAVELENGTH OF    4959.37 NM  =    2016.38525 CM(-1)
 **********************************************************************

 +++++ ALPHA AT       0.25000 EV.

                           COMPONENTS OF ALPHA

                     *X           *Y           *Z
           *=X:    1012.4815     -33.5040     -30.8919
           *=Y:     -33.5322     680.8907    -114.2193
           *=Z:     -30.8751    -114.2202     403.9522

  ISOTROPIC AVERAGE ALPHA =     699.10813 A.U. =    103.59713 ANG.**3

 +++++ BETA (SECOND HARMONIC GENERATION) AT       0.25000 EV.

                              COMPONENTS OF BETA
            *XX         *XY         *YY         *XZ         *YZ         *ZZ
   *=X  6463.15405  -618.18056 -1203.56189   403.40956   139.15175  -124.98412
   *=Y  -617.72856 -1195.19970  -313.92570   136.90273   160.12968   -54.29064
   *=Z   415.52189   135.26274   160.89581  -120.88629   -54.78823   115.36815


 AVERAGE BETAX(SHG) VALUE AT   0.25000 EV =       3085.7488 a.u. =  0.266591E-28 ESU
 AVERAGE BETAY(SHG) VALUE AT   0.25000 EV =       -591.9468 a.u. = -0.511408E-29 ESU
 AVERAGE BETAZ(SHG) VALUE AT   0.25000 EV =        409.9201 a.u. =  0.354147E-29 ESU



 AVERAGE BETA (SHG) VALUE AT   0.25000 EV =       3168.6403 a.u. =  0.273752E-28 ESU
   (1 a.u. = 8.639418X10-33 esu)



 +++++ ALPHA AT       0.75000 EV.

                           COMPONENTS OF ALPHA

                     *X           *Y           *Z
           *=X:    1040.4146     -35.4661     -30.9570
           *=Y:     -35.4967     691.8306    -116.2955
           *=Z:     -30.9429    -116.2955     408.0823

  ISOTROPIC AVERAGE ALPHA =     713.44251 A.U. =    105.72127 ANG.**3


 GAMMA (THIRD HARMONIC GENERATION) AT    0.25000 EV.


 GAMMA(X,X,X,X) =       2393547.46118
 GAMMA(Y,Y,Y,Y) =        282851.59760
 GAMMA(Z,Z,Z,Z) =         15206.40461
 GAMMA(X,X,Y,Y) =        183728.26684
 GAMMA(X,X,Z,Z) =         26754.87581
 GAMMA(Y,Y,X,X) =        183675.50764
 GAMMA(Y,Y,Z,Z) =         18092.39995
 GAMMA(Z,Z,X,X) =         26305.19990
 GAMMA(Z,Z,Y,Y) =         18034.25268


 AVERAGE GAMMA VALUE AT    0.25000 =        629639.19324 a.u. =       317130.53490 ESU (X10-39)




 **********************************************************************
 CALCULATION FOR A FREQUENCY OF    0.50000 EV  =       0.01837 A.U. 
                  WAVELENGTH OF    2479.68 NM  =    4032.77050 CM(-1)
 **********************************************************************

 +++++ ALPHA AT       0.50000 EV.

                           COMPONENTS OF ALPHA

                     *X           *Y           *Z
           *=X:    1022.6317     -34.2084     -30.9242
           *=Y:     -34.2390     684.9175    -114.9821
           *=Z:     -30.9105    -114.9821     405.4799

  ISOTROPIC AVERAGE ALPHA =     704.34304 A.U. =    104.37287 ANG.**3

 +++++ BETA (SECOND HARMONIC GENERATION) AT       0.50000 EV.

                              COMPONENTS OF BETA
            *XX         *XY         *YY         *XZ         *YZ         *ZZ
   *=X  7353.75927  -704.96867 -1303.39153   422.97782   158.49437  -151.93563
   *=Y  -701.18333 -1263.70361  -341.64595   147.54266   172.01987   -58.17088
   *=Z   481.40386   139.78534   175.52415  -132.12300   -60.42885   124.30584


 AVERAGE BETAX(SHG) VALUE AT   0.50000 EV =       3562.8595 a.u. =  0.307810E-28 ESU
 AVERAGE BETAY(SHG) VALUE AT   0.50000 EV =       -663.0174 a.u. = -0.572808E-29 ESU
 AVERAGE BETAZ(SHG) VALUE AT   0.50000 EV =        443.9682 a.u. =  0.383563E-29 ESU



 AVERAGE BETA (SHG) VALUE AT   0.50000 EV =       3651.1187 a.u. =  0.315435E-28 ESU
   (1 a.u. = 8.639418X10-33 esu)



 +++++ ALPHA AT       1.50000 EV.

                           COMPONENTS OF ALPHA

                     *X           *Y           *Z
           *=X:    1162.5758     -44.7857     -30.1221
           *=Y:     -44.8254     734.3903    -124.5535
           *=Z:     -30.1076    -124.5530     423.6582

  ISOTROPIC AVERAGE ALPHA =     773.54142 A.U. =    114.62701 ANG.**3


 GAMMA (THIRD HARMONIC GENERATION) AT    0.50000 EV.


 GAMMA(X,X,X,X) =       3340774.56696
 GAMMA(Y,Y,Y,Y) =        343783.24701
 GAMMA(Z,Z,Z,Z) =         17092.89938
 GAMMA(X,X,Y,Y) =        233554.63049
 GAMMA(X,X,Z,Z) =         35529.79046
 GAMMA(Y,Y,X,X) =        232679.85641
 GAMMA(Y,Y,Z,Z) =         21074.83822
 GAMMA(Z,Z,X,X) =         32995.02331
 GAMMA(Z,Z,Y,Y) =         20884.39158


 AVERAGE GAMMA VALUE AT    0.50000 =        855673.84876 a.u. =       430977.46816 ESU (X10-39)



 **********************
 *                    *
 * JOB ENDED NORMALLY *
 *                    *
 **********************



 TOTAL JOB TIME:          2056.11 SECONDS

 == MOPAC DONE ==
