 *******************************************************************************
 ** Site#: 4824         For non-commercial use only    Version 21.013L 64BITS **
 *******************************************************************************
 ** Cite this program as: MOPAC2016, Version: 21.013L, James J. P. Stewart,   **
 ** Stewart Computational Chemistry, web: HTTP://OpenMOPAC.net. Days left:  88**
 *******************************************************************************
 **                                                                           **
 **                                MOPAC2016                                  **
 **                                                                           **
 *******************************************************************************

                              RM1 CALCULATION RESULTS

 *******************************************************************************
 *  CALCULATION DONE:                                Sun Oct 17 08:15:23 2021  *
 *  RM1        - The RM1 Hamiltonian to be used
 *  POLAR      - CALCULATE FIRST, SECOND AND THIRD-ORDER POLARIZABILITIES
 *  PRECISE    - TIGHTER CRITERIA TO BE USED
 *  T=         - A TIME OF 172800.0 SECONDS REQUESTED
 *  DUMP=N     - RESTART FILE WRITTEN EVERY 7200.0 SECONDS REQUESTED
 *  GNORM      - EXIT WHEN GRADIENT NORM DROPS BELOW 0.100
 *******************************************************************************
RM1 PRECISE POLAR GNORM=0.1


  ATOM    CHEMICAL      BOND LENGTH      BOND ANGLE     TWIST ANGLE 
 NUMBER    SYMBOL       (ANGSTROMS)      (DEGREES)       (DEGREES) 
   (I)                     NA:I           NB:NA:I       NC:NB:NA:I       NA    NB    NC 
     1       C          0.00000000       0.0000000       0.0000000        0     0     0
     2       C          1.54760000  *    0.0000000       0.0000000        1     0     0
     3       C          1.55130000  *  111.5046000  *    0.0000000        2     1     0
     4       C          1.55190000  *  111.3126000  *  179.2750000  *     3     2     1
     5       C          1.55170000  *  111.2627000  *  178.9600000  *     4     3     2
     6       C          1.55180000  *  111.3610000  *  179.5027000  *     5     4     3
     7       C          1.55150000  *  111.1382000  *  178.5975000  *     6     5     4
     8       C          1.55160000  *  111.3975000  * -179.6660000  *     7     6     5
     9       C          1.55160000  *  111.0736000  *  178.7949000  *     8     7     6
    10       C          1.55280000  *  111.3572000  *  179.9210000  *     9     8     7
    11       C          1.55270000  *  112.7789000  *  174.1595000  *    10     9     8
    12       C          1.55190000  *  113.0285000  *   71.3332000  *    11    10     9
    13       N          1.46120000  *  110.5760000  * -179.7829000  *    12    11    10
    14       C          1.41820000  *  119.9396000  * -102.0570000  *    13    12    11
    15       C          1.47260000  *  120.0708000  *   82.5946000  *    14    13    12
    16       C          1.34430000  *  120.1693000  *  178.9759000  *    15    14    13
    17       C          1.47240000  *  120.1578000  *    0.1124000  *    16    15    14
    18       C          1.34600000  *  119.6714000  *   -0.0950000  *    17    16    15
    19       C          1.34700000  *  120.3487000  *  -98.4101000  *    14    13    12
    20       N          1.41200000  *  120.1644000  * -179.2076000  *    17    16    15
    21       C          1.42410000  *  123.2154000  *  -88.0727000  *    20    17    18
    22       C          1.34050000  *  129.8142000  *   24.4281000  *    21    20    17
    23       C          1.47440000  *  118.4335000  * -179.5299000  *    22    21    20
    24       C          1.35670000  *  122.2516000  *    0.5118000  *    23    22    21
    25       C          1.48850000  *  118.2232000  *   -0.3454000  *    24    23    22
    26       C          1.34050000  *  118.8130000  *    0.0000000  *    25    24    23
    27       C          1.45730000  *  131.3357000  *  178.5520000  *    26    25    24
    28       C          1.42360000  *  123.8793000  *  122.9680000  *    20    17    18
    29       C          1.34030000  *  129.7322000  *  -25.2774000  *    28    20    17
    30       C          1.47450000  *  118.4005000  * -179.5233000  *    29    28    20
    31       C          1.35690000  *  122.2556000  *    0.0876000  *    30    29    28
    32       C          1.34050000  *  131.3713000  *    0.8219000  *    27    26    25
    33       C          1.53740000  *  120.0493000  *  179.6772000  *    31    30    29
    34       C          1.56200000  *  112.8385000  * -178.8322000  *    33    31    30
    35       C          1.56150000  *  109.7217000  *  -59.1803000  *    33    31    30
    36       C          1.56110000  *  109.5661000  *   61.3880000  *    33    31    30
    37       C          1.53710000  *  120.0307000  *  179.6157000  *    24    23    22
    38       C          1.56170000  *  109.8485000  *  -57.6290000  *    37    24    23
    39       C          1.56190000  *  112.8432000  * -177.2688000  *    37    24    23
    40       C          1.56060000  *  109.4005000  *   62.9432000  *    37    24    23
    41       C          1.42050000  *  121.1659000  *   84.5676000  *    13    12    11
    42       C          1.34630000  *  121.3504000  * -112.8183000  *    41    13    14
    43       C          1.46960000  *  120.4969000  *  177.9453000  *    42    41    13
    44       C          1.34900000  *  120.8408000  *   -0.0860000  *    43    42    41
    45       C          1.47680000  *  118.4399000  *    0.4649000  *    44    43    42
    46       C          1.34450000  *  120.7459000  *   -0.4927000  *    45    44    43
    47       C          1.47230000  *  121.8235000  * -178.4483000  *    44    43    42
    48       C          1.35060000  *  127.9567000  *  -10.9890000  *    47    44    43
    49       C          1.48680000  *  116.1606000  *  178.9835000  *    48    47    44
    50       C          1.34770000  *  115.8401000  *    0.2189000  *    49    48    47
    51       S          1.81930000  *  107.0831000  *    0.0000000  *    50    49    48
    52       C          1.45800000  *  126.7981000  * -179.2463000  *    50    49    48
    53       C          1.34790000  *  126.9234000  * -175.3433000  *    52    50    49
    54       C          1.48680000  *  115.7124000  * -179.3589000  *    53    52    50
    55       C          1.34970000  *  116.2917000  *   -0.4954000  *    54    53    52
    56       S          1.81960000  *  125.9669000  *    5.3280000  *    52    50    49
    57       C          1.46960000  *  124.3539000  *  178.1920000  *    55    54    53
    58       C          1.34960000  *  126.2850000  *  168.5314000  *    57    55    54
    59       C          1.47670000  *  120.4935000  *  179.8542000  *    58    57    55
    60       O          1.23220000  *  121.2742000  *   -0.9432000  *    59    58    57
    61       O          1.35570000  *  119.8982000  *  179.5082000  *    59    58    57
    62       C          1.42880000  *  122.5994000  *   -0.9736000  *    58    57    55
    63       N          1.15850000  *  179.1202000  * -179.1833000  *    62    58    57
    64       H          1.05420000  *  116.0522000  *  -11.0126000  *    57    55    54
    65       H          1.09120000  *  110.1107000  *   59.6107000  *     1     2     3
    66       H          1.09100000  *  109.4486000  *  179.3676000  *     1     2     3
    67       H          1.09110000  *  110.0505000  *  -60.9037000  *     1     2     3
    68       H          1.09240000  *  108.8505000  *  -59.7992000  *     2     1    66
    69       H          1.09250000  *  108.8490000  *   58.6259000  *     2     1    66
    70       H          1.09240000  *  109.1020000  *  179.3797000  *     3     2    68
    71       H          1.09260000  *  109.1789000  *  -61.7806000  *     3     2    68
    72       H          1.09250000  *  109.1606000  *  179.0088000  *     4     3    70
    73       H          1.09250000  *  109.2030000  *  -62.1019000  *     4     3    70
    74       H          1.09260000  *  109.1238000  *  179.5164000  *     5     4    72
    75       H          1.09250000  *  109.2027000  *  179.4741000  *     5     4    73
    76       H          1.09260000  *  109.2199000  *  178.6583000  *     6     5    74
    77       H          1.09260000  *  109.1925000  *  178.7615000  *     6     5    75
    78       H          1.09280000  *  109.0654000  * -179.7216000  *     7     6    76
    79       H          1.09260000  *  109.2149000  *  -60.9226000  *     7     6    76
    80       H          1.09240000  *  109.2580000  *  178.8988000  *     8     7    78
    81       H          1.09260000  *  109.1851000  *  179.0362000  *     8     7    79
    82       H          1.09250000  *  108.9899000  *  179.8003000  *     9     8    80
    83       H          1.09150000  *  108.9285000  *  -61.5490000  *     9     8    80
    84       H          1.09240000  *  109.6555000  *  175.9782000  *    10     9    82
    85       H          1.09340000  *  108.6196000  *  175.0401000  *    10     9    83
    86       H          1.09270000  *  108.0443000  *   69.1010000  *    11    10    84
    87       H          1.09230000  *  109.3837000  * -173.3153000  *    11    10    84
    88       H          1.09060000  *  109.7108000  * -178.7654000  *    12    11    86
    89       H          1.09250000  *  109.2575000  * -178.2752000  *    12    11    87
    90       H          1.05090000  *  120.0706000  * -179.2840000  *    15    14    19
    91       H          1.05110000  *  119.8242000  * -179.3948000  *    16    15    14
    92       H          1.05140000  *  120.2421000  *   -0.5728000  *    18    17    20
    93       H          1.05120000  *  120.2435000  *    0.7391000  *    19    14    13
    94       H          1.05000000  *  121.1545000  *    0.4588000  *    22    21    20
    95       H          1.05130000  *  117.5828000  * -179.5900000  *    23    22    21
    96       H          1.04850000  *  121.6081000  *  179.5000000  *    25    24    23
    97       H          1.05000000  *  121.0959000  *   -0.0281000  *    29    28    20
    98       H          1.05130000  *  117.5806000  *  179.8778000  *    30    29    28
    99       H          1.04850000  *  119.5787000  *    0.5737000  *    32    27    26
   100       H          1.09150000  *  110.4203000  *  -61.2023000  *    34    33    31
   101       H          1.09160000  *  110.4094000  *   59.7075000  *    34    33    31
   102       H          1.09210000  *  110.1691000  *  179.2713000  *    34    33    31
   103       H          1.09070000  *  110.8614000  *   62.6111000  *    35    33    31
   104       H          1.09170000  *  110.2094000  * -177.5367000  *    35    33    31
   105       H          1.09180000  *  109.9850000  *  -57.6730000  *    35    33    31
   106       H          1.09180000  *  109.9454000  *   57.8516000  *    36    33    31
   107       H          1.09180000  *  110.2169000  *  177.7131000  *    36    33    31
   108       H          1.09080000  *  110.8118000  *  -62.3726000  *    36    33    31
   109       H          1.09180000  *  109.9663000  *  -56.6843000  *    38    37    24
   110       H          1.09070000  *  110.8809000  *   63.6333000  *    38    37    24
   111       H          1.09180000  *  110.2271000  * -176.5386000  *    38    37    24
   112       H          1.09170000  *  110.3708000  *   59.6088000  *    39    37    24
   113       H          1.09210000  *  110.1390000  *  179.1674000  *    39    37    24
   114       H          1.09150000  *  110.4518000  *  -61.3180000  *    39    37    24
   115       H          1.09180000  *  110.2035000  *  178.1041000  *    40    37    24
   116       H          1.09090000  *  110.7623000  *  -61.9585000  *    40    37    24
   117       H          1.09180000  *  109.9516000  *   58.2219000  *    40    37    24
   118       H          1.05120000  *  120.3220000  *   -0.3768000  *    42    41    13
   119       H          1.05050000  *  118.3482000  * -178.7559000  *    43    42    41
   120       H          1.05090000  *  120.2730000  *  179.2499000  *    45    44    43
   121       H          1.05120000  *  119.6424000  *  179.7127000  *    46    45    44
   122       H          1.04850000  *  122.9330000  *   -0.7915000  *    48    47    44
   123       H          1.04900000  *  121.5037000  * -179.5186000  *    49    48    47
   124       H          1.04900000  *  122.6982000  *    0.3105000  *    53    52    50
   125       H          1.04960000  *  121.3947000  *  179.1424000  *    54    53    52
   126       H          0.94090000  *  121.0725000  *    0.1265000  *    61    59    60
 


          CARTESIAN COORDINATES 

    NO.       ATOM           X           Y           Z

     1         C          0.0000      0.0000      0.0000
     2         C          1.5476      0.0000      0.0000
     3         C          2.1163      1.4433      0.0000
     4         C          3.6681      1.4382      0.0183
     5         C          4.2359      2.8820     -0.0080
     6         C          5.7874      2.8798      0.0228
     7         C          6.3503      4.3243     -0.0390
     8         C          7.9017      4.3287     -0.0170
     9         C          8.4569      5.7746     -0.1095
    10         C         10.0095      5.7868     -0.0860
    11         C         10.6032      7.2020     -0.3218
    12         C         10.3910      8.1577      0.8824
    13         N         10.9641      9.4722      0.6019
    14         C         12.2143      9.8342      1.1653
    15         C         13.4664      9.4021      0.5218
    16         C         14.6525      9.7613      1.0425
    17         C         14.7061     10.5867      2.2607
    18         C         13.5616     10.9813      2.8490
    19         C         12.2656     10.5906      2.2786
    20         N         15.9517     10.9780      2.7983
    21         C         16.6079     12.1912      2.4438
    22         C         16.0975     13.3358      1.9680
    23         C         17.0207     14.4467      1.6723
    24         C         18.3609     14.3427      1.8559
    25         C         18.9019     13.0595      2.3816
    26         C         18.0491     12.0613      2.6521
    27         C         18.2761     10.7070      3.1400
    28         C         16.9655     10.0628      3.1999
    29         C         16.8597      8.7867      3.5960
    30         C         18.0893      8.0644      3.9707
    31         C         19.3135      8.6483      3.9286
    32         C         19.4030     10.0636      3.4761
    33         C         20.5618      7.8496      4.3377
    34         C         21.8747      8.6916      4.2536
    35         C         20.4150      7.3620      5.8139
    36         C         20.7297      6.6204      3.3901
    37         C         19.2775     15.5307      1.5223
    38         C         19.0935     15.9386      0.0261
    39         C         20.7909     15.2063      1.7317
    40         C         18.9203     16.7365      2.4464
    41         C         10.2312     10.4562     -0.1140
    42         C          9.0603     10.9324      0.3494
    43         C          8.3398     11.9827     -0.3838
    44         C          8.8362     12.4902     -1.5309
    45         C         10.1167     11.9582     -2.0392
    46         C         10.7766     10.9978     -1.3686
    47         C          8.1496     13.5659     -2.2651
    48         C          6.9034     14.0455     -2.0628
    49         C          6.4784     15.1610     -2.9491
    50         C          7.3855     15.5659     -3.8599
    51         S          8.8644     14.5297     -3.6384
    52         C          7.2277     16.6418     -4.8311
    53         C          8.0971     16.9924     -5.7996
    54         C          7.6892     18.1443     -6.6466
    55         C          6.4943     18.7029     -6.3608
    56         S          5.8116     17.7787     -4.9459
    57         C          5.9365     19.8701     -7.0581
    58         C          4.6710     20.3291     -6.9609
    59         C          4.2461     21.5218     -7.7208
    60         O          5.0340     22.1339     -8.4438
    61         O          2.9692     21.9665     -7.6218
    62         C          3.6819     19.6935     -6.1489
    63         N          2.8680     19.1904     -5.4958
    64         H          6.5964     20.3861     -7.6981
    65         H         -0.3752      0.5184     -0.8839
    66         H         -0.3633     -1.0287     -0.0114
    67         H         -0.3741      0.4984      0.8956
    68         H          1.9006     -0.5299      0.8877
    69         H          1.9006     -0.5285     -0.8886
    70         H          1.7691      1.9644     -0.8952
    71         H          1.7491      1.9738      0.8818
    72         H          4.0143      0.9324      0.9227
    73         H          4.0359      0.8927     -0.8539
    74         H          3.8960      3.3838     -0.9170
    75         H          3.8612      3.4313      0.8588
    76         H          6.1282      2.3994      0.9430
    77         H          6.1628      2.3118     -0.8317
    78         H          6.0036      4.8034     -0.9579
    79         H          5.9777      4.8923      0.8168
    80         H          8.2502      3.8676      0.9100
    81         H          8.2745      3.7463     -0.8630
    82         H          8.1088      6.2302     -1.0394
    83         H          8.0751      6.3550      0.7324
    84         H         10.3656      5.3984      0.8709
    85         H         10.3758      5.1305     -0.8801
    86         H         11.6767      7.0942     -0.4944
    87         H         10.1555      7.6383     -1.2175
    88         H          9.3246      8.2620      1.0858
    89         H         10.8668      7.7317      1.7687
    90         H         13.4354      8.8212     -0.3534
    91         H         15.5428      9.4578      0.5734
    92         H         13.5894     11.5750      3.7163
    93         H         11.3784     10.9083      2.7442
    94         H         15.0657     13.4451      1.8074
    95         H         16.6054     15.3403      1.3060
    96         H         19.9293     12.9186      2.5363
    97         H         15.9252      8.3107      3.6476
    98         H         17.9912      7.0649      4.2812
    99         H         20.3231     10.5619      3.4091
   100         H         22.0474      9.0264      3.2292
   101         H         21.8120      9.5611      4.9105
   102         H         22.7298      8.0878      4.5649
   103         H         19.5660      6.6851      5.9167
   104         H         21.3160      6.8311      6.1270
   105         H         20.2640      8.2170      6.4759
   106         H         20.8041      6.9563      2.3540
   107         H         21.6361      6.0680      3.6458
   108         H         19.8789      5.9436      3.4787
   109         H         19.2916     15.0819     -0.6210
   110         H         18.0778     16.2904     -0.1588
   111         H         19.7858     16.7418     -0.2340
   112         H         21.0916     14.3699      1.0978
   113         H         21.4011     16.0730      1.4687
   114         H         20.9862     14.9550      2.7758
   115         H         19.5864     17.5774      2.2434
   116         H         17.8931     17.0624      2.2770
   117         H         19.0281     16.4479      3.4938
   118         H          8.6632     10.5754      1.2548
   119         H          7.4390     12.3436      0.0186
   120         H         10.5238     12.3245     -2.9362
   121         H         11.6845     10.6285     -1.7486
   122         H          6.2600     13.6680     -1.3260
   123         H          5.5305     15.6015     -2.8598
   124         H          9.0080     16.4946     -5.9508
   125         H          8.3050     18.5007     -7.4182
   126         H          2.6819     22.7272     -8.0952

  H: (RM1): G.B. ROCHA, R.O. FREIRE, A.M.SIMAS, J.J.P. STEWART, J. COMP. CHEM. 27, 1101 (2006)
  C: (RM1): G.B. ROCHA, R.O. FREIRE, A.M.SIMAS, J.J.P. STEWART, J. COMP. CHEM. 27, 1101 (2006)
  N: (RM1): G.B. ROCHA, R.O. FREIRE, A.M.SIMAS, J.J.P. STEWART, J. COMP. CHEM. 27, 1101 (2006)
  O: (RM1): G.B. ROCHA, R.O. FREIRE, A.M.SIMAS, J.J.P. STEWART, J. COMP. CHEM. 27, 1101 (2006)
  S: (RM1): G.B. ROCHA, R.O. FREIRE, A.M.SIMAS, J.J.P. STEWART, J. COMP. CHEM. 27, 1101 (2006)

           Empirical Formula: C56 H63 N3 O2 S2  =   126 atoms



      MOLECULAR POINT GROUP   :   C1  


      RHF CALCULATION, NO. OF DOUBLY OCCUPIED LEVELS = 163


          Geometry optimization using L-BFGS
 CYCLE:     1 TIME:   0.562 TIME LEFT:  2.00D  GRAD.:   802.840 HEAT:  110.8448
 CYCLE:     2 TIME:   0.410 TIME LEFT:  2.00D  GRAD.:   532.243 HEAT:  107.1455
 CYCLE:     3 TIME:   0.393 TIME LEFT:  2.00D  GRAD.:   535.331 HEAT:  104.6831
 CYCLE:     4 TIME:   0.359 TIME LEFT:  2.00D  GRAD.:   531.515 HEAT:  107.1453
 CYCLE:     5 TIME:   0.361 TIME LEFT:  2.00D  GRAD.:   539.741 HEAT:  104.6751
 CYCLE:     6 TIME:   0.457 TIME LEFT:  2.00D  GRAD.:   554.721 HEAT:  92.12517
 CYCLE:     7 TIME:   0.361 TIME LEFT:  2.00D  GRAD.:   560.924 HEAT:  82.46921
 CYCLE:     8 TIME:   0.387 TIME LEFT:  2.00D  GRAD.:   875.156 HEAT:  66.32718
 CYCLE:     9 TIME:   0.359 TIME LEFT:  2.00D  GRAD.:   396.784 HEAT:  52.61542
 CYCLE:    10 TIME:   0.340 TIME LEFT:  2.00D  GRAD.:   277.016 HEAT:  47.79539
 CYCLE:    11 TIME:   0.398 TIME LEFT:  2.00D  GRAD.:   137.039 HEAT:  42.16019
 CYCLE:    12 TIME:   0.369 TIME LEFT:  2.00D  GRAD.:   119.850 HEAT:  39.53431
 CYCLE:    13 TIME:   0.352 TIME LEFT:  2.00D  GRAD.:   153.732 HEAT:  37.82453
 CYCLE:    14 TIME:   0.334 TIME LEFT:  2.00D  GRAD.:    97.950 HEAT:  36.41402
 CYCLE:    15 TIME:   0.326 TIME LEFT:  2.00D  GRAD.:    81.407 HEAT:  35.39331
 CYCLE:    16 TIME:   0.340 TIME LEFT:  2.00D  GRAD.:    86.010 HEAT:  34.08740
 CYCLE:    17 TIME:   0.365 TIME LEFT:  2.00D  GRAD.:  1350.348 HEAT:  38.08867
 CYCLE:    18 TIME:   0.361 TIME LEFT:  2.00D  GRAD.:    83.985 HEAT:  33.33959
 CYCLE:    19 TIME:   0.309 TIME LEFT:  2.00D  GRAD.:    70.905 HEAT:  33.15253
 CYCLE:    20 TIME:   0.326 TIME LEFT:  2.00D  GRAD.:    68.465 HEAT:  32.50882
 CYCLE:    21 TIME:   0.344 TIME LEFT:  2.00D  GRAD.:   116.162 HEAT:  32.11866
 CYCLE:    22 TIME:   0.316 TIME LEFT:  2.00D  GRAD.:    55.416 HEAT:  31.60566
 CYCLE:    23 TIME:   0.348 TIME LEFT:  2.00D  GRAD.:    56.636 HEAT:  31.30886
 CYCLE:    24 TIME:   0.309 TIME LEFT:  2.00D  GRAD.:    73.199 HEAT:  31.18035
 CYCLE:    25 TIME:   0.342 TIME LEFT:  2.00D  GRAD.:    40.953 HEAT:  31.04642
 CYCLE:    26 TIME:   0.338 TIME LEFT:  2.00D  GRAD.:    45.783 HEAT:  30.86210
 CYCLE:    27 TIME:   0.338 TIME LEFT:  2.00D  GRAD.:    57.044 HEAT:  30.67750
 CYCLE:    28 TIME:   0.334 TIME LEFT:  2.00D  GRAD.:    60.343 HEAT:  30.31776
 CYCLE:    29 TIME:   0.326 TIME LEFT:  2.00D  GRAD.:   117.619 HEAT:  30.32570
 CYCLE:    30 TIME:   0.318 TIME LEFT:  2.00D  GRAD.:    32.763 HEAT:  29.98521
 CYCLE:    31 TIME:   0.303 TIME LEFT:  2.00D  GRAD.:   102.828 HEAT:  29.92773
 CYCLE:    32 TIME:   0.322 TIME LEFT:  2.00D  GRAD.:    43.133 HEAT:  29.85025
 CYCLE:    33 TIME:   0.334 TIME LEFT:  2.00D  GRAD.:    31.446 HEAT:  29.77881
 CYCLE:    34 TIME:   0.381 TIME LEFT:  2.00D  GRAD.:    35.034 HEAT:  29.70315
 CYCLE:    35 TIME:   0.346 TIME LEFT:  2.00D  GRAD.:    29.111 HEAT:  29.62780
 CYCLE:    36 TIME:   0.340 TIME LEFT:  2.00D  GRAD.:    24.401 HEAT:  29.50632
 CYCLE:    37 TIME:   0.332 TIME LEFT:  2.00D  GRAD.:    65.088 HEAT:  29.47728
 CYCLE:    38 TIME:   0.316 TIME LEFT:  2.00D  GRAD.:    25.349 HEAT:  29.39423
 CYCLE:    39 TIME:   0.318 TIME LEFT:  2.00D  GRAD.:    19.805 HEAT:  29.36454
 CYCLE:    40 TIME:   0.314 TIME LEFT:  2.00D  GRAD.:    23.896 HEAT:  29.30952
 CYCLE:    41 TIME:   0.334 TIME LEFT:  2.00D  GRAD.:    56.088 HEAT:  29.22827
 CYCLE:    42 TIME:   0.393 TIME LEFT:  2.00D  GRAD.:    43.331 HEAT:  29.12042
 CYCLE:    43 TIME:   0.467 TIME LEFT:  2.00D  GRAD.:    29.318 HEAT:  28.96195
 CYCLE:    44 TIME:   0.395 TIME LEFT:  2.00D  GRAD.:    49.147 HEAT:  28.82615
 CYCLE:    45 TIME:   0.467 TIME LEFT:  2.00D  GRAD.:   203.104 HEAT:  28.84798
 CYCLE:    46 TIME:   0.432 TIME LEFT:  2.00D  GRAD.:   487.158 HEAT:  29.50115
 CYCLE:    47 TIME:   0.430 TIME LEFT:  2.00D  GRAD.:    61.859 HEAT:  28.62924
 CYCLE:    48 TIME:   0.383 TIME LEFT:  2.00D  GRAD.:    48.849 HEAT:  28.58390
 CYCLE:    49 TIME:   0.371 TIME LEFT:  2.00D  GRAD.:    52.882 HEAT:  28.46676
 CYCLE:    50 TIME:   0.416 TIME LEFT:  2.00D  GRAD.:    91.731 HEAT:  28.20158
 CYCLE:    51 TIME:   0.424 TIME LEFT:  2.00D  GRAD.:    66.471 HEAT:  27.89497
 CYCLE:    52 TIME:   0.412 TIME LEFT:  2.00D  GRAD.:    47.983 HEAT:  27.59153
 CYCLE:    53 TIME:   0.373 TIME LEFT:  2.00D  GRAD.:    96.853 HEAT:  27.23448
 CYCLE:    54 TIME:   0.344 TIME LEFT:  2.00D  GRAD.:    50.056 HEAT:  26.98668
 CYCLE:    55 TIME:   0.381 TIME LEFT:  2.00D  GRAD.:    46.416 HEAT:  26.81679
 CYCLE:    56 TIME:   0.355 TIME LEFT:  2.00D  GRAD.:    56.664 HEAT:  26.56437
 CYCLE:    57 TIME:   0.400 TIME LEFT:  2.00D  GRAD.:    58.055 HEAT:  26.27993
 CYCLE:    58 TIME:   0.354 TIME LEFT:  2.00D  GRAD.:   156.717 HEAT:  26.42029
 CYCLE:    59 TIME:   0.324 TIME LEFT:  2.00D  GRAD.:    32.269 HEAT:  25.96693
 CYCLE:    60 TIME:   0.334 TIME LEFT:  2.00D  GRAD.:    61.232 HEAT:  25.94538
 CYCLE:    61 TIME:   0.344 TIME LEFT:  2.00D  GRAD.:   190.248 HEAT:  25.97647
 CYCLE:    62 TIME:   0.352 TIME LEFT:  2.00D  GRAD.:    33.849 HEAT:  25.84424
 CYCLE:    63 TIME:   0.381 TIME LEFT:  2.00D  GRAD.:    24.211 HEAT:  25.80791
 CYCLE:    64 TIME:   0.346 TIME LEFT:  2.00D  GRAD.:    59.438 HEAT:  25.66323
 CYCLE:    65 TIME:   0.377 TIME LEFT:  2.00D  GRAD.:    42.927 HEAT:  25.55233
 CYCLE:    66 TIME:   0.355 TIME LEFT:  2.00D  GRAD.:    26.165 HEAT:  25.43470
 CYCLE:    67 TIME:   0.387 TIME LEFT:  2.00D  GRAD.:    46.636 HEAT:  25.34414
 CYCLE:    68 TIME:   0.361 TIME LEFT:  2.00D  GRAD.:    72.212 HEAT:  25.44548
 CYCLE:    69 TIME:   0.346 TIME LEFT:  2.00D  GRAD.:    16.275 HEAT:  25.25372
 CYCLE:    70 TIME:   0.318 TIME LEFT:  2.00D  GRAD.:    13.952 HEAT:  25.23298
 CYCLE:    71 TIME:   0.361 TIME LEFT:  2.00D  GRAD.:    33.321 HEAT:  25.15381
 CYCLE:    72 TIME:   0.324 TIME LEFT:  2.00D  GRAD.:    31.701 HEAT:  25.10996
 CYCLE:    73 TIME:   0.322 TIME LEFT:  2.00D  GRAD.:   101.835 HEAT:  25.12424
 CYCLE:    74 TIME:   0.312 TIME LEFT:  2.00D  GRAD.:    22.000 HEAT:  24.99372
 CYCLE:    75 TIME:   0.396 TIME LEFT:  2.00D  GRAD.:    16.410 HEAT:  24.98084
 CYCLE:    76 TIME:   0.389 TIME LEFT:  2.00D  GRAD.:    35.306 HEAT:  24.96600
 CYCLE:    77 TIME:   0.346 TIME LEFT:  2.00D  GRAD.:    23.663 HEAT:  24.95076
 CYCLE:    78 TIME:   0.346 TIME LEFT:  2.00D  GRAD.:    30.506 HEAT:  24.90703
 CYCLE:    79 TIME:   0.334 TIME LEFT:  2.00D  GRAD.:    28.994 HEAT:  24.87962
 CYCLE:    80 TIME:   0.324 TIME LEFT:  2.00D  GRAD.:    21.698 HEAT:  24.82159
 CYCLE:    81 TIME:   0.318 TIME LEFT:  2.00D  GRAD.:    46.071 HEAT:  24.78438
 CYCLE:    82 TIME:   0.320 TIME LEFT:  2.00D  GRAD.:    22.547 HEAT:  24.73834
 CYCLE:    83 TIME:   0.400 TIME LEFT:  2.00D  GRAD.:    19.921 HEAT:  24.71083
 CYCLE:    84 TIME:   0.430 TIME LEFT:  2.00D  GRAD.:    24.317 HEAT:  24.66249
 CYCLE:    85 TIME:   0.562 TIME LEFT:  2.00D  GRAD.:    34.525 HEAT:  24.60780
 CYCLE:    86 TIME:   0.486 TIME LEFT:  2.00D  GRAD.:    20.204 HEAT:  24.54808
 CYCLE:    87 TIME:   0.506 TIME LEFT:  2.00D  GRAD.:    27.975 HEAT:  24.50549
 CYCLE:    88 TIME:   0.684 TIME LEFT:  2.00D  GRAD.:    27.433 HEAT:  24.45783
 CYCLE:    89 TIME:   0.598 TIME LEFT:  2.00D  GRAD.:   387.350 HEAT:  24.86366
 CYCLE:    90 TIME:   0.473 TIME LEFT:  2.00D  GRAD.:    39.149 HEAT:  24.37392
 CYCLE:    91 TIME:   0.441 TIME LEFT:  2.00D  GRAD.:    31.811 HEAT:  24.34840
 CYCLE:    92 TIME:   0.475 TIME LEFT:  2.00D  GRAD.:    31.523 HEAT:  24.28632
 CYCLE:    93 TIME:   0.516 TIME LEFT:  2.00D  GRAD.:    52.790 HEAT:  24.25564
 CYCLE:    94 TIME:   0.455 TIME LEFT:  2.00D  GRAD.:    32.613 HEAT:  24.21986
 CYCLE:    95 TIME:   0.469 TIME LEFT:  2.00D  GRAD.:    28.494 HEAT:  24.11522
 CYCLE:    96 TIME:   0.514 TIME LEFT:  2.00D  GRAD.:    29.325 HEAT:  24.06861
 CYCLE:    97 TIME:   0.490 TIME LEFT:  2.00D  GRAD.:    86.361 HEAT:  24.04310
 CYCLE:    98 TIME:   0.584 TIME LEFT:  2.00D  GRAD.:    24.853 HEAT:  23.94850
 CYCLE:    99 TIME:   0.566 TIME LEFT:  2.00D  GRAD.:    20.560 HEAT:  23.90712
 CYCLE:   100 TIME:   0.590 TIME LEFT:  2.00D  GRAD.:    31.772 HEAT:  23.85972
 CYCLE:   101 TIME:   0.453 TIME LEFT:  2.00D  GRAD.:    38.591 HEAT:  23.78406
 CYCLE:   102 TIME:   0.447 TIME LEFT:  2.00D  GRAD.:    57.537 HEAT:  23.72968
 CYCLE:   103 TIME:   0.459 TIME LEFT:  2.00D  GRAD.:    34.832 HEAT:  23.65595
 CYCLE:   104 TIME:   0.477 TIME LEFT:  2.00D  GRAD.:    89.091 HEAT:  23.66265
 CYCLE:   105 TIME:   0.434 TIME LEFT:  2.00D  GRAD.:    29.369 HEAT:  23.62411
 CYCLE:   106 TIME:   0.463 TIME LEFT:  2.00D  GRAD.:    18.905 HEAT:  23.60952
 CYCLE:   107 TIME:   0.426 TIME LEFT:  2.00D  GRAD.:    25.812 HEAT:  23.58035
 CYCLE:   108 TIME:   0.545 TIME LEFT:  2.00D  GRAD.:    27.461 HEAT:  23.55057
 CYCLE:   109 TIME:   0.518 TIME LEFT:  2.00D  GRAD.:    68.716 HEAT:  23.54236
 CYCLE:   110 TIME:   0.490 TIME LEFT:  2.00D  GRAD.:    24.004 HEAT:  23.49493
 CYCLE:   111 TIME:   0.506 TIME LEFT:  2.00D  GRAD.:    18.210 HEAT:  23.46518
 CYCLE:   112 TIME:   0.559 TIME LEFT:  2.00D  GRAD.:    23.992 HEAT:  23.42237
 CYCLE:   113 TIME:   0.635 TIME LEFT:  2.00D  GRAD.:    56.389 HEAT:  23.40542
 CYCLE:   114 TIME:   0.559 TIME LEFT:  2.00D  GRAD.:    18.781 HEAT:  23.36117
 CYCLE:   115 TIME:   0.521 TIME LEFT:  2.00D  GRAD.:    14.662 HEAT:  23.34843
 CYCLE:   116 TIME:   0.545 TIME LEFT:  2.00D  GRAD.:    19.467 HEAT:  23.32368
 CYCLE:   117 TIME:   0.527 TIME LEFT:  2.00D  GRAD.:    22.685 HEAT:  23.29346
 CYCLE:   118 TIME:   0.557 TIME LEFT:  2.00D  GRAD.:    55.099 HEAT:  23.26436
 CYCLE:   119 TIME:   0.582 TIME LEFT:  2.00D  GRAD.:    20.052 HEAT:  23.23257
 CYCLE:   120 TIME:   0.648 TIME LEFT:  2.00D  GRAD.:    16.328 HEAT:  23.21706
 CYCLE:   121 TIME:   0.596 TIME LEFT:  2.00D  GRAD.:    14.728 HEAT:  23.18972
 CYCLE:   122 TIME:   0.707 TIME LEFT:  2.00D  GRAD.:    14.747 HEAT:  23.16622
 CYCLE:   123 TIME:   0.572 TIME LEFT:  2.00D  GRAD.:    50.021 HEAT:  23.15283
 CYCLE:   124 TIME:   0.607 TIME LEFT:  2.00D  GRAD.:    19.619 HEAT:  23.12035
 CYCLE:   125 TIME:   0.436 TIME LEFT:  2.00D  GRAD.:    12.893 HEAT:  23.10496
 CYCLE:   126 TIME:   0.438 TIME LEFT:  2.00D  GRAD.:    15.299 HEAT:  23.08837
 CYCLE:   127 TIME:   0.449 TIME LEFT:  2.00D  GRAD.:    16.166 HEAT:  23.07200
 CYCLE:   128 TIME:   0.453 TIME LEFT:  2.00D  GRAD.:    27.370 HEAT:  23.04776
 CYCLE:   129 TIME:   0.436 TIME LEFT:  2.00D  GRAD.:    14.926 HEAT:  23.02462
 CYCLE:   130 TIME:   0.521 TIME LEFT:  2.00D  GRAD.:    11.887 HEAT:  23.00491
 CYCLE:   131 TIME:   0.529 TIME LEFT:  2.00D  GRAD.:    30.588 HEAT:  22.99312
 CYCLE:   132 TIME:   0.533 TIME LEFT:  2.00D  GRAD.:    13.007 HEAT:  22.98261
 CYCLE:   133 TIME:   0.402 TIME LEFT:  2.00D  GRAD.:    11.022 HEAT:  22.97641
 CYCLE:   134 TIME:   0.443 TIME LEFT:  2.00D  GRAD.:     9.492 HEAT:  22.96446
 CYCLE:   135 TIME:   0.473 TIME LEFT:  2.00D  GRAD.:    11.892 HEAT:  22.94169
 CYCLE:   136 TIME:   0.545 TIME LEFT:  2.00D  GRAD.:    17.976 HEAT:  22.91642
 CYCLE:   137 TIME:   0.430 TIME LEFT:  2.00D  GRAD.:    29.784 HEAT:  22.89617
 CYCLE:   138 TIME:   0.432 TIME LEFT:  2.00D  GRAD.:    30.858 HEAT:  22.88840
 CYCLE:   139 TIME:   0.471 TIME LEFT:  2.00D  GRAD.:     9.316 HEAT:  22.87890
 CYCLE:   140 TIME:   0.420 TIME LEFT:  2.00D  GRAD.:     8.538 HEAT:  22.87543
 CYCLE:   141 TIME:   0.447 TIME LEFT:  2.00D  GRAD.:    12.619 HEAT:  22.86805
 CYCLE:   142 TIME:   0.670 TIME LEFT:  2.00D  GRAD.:    17.539 HEAT:  22.85456
 CYCLE:   143 TIME:   0.555 TIME LEFT:  2.00D  GRAD.:    34.544 HEAT:  22.84046
 CYCLE:   144 TIME:   0.498 TIME LEFT:  2.00D  GRAD.:    37.303 HEAT:  22.83317
 CYCLE:   145 TIME:   0.439 TIME LEFT:  2.00D  GRAD.:     7.900 HEAT:  22.82562
 CYCLE:   146 TIME:   0.428 TIME LEFT:  2.00D  GRAD.:     7.987 HEAT:  22.82422
 CYCLE:   147 TIME:   0.461 TIME LEFT:  2.00D  GRAD.:    13.515 HEAT:  22.82045
 CYCLE:   148 TIME:   0.584 TIME LEFT:  2.00D  GRAD.:    12.868 HEAT:  22.81618
 CYCLE:   149 TIME:   0.531 TIME LEFT:  2.00D  GRAD.:    47.675 HEAT:  22.83107
 CYCLE:   150 TIME:   0.535 TIME LEFT:  2.00D  GRAD.:    10.911 HEAT:  22.80189
 CYCLE:   151 TIME:   0.461 TIME LEFT:  2.00D  GRAD.:     8.945 HEAT:  22.79748
 CYCLE:   152 TIME:   0.543 TIME LEFT:  2.00D  GRAD.:    29.172 HEAT:  22.78712
 CYCLE:   153 TIME:   0.424 TIME LEFT:  2.00D  GRAD.:    20.241 HEAT:  22.78305
 CYCLE:   154 TIME:   0.525 TIME LEFT:  2.00D  GRAD.:     9.753 HEAT:  22.77764
 CYCLE:   155 TIME:   0.416 TIME LEFT:  2.00D  GRAD.:     7.688 HEAT:  22.77389
 CYCLE:   156 TIME:   0.414 TIME LEFT:  2.00D  GRAD.:     9.682 HEAT:  22.76860
 CYCLE:   157 TIME:   0.418 TIME LEFT:  2.00D  GRAD.:    11.561 HEAT:  22.76073
 CYCLE:   158 TIME:   0.465 TIME LEFT:  2.00D  GRAD.:    34.857 HEAT:  22.74926
 CYCLE:   159 TIME:   0.637 TIME LEFT:  2.00D  GRAD.:    12.391 HEAT:  22.73719
 CYCLE:   160 TIME:   0.566 TIME LEFT:  2.00D  GRAD.:     7.918 HEAT:  22.73135
 CYCLE:   161 TIME:   0.537 TIME LEFT:  2.00D  GRAD.:     8.188 HEAT:  22.72600
 CYCLE:   162 TIME:   0.523 TIME LEFT:  2.00D  GRAD.:     9.806 HEAT:  22.71635
 CYCLE:   163 TIME:   0.475 TIME LEFT:  2.00D  GRAD.:    10.121 HEAT:  22.70113
 CYCLE:   164 TIME:   0.611 TIME LEFT:  2.00D  GRAD.:    21.973 HEAT:  22.69993
 CYCLE:   165 TIME:   0.514 TIME LEFT:  2.00D  GRAD.:    11.473 HEAT:  22.68840
 CYCLE:   166 TIME:   0.406 TIME LEFT:  2.00D  GRAD.:     8.092 HEAT:  22.68510
 CYCLE:   167 TIME:   0.400 TIME LEFT:  2.00D  GRAD.:     6.436 HEAT:  22.68274
 CYCLE:   168 TIME:   0.426 TIME LEFT:  2.00D  GRAD.:     5.972 HEAT:  22.67878
 CYCLE:   169 TIME:   0.549 TIME LEFT:  2.00D  GRAD.:    11.476 HEAT:  22.67102
 CYCLE:   170 TIME:   0.430 TIME LEFT:  2.00D  GRAD.:     7.079 HEAT:  22.66353
 CYCLE:   171 TIME:   0.439 TIME LEFT:  2.00D  GRAD.:     9.339 HEAT:  22.65716
 CYCLE:   172 TIME:   0.490 TIME LEFT:  2.00D  GRAD.:    49.059 HEAT:  22.66146
 CYCLE:   173 TIME:   0.713 TIME LEFT:  2.00D  GRAD.:     7.427 HEAT:  22.65112
 CYCLE:   174 TIME:   0.600 TIME LEFT:  2.00D  GRAD.:     6.638 HEAT:  22.64964
 CYCLE:   175 TIME:   0.561 TIME LEFT:  2.00D  GRAD.:     8.797 HEAT:  22.64575
 CYCLE:   176 TIME:   0.479 TIME LEFT:  2.00D  GRAD.:     7.531 HEAT:  22.63971
 CYCLE:   177 TIME:   0.623 TIME LEFT:  2.00D  GRAD.:     6.236 HEAT:  22.63024
 CYCLE:   178 TIME:   0.557 TIME LEFT:  2.00D  GRAD.:    11.389 HEAT:  22.62192
 CYCLE:   179 TIME:   0.607 TIME LEFT:  2.00D  GRAD.:    29.090 HEAT:  22.61967
 CYCLE:   180 TIME:   0.537 TIME LEFT:  2.00D  GRAD.:    23.744 HEAT:  22.61301
 CYCLE:   181 TIME:   0.564 TIME LEFT:  2.00D  GRAD.:     8.753 HEAT:  22.60366
 CYCLE:   182 TIME:   0.574 TIME LEFT:  2.00D  GRAD.:     6.203 HEAT:  22.60021
 CYCLE:   183 TIME:   0.467 TIME LEFT:  2.00D  GRAD.:     8.612 HEAT:  22.59690
 CYCLE:   184 TIME:   0.439 TIME LEFT:  2.00D  GRAD.:     9.199 HEAT:  22.59171
 CYCLE:   185 TIME:   0.447 TIME LEFT:  2.00D  GRAD.:     7.398 HEAT:  22.58578
 CYCLE:   186 TIME:   0.518 TIME LEFT:  2.00D  GRAD.:   143.467 HEAT:  22.65792
 CYCLE:   187 TIME:   0.531 TIME LEFT:  2.00D  GRAD.:     9.298 HEAT:  22.57918
 CYCLE:   188 TIME:   0.471 TIME LEFT:  2.00D  GRAD.:    12.488 HEAT:  22.57627
 CYCLE:   189 TIME:   0.615 TIME LEFT:  2.00D  GRAD.:    14.480 HEAT:  22.57390
 CYCLE:   190 TIME:   0.611 TIME LEFT:  2.00D  GRAD.:    25.483 HEAT:  22.57259
 CYCLE:   191 TIME:   0.574 TIME LEFT:  2.00D  GRAD.:     5.025 HEAT:  22.56772
 CYCLE:   192 TIME:   0.422 TIME LEFT:  2.00D  GRAD.:     5.036 HEAT:  22.56673
 CYCLE:   193 TIME:   0.494 TIME LEFT:  2.00D  GRAD.:    22.695 HEAT:  22.56578
 CYCLE:   194 TIME:   0.602 TIME LEFT:  2.00D  GRAD.:    18.000 HEAT:  22.56105
 CYCLE:   195 TIME:   0.459 TIME LEFT:  2.00D  GRAD.:     6.228 HEAT:  22.55719
 CYCLE:   196 TIME:   0.504 TIME LEFT:  2.00D  GRAD.:     7.612 HEAT:  22.55427
 CYCLE:   197 TIME:   0.516 TIME LEFT:  2.00D  GRAD.:    10.599 HEAT:  22.54833
 CYCLE:   198 TIME:   0.646 TIME LEFT:  2.00D  GRAD.:     9.314 HEAT:  22.54200
 CYCLE:   199 TIME:   0.631 TIME LEFT:  2.00D  GRAD.:    22.093 HEAT:  22.54423
 CYCLE:   200 TIME:   0.588 TIME LEFT:  2.00D  GRAD.:     7.574 HEAT:  22.53224
 CYCLE:   201 TIME:   0.523 TIME LEFT:  2.00D  GRAD.:    10.198 HEAT:  22.52945
 CYCLE:   202 TIME:   0.453 TIME LEFT:  2.00D  GRAD.:     6.994 HEAT:  22.52562
 CYCLE:   203 TIME:   0.602 TIME LEFT:  2.00D  GRAD.:     8.262 HEAT:  22.52091
 CYCLE:   204 TIME:   0.725 TIME LEFT:  2.00D  GRAD.:    13.072 HEAT:  22.51293
 CYCLE:   205 TIME:   0.523 TIME LEFT:  2.00D  GRAD.:    34.055 HEAT:  22.51268
 CYCLE:   206 TIME:   0.557 TIME LEFT:  2.00D  GRAD.:     8.980 HEAT:  22.50695
 CYCLE:   207 TIME:   0.576 TIME LEFT:  2.00D  GRAD.:     5.305 HEAT:  22.50563
 CYCLE:   208 TIME:   0.596 TIME LEFT:  2.00D  GRAD.:     6.676 HEAT:  22.50395
 CYCLE:   209 TIME:   0.422 TIME LEFT:  2.00D  GRAD.:    10.620 HEAT:  22.50028
 CYCLE:   210 TIME:   0.414 TIME LEFT:  2.00D  GRAD.:    21.553 HEAT:  22.50384
 CYCLE:   211 TIME:   0.477 TIME LEFT:  2.00D  GRAD.:     6.057 HEAT:  22.49670
 CYCLE:   212 TIME:   0.541 TIME LEFT:  2.00D  GRAD.:     5.209 HEAT:  22.49506
 CYCLE:   213 TIME:   0.451 TIME LEFT:  2.00D  GRAD.:     3.854 HEAT:  22.48696
 CYCLE:   214 TIME:   0.510 TIME LEFT:  2.00D  GRAD.:    15.997 HEAT:  22.48450
 CYCLE:   215 TIME:   0.521 TIME LEFT:  2.00D  GRAD.:    13.872 HEAT:  22.48107
 CYCLE:   216 TIME:   0.484 TIME LEFT:  2.00D  GRAD.:     5.837 HEAT:  22.47839
 CYCLE:   217 TIME:   0.445 TIME LEFT:  2.00D  GRAD.:     3.983 HEAT:  22.47682
 CYCLE:   218 TIME:   0.631 TIME LEFT:  2.00D  GRAD.:     6.206 HEAT:  22.47395
 CYCLE:   219 TIME:   0.539 TIME LEFT:  2.00D  GRAD.:    11.029 HEAT:  22.47007
 CYCLE:   220 TIME:   0.553 TIME LEFT:  2.00D  GRAD.:    31.702 HEAT:  22.46997
 CYCLE:   221 TIME:   0.484 TIME LEFT:  2.00D  GRAD.:     8.456 HEAT:  22.46452
 CYCLE:   222 TIME:   0.504 TIME LEFT:  2.00D  GRAD.:     5.292 HEAT:  22.46313
 CYCLE:   223 TIME:   0.602 TIME LEFT:  2.00D  GRAD.:     7.107 HEAT:  22.46154
 CYCLE:   224 TIME:   0.477 TIME LEFT:  2.00D  GRAD.:     7.995 HEAT:  22.45817
 CYCLE:   225 TIME:   0.518 TIME LEFT:  2.00D  GRAD.:    26.055 HEAT:  22.45927
 CYCLE:   226 TIME:   0.516 TIME LEFT:  2.00D  GRAD.:    16.100 HEAT:  22.45695
 CYCLE:   227 TIME:   0.615 TIME LEFT:  2.00D  GRAD.:     4.203 HEAT:  22.45125
 CYCLE:   228 TIME:   0.463 TIME LEFT:  2.00D  GRAD.:     4.792 HEAT:  22.44977
 CYCLE:   229 TIME:   0.580 TIME LEFT:  2.00D  GRAD.:     9.571 HEAT:  22.44770
 CYCLE:   230 TIME:   0.480 TIME LEFT:  2.00D  GRAD.:    19.555 HEAT:  22.44724
 CYCLE:   231 TIME:   0.492 TIME LEFT:  2.00D  GRAD.:     7.621 HEAT:  22.44345
 CYCLE:   232 TIME:   0.451 TIME LEFT:  2.00D  GRAD.:     4.504 HEAT:  22.44133
 CYCLE:   233 TIME:   0.449 TIME LEFT:  2.00D  GRAD.:     8.433 HEAT:  22.43795
 CYCLE:   234 TIME:   0.439 TIME LEFT:  2.00D  GRAD.:     7.368 HEAT:  22.43382
 CYCLE:   235 TIME:   0.430 TIME LEFT:  2.00D  GRAD.:    54.833 HEAT:  22.44414
 CYCLE:   236 TIME:   0.482 TIME LEFT:  2.00D  GRAD.:     6.598 HEAT:  22.43126
 CYCLE:   237 TIME:   0.408 TIME LEFT:  2.00D  GRAD.:     5.297 HEAT:  22.43070
 CYCLE:   238 TIME:   0.408 TIME LEFT:  2.00D  GRAD.:     7.694 HEAT:  22.42854
 CYCLE:   239 TIME:   0.418 TIME LEFT:  2.00D  GRAD.:     7.812 HEAT:  22.42683
 CYCLE:   240 TIME:   0.449 TIME LEFT:  2.00D  GRAD.:    11.396 HEAT:  22.42202
 CYCLE:   241 TIME:   0.467 TIME LEFT:  2.00D  GRAD.:    23.154 HEAT:  22.42349
 CYCLE:   242 TIME:   0.406 TIME LEFT:  2.00D  GRAD.:     4.732 HEAT:  22.41594
 CYCLE:   243 TIME:   0.428 TIME LEFT:  2.00D  GRAD.:     4.604 HEAT:  22.41448
 CYCLE:   244 TIME:   0.451 TIME LEFT:  2.00D  GRAD.:    15.791 HEAT:  22.41182
 CYCLE:   245 TIME:   0.449 TIME LEFT:  2.00D  GRAD.:     9.551 HEAT:  22.40803
 CYCLE:   246 TIME:   0.475 TIME LEFT:  2.00D  GRAD.:     6.840 HEAT:  22.40300
 CYCLE:   247 TIME:   0.539 TIME LEFT:  2.00D  GRAD.:     9.346 HEAT:  22.39912
 CYCLE:   248 TIME:   0.545 TIME LEFT:  2.00D  GRAD.:     8.698 HEAT:  22.39495
 CYCLE:   249 TIME:   0.557 TIME LEFT:  2.00D  GRAD.:    15.103 HEAT:  22.38803
 CYCLE:   250 TIME:   0.424 TIME LEFT:  2.00D  GRAD.:    21.778 HEAT:  22.38294
 CYCLE:   251 TIME:   0.426 TIME LEFT:  2.00D  GRAD.:     5.500 HEAT:  22.38018
 CYCLE:   252 TIME:   0.424 TIME LEFT:  2.00D  GRAD.:     5.682 HEAT:  22.37962
 CYCLE:   253 TIME:   0.467 TIME LEFT:  2.00D  GRAD.:    15.807 HEAT:  22.37926
 CYCLE:   254 TIME:   0.436 TIME LEFT:  2.00D  GRAD.:     8.758 HEAT:  22.37680
 CYCLE:   255 TIME:   0.428 TIME LEFT:  2.00D  GRAD.:     3.756 HEAT:  22.37292
 CYCLE:   256 TIME:   0.445 TIME LEFT:  2.00D  GRAD.:     5.435 HEAT:  22.36879
 CYCLE:   257 TIME:   0.432 TIME LEFT:  2.00D  GRAD.:     8.749 HEAT:  22.36545
 CYCLE:   258 TIME:   0.439 TIME LEFT:  2.00D  GRAD.:    14.457 HEAT:  22.36499
 CYCLE:   259 TIME:   0.531 TIME LEFT:  2.00D  GRAD.:     5.410 HEAT:  22.36163
 CYCLE:   260 TIME:   0.410 TIME LEFT:  2.00D  GRAD.:     4.488 HEAT:  22.36017
 CYCLE:   261 TIME:   0.609 TIME LEFT:  2.00D  GRAD.:     7.764 HEAT:  22.35764
 CYCLE:   262 TIME:   0.490 TIME LEFT:  2.00D  GRAD.:    11.568 HEAT:  22.35485
 CYCLE:   263 TIME:   0.557 TIME LEFT:  2.00D  GRAD.:     6.324 HEAT:  22.35145
 CYCLE:   264 TIME:   0.502 TIME LEFT:  2.00D  GRAD.:     6.283 HEAT:  22.34914
 CYCLE:   265 TIME:   0.434 TIME LEFT:  2.00D  GRAD.:    31.286 HEAT:  22.35026
 CYCLE:   266 TIME:   0.480 TIME LEFT:  2.00D  GRAD.:     7.898 HEAT:  22.34646
 CYCLE:   267 TIME:   0.447 TIME LEFT:  2.00D  GRAD.:     4.680 HEAT:  22.34522
 CYCLE:   268 TIME:   0.434 TIME LEFT:  2.00D  GRAD.:     9.019 HEAT:  22.34254
 CYCLE:   269 TIME:   0.447 TIME LEFT:  2.00D  GRAD.:     6.765 HEAT:  22.34062
 CYCLE:   270 TIME:   0.652 TIME LEFT:  2.00D  GRAD.:     8.189 HEAT:  22.33764
 CYCLE:   271 TIME:   0.424 TIME LEFT:  2.00D  GRAD.:     8.312 HEAT:  22.33550
 CYCLE:   272 TIME:   0.500 TIME LEFT:  2.00D  GRAD.:    13.736 HEAT:  22.32803
 CYCLE:   273 TIME:   0.436 TIME LEFT:  2.00D  GRAD.:     7.327 HEAT:  22.32313
 CYCLE:   274 TIME:   0.424 TIME LEFT:  2.00D  GRAD.:     5.973 HEAT:  22.32091
 CYCLE:   275 TIME:   0.439 TIME LEFT:  2.00D  GRAD.:    23.382 HEAT:  22.31945
 CYCLE:   276 TIME:   0.453 TIME LEFT:  2.00D  GRAD.:    12.659 HEAT:  22.31776
 CYCLE:   277 TIME:   0.531 TIME LEFT:  2.00D  GRAD.:     5.456 HEAT:  22.31641
 CYCLE:   278 TIME:   0.484 TIME LEFT:  2.00D  GRAD.:     4.548 HEAT:  22.31533
 CYCLE:   279 TIME:   0.682 TIME LEFT:  2.00D  GRAD.:     9.140 HEAT:  22.31435
 CYCLE:   280 TIME:   0.451 TIME LEFT:  2.00D  GRAD.:     9.132 HEAT:  22.31333
 CYCLE:   281 TIME:   0.531 TIME LEFT:  2.00D  GRAD.:     9.517 HEAT:  22.31127
 CYCLE:   282 TIME:   0.664 TIME LEFT:  2.00D  GRAD.:    32.789 HEAT:  22.31829
 CYCLE:   283 TIME:   0.502 TIME LEFT:  2.00D  GRAD.:     6.479 HEAT:  22.30766
 CYCLE:   284 TIME:   0.443 TIME LEFT:  2.00D  GRAD.:     4.406 HEAT:  22.30575
 CYCLE:   285 TIME:   0.426 TIME LEFT:  2.00D  GRAD.:     5.382 HEAT:  22.30369
 CYCLE:   286 TIME:   0.463 TIME LEFT:  2.00D  GRAD.:     5.905 HEAT:  22.30086
 CYCLE:   287 TIME:   0.434 TIME LEFT:  2.00D  GRAD.:    14.301 HEAT:  22.29849
 CYCLE:   288 TIME:   0.543 TIME LEFT:  2.00D  GRAD.:    16.625 HEAT:  22.29634
 CYCLE:   289 TIME:   0.609 TIME LEFT:  2.00D  GRAD.:    15.516 HEAT:  22.29511
 CYCLE:   290 TIME:   0.625 TIME LEFT:  2.00D  GRAD.:    15.016 HEAT:  22.29214
 CYCLE:   291 TIME:   0.639 TIME LEFT:  2.00D  GRAD.:   285.797 HEAT:  22.87547
 CYCLE:   292 TIME:   0.490 TIME LEFT:  2.00D  GRAD.:     9.879 HEAT:  22.28819
 CYCLE:   293 TIME:   0.650 TIME LEFT:  2.00D  GRAD.:     6.738 HEAT:  22.28661
 CYCLE:   294 TIME:   0.484 TIME LEFT:  2.00D  GRAD.:     8.496 HEAT:  22.28463
 CYCLE:   295 TIME:   0.447 TIME LEFT:  2.00D  GRAD.:     7.990 HEAT:  22.27885
 CYCLE:   296 TIME:   0.455 TIME LEFT:  2.00D  GRAD.:    21.135 HEAT:  22.28061
 CYCLE:   297 TIME:   0.432 TIME LEFT:  2.00D  GRAD.:     4.710 HEAT:  22.27405
 CYCLE:   298 TIME:   0.436 TIME LEFT:  2.00D  GRAD.:     5.415 HEAT:  22.27271
 CYCLE:   299 TIME:   0.447 TIME LEFT:  2.00D  GRAD.:     5.415 HEAT:  22.26911
 CYCLE:   300 TIME:   0.439 TIME LEFT:  2.00D  GRAD.:    13.673 HEAT:  22.26362
 CYCLE:   301 TIME:   0.531 TIME LEFT:  2.00D  GRAD.:     5.643 HEAT:  22.25751
 CYCLE:   302 TIME:   0.609 TIME LEFT:  2.00D  GRAD.:     6.412 HEAT:  22.25335
 CYCLE:   303 TIME:   0.553 TIME LEFT:  2.00D  GRAD.:    17.586 HEAT:  22.24936
 CYCLE:   304 TIME:   0.348 TIME LEFT:  2.00D  GRAD.:     8.121 HEAT:  22.24531
 CYCLE:   305 TIME:   0.326 TIME LEFT:  2.00D  GRAD.:     6.403 HEAT:  22.24316
 CYCLE:   306 TIME:   0.328 TIME LEFT:  2.00D  GRAD.:    13.302 HEAT:  22.24136
 CYCLE:   307 TIME:   0.352 TIME LEFT:  2.00D  GRAD.:     8.081 HEAT:  22.23942
 CYCLE:   308 TIME:   0.389 TIME LEFT:  2.00D  GRAD.:     7.763 HEAT:  22.23697
 CYCLE:   309 TIME:   0.340 TIME LEFT:  2.00D  GRAD.:    10.785 HEAT:  22.23365
 CYCLE:   310 TIME:   0.348 TIME LEFT:  2.00D  GRAD.:    11.966 HEAT:  22.22927
 CYCLE:   311 TIME:   0.361 TIME LEFT:  2.00D  GRAD.:    58.423 HEAT:  22.25444
 CYCLE:   312 TIME:   0.348 TIME LEFT:  2.00D  GRAD.:    10.485 HEAT:  22.22341
 CYCLE:   313 TIME:   0.350 TIME LEFT:  2.00D  GRAD.:     6.575 HEAT:  22.22143
 CYCLE:   314 TIME:   0.316 TIME LEFT:  2.00D  GRAD.:     7.502 HEAT:  22.21725
 CYCLE:   315 TIME:   0.303 TIME LEFT:  2.00D  GRAD.:     7.094 HEAT:  22.21475
 CYCLE:   316 TIME:   0.346 TIME LEFT:  2.00D  GRAD.:    12.612 HEAT:  22.20890
 CYCLE:   317 TIME:   0.330 TIME LEFT:  2.00D  GRAD.:     8.910 HEAT:  22.20315
 CYCLE:   318 TIME:   0.354 TIME LEFT:  2.00D  GRAD.:    18.187 HEAT:  22.20121
 CYCLE:   319 TIME:   0.387 TIME LEFT:  2.00D  GRAD.:     9.427 HEAT:  22.19817
 CYCLE:   320 TIME:   0.361 TIME LEFT:  2.00D  GRAD.:     7.147 HEAT:  22.19759
 CYCLE:   321 TIME:   0.330 TIME LEFT:  2.00D  GRAD.:    12.937 HEAT:  22.19575
 CYCLE:   322 TIME:   0.314 TIME LEFT:  2.00D  GRAD.:     9.638 HEAT:  22.19273
 CYCLE:   323 TIME:   0.348 TIME LEFT:  2.00D  GRAD.:     5.462 HEAT:  22.18804
 CYCLE:   324 TIME:   0.338 TIME LEFT:  2.00D  GRAD.:     6.993 HEAT:  22.18430
 CYCLE:   325 TIME:   0.326 TIME LEFT:  2.00D  GRAD.:    12.969 HEAT:  22.18080
 CYCLE:   326 TIME:   0.336 TIME LEFT:  2.00D  GRAD.:     7.526 HEAT:  22.17619
 CYCLE:   327 TIME:   0.330 TIME LEFT:  2.00D  GRAD.:    11.788 HEAT:  22.17138
 CYCLE:   328 TIME:   0.379 TIME LEFT:  2.00D  GRAD.:     9.734 HEAT:  22.16744
 CYCLE:   329 TIME:   0.361 TIME LEFT:  2.00D  GRAD.:     7.762 HEAT:  22.16243
 CYCLE:   330 TIME:   0.318 TIME LEFT:  2.00D  GRAD.:    12.833 HEAT:  22.15535
 CYCLE:   331 TIME:   0.312 TIME LEFT:  2.00D  GRAD.:     9.780 HEAT:  22.15240
 CYCLE:   332 TIME:   0.320 TIME LEFT:  2.00D  GRAD.:    10.507 HEAT:  22.14853
 CYCLE:   333 TIME:   0.336 TIME LEFT:  2.00D  GRAD.:    50.885 HEAT:  22.16042
 CYCLE:   334 TIME:   0.332 TIME LEFT:  2.00D  GRAD.:    39.381 HEAT:  22.15545
 CYCLE:   335 TIME:   0.316 TIME LEFT:  2.00D  GRAD.:    16.773 HEAT:  22.14409
 CYCLE:   336 TIME:   0.340 TIME LEFT:  2.00D  GRAD.:     5.520 HEAT:  22.14142
 CYCLE:   337 TIME:   0.334 TIME LEFT:  2.00D  GRAD.:     5.267 HEAT:  22.13967
 CYCLE:   338 TIME:   0.334 TIME LEFT:  2.00D  GRAD.:     5.911 HEAT:  22.13557
 CYCLE:   339 TIME:   0.322 TIME LEFT:  2.00D  GRAD.:    18.454 HEAT:  22.13191
 CYCLE:   340 TIME:   0.309 TIME LEFT:  2.00D  GRAD.:     6.275 HEAT:  22.12887
 CYCLE:   341 TIME:   0.309 TIME LEFT:  2.00D  GRAD.:     6.792 HEAT:  22.12716
 CYCLE:   342 TIME:   0.305 TIME LEFT:  2.00D  GRAD.:     5.816 HEAT:  22.12416
 CYCLE:   343 TIME:   0.328 TIME LEFT:  2.00D  GRAD.:     8.562 HEAT:  22.12116
 CYCLE:   344 TIME:   0.322 TIME LEFT:  2.00D  GRAD.:     7.721 HEAT:  22.11810
 CYCLE:   345 TIME:   0.303 TIME LEFT:  2.00D  GRAD.:     5.822 HEAT:  22.11535
 CYCLE:   346 TIME:   0.311 TIME LEFT:  2.00D  GRAD.:     9.138 HEAT:  22.11001
 CYCLE:   347 TIME:   0.359 TIME LEFT:  2.00D  GRAD.:     6.132 HEAT:  22.10676
 CYCLE:   348 TIME:   0.352 TIME LEFT:  2.00D  GRAD.:     5.625 HEAT:  22.10420
 CYCLE:   349 TIME:   0.404 TIME LEFT:  2.00D  GRAD.:     6.782 HEAT:  22.10185
 CYCLE:   350 TIME:   0.354 TIME LEFT:  2.00D  GRAD.:     5.569 HEAT:  22.09982
 CYCLE:   351 TIME:   0.357 TIME LEFT:  2.00D  GRAD.:     5.143 HEAT:  22.09800
 CYCLE:   352 TIME:   0.406 TIME LEFT:  2.00D  GRAD.:     7.065 HEAT:  22.09508
 CYCLE:   353 TIME:   0.371 TIME LEFT:  2.00D  GRAD.:     7.540 HEAT:  22.09135
 CYCLE:   354 TIME:   0.316 TIME LEFT:  2.00D  GRAD.:    34.018 HEAT:  22.09290
 CYCLE:   355 TIME:   0.312 TIME LEFT:  2.00D  GRAD.:     7.362 HEAT:  22.08896
 CYCLE:   356 TIME:   0.326 TIME LEFT:  2.00D  GRAD.:     4.617 HEAT:  22.08804
 CYCLE:   357 TIME:   0.316 TIME LEFT:  2.00D  GRAD.:     4.659 HEAT:  22.08679
 CYCLE:   358 TIME:   0.307 TIME LEFT:  2.00D  GRAD.:     6.000 HEAT:  22.08472
 CYCLE:   359 TIME:   0.318 TIME LEFT:  2.00D  GRAD.:     5.588 HEAT:  22.08008
 CYCLE:   360 TIME:   0.346 TIME LEFT:  2.00D  GRAD.:    13.499 HEAT:  22.07819
 CYCLE:   361 TIME:   0.311 TIME LEFT:  2.00D  GRAD.:     4.487 HEAT:  22.07521
 CYCLE:   362 TIME:   0.332 TIME LEFT:  2.00D  GRAD.:     5.052 HEAT:  22.07381
 CYCLE:   363 TIME:   0.303 TIME LEFT:  2.00D  GRAD.:     6.583 HEAT:  22.07154
 CYCLE:   364 TIME:   0.340 TIME LEFT:  2.00D  GRAD.:    13.161 HEAT:  22.06947
 CYCLE:   365 TIME:   0.334 TIME LEFT:  2.00D  GRAD.:     6.625 HEAT:  22.06714
 CYCLE:   366 TIME:   0.311 TIME LEFT:  2.00D  GRAD.:     3.884 HEAT:  22.06603
 CYCLE:   367 TIME:   0.439 TIME LEFT:  2.00D  GRAD.:     7.190 HEAT:  22.06497
 CYCLE:   368 TIME:   0.398 TIME LEFT:  2.00D  GRAD.:     6.510 HEAT:  22.06329
 CYCLE:   369 TIME:   0.389 TIME LEFT:  2.00D  GRAD.:    38.362 HEAT:  22.06711
 CYCLE:   370 TIME:   0.348 TIME LEFT:  2.00D  GRAD.:     3.438 HEAT:  22.06027
 CYCLE:   371 TIME:   0.344 TIME LEFT:  2.00D  GRAD.:     3.499 HEAT:  22.05991
 CYCLE:   372 TIME:   0.340 TIME LEFT:  2.00D  GRAD.:     4.183 HEAT:  22.05795
 CYCLE:   373 TIME:   0.408 TIME LEFT:  2.00D  GRAD.:     4.142 HEAT:  22.05526
 CYCLE:   374 TIME:   0.379 TIME LEFT:  2.00D  GRAD.:     3.680 HEAT:  22.05304
 CYCLE:   375 TIME:   0.424 TIME LEFT:  2.00D  GRAD.:    11.099 HEAT:  22.05191
 CYCLE:   376 TIME:   0.354 TIME LEFT:  2.00D  GRAD.:     5.164 HEAT:  22.04981
 CYCLE:   377 TIME:   0.369 TIME LEFT:  2.00D  GRAD.:     4.513 HEAT:  22.04803
 CYCLE:   378 TIME:   0.430 TIME LEFT:  2.00D  GRAD.:     5.151 HEAT:  22.04589
 CYCLE:   379 TIME:   0.404 TIME LEFT:  2.00D  GRAD.:     7.347 HEAT:  22.04285
 CYCLE:   380 TIME:   0.389 TIME LEFT:  2.00D  GRAD.:    14.262 HEAT:  22.04201
 CYCLE:   381 TIME:   0.391 TIME LEFT:  2.00D  GRAD.:    28.931 HEAT:  22.04401
 CYCLE:   382 TIME:   0.373 TIME LEFT:  2.00D  GRAD.:    12.857 HEAT:  22.03961
 CYCLE:   383 TIME:   0.361 TIME LEFT:  2.00D  GRAD.:    19.051 HEAT:  22.03889
 CYCLE:   384 TIME:   0.350 TIME LEFT:  2.00D  GRAD.:     4.276 HEAT:  22.03734
 CYCLE:   385 TIME:   0.336 TIME LEFT:  2.00D  GRAD.:     3.606 HEAT:  22.03695
 CYCLE:   386 TIME:   0.332 TIME LEFT:  2.00D  GRAD.:     6.958 HEAT:  22.03621
 CYCLE:   387 TIME:   0.326 TIME LEFT:  2.00D  GRAD.:     9.728 HEAT:  22.03517
 CYCLE:   388 TIME:   0.336 TIME LEFT:  2.00D  GRAD.:    10.461 HEAT:  22.03484
 CYCLE:   389 TIME:   0.322 TIME LEFT:  2.00D  GRAD.:     3.531 HEAT:  22.03354
 CYCLE:   390 TIME:   0.309 TIME LEFT:  2.00D  GRAD.:     2.886 HEAT:  22.03317
 CYCLE:   391 TIME:   0.357 TIME LEFT:  2.00D  GRAD.:     8.790 HEAT:  22.03297
 CYCLE:   392 TIME:   0.336 TIME LEFT:  2.00D  GRAD.:     3.287 HEAT:  22.03145
 CYCLE:   393 TIME:   0.328 TIME LEFT:  2.00D  GRAD.:     2.047 HEAT:  22.03063
 CYCLE:   394 TIME:   0.352 TIME LEFT:  2.00D  GRAD.:     4.651 HEAT:  22.02947
 CYCLE:   395 TIME:   0.338 TIME LEFT:  2.00D  GRAD.:     5.708 HEAT:  22.02879
 CYCLE:   396 TIME:   0.381 TIME LEFT:  2.00D  GRAD.:     3.508 HEAT:  22.02803
 CYCLE:   397 TIME:   0.324 TIME LEFT:  2.00D  GRAD.:     4.046 HEAT:  22.02623
 CYCLE:   398 TIME:   0.875 TIME LEFT:  2.00D  GRAD.:     4.189 HEAT:  22.02528
 CYCLE:   399 TIME:   2.170 TIME LEFT:  2.00D  GRAD.:    61.971 HEAT:  22.03815
 CYCLE:   400 TIME:   0.311 TIME LEFT:  2.00D  GRAD.:     3.773 HEAT:  22.02373
 CYCLE:   401 TIME:   0.326 TIME LEFT:  2.00D  GRAD.:     4.177 HEAT:  22.02341
 CYCLE:   402 TIME:   0.373 TIME LEFT:  2.00D  GRAD.:     2.697 HEAT:  22.02244
 CYCLE:   403 TIME:   0.342 TIME LEFT:  2.00D  GRAD.:     3.489 HEAT:  22.02167
 CYCLE:   404 TIME:   0.307 TIME LEFT:  2.00D  GRAD.:     7.925 HEAT:  22.02099
 CYCLE:   405 TIME:   0.340 TIME LEFT:  2.00D  GRAD.:     3.926 HEAT:  22.01962
 CYCLE:   406 TIME:   0.328 TIME LEFT:  2.00D  GRAD.:     3.051 HEAT:  22.01883
 CYCLE:   407 TIME:   0.387 TIME LEFT:  2.00D  GRAD.:     2.244 HEAT:  22.01793
 CYCLE:   408 TIME:   0.398 TIME LEFT:  2.00D  GRAD.:     4.870 HEAT:  22.01621
 CYCLE:   409 TIME:   0.342 TIME LEFT:  2.00D  GRAD.:    12.579 HEAT:  22.01689
 CYCLE:   410 TIME:   0.348 TIME LEFT:  2.00D  GRAD.:     2.578 HEAT:  22.01472
 CYCLE:   411 TIME:   0.328 TIME LEFT:  2.00D  GRAD.:     2.169 HEAT:  22.01438
 CYCLE:   412 TIME:   0.344 TIME LEFT:  2.00D  GRAD.:     3.212 HEAT:  22.01352
 CYCLE:   413 TIME:   0.322 TIME LEFT:  2.00D  GRAD.:    28.978 HEAT:  22.01561
 CYCLE:   414 TIME:   0.342 TIME LEFT:  2.00D  GRAD.:     4.054 HEAT:  22.01256
 CYCLE:   415 TIME:   0.391 TIME LEFT:  2.00D  GRAD.:     2.996 HEAT:  22.01217
 CYCLE:   416 TIME:   0.367 TIME LEFT:  2.00D  GRAD.:     4.266 HEAT:  22.01116
 CYCLE:   417 TIME:   0.320 TIME LEFT:  2.00D  GRAD.:     3.670 HEAT:  22.01021
 CYCLE:   418 TIME:   0.342 TIME LEFT:  2.00D  GRAD.:     9.453 HEAT:  22.00961
 CYCLE:   419 TIME:   0.326 TIME LEFT:  2.00D  GRAD.:     4.002 HEAT:  22.00858
 CYCLE:   420 TIME:   0.322 TIME LEFT:  2.00D  GRAD.:     2.717 HEAT:  22.00802
 CYCLE:   421 TIME:   0.322 TIME LEFT:  2.00D  GRAD.:     2.053 HEAT:  22.00709
 CYCLE:   422 TIME:   0.354 TIME LEFT:  2.00D  GRAD.:     3.630 HEAT:  22.00526
 CYCLE:   423 TIME:   0.334 TIME LEFT:  2.00D  GRAD.:    11.874 HEAT:  22.00600
 CYCLE:   424 TIME:   0.387 TIME LEFT:  2.00D  GRAD.:     2.715 HEAT:  22.00402
 CYCLE:   425 TIME:   0.393 TIME LEFT:  2.00D  GRAD.:     2.495 HEAT:  22.00367
 CYCLE:   426 TIME:   0.393 TIME LEFT:  2.00D  GRAD.:     3.027 HEAT:  22.00282
 CYCLE:   427 TIME:   0.350 TIME LEFT:  2.00D  GRAD.:    26.404 HEAT:  22.00380
 CYCLE:   428 TIME:   0.355 TIME LEFT:  2.00D  GRAD.:     3.611 HEAT:  22.00154
 CYCLE:   429 TIME:   0.363 TIME LEFT:  2.00D  GRAD.:     2.770 HEAT:  22.00137
 CYCLE:   430 TIME:   0.318 TIME LEFT:  2.00D  GRAD.:     2.775 HEAT:  22.00100
 CYCLE:   431 TIME:   0.328 TIME LEFT:  2.00D  GRAD.:     2.591 HEAT:  22.00063
 CYCLE:   432 TIME:   0.352 TIME LEFT:  2.00D  GRAD.:     6.121 HEAT:  22.00027
 CYCLE:   433 TIME:   0.330 TIME LEFT:  2.00D  GRAD.:     3.670 HEAT:  21.99931
 CYCLE:   434 TIME:   0.311 TIME LEFT:  2.00D  GRAD.:     2.773 HEAT:  21.99867
 CYCLE:   435 TIME:   0.334 TIME LEFT:  2.00D  GRAD.:     2.566 HEAT:  21.99765
 CYCLE:   436 TIME:   0.316 TIME LEFT:  2.00D  GRAD.:     3.254 HEAT:  21.99693
 CYCLE:   437 TIME:   0.318 TIME LEFT:  2.00D  GRAD.:     5.457 HEAT:  21.99607
 CYCLE:   438 TIME:   0.312 TIME LEFT:  2.00D  GRAD.:     3.319 HEAT:  21.99525
 CYCLE:   439 TIME:   0.303 TIME LEFT:  2.00D  GRAD.:     2.573 HEAT:  21.99477
 CYCLE:   440 TIME:   0.305 TIME LEFT:  2.00D  GRAD.:     1.756 HEAT:  21.99404
 CYCLE:   441 TIME:   0.307 TIME LEFT:  2.00D  GRAD.:    28.578 HEAT:  21.99621
 CYCLE:   442 TIME:   0.301 TIME LEFT:  2.00D  GRAD.:     2.954 HEAT:  21.99348
 CYCLE:   443 TIME:   0.340 TIME LEFT:  2.00D  GRAD.:     2.100 HEAT:  21.99335
 CYCLE:   444 TIME:   0.305 TIME LEFT:  2.00D  GRAD.:     2.496 HEAT:  21.99309
 CYCLE:   445 TIME:   0.316 TIME LEFT:  2.00D  GRAD.:     1.887 HEAT:  21.99287
 CYCLE:   446 TIME:   0.381 TIME LEFT:  2.00D  GRAD.:     2.607 HEAT:  21.99247
 CYCLE:   447 TIME:   0.375 TIME LEFT:  2.00D  GRAD.:     2.782 HEAT:  21.99207
 CYCLE:   448 TIME:   0.318 TIME LEFT:  2.00D  GRAD.:     2.891 HEAT:  21.99147
 CYCLE:   449 TIME:   0.320 TIME LEFT:  2.00D  GRAD.:     2.473 HEAT:  21.99061
 CYCLE:   450 TIME:   0.338 TIME LEFT:  2.00D  GRAD.:     3.925 HEAT:  21.98968
 CYCLE:   451 TIME:   0.328 TIME LEFT:  2.00D  GRAD.:     2.171 HEAT:  21.98896
 CYCLE:   452 TIME:   0.428 TIME LEFT:  2.00D  GRAD.:     2.202 HEAT:  21.98851
 CYCLE:   453 TIME:   0.449 TIME LEFT:  2.00D  GRAD.:     2.136 HEAT:  21.98775
 CYCLE:   454 TIME:   0.447 TIME LEFT:  2.00D  GRAD.:     7.001 HEAT:  21.98722
 CYCLE:   455 TIME:   0.418 TIME LEFT:  2.00D  GRAD.:     4.863 HEAT:  21.98640
 CYCLE:   456 TIME:   0.354 TIME LEFT:  2.00D  GRAD.:     3.290 HEAT:  21.98619
 CYCLE:   457 TIME:   0.369 TIME LEFT:  2.00D  GRAD.:     4.101 HEAT:  21.98605
 CYCLE:   458 TIME:   0.355 TIME LEFT:  2.00D  GRAD.:     7.352 HEAT:  21.98568
 CYCLE:   459 TIME:   0.338 TIME LEFT:  2.00D  GRAD.:     3.316 HEAT:  21.98490
 CYCLE:   460 TIME:   0.373 TIME LEFT:  2.00D  GRAD.:     4.961 HEAT:  21.98436
 CYCLE:   461 TIME:   0.352 TIME LEFT:  2.00D  GRAD.:     8.476 HEAT:  21.98438
 CYCLE:   462 TIME:   0.340 TIME LEFT:  2.00D  GRAD.:     2.978 HEAT:  21.98345
 CYCLE:   463 TIME:   0.334 TIME LEFT:  2.00D  GRAD.:     3.315 HEAT:  21.98302
 CYCLE:   464 TIME:   0.410 TIME LEFT:  2.00D  GRAD.:     4.286 HEAT:  21.98215
 CYCLE:   465 TIME:   0.379 TIME LEFT:  2.00D  GRAD.:     4.526 HEAT:  21.98141
 CYCLE:   466 TIME:   0.402 TIME LEFT:  2.00D  GRAD.:     6.702 HEAT:  21.97985
 CYCLE:   467 TIME:   0.389 TIME LEFT:  2.00D  GRAD.:     7.304 HEAT:  21.97845
 CYCLE:   468 TIME:   0.396 TIME LEFT:  2.00D  GRAD.:     9.262 HEAT:  21.97864
 CYCLE:   469 TIME:   0.402 TIME LEFT:  2.00D  GRAD.:    54.279 HEAT:  21.98983
 CYCLE:   470 TIME:   0.391 TIME LEFT:  2.00D  GRAD.:     3.242 HEAT:  21.97592
 CYCLE:   471 TIME:   0.344 TIME LEFT:  2.00D  GRAD.:     3.507 HEAT:  21.97565
 CYCLE:   472 TIME:   0.383 TIME LEFT:  2.00D  GRAD.:    17.760 HEAT:  21.97696
 CYCLE:   473 TIME:   0.400 TIME LEFT:  2.00D  GRAD.:    10.570 HEAT:  21.97604
 CYCLE:   474 TIME:   0.340 TIME LEFT:  2.00D  GRAD.:     7.030 HEAT:  21.97507
 CYCLE:   475 TIME:   0.359 TIME LEFT:  2.00D  GRAD.:    10.882 HEAT:  21.97523
 CYCLE:   476 TIME:   0.354 TIME LEFT:  2.00D  GRAD.:     8.707 HEAT:  21.97531
 CYCLE:   477 TIME:   0.383 TIME LEFT:  2.00D  GRAD.:     2.978 HEAT:  21.97383
 CYCLE:   478 TIME:   0.404 TIME LEFT:  2.00D  GRAD.:     3.497 HEAT:  21.97337
 CYCLE:   479 TIME:   0.412 TIME LEFT:  2.00D  GRAD.:     1.958 HEAT:  21.97274
 CYCLE:   480 TIME:   0.367 TIME LEFT:  2.00D  GRAD.:     2.479 HEAT:  21.97177
 CYCLE:   481 TIME:   0.342 TIME LEFT:  2.00D  GRAD.:     3.640 HEAT:  21.97078
 CYCLE:   482 TIME:   0.396 TIME LEFT:  2.00D  GRAD.:     3.026 HEAT:  21.96943
 CYCLE:   483 TIME:   0.400 TIME LEFT:  2.00D  GRAD.:    13.962 HEAT:  21.96944
 CYCLE:   484 TIME:   0.400 TIME LEFT:  2.00D  GRAD.:     4.145 HEAT:  21.96821
 CYCLE:   485 TIME:   0.406 TIME LEFT:  2.00D  GRAD.:     2.054 HEAT:  21.96786
 CYCLE:   486 TIME:   0.395 TIME LEFT:  2.00D  GRAD.:     2.245 HEAT:  21.96766
 CYCLE:   487 TIME:   0.359 TIME LEFT:  2.00D  GRAD.:     4.761 HEAT:  21.96646
 CYCLE:   488 TIME:   0.365 TIME LEFT:  2.00D  GRAD.:    34.671 HEAT:  21.97231
 CYCLE:   489 TIME:   0.336 TIME LEFT:  2.00D  GRAD.:     5.375 HEAT:  21.96484
 CYCLE:   490 TIME:   3.123 TIME LEFT:  2.00D  GRAD.:     3.227 HEAT:  21.96439
 CYCLE:   491 TIME:   5.062 TIME LEFT:  2.00D  GRAD.:     4.118 HEAT:  21.96346
 CYCLE:   492 TIME:   0.381 TIME LEFT:  2.00D  GRAD.:     4.701 HEAT:  21.96289
 CYCLE:   493 TIME:   0.377 TIME LEFT:  2.00D  GRAD.:     3.245 HEAT:  21.96125
 CYCLE:   494 TIME:   0.369 TIME LEFT:  2.00D  GRAD.:     9.737 HEAT:  21.96085
 CYCLE:   495 TIME:   0.322 TIME LEFT:  2.00D  GRAD.:     2.567 HEAT:  21.95974
 CYCLE:   496 TIME:   0.373 TIME LEFT:  2.00D  GRAD.:     2.560 HEAT:  21.95944
 CYCLE:   497 TIME:   0.381 TIME LEFT:  2.00D  GRAD.:     5.954 HEAT:  21.95875
 CYCLE:   498 TIME:   0.420 TIME LEFT:  2.00D  GRAD.:    11.286 HEAT:  21.95836
 CYCLE:   499 TIME:   0.357 TIME LEFT:  2.00D  GRAD.:     3.201 HEAT:  21.95761
 CYCLE:   500 TIME:   0.361 TIME LEFT:  2.00D  GRAD.:     2.606 HEAT:  21.95735
 CYCLE:   501 TIME:   0.332 TIME LEFT:  2.00D  GRAD.:     5.268 HEAT:  21.95697
 CYCLE:   502 TIME:   0.377 TIME LEFT:  2.00D  GRAD.:     7.587 HEAT:  21.95631
 CYCLE:   503 TIME:   0.367 TIME LEFT:  2.00D  GRAD.:     7.220 HEAT:  21.95549
 CYCLE:   504 TIME:   0.355 TIME LEFT:  2.00D  GRAD.:     6.457 HEAT:  21.95372
 CYCLE:   505 TIME:   0.375 TIME LEFT:  2.00D  GRAD.:     2.997 HEAT:  21.95259
 CYCLE:   506 TIME:   0.414 TIME LEFT:  2.00D  GRAD.:     3.408 HEAT:  21.95209
 CYCLE:   507 TIME:   0.387 TIME LEFT:  2.00D  GRAD.:     4.861 HEAT:  21.95101
 CYCLE:   508 TIME:   0.432 TIME LEFT:  2.00D  GRAD.:     3.555 HEAT:  21.95018
 CYCLE:   509 TIME:   0.410 TIME LEFT:  2.00D  GRAD.:     5.791 HEAT:  21.94955
 CYCLE:   510 TIME:   0.383 TIME LEFT:  2.00D  GRAD.:     2.981 HEAT:  21.94839
 CYCLE:   511 TIME:   0.367 TIME LEFT:  2.00D  GRAD.:     4.217 HEAT:  21.94760
 CYCLE:   512 TIME:   0.398 TIME LEFT:  2.00D  GRAD.:     8.351 HEAT:  21.94720
 CYCLE:   513 TIME:   0.311 TIME LEFT:  2.00D  GRAD.:     3.056 HEAT:  21.94666
 CYCLE:   514 TIME:   0.328 TIME LEFT:  2.00D  GRAD.:     3.702 HEAT:  21.94637
 CYCLE:   515 TIME:   0.318 TIME LEFT:  2.00D  GRAD.:     5.583 HEAT:  21.94559
 CYCLE:   516 TIME:   0.342 TIME LEFT:  2.00D  GRAD.:     4.255 HEAT:  21.94421
 CYCLE:   517 TIME:   0.312 TIME LEFT:  2.00D  GRAD.:     8.260 HEAT:  21.94299
 CYCLE:   518 TIME:   0.316 TIME LEFT:  2.00D  GRAD.:     4.194 HEAT:  21.94105
 CYCLE:   519 TIME:   0.312 TIME LEFT:  2.00D  GRAD.:     4.131 HEAT:  21.93875
 CYCLE:   520 TIME:   0.307 TIME LEFT:  2.00D  GRAD.:     6.566 HEAT:  21.93709
 CYCLE:   521 TIME:   0.344 TIME LEFT:  2.00D  GRAD.:     4.322 HEAT:  21.93562
 CYCLE:   522 TIME:   0.352 TIME LEFT:  2.00D  GRAD.:     3.362 HEAT:  21.93493
 CYCLE:   523 TIME:   0.344 TIME LEFT:  2.00D  GRAD.:     6.369 HEAT:  21.93378
 CYCLE:   524 TIME:   0.320 TIME LEFT:  2.00D  GRAD.:     6.220 HEAT:  21.93271
 CYCLE:   525 TIME:   0.340 TIME LEFT:  2.00D  GRAD.:     3.173 HEAT:  21.93145
 CYCLE:   526 TIME:   0.361 TIME LEFT:  2.00D  GRAD.:     8.900 HEAT:  21.93120
 CYCLE:   527 TIME:   0.348 TIME LEFT:  2.00D  GRAD.:    26.929 HEAT:  21.93205
 CYCLE:   528 TIME:   0.346 TIME LEFT:  2.00D  GRAD.:     5.985 HEAT:  21.92966
 CYCLE:   529 TIME:   0.322 TIME LEFT:  2.00D  GRAD.:     4.688 HEAT:  21.92922
 CYCLE:   530 TIME:   0.354 TIME LEFT:  2.00D  GRAD.:     2.961 HEAT:  21.92806
 CYCLE:   531 TIME:   0.330 TIME LEFT:  2.00D  GRAD.:     4.145 HEAT:  21.92619
 CYCLE:   532 TIME:   0.352 TIME LEFT:  2.00D  GRAD.:     3.995 HEAT:  21.92409
 CYCLE:   533 TIME:   0.332 TIME LEFT:  2.00D  GRAD.:     5.067 HEAT:  21.92178
 CYCLE:   534 TIME:   0.336 TIME LEFT:  2.00D  GRAD.:     3.883 HEAT:  21.91981
 CYCLE:   535 TIME:   0.350 TIME LEFT:  2.00D  GRAD.:     5.944 HEAT:  21.91815
 CYCLE:   536 TIME:   0.355 TIME LEFT:  2.00D  GRAD.:     5.195 HEAT:  21.91667
 CYCLE:   537 TIME:   0.309 TIME LEFT:  2.00D  GRAD.:     4.076 HEAT:  21.91434
 CYCLE:   538 TIME:   0.324 TIME LEFT:  2.00D  GRAD.:     5.497 HEAT:  21.91270
 CYCLE:   539 TIME:   0.334 TIME LEFT:  2.00D  GRAD.:     3.346 HEAT:  21.91070
 CYCLE:   540 TIME:   0.334 TIME LEFT:  2.00D  GRAD.:     3.648 HEAT:  21.90873
 CYCLE:   541 TIME:   0.314 TIME LEFT:  2.00D  GRAD.:     6.420 HEAT:  21.90703
 CYCLE:   542 TIME:   0.326 TIME LEFT:  2.00D  GRAD.:    22.922 HEAT:  21.90743
 CYCLE:   543 TIME:   0.326 TIME LEFT:  2.00D  GRAD.:     4.908 HEAT:  21.90493
 CYCLE:   544 TIME:   0.420 TIME LEFT:  2.00D  GRAD.:     9.023 HEAT:  21.90497
 CYCLE:   545 TIME:   0.414 TIME LEFT:  2.00D  GRAD.:     5.235 HEAT:  21.90338
 CYCLE:   546 TIME:   0.365 TIME LEFT:  2.00D  GRAD.:     5.814 HEAT:  21.90235
 CYCLE:   547 TIME:   0.324 TIME LEFT:  2.00D  GRAD.:     5.442 HEAT:  21.90149
 CYCLE:   548 TIME:   0.398 TIME LEFT:  2.00D  GRAD.:    10.859 HEAT:  21.90315
 CYCLE:   549 TIME:   0.375 TIME LEFT:  2.00D  GRAD.:    12.419 HEAT:  21.90158
 CYCLE:   550 TIME:   0.395 TIME LEFT:  2.00D  GRAD.:     5.239 HEAT:  21.89625
 CYCLE:   551 TIME:   0.314 TIME LEFT:  2.00D  GRAD.:     3.019 HEAT:  21.89469
 CYCLE:   552 TIME:   0.309 TIME LEFT:  2.00D  GRAD.:     4.424 HEAT:  21.89329
 CYCLE:   553 TIME:   0.781 TIME LEFT:  2.00D  GRAD.:     5.918 HEAT:  21.89206
 CYCLE:   554 TIME:   1.844 TIME LEFT:  2.00D  GRAD.:     4.461 HEAT:  21.89133
 CYCLE:   555 TIME:   0.373 TIME LEFT:  2.00D  GRAD.:     4.259 HEAT:  21.88952
 CYCLE:   556 TIME:   0.338 TIME LEFT:  2.00D  GRAD.:    48.010 HEAT:  21.89476
 CYCLE:   557 TIME:   0.320 TIME LEFT:  2.00D  GRAD.:     5.299 HEAT:  21.88800
 CYCLE:   558 TIME:   0.328 TIME LEFT:  2.00D  GRAD.:     7.060 HEAT:  21.88856
 CYCLE:   559 TIME:   0.389 TIME LEFT:  2.00D  GRAD.:     2.738 HEAT:  21.88768
 CYCLE:   560 TIME:   0.377 TIME LEFT:  2.00D  GRAD.:    10.814 HEAT:  21.88789
 CYCLE:   561 TIME:   0.340 TIME LEFT:  2.00D  GRAD.:     3.154 HEAT:  21.88683
 CYCLE:   562 TIME:   0.320 TIME LEFT:  2.00D  GRAD.:     2.172 HEAT:  21.88645
 CYCLE:   563 TIME:   0.365 TIME LEFT:  2.00D  GRAD.:     6.441 HEAT:  21.88607
 CYCLE:   564 TIME:   0.402 TIME LEFT:  2.00D  GRAD.:     5.964 HEAT:  21.88489
 CYCLE:   565 TIME:   0.352 TIME LEFT:  2.00D  GRAD.:     3.937 HEAT:  21.88398
 CYCLE:   566 TIME:   0.352 TIME LEFT:  2.00D  GRAD.:     5.658 HEAT:  21.88313
 CYCLE:   567 TIME:   0.352 TIME LEFT:  2.00D  GRAD.:     7.179 HEAT:  21.88231
 CYCLE:   568 TIME:   0.369 TIME LEFT:  2.00D  GRAD.:     6.079 HEAT:  21.88047
 CYCLE:   569 TIME:   0.367 TIME LEFT:  2.00D  GRAD.:     7.068 HEAT:  21.88195
 CYCLE:   570 TIME:   0.332 TIME LEFT:  2.00D  GRAD.:    35.436 HEAT:  21.88279
 CYCLE:   571 TIME:   0.342 TIME LEFT:  2.00D  GRAD.:     8.232 HEAT:  21.87792
 CYCLE:   572 TIME:   0.340 TIME LEFT:  2.00D  GRAD.:     4.486 HEAT:  21.87742
 CYCLE:   573 TIME:   0.342 TIME LEFT:  2.00D  GRAD.:     9.634 HEAT:  21.87736
 CYCLE:   574 TIME:   0.377 TIME LEFT:  2.00D  GRAD.:     4.602 HEAT:  21.87631
 CYCLE:   575 TIME:   0.379 TIME LEFT:  2.00D  GRAD.:     3.217 HEAT:  21.87600
 CYCLE:   576 TIME:   0.311 TIME LEFT:  2.00D  GRAD.:     2.578 HEAT:  21.87556
 CYCLE:   577 TIME:   0.346 TIME LEFT:  2.00D  GRAD.:     6.375 HEAT:  21.87626
 CYCLE:   578 TIME:   0.336 TIME LEFT:  2.00D  GRAD.:    31.807 HEAT:  21.88603
 CYCLE:   579 TIME:   0.324 TIME LEFT:  2.00D  GRAD.:   182.779 HEAT:  22.27630
 CYCLE:   580 TIME:   0.389 TIME LEFT:  2.00D  GRAD.:    34.837 HEAT:  21.89139
 CYCLE:   581 TIME:   0.426 TIME LEFT:  2.00D  GRAD.:    19.813 HEAT:  21.87992
 CYCLE:   582 TIME:   0.432 TIME LEFT:  2.00D  GRAD.:    42.442 HEAT:  21.89456
 CYCLE:   583 TIME:   0.447 TIME LEFT:  2.00D  GRAD.:    22.571 HEAT:  21.87845
 CYCLE:   584 TIME:   0.391 TIME LEFT:  2.00D  GRAD.:    57.952 HEAT:  21.89555
 CYCLE:   585 TIME:   0.369 TIME LEFT:  2.00D  GRAD.:     6.388 HEAT:  21.87339
 CYCLE:   586 TIME:   0.369 TIME LEFT:  2.00D  GRAD.:     7.724 HEAT:  21.88193
 CYCLE:   587 TIME:   0.342 TIME LEFT:  2.00D  GRAD.:    43.457 HEAT:  21.88280
 CYCLE:   588 TIME:   0.410 TIME LEFT:  2.00D  GRAD.:     4.697 HEAT:  21.87422
 CYCLE:   589 TIME:   0.346 TIME LEFT:  2.00D  GRAD.:     3.025 HEAT:  21.87240
 CYCLE:   590 TIME:   0.326 TIME LEFT:  2.00D  GRAD.:     6.749 HEAT:  21.87232
 CYCLE:   591 TIME:   0.387 TIME LEFT:  2.00D  GRAD.:     3.908 HEAT:  21.87143
 CYCLE:   592 TIME:   0.371 TIME LEFT:  2.00D  GRAD.:     9.746 HEAT:  21.87405
 CYCLE:   593 TIME:   0.361 TIME LEFT:  2.00D  GRAD.:     2.186 HEAT:  21.87030
 CYCLE:   594 TIME:   0.432 TIME LEFT:  2.00D  GRAD.:     3.482 HEAT:  21.86960
 CYCLE:   595 TIME:   0.338 TIME LEFT:  2.00D  GRAD.:     2.784 HEAT:  21.86857
 CYCLE:   596 TIME:   0.385 TIME LEFT:  2.00D  GRAD.:     5.245 HEAT:  21.86562
 CYCLE:   597 TIME:   0.340 TIME LEFT:  2.00D  GRAD.:    10.019 HEAT:  21.86646
 CYCLE:   598 TIME:   0.305 TIME LEFT:  2.00D  GRAD.:     4.625 HEAT:  21.86473
 CYCLE:   599 TIME:   0.330 TIME LEFT:  2.00D  GRAD.:    14.654 HEAT:  21.86555
 CYCLE:   600 TIME:   0.393 TIME LEFT:  2.00D  GRAD.:     2.208 HEAT:  21.86404
 CYCLE:   601 TIME:   0.426 TIME LEFT:  2.00D  GRAD.:     3.785 HEAT:  21.86411
 CYCLE:   602 TIME:   0.412 TIME LEFT:  2.00D  GRAD.:    12.566 HEAT:  21.86390
 CYCLE:   603 TIME:   0.422 TIME LEFT:  2.00D  GRAD.:     4.325 HEAT:  21.86324
 CYCLE:   604 TIME:   0.412 TIME LEFT:  2.00D  GRAD.:     2.013 HEAT:  21.86293
 CYCLE:   605 TIME:   0.309 TIME LEFT:  2.00D  GRAD.:     2.913 HEAT:  21.86265
 CYCLE:   606 TIME:   0.381 TIME LEFT:  2.00D  GRAD.:     3.235 HEAT:  21.86213
 CYCLE:   607 TIME:   0.326 TIME LEFT:  2.00D  GRAD.:     7.315 HEAT:  21.86032
 CYCLE:   608 TIME:   0.344 TIME LEFT:  2.00D  GRAD.:     4.867 HEAT:  21.85845
 CYCLE:   609 TIME:   0.352 TIME LEFT:  2.00D  GRAD.:     5.252 HEAT:  21.85750
 CYCLE:   610 TIME:   0.357 TIME LEFT:  2.00D  GRAD.:     7.305 HEAT:  21.85737
 CYCLE:   611 TIME:   0.426 TIME LEFT:  2.00D  GRAD.:     3.321 HEAT:  21.85651
 CYCLE:   612 TIME:   0.350 TIME LEFT:  2.00D  GRAD.:     2.968 HEAT:  21.85600
 CYCLE:   613 TIME:   0.359 TIME LEFT:  2.00D  GRAD.:     8.302 HEAT:  21.85605
 CYCLE:   614 TIME:   0.398 TIME LEFT:  2.00D  GRAD.:     3.121 HEAT:  21.85502
 CYCLE:   615 TIME:   0.428 TIME LEFT:  2.00D  GRAD.:     6.099 HEAT:  21.85499
 CYCLE:   616 TIME:   0.314 TIME LEFT:  2.00D  GRAD.:     3.687 HEAT:  21.85422
 CYCLE:   617 TIME:   0.312 TIME LEFT:  2.00D  GRAD.:     6.188 HEAT:  21.85342
 CYCLE:   618 TIME:   0.309 TIME LEFT:  2.00D  GRAD.:     3.576 HEAT:  21.85269
 CYCLE:   619 TIME:   0.367 TIME LEFT:  2.00D  GRAD.:     2.969 HEAT:  21.85198
 CYCLE:   620 TIME:   0.316 TIME LEFT:  2.00D  GRAD.:    29.111 HEAT:  21.85381
 CYCLE:   621 TIME:   0.332 TIME LEFT:  2.00D  GRAD.:     4.728 HEAT:  21.85126
 CYCLE:   622 TIME:   0.326 TIME LEFT:  2.00D  GRAD.:     2.682 HEAT:  21.85109
 CYCLE:   623 TIME:   0.400 TIME LEFT:  2.00D  GRAD.:     2.536 HEAT:  21.85071
 CYCLE:   624 TIME:   0.432 TIME LEFT:  2.00D  GRAD.:     2.233 HEAT:  21.85006
 CYCLE:   625 TIME:   0.379 TIME LEFT:  2.00D  GRAD.:     2.197 HEAT:  21.84951
 CYCLE:   626 TIME:   0.324 TIME LEFT:  2.00D  GRAD.:     3.443 HEAT:  21.84902
 CYCLE:   627 TIME:   0.320 TIME LEFT:  2.00D  GRAD.:     2.054 HEAT:  21.84847
 CYCLE:   628 TIME:   0.316 TIME LEFT:  2.00D  GRAD.:     2.731 HEAT:  21.84798
 CYCLE:   629 TIME:   0.389 TIME LEFT:  2.00D  GRAD.:     7.228 HEAT:  21.84820
 CYCLE:   630 TIME:   0.400 TIME LEFT:  2.00D  GRAD.:     2.072 HEAT:  21.84768
 CYCLE:   631 TIME:   0.758 TIME LEFT:  2.00D  GRAD.:     1.590 HEAT:  21.84760
 CYCLE:   632 TIME:   3.152 TIME LEFT:  2.00D  GRAD.:     1.503 HEAT:  21.84732
 CYCLE:   633 TIME:   0.354 TIME LEFT:  2.00D  GRAD.:     3.386 HEAT:  21.84661
 CYCLE:   634 TIME:   0.332 TIME LEFT:  2.00D  GRAD.:    23.743 HEAT:  21.84815
 CYCLE:   635 TIME:   0.326 TIME LEFT:  2.00D  GRAD.:     2.567 HEAT:  21.84639
 CYCLE:   636 TIME:   0.344 TIME LEFT:  2.00D  GRAD.:     2.184 HEAT:  21.84631
 CYCLE:   637 TIME:   0.361 TIME LEFT:  2.00D  GRAD.:     2.090 HEAT:  21.84595
 CYCLE:   638 TIME:   0.344 TIME LEFT:  2.00D  GRAD.:     1.941 HEAT:  21.84557
 CYCLE:   639 TIME:   0.385 TIME LEFT:  2.00D  GRAD.:     2.321 HEAT:  21.84522
 CYCLE:   640 TIME:   0.418 TIME LEFT:  2.00D  GRAD.:     1.604 HEAT:  21.84489
 CYCLE:   641 TIME:   0.424 TIME LEFT:  2.00D  GRAD.:     2.396 HEAT:  21.84448
 CYCLE:   642 TIME:   0.357 TIME LEFT:  2.00D  GRAD.:     2.589 HEAT:  21.84399
 CYCLE:   643 TIME:   0.355 TIME LEFT:  2.00D  GRAD.:     4.093 HEAT:  21.84355
 CYCLE:   644 TIME:   0.330 TIME LEFT:  2.00D  GRAD.:     2.040 HEAT:  21.84306
 CYCLE:   645 TIME:   0.334 TIME LEFT:  2.00D  GRAD.:     1.688 HEAT:  21.84272
 CYCLE:   646 TIME:   0.342 TIME LEFT:  2.00D  GRAD.:     4.479 HEAT:  21.84189
 CYCLE:   647 TIME:   0.324 TIME LEFT:  2.00D  GRAD.:     3.865 HEAT:  21.84130
 CYCLE:   648 TIME:   0.352 TIME LEFT:  2.00D  GRAD.:     6.433 HEAT:  21.84112
 CYCLE:   649 TIME:   0.332 TIME LEFT:  2.00D  GRAD.:     2.444 HEAT:  21.84091
 CYCLE:   650 TIME:   0.322 TIME LEFT:  2.00D  GRAD.:     1.493 HEAT:  21.84084
 CYCLE:   651 TIME:   0.330 TIME LEFT:  2.00D  GRAD.:     1.939 HEAT:  21.84073
 CYCLE:   652 TIME:   0.314 TIME LEFT:  2.00D  GRAD.:     2.484 HEAT:  21.84058
 CYCLE:   653 TIME:   0.354 TIME LEFT:  2.00D  GRAD.:     2.815 HEAT:  21.84024
 CYCLE:   654 TIME:   0.340 TIME LEFT:  2.00D  GRAD.:     6.493 HEAT:  21.84032
 CYCLE:   655 TIME:   0.336 TIME LEFT:  2.00D  GRAD.:     2.168 HEAT:  21.83946
 CYCLE:   656 TIME:   0.359 TIME LEFT:  2.00D  GRAD.:     1.203 HEAT:  21.83921
 CYCLE:   657 TIME:   0.342 TIME LEFT:  2.00D  GRAD.:     1.419 HEAT:  21.83902
 CYCLE:   658 TIME:   0.314 TIME LEFT:  2.00D  GRAD.:     2.135 HEAT:  21.83878
 CYCLE:   659 TIME:   0.379 TIME LEFT:  2.00D  GRAD.:     2.283 HEAT:  21.83845
 CYCLE:   660 TIME:   0.385 TIME LEFT:  2.00D  GRAD.:     2.678 HEAT:  21.83789
 CYCLE:   661 TIME:   0.391 TIME LEFT:  2.00D  GRAD.:    32.210 HEAT:  21.84158
 CYCLE:   662 TIME:   0.385 TIME LEFT:  2.00D  GRAD.:    13.741 HEAT:  21.83827
 CYCLE:   663 TIME:   0.375 TIME LEFT:  2.00D  GRAD.:     4.634 HEAT:  21.83747
 CYCLE:   664 TIME:   0.375 TIME LEFT:  2.00D  GRAD.:     2.512 HEAT:  21.83733
 CYCLE:   665 TIME:   0.367 TIME LEFT:  2.00D  GRAD.:     1.160 HEAT:  21.83721
 CYCLE:   666 TIME:   0.422 TIME LEFT:  2.00D  GRAD.:     1.467 HEAT:  21.83712
 CYCLE:   667 TIME:   0.398 TIME LEFT:  2.00D  GRAD.:     4.411 HEAT:  21.83702
 CYCLE:   668 TIME:   0.348 TIME LEFT:  2.00D  GRAD.:     2.623 HEAT:  21.83690
 CYCLE:   669 TIME:   0.422 TIME LEFT:  2.00D  GRAD.:    11.661 HEAT:  21.83793
 CYCLE:   670 TIME:   0.395 TIME LEFT:  2.00D  GRAD.:     1.754 HEAT:  21.83665
 CYCLE:   671 TIME:   0.334 TIME LEFT:  2.00D  GRAD.:     1.430 HEAT:  21.83663
 CYCLE:   672 TIME:   0.322 TIME LEFT:  2.00D  GRAD.:     0.938 HEAT:  21.83654
 CYCLE:   673 TIME:   0.404 TIME LEFT:  2.00D  GRAD.:     2.420 HEAT:  21.83640
 CYCLE:   674 TIME:   0.371 TIME LEFT:  2.00D  GRAD.:     2.231 HEAT:  21.83630
 CYCLE:   675 TIME:   0.383 TIME LEFT:  2.00D  GRAD.:     4.223 HEAT:  21.83661
 CYCLE:   676 TIME:   0.383 TIME LEFT:  2.00D  GRAD.:     8.168 HEAT:  21.83682
 CYCLE:   677 TIME:   0.355 TIME LEFT:  2.00D  GRAD.:    14.341 HEAT:  21.83930
 CYCLE:   678 TIME:   0.344 TIME LEFT:  2.00D  GRAD.:     2.270 HEAT:  21.83599
 CYCLE:   679 TIME:   0.406 TIME LEFT:  2.00D  GRAD.:     4.537 HEAT:  21.83683
 CYCLE:   680 TIME:   0.381 TIME LEFT:  2.00D  GRAD.:     4.562 HEAT:  21.83570
 CYCLE:   681 TIME:   0.404 TIME LEFT:  2.00D  GRAD.:    28.669 HEAT:  21.83862
 CYCLE:   682 TIME:   0.393 TIME LEFT:  2.00D  GRAD.:     1.354 HEAT:  21.83566
 CYCLE:   683 TIME:   0.416 TIME LEFT:  2.00D  GRAD.:     1.724 HEAT:  21.83569
 CYCLE:   684 TIME:   0.387 TIME LEFT:  2.00D  GRAD.:     2.556 HEAT:  21.83560
 CYCLE:   685 TIME:   0.357 TIME LEFT:  2.00D  GRAD.:     1.540 HEAT:  21.83548
 CYCLE:   686 TIME:   0.340 TIME LEFT:  2.00D  GRAD.:     1.042 HEAT:  21.83540
 CYCLE:   687 TIME:   0.385 TIME LEFT:  2.00D  GRAD.:     1.651 HEAT:  21.83526
 CYCLE:   688 TIME:   0.381 TIME LEFT:  2.00D  GRAD.:     1.595 HEAT:  21.83510
 CYCLE:   689 TIME:   0.396 TIME LEFT:  2.00D  GRAD.:     1.986 HEAT:  21.83488
 CYCLE:   690 TIME:   0.305 TIME LEFT:  2.00D  GRAD.:     3.299 HEAT:  21.83479
 CYCLE:   691 TIME:   0.357 TIME LEFT:  2.00D  GRAD.:     1.401 HEAT:  21.83457
 CYCLE:   692 TIME:   0.318 TIME LEFT:  2.00D  GRAD.:     0.778 HEAT:  21.83446
 CYCLE:   693 TIME:   0.338 TIME LEFT:  2.00D  GRAD.:     0.872 HEAT:  21.83428
 CYCLE:   694 TIME:   0.357 TIME LEFT:  2.00D  GRAD.:     1.266 HEAT:  21.83403
 CYCLE:   695 TIME:   0.352 TIME LEFT:  2.00D  GRAD.:    15.467 HEAT:  21.83478
 CYCLE:   696 TIME:   0.320 TIME LEFT:  2.00D  GRAD.:    57.452 HEAT:  21.84794
 CYCLE:   697 TIME:   0.312 TIME LEFT:  2.00D  GRAD.:    30.999 HEAT:  21.83808
 CYCLE:   698 TIME:   0.318 TIME LEFT:  2.00D  GRAD.:     5.607 HEAT:  21.83412
 CYCLE:   699 TIME:   0.332 TIME LEFT:  2.00D  GRAD.:    10.224 HEAT:  21.83419
 CYCLE:   700 TIME:   0.336 TIME LEFT:  2.00D  GRAD.:     2.287 HEAT:  21.83380
 CYCLE:   701 TIME:   0.352 TIME LEFT:  2.00D  GRAD.:     2.696 HEAT:  21.83382
 CYCLE:   702 TIME:   0.355 TIME LEFT:  2.00D  GRAD.:     5.803 HEAT:  21.83352
 CYCLE:   703 TIME:   0.398 TIME LEFT:  2.00D  GRAD.:     2.050 HEAT:  21.83330
 CYCLE:   704 TIME:   0.422 TIME LEFT:  2.00D  GRAD.:     3.146 HEAT:  21.83325
 CYCLE:   705 TIME:   1.633 TIME LEFT:  2.00D  GRAD.:     1.981 HEAT:  21.83300
 CYCLE:   706 TIME:   2.008 TIME LEFT:  2.00D  GRAD.:     1.791 HEAT:  21.83282
 CYCLE:   707 TIME:   0.312 TIME LEFT:  2.00D  GRAD.:     2.310 HEAT:  21.83267
 CYCLE:   708 TIME:   0.332 TIME LEFT:  2.00D  GRAD.:     3.635 HEAT:  21.83246
 CYCLE:   709 TIME:   0.330 TIME LEFT:  2.00D  GRAD.:     3.640 HEAT:  21.83215
 CYCLE:   710 TIME:   0.338 TIME LEFT:  2.00D  GRAD.:     4.819 HEAT:  21.83151
 CYCLE:   711 TIME:   0.309 TIME LEFT:  2.00D  GRAD.:     3.706 HEAT:  21.83080
 CYCLE:   712 TIME:   0.314 TIME LEFT:  2.00D  GRAD.:     2.137 HEAT:  21.83042
 CYCLE:   713 TIME:   0.346 TIME LEFT:  2.00D  GRAD.:     3.859 HEAT:  21.83016
 CYCLE:   714 TIME:   0.355 TIME LEFT:  2.00D  GRAD.:     3.272 HEAT:  21.83001
 CYCLE:   715 TIME:   0.330 TIME LEFT:  2.00D  GRAD.:     2.071 HEAT:  21.82985
 CYCLE:   716 TIME:   0.359 TIME LEFT:  2.00D  GRAD.:     1.509 HEAT:  21.82966
 CYCLE:   717 TIME:   0.350 TIME LEFT:  2.00D  GRAD.:     5.801 HEAT:  21.82964
 CYCLE:   718 TIME:   0.285 TIME LEFT:  2.00D  GRAD.:     1.910 HEAT:  21.82942
 CYCLE:   719 TIME:   0.340 TIME LEFT:  2.00D  GRAD.:     2.805 HEAT:  21.82931
 CYCLE:   720 TIME:   0.309 TIME LEFT:  2.00D  GRAD.:     2.841 HEAT:  21.82915
 CYCLE:   721 TIME:   0.322 TIME LEFT:  2.00D  GRAD.:     5.568 HEAT:  21.82885
 CYCLE:   722 TIME:   0.297 TIME LEFT:  2.00D  GRAD.:     2.588 HEAT:  21.82864
 CYCLE:   723 TIME:   0.328 TIME LEFT:  2.00D  GRAD.:     9.498 HEAT:  21.82892
 CYCLE:   724 TIME:   0.307 TIME LEFT:  2.00D  GRAD.:     4.730 HEAT:  21.82869
 CYCLE:   725 TIME:   0.334 TIME LEFT:  2.00D  GRAD.:    10.874 HEAT:  21.82901
 CYCLE:   726 TIME:   0.340 TIME LEFT:  2.00D  GRAD.:     7.570 HEAT:  21.82889
 CYCLE:   727 TIME:   0.309 TIME LEFT:  2.00D  GRAD.:     6.573 HEAT:  21.82846
 CYCLE:   728 TIME:   0.330 TIME LEFT:  2.00D  GRAD.:     2.235 HEAT:  21.82824
 CYCLE:   729 TIME:   0.346 TIME LEFT:  2.00D  GRAD.:     1.520 HEAT:  21.82818
 CYCLE:   730 TIME:   0.309 TIME LEFT:  2.00D  GRAD.:     1.660 HEAT:  21.82807
 CYCLE:   731 TIME:   0.334 TIME LEFT:  2.00D  GRAD.:     9.569 HEAT:  21.82830
 CYCLE:   732 TIME:   0.311 TIME LEFT:  2.00D  GRAD.:     2.116 HEAT:  21.82741
 CYCLE:   733 TIME:   0.318 TIME LEFT:  2.00D  GRAD.:     2.126 HEAT:  21.82729
 CYCLE:   734 TIME:   0.295 TIME LEFT:  2.00D  GRAD.:     2.357 HEAT:  21.82714
 CYCLE:   735 TIME:   0.318 TIME LEFT:  2.00D  GRAD.:     2.585 HEAT:  21.82702
 CYCLE:   736 TIME:   0.336 TIME LEFT:  2.00D  GRAD.:     3.468 HEAT:  21.82662
 CYCLE:   737 TIME:   0.311 TIME LEFT:  2.00D  GRAD.:     1.900 HEAT:  21.82621
 CYCLE:   738 TIME:   0.367 TIME LEFT:  2.00D  GRAD.:     1.932 HEAT:  21.82595
 CYCLE:   739 TIME:   0.352 TIME LEFT:  2.00D  GRAD.:     7.052 HEAT:  21.82546
 CYCLE:   740 TIME:   0.318 TIME LEFT:  2.00D  GRAD.:     4.611 HEAT:  21.82505
[...]
  109          H           0.064551        0.9354     0.93545
  110          H           0.059443        0.9406     0.94056
  111          H           0.058167        0.9418     0.94183
  112          H           0.062168        0.9378     0.93783
  113          H           0.060424        0.9396     0.93958
  114          H           0.062540        0.9375     0.93746
  115          H           0.058247        0.9418     0.94175
  116          H           0.059287        0.9407     0.94071
  117          H           0.064661        0.9353     0.93534
  118          H           0.125220        0.8748     0.87478
  119          H           0.114899        0.8851     0.88510
  120          H           0.112607        0.8874     0.88739
  121          H           0.125494        0.8745     0.87451
  122          H           0.131692        0.8683     0.86831
  123          H           0.131722        0.8683     0.86828
  124          H           0.138048        0.8620     0.86195
  125          H           0.126134        0.8739     0.87387
 DIPOLE           X         Y         Z       TOTAL
 POINT-CHG.     0.071    -2.821     2.128     3.535
 HYBRID         0.729    -0.414    -1.572     1.782
 SUM            0.801    -3.236     0.556     3.380


          ATOMIC ORBITAL ELECTRON POPULATIONS

     Atom    s        px        py        pz   
    1  C   1.15574   0.96508   1.02756   1.02872
    2  C   1.16680   0.95231   0.96736   1.02589
    3  C   1.17075   0.95337   0.96949   1.02916
    4  C   1.17073   0.95672   0.96760   1.02857
    5  C   1.17073   0.95356   0.97017   1.02875
    6  C   1.17076   0.95692   0.96668   1.02904
    7  C   1.17076   0.95244   0.97128   1.02885
    8  C   1.17109   0.95816   0.96506   1.02985
    9  C   1.17086   0.95075   0.97407   1.02917
   10  C   1.16930   0.95888   0.95961   1.02943
   11  C   1.17963   1.02589   0.96357   1.00450
   12  C   1.16281   0.94475   0.85551   0.99573
   13  N   1.57775   1.21209   1.25892   1.27970
   14  C   1.15074   0.84383   0.93109   0.93632
   15  C   1.17769   0.98533   0.97827   1.03676
   16  C   1.17908   0.95757   0.96685   0.98482
   17  C   1.13966   0.86246   0.93819   0.98088
   18  C   1.17968   0.96052   0.97243   0.97853
   19  C   1.17965   0.97141   0.97373   1.02956
   20  N   1.47664   1.08771   1.54786   1.14089
   21  C   1.14988   0.82514   0.96048   0.94414
   22  C   1.17117   0.98154   1.05326   0.96429
   23  C   1.17681   0.92629   0.97858   0.97955
   24  C   1.17857   0.95257   1.01990   0.94630
   25  C   1.16830   0.94602   0.96340   0.96325
   26  C   1.15950   0.94312   1.04886   0.94202
   27  C   1.15945   0.93194   1.04883   0.95385
   28  C   1.14997   0.94155   0.96557   0.82272
   29  C   1.17148   0.99043   1.05293   0.95443
   30  C   1.17698   0.95199   0.97933   0.95282
   31  C   1.17864   0.94060   1.01918   0.95852
   32  C   1.16826   0.98552   0.96546   0.92212
   33  C   1.16564   0.93146   0.92989   0.90830
   34  C   1.16092   0.96808   1.02910   1.02995
   35  C   1.16133   1.00963   1.01978   0.99520
   36  C   1.16138   1.03064   0.96325   1.03048
   37  C   1.16563   0.90540   0.92883   0.93532
   38  C   1.16134   1.01943   1.01918   0.98576
   39  C   1.16092   1.00237   1.03029   0.99456
   40  C   1.16137   1.03021   0.96433   1.02985
   41  C   1.15287   0.94256   0.93567   0.85636
   42  C   1.18048   0.98496   0.98067   0.98456
   43  C   1.17889   0.97708   0.97714   0.94261
   44  C   1.14903   0.94842   0.98062   0.93281
   45  C   1.17720   0.96776   0.96375   0.96849
   46  C   1.18328   0.99889   1.01949   0.95568
   47  C   1.21487   1.00570   1.04674   1.01388
   48  C   1.18158   0.98230   0.99833   0.94706
   49  C   1.18305   0.95193   0.96281   0.98648
   50  C   1.20120   1.00680   1.05260   1.02523
   51  S   1.88539   1.12751   1.36001   1.16121
   52  C   1.20780   0.99010   1.01344   1.02050
   53  C   1.18233   0.95912   1.00498   1.00538
   54  C   1.18438   0.95948   0.93040   0.94028
   55  C   1.21900   1.02619   1.08411   1.12392
   56  S   1.88303   0.99878   1.20601   1.32596
   57  C   1.17076   0.96859   0.85898   0.84264
   58  C   1.14105   0.90463   1.03783   1.08818
   59  C   1.17925   0.81756   0.81178   0.78417
   60  O   1.91042   1.36972   1.57144   1.52940
   61  O   1.83996   1.34273   1.50839   1.62110
   62  C   1.19525   0.91400   0.92052   0.92061
   63  N   1.84840   1.09763   1.10047   1.10170
   64  H   0.86891
   65  H   0.94244
   66  H   0.94433
   67  H   0.94245
   68  H   0.94039
   69  H   0.94037
   70  H   0.93796
   71  H   0.93798
   72  H   0.93830
   73  H   0.93827
   74  H   0.93810
   75  H   0.93815
   76  H   0.93795
   77  H   0.93781
   78  H   0.93778
   79  H   0.93820
   80  H   0.93761
   81  H   0.93679
   82  H   0.93497
   83  H   0.93901
   84  H   0.93822
   85  H   0.93473
   86  H   0.92487
   87  H   0.92293
   88  H   0.92277
   89  H   0.91853
   90  H   0.87831
   91  H   0.87634
   92  H   0.87457
   93  H   0.87164
   94  H   0.88031
   95  H   0.89635
   96  H   0.88770
   97  H   0.87868
   98  H   0.89567
   99  H   0.88786
  100  H   0.93781
  101  H   0.93779
  102  H   0.93959
  103  H   0.93994
  104  H   0.94182
  105  H   0.93518
  106  H   0.93583
  107  H   0.94173
  108  H   0.94045
  109  H   0.93545
  110  H   0.94056
  111  H   0.94183
  112  H   0.93783
  113  H   0.93958
  114  H   0.93746
  115  H   0.94175
  116  H   0.94071
  117  H   0.93534
  118  H   0.87478
  119  H   0.88510
  120  H   0.88739
  121  H   0.87451
  122  H   0.86831
  123  H   0.86828
  124  H   0.86195
  125  H   0.87387
  126  H   0.75525
 ******************** TDHF POLARIZABILITIES ********************



          MOLECULAR WEIGHT =  874.25



          ROTATIONAL CONSTANTS IN CM(-1)

          A =    0.00062792   B =    0.00040800   C =    0.00025491



           PRINCIPAL MOMENTS OF INERTIA IN UNITS OF 10**(-40)*GRAM-CM**2

          A =    44579.8369   B =    68610.1583   C =   109816.0800


 ROTATION MATRIX FOR ORIENTATION OF MOLECULE:

         0.311180    0.804766   -0.505489
        -0.523276    0.589099    0.615747
         0.793315    0.072902    0.604430


          CARTESIAN COORDINATES 

    NO.       ATOM         X         Y         Z

     1         C        2.0316  -15.9577    0.0028
     2         C        2.5046  -14.7345   -0.7655
     3         C        1.9261  -13.4579   -0.1603
     4         C        2.4006  -12.2285   -0.9316
     5         C        1.8218  -10.9524   -0.3247
     6         C        2.2967   -9.7230   -1.0961
     7         C        1.7176   -8.4468   -0.4892
     8         C        2.1950   -7.2174   -1.2591
     9         C        1.6062   -5.9412   -0.6597
    10         C        2.1245   -4.7113   -1.4000
    11         C        1.3963   -3.4385   -0.9797
    12         C        1.5978   -3.1410    0.5124
    13         N        1.2534   -1.7507    0.8814
    14         C        2.1861   -0.7095    0.6155
    15         C        3.4307   -0.9395    0.0195
    16         C        4.3454    0.0963   -0.1135
    17         C        4.0227    1.3705    0.3519
    18         C        2.7828    1.6125    0.9529
    19         C        1.8707    0.5808    1.0782
    20         N        4.9543    2.4259    0.2167
    21         C        4.6920    3.6961   -0.3312
    22         C        3.5205    4.2109   -0.8770
    23         C        3.5610    5.5102   -1.3544
    24         C        4.7248    6.2967   -1.3077
    25         C        5.8932    5.7665   -0.7759
    26         C        5.8819    4.4678   -0.2896
    27         C        6.9047    3.6405    0.3014
    28         C        6.3072    2.3902    0.6058
    29         C        7.0357    1.3756    1.2185
    30         C        8.3684    1.6304    1.4947
    31         C        8.9837    2.8557    1.1857
    32         C        8.2421    3.8677    0.5903
    33         C       10.4421    3.0152    1.5283
    34         C       11.0074    4.3811    1.1336
    35         C       10.6176    2.8526    3.0408
    36         C       11.2474    1.9432    0.7882
    37         C        4.6467    7.6994   -1.8517
    38         C        4.2665    7.6370   -3.3338
    39         C        5.9671    8.4640   -1.7372
    40         C        3.5848    8.4781   -1.0698
    41         C       -0.1287   -1.4296    0.6560
    42         C       -1.0780   -1.9999    1.5100
    43         C       -2.4216   -1.7007    1.3395
    44         C       -2.8259   -0.8278    0.3297
    45         C       -1.8761   -0.2559   -0.5157
    46         C       -0.5316   -0.5574   -0.3602
    47         C       -4.2304   -0.5356    0.1680
    48         C       -5.2471   -1.4436    0.2502
    49         C       -6.5281   -0.8354    0.0563
    50         C       -6.4273    0.5110   -0.1633
    51         S       -4.7990    1.0494   -0.1343
    52         C       -7.5035    1.4185   -0.3934
    53         C       -7.4742    2.5252   -1.2085
    54         C       -8.7175    3.2120   -1.2035
    55         C       -9.6491    2.5994   -0.3898
    56         S       -9.0102    1.2155    0.3638
    57         C      -10.9752    3.1088   -0.2237
    58         C      -11.9861    2.4919    0.4250
    59         C      -13.2936    3.1543    0.5095
    60         O      -13.5913    4.2447    0.0417
    61         O      -14.2236    2.4458    1.1813
    62         C      -11.8692    1.2202    1.0357
    63         N      -11.8015    0.1820    1.5418
    64         H      -11.1582    4.0961   -0.6816
    65         H        0.9368  -16.0594   -0.0079
    66         H        2.4382  -16.8884   -0.4188
    67         H        2.3370  -15.9308    1.0588
    68         H        3.6145  -14.6935   -0.7733
    69         H        2.2202  -14.8216   -1.8356
    70         H        0.8167  -13.5056   -0.1522
    71         H        2.2113  -13.3773    0.9100
    72         H        3.5102  -12.1830   -0.9398
    73         H        2.1151  -12.3109   -2.0017
    74         H        0.7122  -10.9980   -0.3168
    75         H        2.1071  -10.8706    0.7454
    76         H        3.4063   -9.6772   -1.1037
    77         H        2.0116   -9.8053   -2.1663
    78         H        0.6080   -8.4911   -0.4836
    79         H        2.0010   -8.3665    0.5816
    80         H        3.3045   -7.1669   -1.2576
    81         H        1.9191   -7.3043   -2.3314
    82         H        0.4969   -5.9760   -0.6934
    83         H        1.8560   -5.8818    0.4205
    84         H        3.2194   -4.6004   -1.2469
    85         H        2.0133   -4.8480   -2.4976
    86         H        1.7447   -2.5872   -1.6037
    87         H        0.3123   -3.5134   -1.2116
    88         H        0.9632   -3.8166    1.1327
    89         H        2.6383   -3.3603    0.8448
    90         H        3.7186   -1.9242   -0.3596
    91         H        5.3104   -0.0932   -0.5962
    92         H        2.5354    2.6080    1.3375
    93         H        0.9100    0.7811    1.5650
    94         H        2.6089    3.6133   -0.9387
    95         H        2.6389    5.9174   -1.7819
    96         H        6.8326    6.3206   -0.7195
    97         H        6.5743    0.4223    1.4843
    98         H        8.9435    0.8320    1.9752
    99         H        8.6565    4.8454    0.3353
   100         H       10.9387    4.5688    0.0526
   101         H       10.5043    5.2109    1.6502
   102         H       12.0745    4.4710    1.3884
   103         H       10.3387    1.8541    3.4044
   104         H       11.6604    3.0081    3.3538
   105         H       10.0051    3.5734    3.6010
   106         H       11.0927    1.9966   -0.2989
   107         H       12.3285    2.0459    0.9625
   108         H       10.9893    0.9196    1.0926
   109         H        4.9814    7.0343   -3.9120
   110         H        3.2738    7.2000   -3.5085
   111         H        4.2429    8.6349   -3.7957
   112         H        6.7809    7.9869   -2.3017
   113         H        5.8834    9.4865   -2.1362
   114         H        6.3013    8.5733   -0.6956
   115         H        3.5220    9.5277   -1.3926
   116         H        2.5727    8.0665   -1.1850
   117         H        3.7996    8.4878    0.0083
   118         H       -0.7717   -2.6672    2.3221
   119         H       -3.1634   -2.1432    2.0121
   120         H       -2.1880    0.4233   -1.3155
   121         H        0.2027   -0.1113   -1.0389
   122         H       -5.1230   -2.5092    0.4282
   123         H       -7.4560   -1.4028    0.0768
   124         H       -6.6188    2.8462   -1.7977
   125         H       -8.8972    4.1138   -1.7865
   126         H      -15.0672    2.9201    1.2114


 ENERGY OF "REORIENTED" SYSTEM WITHOUT FIELD:       21.6694539105


  NFREQ=  3  IWFLB=  0  IBET=  1  IGAM=  1
  ATOL= 0.10000D-02  BTOL= 0.10000D-02    MAXITU=  500    MAXITA=  150


 *****************************************************************
 CALCULATION OF STATIC FIELD QUANTITIES
 *****************************************************************

 +++++ ALPHA AT       0.00000 EV.

                           COMPONENTS OF ALPHA

                     *X           *Y           *Z
           *=X:     918.9054     -21.3173      -7.0439
           *=Y:     -21.3266     631.1229    -114.7413
           *=Z:      -7.0661    -114.7408     324.3990

  ISOTROPIC AVERAGE ALPHA =     624.80911 A.U. =     92.58716 ANG.**3

 +++++ BETA (SECOND HARMONIC GENERATION) AT       0.00000 EV.

                              COMPONENTS OF BETA
            *XX         *XY         *YY         *XZ         *YZ         *ZZ
   *=X  6771.92366 -2356.38365   583.77210  -447.13417   148.25130  -104.68204
   *=Y -2356.42508   583.88605  -654.58487   148.23900   267.79003   -73.41366
   *=Z  -447.56268   148.27483   267.87820  -104.71985   -73.48673    76.36642


 AVERAGE BETAX(SHG) VALUE AT   0.00000 EV =       4350.6387 a.u. =  0.375870E-28 ESU
 AVERAGE BETAY(SHG) VALUE AT   0.00000 EV =      -1850.6668 a.u. = -0.159887E-28 ESU
 AVERAGE BETAZ(SHG) VALUE AT   0.00000 EV =        -61.8547 a.u. = -0.534389E-30 ESU



 AVERAGE BETA (SHG) VALUE AT   0.00000 EV =       4728.3031 a.u. =  0.408498E-28 ESU
   (1 a.u. = 8.639418X10-33 esu)



 +++++ ALPHA AT       0.00000 EV.

                           COMPONENTS OF ALPHA

                     *X           *Y           *Z
           *=X:     918.9054     -21.3173      -7.0439
           *=Y:     -21.3266     631.1229    -114.7413
           *=Z:      -7.0661    -114.7408     324.3990

  ISOTROPIC AVERAGE ALPHA =     624.80911 A.U. =     92.58716 ANG.**3


 GAMMA (THIRD HARMONIC GENERATION) AT    0.00000 EV.


 GAMMA(X,X,X,X) =       2807993.33601
 GAMMA(Y,Y,Y,Y) =        212441.36883
 GAMMA(Z,Z,Z,Z) =         14540.98176
 GAMMA(X,X,Y,Y) =        369453.06418
 GAMMA(X,X,Z,Z) =         10504.79860
 GAMMA(Y,Y,X,X) =        369453.00312
 GAMMA(Y,Y,Z,Z) =         21720.15661
 GAMMA(Z,Z,X,X) =         10504.23253
 GAMMA(Z,Z,Y,Y) =         21720.32692


 AVERAGE GAMMA VALUE AT    0.00000 =        767666.25371 a.u. =       386650.66006 ESU (X10-39)




 **********************************************************************
 CALCULATION FOR A FREQUENCY OF    0.25000 EV  =       0.00919 A.U. 
                  WAVELENGTH OF    4959.37 NM  =    2016.38525 CM(-1)
 **********************************************************************

 +++++ ALPHA AT       0.25000 EV.

                           COMPONENTS OF ALPHA

                     *X           *Y           *Z
           *=X:     922.7403     -21.5612      -7.0968
           *=Y:     -21.5739     632.3552    -114.9653
           *=Z:      -7.1160    -114.9649     324.8140

  ISOTROPIC AVERAGE ALPHA =     626.63650 A.U. =     92.85795 ANG.**3

 +++++ BETA (SECOND HARMONIC GENERATION) AT       0.25000 EV.

                              COMPONENTS OF BETA
            *XX         *XY         *YY         *XZ         *YZ         *ZZ
   *=X  7142.07844 -2468.73053   612.37265  -468.36265   157.54583  -108.49945
   *=Y -2441.94921   612.18563  -673.09355   151.99316   272.06258   -74.85318
   *=Z  -466.75954   151.29479   272.54993  -105.39218   -75.80152    76.61363


 AVERAGE BETAX(SHG) VALUE AT   0.25000 EV =       4588.7391 a.u. =  0.396440E-28 ESU
 AVERAGE BETAY(SHG) VALUE AT   0.25000 EV =      -1925.0294 a.u. = -0.166311E-28 ESU
 AVERAGE BETAZ(SHG) VALUE AT   0.25000 EV =        -71.3938 a.u. = -0.616801E-30 ESU



 AVERAGE BETA (SHG) VALUE AT   0.25000 EV =       4976.6818 a.u. =  0.429956E-28 ESU
   (1 a.u. = 8.639418X10-33 esu)



 +++++ ALPHA AT       0.75000 EV.

                           COMPONENTS OF ALPHA

                     *X           *Y           *Z
           *=X:     955.5866     -23.7554      -7.5475
           *=Y:     -23.7678     642.6227    -116.8035
           *=Z:      -7.5706    -116.8024     328.2058

  ISOTROPIC AVERAGE ALPHA =     642.13837 A.U. =     95.15509 ANG.**3


 GAMMA (THIRD HARMONIC GENERATION) AT    0.25000 EV.


 GAMMA(X,X,X,X) =       3138928.84818
 GAMMA(Y,Y,Y,Y) =        225545.08566
 GAMMA(Z,Z,Z,Z) =         14966.98072
 GAMMA(X,X,Y,Y) =        408758.07663
 GAMMA(X,X,Z,Z) =         10422.12748
 GAMMA(Y,Y,X,X) =        402862.94344
 GAMMA(Y,Y,Z,Z) =         22733.05221
 GAMMA(Z,Z,X,X) =         11468.28872
 GAMMA(Z,Z,Y,Y) =         22740.08810


 AVERAGE GAMMA VALUE AT    0.25000 =        851685.09823 a.u. =       428968.45315 ESU (X10-39)




 **********************************************************************
 CALCULATION FOR A FREQUENCY OF    0.50000 EV  =       0.01837 A.U. 
                  WAVELENGTH OF    2479.68 NM  =    4032.77050 CM(-1)
 **********************************************************************

 +++++ ALPHA AT       0.50000 EV.

                           COMPONENTS OF ALPHA

                     *X           *Y           *Z
           *=X:     934.5583     -22.3361      -7.2523
           *=Y:     -22.3483     636.1247    -115.6451
           *=Z:      -7.2736    -115.6445     326.0691

  ISOTROPIC AVERAGE ALPHA =     632.25070 A.U. =     93.68989 ANG.**3

 +++++ BETA (SECOND HARMONIC GENERATION) AT       0.50000 EV.

                              COMPONENTS OF BETA
            *XX         *XY         *YY         *XZ         *YZ         *ZZ
   *=X  8472.26178 -2869.53662   714.22780  -542.91764   191.69847  -122.02206
   *=Y -2739.21830   712.36801  -734.63220   164.99636   285.13716   -79.34290
   *=Z  -533.16920   161.98902   287.23773  -107.15502   -83.44244    77.29672


 AVERAGE BETAX(SHG) VALUE AT   0.50000 EV =       5443.8834 a.u. =  0.470320E-28 ESU
 AVERAGE BETAY(SHG) VALUE AT   0.50000 EV =      -2185.6832 a.u. = -0.188830E-28 ESU
 AVERAGE BETAZ(SHG) VALUE AT   0.50000 EV =       -105.9205 a.u. = -0.915091E-30 ESU



 AVERAGE BETA (SHG) VALUE AT   0.50000 EV =       5867.2222 a.u. =  0.506894E-28 ESU
   (1 a.u. = 8.639418X10-33 esu)



 +++++ ALPHA AT       1.50000 EV.

                           COMPONENTS OF ALPHA

                     *X           *Y           *Z
           *=X:    1112.1696     -35.8579     -10.3481
           *=Y:     -35.8906     683.7907    -123.6304
           *=Z:     -10.3909    -123.6261     340.8708

  ISOTROPIC AVERAGE ALPHA =     712.27702 A.U. =    105.54856 ANG.**3


 GAMMA (THIRD HARMONIC GENERATION) AT    0.50000 EV.


 GAMMA(X,X,X,X) =       4676143.44708
 GAMMA(Y,Y,Y,Y) =        276709.78885
 GAMMA(Z,Z,Z,Z) =         16418.85780
 GAMMA(X,X,Y,Y) =        588266.28404
 GAMMA(X,X,Z,Z) =          8961.82513
 GAMMA(Y,Y,X,X) =        545024.41134
 GAMMA(Y,Y,Z,Z) =         26368.50460
 GAMMA(Z,Z,X,X) =         15158.55947
 GAMMA(Z,Z,Y,Y) =         26463.93439


 AVERAGE GAMMA VALUE AT    0.50000 =       1235903.12254 a.u. =       622487.64458 ESU (X10-39)



 **********************
 *                    *
 * JOB ENDED NORMALLY *
 *                    *
 **********************



 TOTAL JOB TIME:          1183.17 SECONDS

 == MOPAC DONE ==
