 *******************************************************************************
 ** Site#: 4824         For non-commercial use only    Version 21.013L 64BITS **
 *******************************************************************************
 ** Cite this program as: MOPAC2016, Version: 21.013L, James J. P. Stewart,   **
 ** Stewart Computational Chemistry, web: HTTP://OpenMOPAC.net. Days left:  88**
 *******************************************************************************
 **                                                                           **
 **                                MOPAC2016                                  **
 **                                                                           **
 *******************************************************************************

                              RM1 CALCULATION RESULTS

 *******************************************************************************
 *  CALCULATION DONE:                                Sun Oct 17 19:51:53 2021  *
 *  RM1        - The RM1 Hamiltonian to be used
 *  POLAR      - CALCULATE FIRST, SECOND AND THIRD-ORDER POLARIZABILITIES
 *  PRECISE    - TIGHTER CRITERIA TO BE USED
 *  T=         - A TIME OF 172800.0 SECONDS REQUESTED
 *  DUMP=N     - RESTART FILE WRITTEN EVERY 7200.0 SECONDS REQUESTED
 *  GNORM      - EXIT WHEN GRADIENT NORM DROPS BELOW 0.100
 *******************************************************************************
RM1 PRECISE POLAR GNORM=0.1


  ATOM    CHEMICAL      BOND LENGTH      BOND ANGLE     TWIST ANGLE 
 NUMBER    SYMBOL       (ANGSTROMS)      (DEGREES)       (DEGREES) 
   (I)                     NA:I           NB:NA:I       NC:NB:NA:I       NA    NB    NC 
     1       C          0.00000000       0.0000000       0.0000000        0     0     0
     2       C          1.54760000  *    0.0000000       0.0000000        1     0     0
     3       C          1.55090000  *  111.3463000  *    0.0000000        2     1     0
     4       C          1.55110000  *  111.5185000  *  179.4415000  *     3     2     1
     5       C          1.55150000  *  111.1207000  *  179.1592000  *     4     3     2
     6       C          1.55130000  *  111.2332000  *  178.1908000  *     5     4     3
     7       C          1.55220000  *  112.9584000  * -179.7467000  *     6     5     4
     8       C          1.55210000  *  112.9118000  *  -72.0556000  *     7     6     5
     9       N          1.45560000  *  110.2806000  * -171.2240000  *     8     7     6
    10       C          1.41660000  *  122.7547000  *   87.3522000  *     9     8     7
    11       C          1.34200000  *  130.9683000  *  -10.5482000  *    10     9     8
    12       C          1.47340000  *  118.3302000  * -179.5820000  *    11    10     9
    13       C          1.35170000  *  121.0630000  *    0.3198000  *    12    11    10
    14       C          1.48070000  *  119.4471000  *   -0.6717000  *    13    12    11
    15       C          1.34210000  *  118.9431000  *    0.3188000  *    14    13    12
    16       C          1.46690000  *  132.8654000  * -179.7222000  *    15    14    13
    17       C          1.35550000  *  108.3602000  * -179.4723000  *    16    15    14
    18       C          1.48170000  *  120.0707000  *  178.0615000  *    17    16    15
    19       C          1.46710000  *  122.5434000  * -178.3346000  *    18    17    16
    20       C          1.34740000  *  120.4816000  *  -93.8296000  *    19    18    17
    21       C          1.46940000  *  120.1931000  * -176.0640000  *    20    19    18
    22       C          1.34770000  *  120.3869000  *    1.4338000  *    21    20    19
    23       C          1.47470000  *  119.2890000  *   -1.6631000  *    22    21    20
    24       C          1.34450000  *  120.3686000  *    0.6986000  *    23    22    21
    25       C          1.51180000  *  120.8092000  *  178.4163000  *    22    21    20
    26       C          1.54690000  *  110.8675000  *  -88.9445000  *    25    22    21
    27       C          1.34870000  *  116.7862000  *    0.2620000  *    18    17    16
    28       C          1.47430000  *  122.8064000  *  179.5142000  *    27    18    19
    29       C          1.34820000  *  120.9257000  *   -1.1883000  *    28    27    18
    30       C          1.46720000  *  123.1911000  * -178.9017000  *    29    28    27
    31       C          1.34730000  *  120.3976000  *  -95.5135000  *    30    29    28
    32       C          1.46910000  *  120.1980000  * -176.4821000  *    31    30    29
    33       C          1.34770000  *  120.4054000  *    1.3581000  *    32    31    30
    34       C          1.47450000  *  119.2839000  *   -1.2763000  *    33    32    31
    35       C          1.34440000  *  120.3624000  *    0.5350000  *    34    33    32
    36       C          1.51150000  *  120.7519000  *  179.2345000  *    33    32    31
    37       C          1.54640000  *  111.2364000  *  -88.6017000  *    36    33    32
    38       N          1.42880000  *  107.0185000  *  179.9465000  *    28    27    18
    39       C          1.42470000  *  107.2487000  * -178.6515000  *    38    28    29
    40       C          1.34560000  *  111.6134000  *    0.1744000  *    39    38    28
    41       C          1.46800000  *  120.4628000  *  179.6158000  *    40    39    38
    42       C          1.34620000  *  118.9770000  *    0.0786000  *    41    40    39
    43       C          1.47340000  *  120.5519000  *    0.0000000  *    42    41    40
    44       C          1.34580000  *  120.3829000  *   -0.0279000  *    43    42    41
    45       C          1.45640000  *  128.6141000  *   15.1590000  *    38    28    29
    46       C          1.55210000  *  110.3512000  *   88.3665000  *    45    38    39
    47       C          1.55190000  *  112.6856000  * -170.8736000  *    46    45    38
    48       C          1.55210000  *  113.1490000  *  -75.6590000  *    47    46    45
    49       C          1.55300000  *  110.6197000  *  176.5119000  *    48    47    46
    50       C          1.55250000  *  113.0618000  *  175.2863000  *    49    48    47
    51       C          1.55240000  *  112.5386000  *  -77.0398000  *    50    49    48
    52       C          1.54770000  *  111.4680000  * -177.9864000  *    51    50    49
    53       C          1.46960000  *  120.5796000  *  179.6275000  *    13    12    11
    54       C          1.34930000  *  127.1487000  * -157.9083000  *    53    13    12
    55       C          1.48630000  *  116.0059000  * -179.7848000  *    54    53    13
    56       C          1.34850000  *  116.1224000  *   -1.0355000  *    55    54    53
    57       S          1.82160000  *  106.7520000  *    1.2868000  *    56    55    54
    58       C          1.46780000  *  124.7329000  *  177.6956000  *    56    55    54
    59       C          1.34930000  *  125.5088000  *  156.8646000  *    58    56    55
    60       C          1.47590000  *  120.5794000  * -179.7665000  *    59    58    56
    61       O          1.23230000  *  121.1899000  *   -1.5841000  *    60    59    58
    62       O          1.35560000  *  119.9132000  *  178.6957000  *    60    59    58
    63       C          1.42900000  *  122.1562000  *   -1.5084000  *    59    58    56
    64       N          1.15850000  *  179.3206000  * -179.5736000  *    63    59    58
    65       H          1.05380000  *  116.4129000  *  -21.9239000  *    58    56    55
    66       H          1.09100000  *  110.0603000  *   60.2827000  *     1     2     3
    67       H          1.09110000  *  109.4749000  * -179.9510000  *     1     2     3
    68       H          1.09110000  *  110.0572000  *  -60.2045000  *     1     2     3
    69       H          1.09230000  *  108.8538000  * -178.9724000  *     2     1    66
    70       H          1.09240000  *  108.9062000  *  -60.5260000  *     2     1    66
    71       H          1.09240000  *  109.1470000  *  179.7681000  *     3     2    69
    72       H          1.09220000  *  108.9863000  *  -61.3534000  *     3     2    69
    73       H          1.09250000  *  109.1183000  *  179.0186000  *     4     3    71
    74       H          1.09250000  *  109.2709000  *  179.0252000  *     4     3    72
    75       H          1.09140000  *  108.9104000  *  178.6999000  *     5     4    73
    76       H          1.09180000  *  109.0298000  *  178.6087000  *     5     4    74
    77       H          1.09330000  *  108.5091000  *  179.5247000  *     6     5    75
    78       H          1.09240000  *  109.6535000  *  -62.4282000  *     6     5    75
    79       H          1.09090000  *  109.6630000  *  -69.3438000  *     7     6    77
    80       H          1.09300000  *  107.7857000  *  -69.6249000  *     7     6    78
    81       H          1.09260000  *  109.1347000  * -174.3355000  *     8     7    79
    82       H          1.08510000  *  110.3392000  *  -56.7639000  *     8     7    79
    83       H          1.04960000  *  121.4594000  *   -0.0311000  *    11    10     9
    84       H          1.05120000  *  118.5096000  *  179.4376000  *    12    11    10
    85       H          1.04540000  *  119.8792000  * -178.9812000  *    14    13    12
    86       H          1.05160000  *  120.3309000  *    2.3368000  *    20    19    18
    87       H          1.05140000  *  119.2108000  *  179.7798000  *    21    20    19
    88       H          1.05130000  *  120.0275000  * -179.2905000  *    23    22    21
    89       H          1.05130000  *  119.8543000  *  179.7247000  *    24    23    22
    90       H          1.09200000  *  109.8944000  *   31.8388000  *    25    22    21
    91       H          1.09190000  *  109.5378000  *  150.7153000  *    25    22    21
    92       H          1.09110000  *  110.0717000  *  -60.6737000  *    26    25    90
    93       H          1.09110000  *  109.4809000  *  -59.0396000  *    26    25    91
    94       H          1.09110000  *  110.0362000  *   60.7361000  *    26    25    91
    95       H          1.05160000  *  120.3371000  *    2.3016000  *    31    30    29
    96       H          1.05140000  *  119.2146000  * -179.7960000  *    32    31    30
    97       H          1.05120000  *  120.0290000  * -179.6232000  *    34    33    32
    98       H          1.05130000  *  119.8602000  *  179.6077000  *    35    34    33
    99       H          1.09200000  *  109.7888000  *   32.4101000  *    36    33    32
   100       H          1.09120000  *  109.4383000  *  151.2204000  *    36    33    32
   101       H          1.09100000  *  110.1719000  *  -62.8559000  *    37    36    99
   102       H          1.09110000  *  109.4799000  *  -61.0653000  *    37    36   100
   103       H          1.09070000  *  109.8822000  *   58.5048000  *    37    36   100
   104       H          1.04650000  *  121.6946000  * -179.7953000  *    41    40    39
   105       H          1.05120000  *  119.8436000  * -179.9451000  *    42    41    40
   106       H          1.05110000  *  119.6904000  * -179.9442000  *    43    42    41
   107       H          1.04990000  *  120.0666000  * -179.8551000  *    44    43    42
   108       H          1.08580000  *  111.0209000  * -149.1373000  *    45    38    39
   109       H          1.09260000  *  108.8261000  *  -31.4097000  *    45    38    39
   110       H          1.09290000  *  108.5616000  * -174.5017000  *    46    45   108
   111       H          1.09080000  *  109.9179000  *  -56.6014000  *    46    45   108
   112       H          1.09250000  *  109.2301000  *  -72.8886000  *    47    46   110
   113       H          1.09350000  *  108.1017000  *  -72.7900000  *    47    46   111
   114       H          1.09120000  *  108.7738000  *  174.9516000  *    48    47   112
   115       H          1.09140000  *  109.8116000  *  -65.9348000  *    48    47   112
   116       H          1.09340000  *  108.3111000  *  175.0843000  *    49    48   114
   117       H          1.09240000  *  109.7593000  *  -66.9903000  *    49    48   114
   118       H          1.09200000  *  109.4911000  *  -74.4636000  *    50    49   116
   119       H          1.09330000  *  108.0899000  *  -74.2324000  *    50    49   117
   120       H          1.09250000  *  109.3678000  *  179.8910000  *    51    50   118
   121       H          1.09090000  *  109.8752000  *  -61.0105000  *    51    50   118
   122       H          1.09070000  *  110.1823000  * -179.7033000  *    52    51   120
   123       H          1.09100000  *  110.0199000  * -177.2868000  *    52    51   121
   124       H          1.09110000  *  109.4585000  *  -57.5828000  *    52    51   121
   125       H          1.04850000  *  122.7253000  *    0.7083000  *    54    53    13
   126       H          1.04930000  *  121.5601000  *  178.7416000  *    55    54    53
   127       H          0.94090000  *  121.0819000  *    0.3058000  *    62    60    61
 


          CARTESIAN COORDINATES 

    NO.       ATOM           X           Y           Z

     1         C          0.0000      0.0000      0.0000
     2         C          1.5476      0.0000      0.0000
     3         C          2.1121      1.4445      0.0000
     4         C          3.6632      1.4492      0.0141
     5         C          4.2181      2.8979     -0.0073
     6         C          5.7682      2.9067      0.0524
     7         C          6.3664      4.3389      0.0395
     8         C          6.2457      5.0318     -1.3441
     9         N          7.0007      6.2763     -1.3527
    10         C          8.3769      6.3356     -1.6832
    11         C          9.2839      5.3612     -1.8525
    12         C         10.6662      5.7435     -2.1901
    13         C         11.0186      7.0419     -2.3207
    14         C          9.9953      8.0960     -2.1359
    15         C          8.7380      7.7352     -1.8354
    16         C          7.5100      8.5012     -1.5968
    17         C          6.5105      7.6293     -1.3170
    18         C          5.1560      8.1328     -0.9897
    19         C          4.0444      7.2400     -0.6438
    20         C          3.1850      6.8193     -1.5925
    21         C          2.0246      5.9959     -1.2257
    22         C          1.7938      5.6789      0.0637
    23         C          2.7389      6.1362      1.0993
    24         C          3.8116      6.8735      0.7627
    25         C          0.5834      4.8623      0.4557
    26         C         -0.6321      5.7776      0.7342
    27         C          4.9875      9.4710     -0.9940
    28         C          6.0737     10.4117     -1.3237
    29         C          7.3114      9.9655     -1.6178
    30         C          8.4337     10.8574     -1.9299
    31         C          8.7412     11.1441     -3.2099
    32         C          9.9122     11.9752     -3.5203
    33         C         10.7038     12.4349     -2.5312
    34         C         10.3662     12.1185     -1.1312
    35         C          9.2864     11.3704     -0.8450
    36         C         11.9203     13.2761     -2.8428
    37         C         13.1667     12.3922     -3.0805
    38         N          5.5295     11.7293     -1.2266
    39         C          4.1620     11.5949     -0.8505
    40         C          3.8132     10.3038     -0.7025
    41         C          2.4460      9.9427     -0.3083
    42         C          1.5472     10.9228     -0.0991
    43         C          1.9288     12.3364     -0.2629
    44         C          3.1829     12.6655     -0.6238
    45         C          6.0924     12.9829     -1.7090
    46         C          6.6026     13.8389     -0.5190
    47         C          7.0056     15.2758     -0.9447
    48         C          8.3671     15.3328     -1.6878
    49         C          8.6708     16.7799     -2.1627
    50         C         10.0737     16.9252     -2.8115
    51         C         11.2147     16.9635     -1.7596
    52         C         12.5963     17.1590     -2.4293
    53         C         12.4023      7.4116     -2.6498
    54         C         13.0065      8.5956     -2.4181
    55         C         14.4216      8.7027     -2.8597
    56         C         14.9528      7.5987     -3.4233
    57         S         13.6353      6.3413     -3.4583
    58         C         16.3128      7.5098     -3.9683
    59         C         17.0205      6.3721     -4.1272
    60         C         18.3870      6.4094     -4.6837
    61         O         18.9015      7.4704     -5.0417
    62         O         19.0959      5.2612     -4.8129
    63         C         16.5076      5.0966     -3.7375
    64         N         16.1034      4.0566     -3.4257
    65         H         16.7704      8.4201     -4.2374
    66         H         -0.3742      0.5080     -0.8900
    67         H         -0.3638     -1.0287      0.0009
    68         H         -0.3742      0.5093      0.8894
    69         H          1.9006     -0.5284      0.8884
    70         H          1.9016     -0.5293     -0.8876
    71         H          1.7596      1.9670     -0.8922
    72         H          1.7466      1.9689      0.8857
    73         H          4.0144      0.9418      0.9156
    74         H          4.0333      0.9105     -0.8614
    75         H          3.8829      3.3916     -0.9211
    76         H          3.8270      3.4416      0.8550
    77         H          6.0827      2.4161      0.9774
    78         H          6.1715      2.3397     -0.7898
    79         H          5.8776      4.9478      0.8013
    80         H          7.4254      4.2608      0.2986
    81         H          6.6482      4.3683     -2.1132
    82         H          5.2033      5.2101     -1.5870
    83         H          9.0277      4.3493     -1.7426
    84         H         11.3810      4.9829     -2.3146
    85         H         10.2568      9.1016     -2.2510
    86         H          3.3248      7.0978     -2.5969
    87         H          1.3620      5.6789     -1.9780
    88         H          2.5761      5.8861      2.1074
    89         H          4.4778      7.1988      1.5081
    90         H          0.3308      4.1644     -0.3453
    91         H          0.8078      4.2855      1.3552
    92         H         -0.8848      6.3474     -0.1613
    93         H         -1.4898      5.1666      1.0198
    94         H         -0.4016      6.4682      1.5469
    95         H          8.1570     10.7598     -3.9954
    96         H         10.1360     12.1920     -4.5245
    97         H         10.9722     12.4760     -0.3502
    98         H          9.0565     11.1445      0.1557
    99         H         11.7335     13.8810     -3.7326
   100         H         12.1212     13.9478     -2.0066
   101         H         12.9849     11.6989     -3.9030
   102         H         14.0193     13.0252     -3.3313
   103         H         13.3992     11.8280     -2.1764
   104         H          2.1548      8.9452     -0.1846
   105         H          0.5646     10.6797      0.1844
   106         H          1.2164     13.0908     -0.0952
   107         H          3.4500     13.6745     -0.7369
   108         H          6.8984     12.8023     -2.4138
   109         H          5.3156     13.5363     -2.2420
   110         H          5.8009     13.9214      0.2191
   111         H          7.4498     13.3444     -0.0419
   112         H          6.2216     15.6966     -1.5785
   113         H          7.0803     15.8891     -0.0424
   114         H          9.1518     14.9933     -1.0097
   115         H          8.3416     14.6741     -2.5576
   116         H          7.9202     17.0622     -2.9059
   117         H          8.5918     17.4696     -1.3192
   118         H         10.2394     16.1019     -3.5095
   119         H         10.0918     17.8619     -3.3750
   120         H         11.0417     17.7908     -1.0673
   121         H         11.2273     16.0320     -1.1919
   122         H         12.7924     16.3474     -3.1311
   123         H         12.6211     18.1099     -2.9636
   124         H         13.3740     17.1618     -1.6641
   125         H         12.5208      9.3975     -1.9485
   126         H         14.9687      9.5901     -2.7400
   127         H         19.9684      5.2660     -5.1651

  H: (RM1): G.B. ROCHA, R.O. FREIRE, A.M.SIMAS, J.J.P. STEWART, J. COMP. CHEM. 27, 1101 (2006)
  C: (RM1): G.B. ROCHA, R.O. FREIRE, A.M.SIMAS, J.J.P. STEWART, J. COMP. CHEM. 27, 1101 (2006)
  N: (RM1): G.B. ROCHA, R.O. FREIRE, A.M.SIMAS, J.J.P. STEWART, J. COMP. CHEM. 27, 1101 (2006)
  O: (RM1): G.B. ROCHA, R.O. FREIRE, A.M.SIMAS, J.J.P. STEWART, J. COMP. CHEM. 27, 1101 (2006)
  S: (RM1): G.B. ROCHA, R.O. FREIRE, A.M.SIMAS, J.J.P. STEWART, J. COMP. CHEM. 27, 1101 (2006)

           Empirical Formula: C58 H63 N3 O2 S  =   127 atoms



      MOLECULAR POINT GROUP   :   C1  


      RHF CALCULATION, NO. OF DOUBLY OCCUPIED LEVELS = 164


          Geometry optimization using L-BFGS
 CYCLE:     1 TIME:   0.859 TIME LEFT:  2.00D  GRAD.:   642.958 HEAT:  104.8806
 CYCLE:     2 TIME:   0.500 TIME LEFT:  2.00D  GRAD.:   532.275 HEAT:  101.1785
 CYCLE:     3 TIME:   0.617 TIME LEFT:  2.00D  GRAD.:   449.545 HEAT:  89.14532
 CYCLE:     4 TIME:   0.625 TIME LEFT:  2.00D  GRAD.:   534.325 HEAT:  101.1784
 CYCLE:     5 TIME:   0.617 TIME LEFT:  2.00D  GRAD.:   451.809 HEAT:  89.15745
 CYCLE:     6 TIME:   0.492 TIME LEFT:  2.00D  GRAD.:   374.955 HEAT:  82.79910
 CYCLE:     7 TIME:   0.578 TIME LEFT:  2.00D  GRAD.:   494.473 HEAT:  53.80662
 CYCLE:     8 TIME:   0.578 TIME LEFT:  2.00D  GRAD.:   487.562 HEAT:  39.10059
 CYCLE:     9 TIME:   0.562 TIME LEFT:  2.00D  GRAD.:   360.790 HEAT:  33.73569
 CYCLE:    10 TIME:   0.539 TIME LEFT:  2.00D  GRAD.:   201.879 HEAT:  31.89797
 CYCLE:    11 TIME:   0.484 TIME LEFT:  2.00D  GRAD.:   106.855 HEAT:  30.83390
 CYCLE:    12 TIME:   0.477 TIME LEFT:  2.00D  GRAD.:   124.366 HEAT:  30.35176
 CYCLE:    13 TIME:   0.500 TIME LEFT:  2.00D  GRAD.:   162.770 HEAT:  28.88189
 CYCLE:    14 TIME:   0.484 TIME LEFT:  2.00D  GRAD.:   150.870 HEAT:  27.54688
 CYCLE:    15 TIME:   0.477 TIME LEFT:  2.00D  GRAD.:   124.208 HEAT:  26.46788
 CYCLE:    16 TIME:   0.469 TIME LEFT:  2.00D  GRAD.:    87.086 HEAT:  25.78246
 CYCLE:    17 TIME:   0.477 TIME LEFT:  2.00D  GRAD.:    97.289 HEAT:  25.06596
 CYCLE:    18 TIME:   0.461 TIME LEFT:  2.00D  GRAD.:    99.712 HEAT:  24.39782
 CYCLE:    19 TIME:   0.508 TIME LEFT:  2.00D  GRAD.:   105.619 HEAT:  23.80467
 CYCLE:    20 TIME:   0.469 TIME LEFT:  2.00D  GRAD.:    48.042 HEAT:  23.36164
 CYCLE:    21 TIME:   0.445 TIME LEFT:  2.00D  GRAD.:    43.949 HEAT:  23.13837
 CYCLE:    22 TIME:   0.617 TIME LEFT:  2.00D  GRAD.:   125.561 HEAT:  22.97621
 CYCLE:    23 TIME:   0.484 TIME LEFT:  2.00D  GRAD.:    49.632 HEAT:  22.77557
 CYCLE:    24 TIME:   0.430 TIME LEFT:  2.00D  GRAD.:    37.812 HEAT:  22.67538
 CYCLE:    25 TIME:   0.500 TIME LEFT:  2.00D  GRAD.:    33.464 HEAT:  22.51184
 CYCLE:    26 TIME:   0.492 TIME LEFT:  2.00D  GRAD.:    43.149 HEAT:  22.37125
 CYCLE:    27 TIME:   0.523 TIME LEFT:  2.00D  GRAD.:    56.942 HEAT:  22.23326
 CYCLE:    28 TIME:   0.547 TIME LEFT:  2.00D  GRAD.:    28.345 HEAT:  22.12732
 CYCLE:    29 TIME:   0.508 TIME LEFT:  2.00D  GRAD.:    26.811 HEAT:  22.07037
 CYCLE:    30 TIME:   0.430 TIME LEFT:  2.00D  GRAD.:    27.729 HEAT:  22.00297
 CYCLE:    31 TIME:   0.422 TIME LEFT:  2.00D  GRAD.:    35.979 HEAT:  21.90632
 CYCLE:    32 TIME:   0.578 TIME LEFT:  2.00D  GRAD.:    20.135 HEAT:  21.84742
 CYCLE:    33 TIME:   0.547 TIME LEFT:  2.00D  GRAD.:    12.209 HEAT:  21.82367
 CYCLE:    34 TIME:   0.484 TIME LEFT:  2.00D  GRAD.:    14.772 HEAT:  21.80296
 CYCLE:    35 TIME:   0.562 TIME LEFT:  2.00D  GRAD.:    15.765 HEAT:  21.77189
 CYCLE:    36 TIME:   0.516 TIME LEFT:  2.00D  GRAD.:   133.509 HEAT:  21.86015
 CYCLE:    37 TIME:   0.516 TIME LEFT:  2.00D  GRAD.:    17.094 HEAT:  21.73058
 CYCLE:    38 TIME:   0.461 TIME LEFT:  2.00D  GRAD.:    12.428 HEAT:  21.72155
 CYCLE:    39 TIME:   0.617 TIME LEFT:  2.00D  GRAD.:    12.966 HEAT:  21.70092
 CYCLE:    40 TIME:   0.500 TIME LEFT:  2.00D  GRAD.:    15.269 HEAT:  21.67413
 CYCLE:    41 TIME:   0.602 TIME LEFT:  2.00D  GRAD.:    45.583 HEAT:  21.66997
 CYCLE:    42 TIME:   0.633 TIME LEFT:  2.00D  GRAD.:    15.503 HEAT:  21.62618
 CYCLE:    43 TIME:   0.555 TIME LEFT:  2.00D  GRAD.:    11.657 HEAT:  21.61162
 CYCLE:    44 TIME:   0.594 TIME LEFT:  2.00D  GRAD.:    16.280 HEAT:  21.58036
 CYCLE:    45 TIME:   0.570 TIME LEFT:  2.00D  GRAD.:    29.734 HEAT:  21.55905
 CYCLE:    46 TIME:   0.484 TIME LEFT:  2.00D  GRAD.:    18.167 HEAT:  21.52898
 CYCLE:    47 TIME:   0.523 TIME LEFT:  2.00D  GRAD.:    12.599 HEAT:  21.49099
 CYCLE:    48 TIME:   0.430 TIME LEFT:  2.00D  GRAD.:    13.685 HEAT:  21.47107
 CYCLE:    49 TIME:   0.484 TIME LEFT:  2.00D  GRAD.:    23.895 HEAT:  21.44642
 CYCLE:    50 TIME:   0.586 TIME LEFT:  2.00D  GRAD.:    22.142 HEAT:  21.42281
 CYCLE:    51 TIME:   0.469 TIME LEFT:  2.00D  GRAD.:    20.141 HEAT:  21.40784
 CYCLE:    52 TIME:   0.492 TIME LEFT:  2.00D  GRAD.:    15.470 HEAT:  21.39305
 CYCLE:    53 TIME:   0.500 TIME LEFT:  2.00D  GRAD.:    13.679 HEAT:  21.36974
 CYCLE:    54 TIME:   0.508 TIME LEFT:  2.00D  GRAD.:    12.225 HEAT:  21.34251
 CYCLE:    55 TIME:   0.586 TIME LEFT:  2.00D  GRAD.:    27.283 HEAT:  21.32403
 CYCLE:    56 TIME:   0.516 TIME LEFT:  2.00D  GRAD.:    12.959 HEAT:  21.29731
 CYCLE:    57 TIME:   0.492 TIME LEFT:  2.00D  GRAD.:    10.863 HEAT:  21.28024
 CYCLE:    58 TIME:   0.531 TIME LEFT:  2.00D  GRAD.:    15.756 HEAT:  21.26280
 CYCLE:    59 TIME:   0.516 TIME LEFT:  2.00D  GRAD.:    26.691 HEAT:  21.25245
 CYCLE:    60 TIME:   0.445 TIME LEFT:  2.00D  GRAD.:    12.557 HEAT:  21.23959
 CYCLE:    61 TIME:   0.461 TIME LEFT:  2.00D  GRAD.:    11.412 HEAT:  21.22526
 CYCLE:    62 TIME:   0.461 TIME LEFT:  2.00D  GRAD.:    14.998 HEAT:  21.21219
 CYCLE:    63 TIME:   0.484 TIME LEFT:  2.00D  GRAD.:    13.717 HEAT:  21.19020
 CYCLE:    64 TIME:   0.531 TIME LEFT:  2.00D  GRAD.:    28.042 HEAT:  21.17766
 CYCLE:    65 TIME:   0.531 TIME LEFT:  2.00D  GRAD.:    10.962 HEAT:  21.15243
 CYCLE:    66 TIME:   0.484 TIME LEFT:  2.00D  GRAD.:    10.861 HEAT:  21.13811
 CYCLE:    67 TIME:   0.562 TIME LEFT:  2.00D  GRAD.:    38.108 HEAT:  21.12810
 CYCLE:    68 TIME:   0.492 TIME LEFT:  2.00D  GRAD.:    12.529 HEAT:  21.11568
 CYCLE:    69 TIME:   0.445 TIME LEFT:  2.00D  GRAD.:    11.457 HEAT:  21.11014
 CYCLE:    70 TIME:   0.461 TIME LEFT:  2.00D  GRAD.:    18.057 HEAT:  21.10341
 CYCLE:    71 TIME:   0.492 TIME LEFT:  2.00D  GRAD.:    23.850 HEAT:  21.09065
 CYCLE:    72 TIME:   0.555 TIME LEFT:  2.00D  GRAD.:    29.390 HEAT:  21.05907
 CYCLE:    73 TIME:   0.570 TIME LEFT:  2.00D  GRAD.:    38.879 HEAT:  21.05410
 CYCLE:    74 TIME:   0.438 TIME LEFT:  2.00D  GRAD.:    13.722 HEAT:  21.01371
 CYCLE:    75 TIME:   0.414 TIME LEFT:  2.00D  GRAD.:     8.246 HEAT:  21.00259
 CYCLE:    76 TIME:   0.469 TIME LEFT:  2.00D  GRAD.:    20.831 HEAT:  20.98765
 CYCLE:    77 TIME:   0.484 TIME LEFT:  2.00D  GRAD.:    21.343 HEAT:  20.97739
 CYCLE:    78 TIME:   0.609 TIME LEFT:  2.00D  GRAD.:    28.986 HEAT:  20.94487
 CYCLE:    79 TIME:   0.531 TIME LEFT:  2.00D  GRAD.:    24.758 HEAT:  20.91849
 CYCLE:    80 TIME:   0.477 TIME LEFT:  2.00D  GRAD.:    19.997 HEAT:  20.89642
 CYCLE:    81 TIME:   0.430 TIME LEFT:  2.00D  GRAD.:    16.518 HEAT:  20.87672
 CYCLE:    82 TIME:   0.555 TIME LEFT:  2.00D  GRAD.:    21.501 HEAT:  20.85313
 CYCLE:    83 TIME:   0.570 TIME LEFT:  2.00D  GRAD.:    33.824 HEAT:  20.83899
 CYCLE:    84 TIME:   0.641 TIME LEFT:  2.00D  GRAD.:    19.354 HEAT:  20.82474
 CYCLE:    85 TIME:   0.609 TIME LEFT:  2.00D  GRAD.:    14.981 HEAT:  20.81536
 CYCLE:    86 TIME:   0.680 TIME LEFT:  2.00D  GRAD.:    21.132 HEAT:  20.80606
 CYCLE:    87 TIME:   0.531 TIME LEFT:  2.00D  GRAD.:    11.466 HEAT:  20.79390
 CYCLE:    88 TIME:   0.617 TIME LEFT:  2.00D  GRAD.:    13.223 HEAT:  20.78090
 CYCLE:    89 TIME:   0.625 TIME LEFT:  2.00D  GRAD.:    11.093 HEAT:  20.76831
 CYCLE:    90 TIME:   0.492 TIME LEFT:  2.00D  GRAD.:    16.151 HEAT:  20.74774
 CYCLE:    91 TIME:   0.500 TIME LEFT:  2.00D  GRAD.:    10.018 HEAT:  20.73409
 CYCLE:    92 TIME:   0.430 TIME LEFT:  2.00D  GRAD.:    10.106 HEAT:  20.72517
 CYCLE:    93 TIME:   0.469 TIME LEFT:  2.00D  GRAD.:    10.893 HEAT:  20.70653
 CYCLE:    94 TIME:   0.484 TIME LEFT:  2.00D  GRAD.:    14.253 HEAT:  20.68373
 CYCLE:    95 TIME:   0.508 TIME LEFT:  2.00D  GRAD.:    22.411 HEAT:  20.67089
 CYCLE:    96 TIME:   0.414 TIME LEFT:  2.00D  GRAD.:    32.269 HEAT:  20.66502
 CYCLE:    97 TIME:   0.508 TIME LEFT:  2.00D  GRAD.:    14.617 HEAT:  20.64101
 CYCLE:    98 TIME:   0.547 TIME LEFT:  2.00D  GRAD.:    15.536 HEAT:  20.63726
 CYCLE:    99 TIME:   0.469 TIME LEFT:  2.00D  GRAD.:     6.888 HEAT:  20.63296
 CYCLE:   100 TIME:   0.469 TIME LEFT:  2.00D  GRAD.:    10.786 HEAT:  20.62791
 CYCLE:   101 TIME:   0.562 TIME LEFT:  2.00D  GRAD.:    21.614 HEAT:  20.62184
 CYCLE:   102 TIME:   0.656 TIME LEFT:  2.00D  GRAD.:    16.069 HEAT:  20.61221
 CYCLE:   103 TIME:   0.516 TIME LEFT:  2.00D  GRAD.:     9.288 HEAT:  20.60022
 CYCLE:   104 TIME:   0.523 TIME LEFT:  2.00D  GRAD.:    13.153 HEAT:  20.59469
 CYCLE:   105 TIME:   0.555 TIME LEFT:  2.00D  GRAD.:    15.668 HEAT:  20.58628
 CYCLE:   106 TIME:   0.508 TIME LEFT:  2.00D  GRAD.:    13.354 HEAT:  20.57484
 CYCLE:   107 TIME:   0.469 TIME LEFT:  2.00D  GRAD.:    16.695 HEAT:  20.56684
 CYCLE:   108 TIME:   0.422 TIME LEFT:  2.00D  GRAD.:     8.190 HEAT:  20.55862
 CYCLE:   109 TIME:   0.430 TIME LEFT:  2.00D  GRAD.:     8.560 HEAT:  20.55397
 CYCLE:   110 TIME:   0.516 TIME LEFT:  2.00D  GRAD.:     9.312 HEAT:  20.54616
 CYCLE:   111 TIME:   0.555 TIME LEFT:  2.00D  GRAD.:    22.350 HEAT:  20.53930
 CYCLE:   112 TIME:   0.516 TIME LEFT:  2.00D  GRAD.:    12.259 HEAT:  20.53091
 CYCLE:   113 TIME:   0.531 TIME LEFT:  2.00D  GRAD.:     8.831 HEAT:  20.52715
 CYCLE:   114 TIME:   0.523 TIME LEFT:  2.00D  GRAD.:     9.072 HEAT:  20.52134
 CYCLE:   115 TIME:   0.539 TIME LEFT:  2.00D  GRAD.:    10.956 HEAT:  20.51397
 CYCLE:   116 TIME:   0.531 TIME LEFT:  2.00D  GRAD.:    12.513 HEAT:  20.50202
 CYCLE:   117 TIME:   0.516 TIME LEFT:  2.00D  GRAD.:    38.086 HEAT:  20.49817
 CYCLE:   118 TIME:   0.547 TIME LEFT:  2.00D  GRAD.:     8.728 HEAT:  20.47727
 CYCLE:   119 TIME:   0.492 TIME LEFT:  2.00D  GRAD.:     7.394 HEAT:  20.46874
 CYCLE:   120 TIME:   0.508 TIME LEFT:  2.00D  GRAD.:     9.581 HEAT:  20.45816
 CYCLE:   121 TIME:   0.422 TIME LEFT:  2.00D  GRAD.:    16.478 HEAT:  20.44638
 CYCLE:   122 TIME:   0.547 TIME LEFT:  2.00D  GRAD.:     9.388 HEAT:  20.43086
 CYCLE:   123 TIME:   0.625 TIME LEFT:  2.00D  GRAD.:    11.579 HEAT:  20.41812
 CYCLE:   124 TIME:   0.633 TIME LEFT:  2.00D  GRAD.:    24.275 HEAT:  20.41631
 CYCLE:   125 TIME:   0.445 TIME LEFT:  2.00D  GRAD.:     9.335 HEAT:  20.40708
 CYCLE:   126 TIME:   0.445 TIME LEFT:  2.00D  GRAD.:     7.139 HEAT:  20.40404
 CYCLE:   127 TIME:   0.586 TIME LEFT:  2.00D  GRAD.:     9.844 HEAT:  20.39406
 CYCLE:   128 TIME:   0.555 TIME LEFT:  2.00D  GRAD.:    15.597 HEAT:  20.38314
 CYCLE:   129 TIME:   0.547 TIME LEFT:  2.00D  GRAD.:     8.259 HEAT:  20.37027
 CYCLE:   130 TIME:   0.547 TIME LEFT:  2.00D  GRAD.:     8.110 HEAT:  20.36063
 CYCLE:   131 TIME:   0.500 TIME LEFT:  2.00D  GRAD.:    44.556 HEAT:  20.36142
 CYCLE:   132 TIME:   0.453 TIME LEFT:  2.00D  GRAD.:     8.454 HEAT:  20.33811
 CYCLE:   133 TIME:   0.461 TIME LEFT:  2.00D  GRAD.:     7.965 HEAT:  20.33262
 CYCLE:   134 TIME:   0.648 TIME LEFT:  2.00D  GRAD.:    13.253 HEAT:  20.31355
 CYCLE:   135 TIME:   0.578 TIME LEFT:  2.00D  GRAD.:    19.143 HEAT:  20.30164
 CYCLE:   136 TIME:   0.500 TIME LEFT:  2.00D  GRAD.:     9.630 HEAT:  20.28768
 CYCLE:   137 TIME:   0.555 TIME LEFT:  2.00D  GRAD.:    10.474 HEAT:  20.27353
 CYCLE:   138 TIME:   0.508 TIME LEFT:  2.00D  GRAD.:    16.386 HEAT:  20.26090
 CYCLE:   139 TIME:   0.555 TIME LEFT:  2.00D  GRAD.:    35.961 HEAT:  20.25691
 CYCLE:   140 TIME:   0.445 TIME LEFT:  2.00D  GRAD.:    10.387 HEAT:  20.23634
 CYCLE:   141 TIME:   0.555 TIME LEFT:  2.00D  GRAD.:     9.157 HEAT:  20.23006
 CYCLE:   142 TIME:   0.523 TIME LEFT:  2.00D  GRAD.:    10.488 HEAT:  20.21552
 CYCLE:   143 TIME:   0.539 TIME LEFT:  2.00D  GRAD.:    25.942 HEAT:  20.20156
 CYCLE:   144 TIME:   0.648 TIME LEFT:  2.00D  GRAD.:    10.330 HEAT:  20.17980
 CYCLE:   145 TIME:   0.617 TIME LEFT:  2.00D  GRAD.:     8.452 HEAT:  20.17003
 CYCLE:   146 TIME:   0.570 TIME LEFT:  2.00D  GRAD.:    14.488 HEAT:  20.16037
 CYCLE:   147 TIME:   0.562 TIME LEFT:  2.00D  GRAD.:    26.331 HEAT:  20.15692
 CYCLE:   148 TIME:   0.484 TIME LEFT:  2.00D  GRAD.:     8.960 HEAT:  20.14747
 CYCLE:   149 TIME:   0.438 TIME LEFT:  2.00D  GRAD.:     8.036 HEAT:  20.14130
 CYCLE:   150 TIME:   0.492 TIME LEFT:  2.00D  GRAD.:    13.052 HEAT:  20.13501
 CYCLE:   151 TIME:   0.445 TIME LEFT:  2.00D  GRAD.:    13.479 HEAT:  20.12518
 CYCLE:   152 TIME:   0.539 TIME LEFT:  2.00D  GRAD.:    28.045 HEAT:  20.10162
 CYCLE:   153 TIME:   0.602 TIME LEFT:  2.00D  GRAD.:    37.549 HEAT:  20.09911
 CYCLE:   154 TIME:   0.531 TIME LEFT:  2.00D  GRAD.:     8.929 HEAT:  20.07635
 CYCLE:   155 TIME:   0.539 TIME LEFT:  2.00D  GRAD.:     7.797 HEAT:  20.07015
 CYCLE:   156 TIME:   0.453 TIME LEFT:  2.00D  GRAD.:    12.074 HEAT:  20.05997
 CYCLE:   157 TIME:   0.617 TIME LEFT:  2.00D  GRAD.:    14.853 HEAT:  20.04233
 CYCLE:   158 TIME:   0.547 TIME LEFT:  2.00D  GRAD.:     9.595 HEAT:  20.02352
 CYCLE:   159 TIME:   0.500 TIME LEFT:  2.00D  GRAD.:    14.587 HEAT:  19.99808
 CYCLE:   160 TIME:   0.523 TIME LEFT:  2.00D  GRAD.:    19.818 HEAT:  19.98927
 CYCLE:   161 TIME:   0.477 TIME LEFT:  2.00D  GRAD.:    10.899 HEAT:  19.97862
 CYCLE:   162 TIME:   0.461 TIME LEFT:  2.00D  GRAD.:     8.599 HEAT:  19.96540
 CYCLE:   163 TIME:   0.461 TIME LEFT:  2.00D  GRAD.:    24.695 HEAT:  19.95942
 CYCLE:   164 TIME:   0.586 TIME LEFT:  2.00D  GRAD.:    10.404 HEAT:  19.95209
 CYCLE:   165 TIME:   0.508 TIME LEFT:  2.00D  GRAD.:    12.334 HEAT:  19.94443
 CYCLE:   166 TIME:   0.555 TIME LEFT:  2.00D  GRAD.:    15.379 HEAT:  19.93771
 CYCLE:   167 TIME:   0.562 TIME LEFT:  2.00D  GRAD.:    10.659 HEAT:  19.92517
 CYCLE:   168 TIME:   0.539 TIME LEFT:  2.00D  GRAD.:    28.152 HEAT:  19.92614
 CYCLE:   169 TIME:   0.453 TIME LEFT:  2.00D  GRAD.:     9.150 HEAT:  19.90884
 CYCLE:   170 TIME:   0.500 TIME LEFT:  2.00D  GRAD.:     8.657 HEAT:  19.90572
 CYCLE:   171 TIME:   0.562 TIME LEFT:  2.00D  GRAD.:    11.169 HEAT:  19.89498
 CYCLE:   172 TIME:   0.500 TIME LEFT:  2.00D  GRAD.:    45.374 HEAT:  19.91886
 CYCLE:   173 TIME:   0.594 TIME LEFT:  2.00D  GRAD.:     9.541 HEAT:  19.87445
 CYCLE:   174 TIME:   0.586 TIME LEFT:  2.00D  GRAD.:     7.722 HEAT:  19.86676
 CYCLE:   175 TIME:   0.648 TIME LEFT:  2.00D  GRAD.:    15.225 HEAT:  19.85194
 CYCLE:   176 TIME:   0.602 TIME LEFT:  2.00D  GRAD.:    12.657 HEAT:  19.84128
 CYCLE:   177 TIME:   0.477 TIME LEFT:  2.00D  GRAD.:    35.148 HEAT:  19.82408
 CYCLE:   178 TIME:   0.531 TIME LEFT:  2.00D  GRAD.:    33.008 HEAT:  19.81673
 CYCLE:   179 TIME:   0.555 TIME LEFT:  2.00D  GRAD.:    11.900 HEAT:  19.80558
 CYCLE:   180 TIME:   0.492 TIME LEFT:  2.00D  GRAD.:     8.416 HEAT:  19.80121
 CYCLE:   181 TIME:   0.484 TIME LEFT:  2.00D  GRAD.:     9.984 HEAT:  19.79389
 CYCLE:   182 TIME:   0.562 TIME LEFT:  2.00D  GRAD.:    11.430 HEAT:  19.78111
 CYCLE:   183 TIME:   0.461 TIME LEFT:  2.00D  GRAD.:    35.520 HEAT:  19.77411
 CYCLE:   184 TIME:   0.539 TIME LEFT:  2.00D  GRAD.:    10.987 HEAT:  19.74672
 CYCLE:   185 TIME:   0.500 TIME LEFT:  2.00D  GRAD.:     7.635 HEAT:  19.73997
 CYCLE:   186 TIME:   0.492 TIME LEFT:  2.00D  GRAD.:     9.241 HEAT:  19.73054
 CYCLE:   187 TIME:   0.531 TIME LEFT:  2.00D  GRAD.:    13.108 HEAT:  19.71460
 CYCLE:   188 TIME:   0.562 TIME LEFT:  2.00D  GRAD.:    14.971 HEAT:  19.68231
 CYCLE:   189 TIME:   0.469 TIME LEFT:  2.00D  GRAD.:    48.732 HEAT:  19.69911
 CYCLE:   190 TIME:   0.477 TIME LEFT:  2.00D  GRAD.:    10.782 HEAT:  19.65495
 CYCLE:   191 TIME:   0.445 TIME LEFT:  2.00D  GRAD.:     8.636 HEAT:  19.64686
 CYCLE:   192 TIME:   0.477 TIME LEFT:  2.00D  GRAD.:    10.946 HEAT:  19.62630
 CYCLE:   193 TIME:   0.453 TIME LEFT:  2.00D  GRAD.:    21.224 HEAT:  19.61352
 CYCLE:   194 TIME:   0.492 TIME LEFT:  2.00D  GRAD.:    27.583 HEAT:  19.60826
 CYCLE:   195 TIME:   0.500 TIME LEFT:  2.00D  GRAD.:     9.892 HEAT:  19.59982
 CYCLE:   196 TIME:   0.477 TIME LEFT:  2.00D  GRAD.:    10.391 HEAT:  19.59535
 CYCLE:   197 TIME:   0.523 TIME LEFT:  2.00D  GRAD.:    13.819 HEAT:  19.58961
 CYCLE:   198 TIME:   0.477 TIME LEFT:  2.00D  GRAD.:    12.256 HEAT:  19.57851
 CYCLE:   199 TIME:   0.484 TIME LEFT:  2.00D  GRAD.:    27.420 HEAT:  19.57353
 CYCLE:   200 TIME:   0.500 TIME LEFT:  2.00D  GRAD.:    10.149 HEAT:  19.55508
 CYCLE:   201 TIME:   0.484 TIME LEFT:  2.00D  GRAD.:     6.697 HEAT:  19.54776
 CYCLE:   202 TIME:   0.625 TIME LEFT:  2.00D  GRAD.:     9.605 HEAT:  19.54052
 CYCLE:   203 TIME:   0.477 TIME LEFT:  2.00D  GRAD.:    11.473 HEAT:  19.53021
 CYCLE:   204 TIME:   0.586 TIME LEFT:  2.00D  GRAD.:     9.758 HEAT:  19.52190
 CYCLE:   205 TIME:   0.469 TIME LEFT:  2.00D  GRAD.:     7.930 HEAT:  19.51276
 CYCLE:   206 TIME:   0.531 TIME LEFT:  2.00D  GRAD.:    10.449 HEAT:  19.50435
 CYCLE:   207 TIME:   0.523 TIME LEFT:  2.00D  GRAD.:    10.394 HEAT:  19.49284
 CYCLE:   208 TIME:   0.461 TIME LEFT:  2.00D  GRAD.:    20.036 HEAT:  19.49001
 CYCLE:   209 TIME:   0.555 TIME LEFT:  2.00D  GRAD.:    14.051 HEAT:  19.48121
 CYCLE:   210 TIME:   0.508 TIME LEFT:  2.00D  GRAD.:     5.903 HEAT:  19.47820
 CYCLE:   211 TIME:   0.531 TIME LEFT:  2.00D  GRAD.:     6.453 HEAT:  19.47599
 CYCLE:   212 TIME:   0.492 TIME LEFT:  2.00D  GRAD.:     5.363 HEAT:  19.46603
 CYCLE:   213 TIME:   0.477 TIME LEFT:  2.00D  GRAD.:     9.793 HEAT:  19.45858
 CYCLE:   214 TIME:   0.586 TIME LEFT:  2.00D  GRAD.:     4.784 HEAT:  19.45265
 CYCLE:   215 TIME:   0.461 TIME LEFT:  2.00D  GRAD.:     5.018 HEAT:  19.44886
 CYCLE:   216 TIME:   0.461 TIME LEFT:  2.00D  GRAD.:     9.523 HEAT:  19.44302
 CYCLE:   217 TIME:   0.461 TIME LEFT:  2.00D  GRAD.:     7.420 HEAT:  19.43712
 CYCLE:   218 TIME:   0.445 TIME LEFT:  2.00D  GRAD.:     5.747 HEAT:  19.43062
 CYCLE:   219 TIME:   0.539 TIME LEFT:  2.00D  GRAD.:    13.560 HEAT:  19.42611
 CYCLE:   220 TIME:   0.484 TIME LEFT:  2.00D  GRAD.:     5.738 HEAT:  19.41958
 CYCLE:   221 TIME:   0.484 TIME LEFT:  2.00D  GRAD.:     5.799 HEAT:  19.41546
 CYCLE:   222 TIME:   0.453 TIME LEFT:  2.00D  GRAD.:     9.648 HEAT:  19.40988
 CYCLE:   223 TIME:   0.578 TIME LEFT:  2.00D  GRAD.:    33.967 HEAT:  19.41337
 CYCLE:   224 TIME:   0.570 TIME LEFT:  2.00D  GRAD.:     6.901 HEAT:  19.40523
 CYCLE:   225 TIME:   0.445 TIME LEFT:  2.00D  GRAD.:     5.344 HEAT:  19.40380
 CYCLE:   226 TIME:   0.508 TIME LEFT:  2.00D  GRAD.:     7.895 HEAT:  19.40095
 CYCLE:   227 TIME:   0.523 TIME LEFT:  2.00D  GRAD.:     7.069 HEAT:  19.39869
 CYCLE:   228 TIME:   0.578 TIME LEFT:  2.00D  GRAD.:     6.669 HEAT:  19.39345
 CYCLE:   229 TIME:   0.625 TIME LEFT:  2.00D  GRAD.:    21.982 HEAT:  19.39714
 CYCLE:   230 TIME:   0.492 TIME LEFT:  2.00D  GRAD.:     4.446 HEAT:  19.38539
 CYCLE:   231 TIME:   0.461 TIME LEFT:  2.00D  GRAD.:     3.737 HEAT:  19.38351
 CYCLE:   232 TIME:   0.438 TIME LEFT:  2.00D  GRAD.:     5.683 HEAT:  19.38016
 CYCLE:   233 TIME:   0.469 TIME LEFT:  2.00D  GRAD.:     6.173 HEAT:  19.37614
 CYCLE:   234 TIME:   0.508 TIME LEFT:  2.00D  GRAD.:     5.511 HEAT:  19.37133
 CYCLE:   235 TIME:   0.445 TIME LEFT:  2.00D  GRAD.:     6.291 HEAT:  19.36627
 CYCLE:   236 TIME:   0.602 TIME LEFT:  2.00D  GRAD.:     7.911 HEAT:  19.36277
 CYCLE:   237 TIME:   0.492 TIME LEFT:  2.00D  GRAD.:     8.067 HEAT:  19.35959
 CYCLE:   238 TIME:   0.430 TIME LEFT:  2.00D  GRAD.:     7.391 HEAT:  19.35542
 CYCLE:   239 TIME:   0.453 TIME LEFT:  2.00D  GRAD.:     7.515 HEAT:  19.35253
 CYCLE:   240 TIME:   0.430 TIME LEFT:  2.00D  GRAD.:     8.538 HEAT:  19.34863
 CYCLE:   241 TIME:   0.461 TIME LEFT:  2.00D  GRAD.:     8.537 HEAT:  19.34108
 CYCLE:   242 TIME:   0.484 TIME LEFT:  2.00D  GRAD.:    16.673 HEAT:  19.33769
 CYCLE:   243 TIME:   0.414 TIME LEFT:  2.00D  GRAD.:     7.219 HEAT:  19.33076
 CYCLE:   244 TIME:   0.453 TIME LEFT:  2.00D  GRAD.:     5.333 HEAT:  19.32649
 CYCLE:   245 TIME:   0.617 TIME LEFT:  2.00D  GRAD.:     5.982 HEAT:  19.32177
 CYCLE:   246 TIME:   0.461 TIME LEFT:  2.00D  GRAD.:     8.044 HEAT:  19.31622
 CYCLE:   247 TIME:   0.531 TIME LEFT:  2.00D  GRAD.:    12.534 HEAT:  19.31305
 CYCLE:   248 TIME:   0.414 TIME LEFT:  2.00D  GRAD.:     4.976 HEAT:  19.30811
 CYCLE:   249 TIME:   0.586 TIME LEFT:  2.00D  GRAD.:     5.023 HEAT:  19.30555
 CYCLE:   250 TIME:   0.469 TIME LEFT:  2.00D  GRAD.:     4.174 HEAT:  19.30229
 CYCLE:   251 TIME:   0.586 TIME LEFT:  2.00D  GRAD.:    11.179 HEAT:  19.29914
 CYCLE:   252 TIME:   0.477 TIME LEFT:  2.00D  GRAD.:    35.237 HEAT:  19.30440
 CYCLE:   253 TIME:   0.578 TIME LEFT:  2.00D  GRAD.:     6.387 HEAT:  19.29605
 CYCLE:   254 TIME:   0.539 TIME LEFT:  2.00D  GRAD.:     4.720 HEAT:  19.29520
 CYCLE:   255 TIME:   0.445 TIME LEFT:  2.00D  GRAD.:     5.532 HEAT:  19.29285
 CYCLE:   256 TIME:   0.688 TIME LEFT:  2.00D  GRAD.:     5.142 HEAT:  19.29083
 CYCLE:   257 TIME:   0.586 TIME LEFT:  2.00D  GRAD.:     6.276 HEAT:  19.28667
 CYCLE:   258 TIME:   0.484 TIME LEFT:  2.00D  GRAD.:    15.014 HEAT:  19.28744
 CYCLE:   259 TIME:   0.484 TIME LEFT:  2.00D  GRAD.:     4.556 HEAT:  19.28146
 CYCLE:   260 TIME:   0.633 TIME LEFT:  2.00D  GRAD.:     3.448 HEAT:  19.28016
 CYCLE:   261 TIME:   0.633 TIME LEFT:  2.00D  GRAD.:     5.834 HEAT:  19.27721
 CYCLE:   262 TIME:   0.461 TIME LEFT:  2.00D  GRAD.:     4.959 HEAT:  19.27344
 CYCLE:   263 TIME:   0.438 TIME LEFT:  2.00D  GRAD.:     7.759 HEAT:  19.27165
 CYCLE:   264 TIME:   0.531 TIME LEFT:  2.00D  GRAD.:     5.035 HEAT:  19.26961
 CYCLE:   265 TIME:   0.547 TIME LEFT:  2.00D  GRAD.:     4.248 HEAT:  19.26731
 CYCLE:   266 TIME:   0.438 TIME LEFT:  2.00D  GRAD.:     3.724 HEAT:  19.26407
 CYCLE:   267 TIME:   0.617 TIME LEFT:  2.00D  GRAD.:    21.391 HEAT:  19.26375
 CYCLE:   268 TIME:   0.539 TIME LEFT:  2.00D  GRAD.:    30.743 HEAT:  19.26622
 CYCLE:   269 TIME:   0.523 TIME LEFT:  2.00D  GRAD.:     3.648 HEAT:  19.25982
 CYCLE:   270 TIME:   0.523 TIME LEFT:  2.00D  GRAD.:     3.525 HEAT:  19.25951
 CYCLE:   271 TIME:   0.438 TIME LEFT:  2.00D  GRAD.:     5.209 HEAT:  19.25828
 CYCLE:   272 TIME:   0.562 TIME LEFT:  2.00D  GRAD.:     4.059 HEAT:  19.25652
 CYCLE:   273 TIME:   0.523 TIME LEFT:  2.00D  GRAD.:     5.756 HEAT:  19.25340
 CYCLE:   274 TIME:   0.484 TIME LEFT:  2.00D  GRAD.:     9.814 HEAT:  19.25182
 CYCLE:   275 TIME:   0.430 TIME LEFT:  2.00D  GRAD.:     5.153 HEAT:  19.24995
 CYCLE:   276 TIME:   0.453 TIME LEFT:  2.00D  GRAD.:     3.398 HEAT:  19.24762
 CYCLE:   277 TIME:   0.477 TIME LEFT:  2.00D  GRAD.:     5.706 HEAT:  19.24513
 CYCLE:   278 TIME:   0.516 TIME LEFT:  2.00D  GRAD.:     6.243 HEAT:  19.24302
 CYCLE:   279 TIME:   0.586 TIME LEFT:  2.00D  GRAD.:    13.440 HEAT:  19.24373
 CYCLE:   280 TIME:   0.445 TIME LEFT:  2.00D  GRAD.:    10.938 HEAT:  19.24252
 CYCLE:   281 TIME:   0.617 TIME LEFT:  2.00D  GRAD.:     2.998 HEAT:  19.23885
 CYCLE:   282 TIME:   0.445 TIME LEFT:  2.00D  GRAD.:     3.212 HEAT:  19.23757
 CYCLE:   283 TIME:   0.445 TIME LEFT:  2.00D  GRAD.:     5.585 HEAT:  19.23585
 CYCLE:   284 TIME:   0.438 TIME LEFT:  2.00D  GRAD.:    30.638 HEAT:  19.24027
 CYCLE:   285 TIME:   0.461 TIME LEFT:  2.00D  GRAD.:     6.003 HEAT:  19.23398
 CYCLE:   286 TIME:   0.445 TIME LEFT:  2.00D  GRAD.:     3.673 HEAT:  19.23340
 CYCLE:   287 TIME:   0.578 TIME LEFT:  2.00D  GRAD.:     4.723 HEAT:  19.23213
 CYCLE:   288 TIME:   0.484 TIME LEFT:  2.00D  GRAD.:     6.233 HEAT:  19.23111
 CYCLE:   289 TIME:   0.484 TIME LEFT:  2.00D  GRAD.:     7.394 HEAT:  19.22916
 CYCLE:   290 TIME:   0.570 TIME LEFT:  2.00D  GRAD.:    11.559 HEAT:  19.22848
 CYCLE:   291 TIME:   0.516 TIME LEFT:  2.00D  GRAD.:     5.130 HEAT:  19.22567
 CYCLE:   292 TIME:   0.477 TIME LEFT:  2.00D  GRAD.:     3.550 HEAT:  19.22406
 CYCLE:   293 TIME:   0.500 TIME LEFT:  2.00D  GRAD.:     4.935 HEAT:  19.22268
 CYCLE:   294 TIME:   0.555 TIME LEFT:  2.00D  GRAD.:     6.315 HEAT:  19.22033
 CYCLE:   295 TIME:   0.500 TIME LEFT:  2.00D  GRAD.:     5.873 HEAT:  19.21860
 CYCLE:   296 TIME:   0.492 TIME LEFT:  2.00D  GRAD.:    26.308 HEAT:  19.22263
 CYCLE:   297 TIME:   0.492 TIME LEFT:  2.00D  GRAD.:    16.027 HEAT:  19.22161
 CYCLE:   298 TIME:   0.555 TIME LEFT:  2.00D  GRAD.:     3.271 HEAT:  19.21394
 CYCLE:   299 TIME:   0.516 TIME LEFT:  2.00D  GRAD.:     3.612 HEAT:  19.21305
 CYCLE:   300 TIME:   0.438 TIME LEFT:  2.00D  GRAD.:    17.207 HEAT:  19.21387
 CYCLE:   301 TIME:   0.453 TIME LEFT:  2.00D  GRAD.:     3.635 HEAT:  19.21115
 CYCLE:   302 TIME:   0.570 TIME LEFT:  2.00D  GRAD.:     2.976 HEAT:  19.21091
 CYCLE:   303 TIME:   0.492 TIME LEFT:  2.00D  GRAD.:     3.057 HEAT:  19.20963
 CYCLE:   304 TIME:   0.516 TIME LEFT:  2.00D  GRAD.:     4.451 HEAT:  19.20713
 CYCLE:   305 TIME:   0.516 TIME LEFT:  2.00D  GRAD.:     6.099 HEAT:  19.20586
 CYCLE:   306 TIME:   0.500 TIME LEFT:  2.00D  GRAD.:     3.932 HEAT:  19.20454
 CYCLE:   307 TIME:   0.477 TIME LEFT:  2.00D  GRAD.:     2.771 HEAT:  19.20360
 CYCLE:   308 TIME:   0.523 TIME LEFT:  2.00D  GRAD.:     3.195 HEAT:  19.20270
 CYCLE:   309 TIME:   0.508 TIME LEFT:  2.00D  GRAD.:     3.789 HEAT:  19.20154
 CYCLE:   310 TIME:   0.461 TIME LEFT:  2.00D  GRAD.:     4.561 HEAT:  19.19918
 CYCLE:   311 TIME:   0.438 TIME LEFT:  2.00D  GRAD.:    10.441 HEAT:  19.20011
 CYCLE:   312 TIME:   0.539 TIME LEFT:  2.00D  GRAD.:     2.401 HEAT:  19.19732
 CYCLE:   313 TIME:   0.469 TIME LEFT:  2.00D  GRAD.:     2.212 HEAT:  19.19698
 CYCLE:   314 TIME:   0.500 TIME LEFT:  2.00D  GRAD.:     4.103 HEAT:  19.19626
 CYCLE:   315 TIME:   0.492 TIME LEFT:  2.00D  GRAD.:     6.150 HEAT:  19.19556
 CYCLE:   316 TIME:   0.438 TIME LEFT:  2.00D  GRAD.:     4.213 HEAT:  19.19458
 CYCLE:   317 TIME:   0.461 TIME LEFT:  2.00D  GRAD.:     3.066 HEAT:  19.19321
 CYCLE:   318 TIME:   0.453 TIME LEFT:  2.00D  GRAD.:     2.686 HEAT:  19.19222
 CYCLE:   319 TIME:   0.523 TIME LEFT:  2.00D  GRAD.:     6.567 HEAT:  19.19136
 CYCLE:   320 TIME:   0.594 TIME LEFT:  2.00D  GRAD.:     2.902 HEAT:  19.19033
 CYCLE:   321 TIME:   0.570 TIME LEFT:  2.00D  GRAD.:     2.609 HEAT:  19.18960
 CYCLE:   322 TIME:   0.453 TIME LEFT:  2.00D  GRAD.:     2.936 HEAT:  19.18890
 CYCLE:   323 TIME:   0.445 TIME LEFT:  2.00D  GRAD.:     4.464 HEAT:  19.18732
 CYCLE:   324 TIME:   0.461 TIME LEFT:  2.00D  GRAD.:     6.668 HEAT:  19.18628
 CYCLE:   325 TIME:   0.453 TIME LEFT:  2.00D  GRAD.:     3.334 HEAT:  19.18459
 CYCLE:   326 TIME:   0.477 TIME LEFT:  2.00D  GRAD.:     2.519 HEAT:  19.18337
 CYCLE:   327 TIME:   0.523 TIME LEFT:  2.00D  GRAD.:     2.709 HEAT:  19.18253
 CYCLE:   328 TIME:   0.523 TIME LEFT:  2.00D  GRAD.:     8.807 HEAT:  19.18190
 CYCLE:   329 TIME:   0.461 TIME LEFT:  2.00D  GRAD.:     5.689 HEAT:  19.18073
 CYCLE:   330 TIME:   0.469 TIME LEFT:  2.00D  GRAD.:     3.118 HEAT:  19.17997
 CYCLE:   331 TIME:   0.477 TIME LEFT:  2.00D  GRAD.:     2.044 HEAT:  19.17942
 CYCLE:   332 TIME:   0.500 TIME LEFT:  2.00D  GRAD.:     2.047 HEAT:  19.17867
 CYCLE:   333 TIME:   0.508 TIME LEFT:  2.00D  GRAD.:     8.586 HEAT:  19.17861
 CYCLE:   334 TIME:   0.438 TIME LEFT:  2.00D  GRAD.:     2.092 HEAT:  19.17731
 CYCLE:   335 TIME:   0.430 TIME LEFT:  2.00D  GRAD.:     1.847 HEAT:  19.17701
 CYCLE:   336 TIME:   0.578 TIME LEFT:  2.00D  GRAD.:     2.688 HEAT:  19.17618
 CYCLE:   337 TIME:   0.539 TIME LEFT:  2.00D  GRAD.:    11.606 HEAT:  19.17788
 CYCLE:   338 TIME:   0.477 TIME LEFT:  2.00D  GRAD.:     2.194 HEAT:  19.17538
 CYCLE:   339 TIME:   0.547 TIME LEFT:  2.00D  GRAD.:     1.663 HEAT:  19.17514
 CYCLE:   340 TIME:   0.430 TIME LEFT:  2.00D  GRAD.:     2.293 HEAT:  19.17412
 CYCLE:   341 TIME:   0.609 TIME LEFT:  2.00D  GRAD.:     5.116 HEAT:  19.17339
 CYCLE:   342 TIME:   0.492 TIME LEFT:  2.00D  GRAD.:     3.975 HEAT:  19.17255
 CYCLE:   343 TIME:   0.445 TIME LEFT:  2.00D  GRAD.:     2.651 HEAT:  19.17213
 CYCLE:   344 TIME:   0.461 TIME LEFT:  2.00D  GRAD.:     2.844 HEAT:  19.17159
 CYCLE:   345 TIME:   0.477 TIME LEFT:  2.00D  GRAD.:     3.661 HEAT:  19.17040
 CYCLE:   346 TIME:   0.492 TIME LEFT:  2.00D  GRAD.:     3.453 HEAT:  19.16972
 CYCLE:   347 TIME:   0.477 TIME LEFT:  2.00D  GRAD.:     2.420 HEAT:  19.16922
 CYCLE:   348 TIME:   0.508 TIME LEFT:  2.00D  GRAD.:     2.192 HEAT:  19.16859
 CYCLE:   349 TIME:   0.477 TIME LEFT:  2.00D  GRAD.:     4.248 HEAT:  19.16790
 CYCLE:   350 TIME:   0.469 TIME LEFT:  2.00D  GRAD.:     9.096 HEAT:  19.16764
 CYCLE:   351 TIME:   0.438 TIME LEFT:  2.00D  GRAD.:     2.652 HEAT:  19.16642
 CYCLE:   352 TIME:   0.469 TIME LEFT:  2.00D  GRAD.:     1.844 HEAT:  19.16627
 CYCLE:   353 TIME:   0.547 TIME LEFT:  2.00D  GRAD.:     2.441 HEAT:  19.16590
 CYCLE:   354 TIME:   0.633 TIME LEFT:  2.00D  GRAD.:     3.585 HEAT:  19.16505
 CYCLE:   355 TIME:   0.461 TIME LEFT:  2.00D  GRAD.:     3.796 HEAT:  19.16404
 CYCLE:   356 TIME:   0.539 TIME LEFT:  2.00D  GRAD.:     6.153 HEAT:  19.16383
 CYCLE:   357 TIME:   0.539 TIME LEFT:  2.00D  GRAD.:     3.720 HEAT:  19.16273
 CYCLE:   358 TIME:   0.445 TIME LEFT:  2.00D  GRAD.:     2.582 HEAT:  19.16219
 CYCLE:   359 TIME:   0.461 TIME LEFT:  2.00D  GRAD.:     2.187 HEAT:  19.16173
 CYCLE:   360 TIME:   0.461 TIME LEFT:  2.00D  GRAD.:     7.904 HEAT:  19.16155
 CYCLE:   361 TIME:   0.547 TIME LEFT:  2.00D  GRAD.:     1.887 HEAT:  19.16082
 CYCLE:   362 TIME:   0.438 TIME LEFT:  2.00D  GRAD.:     1.876 HEAT:  19.16056
 CYCLE:   363 TIME:   0.539 TIME LEFT:  2.00D  GRAD.:     3.493 HEAT:  19.15979
 CYCLE:   364 TIME:   0.516 TIME LEFT:  2.00D  GRAD.:     2.549 HEAT:  19.15914
 CYCLE:   365 TIME:   0.570 TIME LEFT:  2.00D  GRAD.:     2.409 HEAT:  19.15867
 CYCLE:   366 TIME:   0.492 TIME LEFT:  2.00D  GRAD.:     3.377 HEAT:  19.15826
 CYCLE:   367 TIME:   0.477 TIME LEFT:  2.00D  GRAD.:     1.983 HEAT:  19.15800
 CYCLE:   368 TIME:   0.656 TIME LEFT:  2.00D  GRAD.:     1.932 HEAT:  19.15771
 CYCLE:   369 TIME:   0.508 TIME LEFT:  2.00D  GRAD.:     2.229 HEAT:  19.15738
 CYCLE:   370 TIME:   0.516 TIME LEFT:  2.00D  GRAD.:     4.031 HEAT:  19.15654
 CYCLE:   371 TIME:   0.484 TIME LEFT:  2.00D  GRAD.:     4.967 HEAT:  19.15616
 CYCLE:   372 TIME:   0.461 TIME LEFT:  2.00D  GRAD.:     2.464 HEAT:  19.15534
 CYCLE:   373 TIME:   0.555 TIME LEFT:  2.00D  GRAD.:     1.918 HEAT:  19.15483
 CYCLE:   374 TIME:   0.555 TIME LEFT:  2.00D  GRAD.:     2.910 HEAT:  19.15424
 CYCLE:   375 TIME:   0.492 TIME LEFT:  2.00D  GRAD.:     2.594 HEAT:  19.15358
 CYCLE:   376 TIME:   0.469 TIME LEFT:  2.00D  GRAD.:     2.037 HEAT:  19.15304
 CYCLE:   377 TIME:   0.492 TIME LEFT:  2.00D  GRAD.:     1.616 HEAT:  19.15278
 CYCLE:   378 TIME:   0.430 TIME LEFT:  2.00D  GRAD.:     2.246 HEAT:  19.15225
 CYCLE:   379 TIME:   0.602 TIME LEFT:  2.00D  GRAD.:     7.809 HEAT:  19.15212
 CYCLE:   380 TIME:   0.602 TIME LEFT:  2.00D  GRAD.:     2.285 HEAT:  19.15162
 CYCLE:   381 TIME:   0.555 TIME LEFT:  2.00D  GRAD.:     1.528 HEAT:  19.15147
 CYCLE:   382 TIME:   0.453 TIME LEFT:  2.00D  GRAD.:     2.168 HEAT:  19.15124
 CYCLE:   383 TIME:   0.430 TIME LEFT:  2.00D  GRAD.:     2.591 HEAT:  19.15083
 CYCLE:   384 TIME:   0.594 TIME LEFT:  2.00D  GRAD.:     4.571 HEAT:  19.15064
 CYCLE:   385 TIME:   0.391 TIME LEFT:  2.00D  GRAD.:     3.857 HEAT:  19.15014
 CYCLE:   386 TIME:   0.492 TIME LEFT:  2.00D  GRAD.:     2.441 HEAT:  19.14992
 CYCLE:   387 TIME:   0.438 TIME LEFT:  2.00D  GRAD.:     2.452 HEAT:  19.14961
 CYCLE:   388 TIME:   0.469 TIME LEFT:  2.00D  GRAD.:     1.678 HEAT:  19.14937
 CYCLE:   389 TIME:   0.453 TIME LEFT:  2.00D  GRAD.:     1.464 HEAT:  19.14891
 CYCLE:   390 TIME:   0.453 TIME LEFT:  2.00D  GRAD.:     2.053 HEAT:  19.14872
 CYCLE:   391 TIME:   0.562 TIME LEFT:  2.00D  GRAD.:     1.626 HEAT:  19.14851
 CYCLE:   392 TIME:   0.523 TIME LEFT:  2.00D  GRAD.:     2.502 HEAT:  19.14808
 CYCLE:   393 TIME:   0.500 TIME LEFT:  2.00D  GRAD.:     7.227 HEAT:  19.14832
 CYCLE:   394 TIME:   0.453 TIME LEFT:  2.00D  GRAD.:     1.413 HEAT:  19.14785
 CYCLE:   395 TIME:   0.523 TIME LEFT:  2.00D  GRAD.:     1.332 HEAT:  19.14778
 CYCLE:   396 TIME:   0.484 TIME LEFT:  2.00D  GRAD.:     1.692 HEAT:  19.14759
 CYCLE:   397 TIME:   0.484 TIME LEFT:  2.00D  GRAD.:     2.549 HEAT:  19.14723
 CYCLE:   398 TIME:   0.445 TIME LEFT:  2.00D  GRAD.:     1.901 HEAT:  19.14693
 CYCLE:   399 TIME:   0.500 TIME LEFT:  2.00D  GRAD.:     1.449 HEAT:  19.14669
 CYCLE:   400 TIME:   0.492 TIME LEFT:  2.00D  GRAD.:     1.611 HEAT:  19.14634
 CYCLE:   401 TIME:   0.508 TIME LEFT:  2.00D  GRAD.:     4.287 HEAT:  19.14639
 CYCLE:   402 TIME:   0.508 TIME LEFT:  2.00D  GRAD.:     1.300 HEAT:  19.14612
 CYCLE:   403 TIME:   0.438 TIME LEFT:  2.00D  GRAD.:     1.059 HEAT:  19.14604
 CYCLE:   404 TIME:   0.531 TIME LEFT:  2.00D  GRAD.:     1.665 HEAT:  19.14587
 CYCLE:   405 TIME:   0.570 TIME LEFT:  2.00D  GRAD.:     2.381 HEAT:  19.14557
 CYCLE:   406 TIME:   0.562 TIME LEFT:  2.00D  GRAD.:     2.461 HEAT:  19.14523
 CYCLE:   407 TIME:   0.469 TIME LEFT:  2.00D  GRAD.:     4.427 HEAT:  19.14506
 CYCLE:   408 TIME:   0.500 TIME LEFT:  2.00D  GRAD.:     2.726 HEAT:  19.14488
 CYCLE:   409 TIME:   0.484 TIME LEFT:  2.00D  GRAD.:     1.422 HEAT:  19.14480
 CYCLE:   410 TIME:   0.422 TIME LEFT:  2.00D  GRAD.:     1.045 HEAT:  19.14473
 CYCLE:   411 TIME:   0.438 TIME LEFT:  2.00D  GRAD.:     1.122 HEAT:  19.14459
 CYCLE:   412 TIME:   0.445 TIME LEFT:  2.00D  GRAD.:     1.205 HEAT:  19.14444
 CYCLE:   413 TIME:   0.461 TIME LEFT:  2.00D  GRAD.:     2.138 HEAT:  19.14429
 CYCLE:   414 TIME:   0.523 TIME LEFT:  2.00D  GRAD.:     1.258 HEAT:  19.14410
 CYCLE:   415 TIME:   0.477 TIME LEFT:  2.00D  GRAD.:     1.075 HEAT:  19.14396
 CYCLE:   416 TIME:   0.453 TIME LEFT:  2.00D  GRAD.:     1.247 HEAT:  19.14368
 CYCLE:   417 TIME:   0.469 TIME LEFT:  2.00D  GRAD.:     3.419 HEAT:  19.14369
 CYCLE:   418 TIME:   0.445 TIME LEFT:  2.00D  GRAD.:     1.496 HEAT:  19.14341
 CYCLE:   419 TIME:   0.477 TIME LEFT:  2.00D  GRAD.:     0.786 HEAT:  19.14326
 CYCLE:   420 TIME:   0.477 TIME LEFT:  2.00D  GRAD.:     1.349 HEAT:  19.14302
 CYCLE:   421 TIME:   0.445 TIME LEFT:  2.00D  GRAD.:     3.436 HEAT:  19.14289
 CYCLE:   422 TIME:   0.469 TIME LEFT:  2.00D  GRAD.:     2.698 HEAT:  19.14271
 CYCLE:   423 TIME:   0.406 TIME LEFT:  2.00D  GRAD.:     1.148 HEAT:  19.14265
 CYCLE:   424 TIME:   0.469 TIME LEFT:  2.00D  GRAD.:     0.996 HEAT:  19.14260
 CYCLE:   425 TIME:   0.406 TIME LEFT:  2.00D  GRAD.:     1.165 HEAT:  19.14248
 CYCLE:   426 TIME:   0.430 TIME LEFT:  2.00D  GRAD.:     1.204 HEAT:  19.14217
 CYCLE:   427 TIME:   0.523 TIME LEFT:  2.00D  GRAD.:     2.712 HEAT:  19.14200
 CYCLE:   428 TIME:   0.469 TIME LEFT:  2.00D  GRAD.:     2.422 HEAT:  19.14186
 CYCLE:   429 TIME:   0.445 TIME LEFT:  2.00D  GRAD.:     1.236 HEAT:  19.14167
 CYCLE:   430 TIME:   0.484 TIME LEFT:  2.00D  GRAD.:     1.035 HEAT:  19.14157
 CYCLE:   431 TIME:   0.422 TIME LEFT:  2.00D  GRAD.:     0.986 HEAT:  19.14143
 CYCLE:   432 TIME:   0.445 TIME LEFT:  2.00D  GRAD.:     4.333 HEAT:  19.14164
 CYCLE:   433 TIME:   0.430 TIME LEFT:  2.00D  GRAD.:     0.922 HEAT:  19.14116
 CYCLE:   434 TIME:   0.438 TIME LEFT:  2.00D  GRAD.:     0.701 HEAT:  19.14113
 CYCLE:   435 TIME:   0.445 TIME LEFT:  2.00D  GRAD.:     0.624 HEAT:  19.14105
 CYCLE:   436 TIME:   0.469 TIME LEFT:  2.00D  GRAD.:     2.498 HEAT:  19.14092
 CYCLE:   437 TIME:   0.438 TIME LEFT:  2.00D  GRAD.:     2.895 HEAT:  19.14087
 CYCLE:   438 TIME:   0.477 TIME LEFT:  2.00D  GRAD.:     1.033 HEAT:  19.14081
 CYCLE:   439 TIME:   0.484 TIME LEFT:  2.00D  GRAD.:     0.920 HEAT:  19.14078
 CYCLE:   440 TIME:   0.445 TIME LEFT:  2.00D  GRAD.:     1.808 HEAT:  19.14074
 CYCLE:   441 TIME:   0.422 TIME LEFT:  2.00D  GRAD.:     1.477 HEAT:  19.14065
 CYCLE:   442 TIME:   0.461 TIME LEFT:  2.00D  GRAD.:     0.838 HEAT:  19.14039
 CYCLE:   443 TIME:   0.547 TIME LEFT:  2.00D  GRAD.:     1.278 HEAT:  19.14025
 CYCLE:   444 TIME:   0.648 TIME LEFT:  2.00D  GRAD.:     1.201 HEAT:  19.14012
 CYCLE:   445 TIME:   0.508 TIME LEFT:  2.00D  GRAD.:     0.778 HEAT:  19.13999
 CYCLE:   446 TIME:   0.453 TIME LEFT:  2.00D  GRAD.:     0.938 HEAT:  19.13989
 CYCLE:   447 TIME:   0.508 TIME LEFT:  2.00D  GRAD.:     1.614 HEAT:  19.13977
 CYCLE:   448 TIME:   0.570 TIME LEFT:  2.00D  GRAD.:     1.042 HEAT:  19.13963
 CYCLE:   449 TIME:   0.430 TIME LEFT:  2.00D  GRAD.:     0.847 HEAT:  19.13948
 CYCLE:   450 TIME:   0.547 TIME LEFT:  2.00D  GRAD.:     1.312 HEAT:  19.13938
 CYCLE:   451 TIME:   0.508 TIME LEFT:  2.00D  GRAD.:     5.471 HEAT:  19.13946
 CYCLE:   452 TIME:   0.461 TIME LEFT:  2.00D  GRAD.:     1.255 HEAT:  19.13920
 CYCLE:   453 TIME:   0.422 TIME LEFT:  2.00D  GRAD.:     0.920 HEAT:  19.13913
 CYCLE:   454 TIME:   0.547 TIME LEFT:  2.00D  GRAD.:     1.168 HEAT:  19.13902
 CYCLE:   455 TIME:   0.516 TIME LEFT:  2.00D  GRAD.:     1.387 HEAT:  19.13886
 CYCLE:   456 TIME:   0.469 TIME LEFT:  2.00D  GRAD.:     7.716 HEAT:  19.13939
 CYCLE:   457 TIME:   0.383 TIME LEFT:  2.00D  GRAD.:     1.107 HEAT:  19.13873
 CYCLE:   458 TIME:   0.445 TIME LEFT:  2.00D  GRAD.:     0.951 HEAT:  19.13871
 CYCLE:   459 TIME:   0.430 TIME LEFT:  2.00D  GRAD.:     0.852 HEAT:  19.13865
 CYCLE:   460 TIME:   0.438 TIME LEFT:  2.00D  GRAD.:     0.969 HEAT:  19.13849
 CYCLE:   461 TIME:   0.484 TIME LEFT:  2.00D  GRAD.:     2.849 HEAT:  19.13851
 CYCLE:   462 TIME:   0.469 TIME LEFT:  2.00D  GRAD.:     1.005 HEAT:  19.13835
 CYCLE:   463 TIME:   0.516 TIME LEFT:  2.00D  GRAD.:     0.854 HEAT:  19.13828
 CYCLE:   464 TIME:   0.445 TIME LEFT:  2.00D  GRAD.:     1.102 HEAT:  19.13817
 CYCLE:   465 TIME:   0.438 TIME LEFT:  2.00D  GRAD.:     1.127 HEAT:  19.13805
 CYCLE:   466 TIME:   0.445 TIME LEFT:  2.00D  GRAD.:     2.287 HEAT:  19.13798
 CYCLE:   467 TIME:   0.492 TIME LEFT:  2.00D  GRAD.:     1.061 HEAT:  19.13783
 CYCLE:   468 TIME:   0.531 TIME LEFT:  2.00D  GRAD.:     0.841 HEAT:  19.13777
 CYCLE:   469 TIME:   0.430 TIME LEFT:  2.00D  GRAD.:     1.134 HEAT:  19.13770
 CYCLE:   470 TIME:   0.461 TIME LEFT:  2.00D  GRAD.:     2.718 HEAT:  19.13762
 CYCLE:   471 TIME:   0.508 TIME LEFT:  2.00D  GRAD.:     1.435 HEAT:  19.13753
 CYCLE:   472 TIME:   0.477 TIME LEFT:  2.00D  GRAD.:     0.789 HEAT:  19.13741
 CYCLE:   473 TIME:   0.562 TIME LEFT:  2.00D  GRAD.:     1.078 HEAT:  19.13737
 CYCLE:   474 TIME:   0.484 TIME LEFT:  2.00D  GRAD.:     1.063 HEAT:  19.13725
 CYCLE:   475 TIME:   0.445 TIME LEFT:  2.00D  GRAD.:     1.143 HEAT:  19.13712
 CYCLE:   476 TIME:   0.492 TIME LEFT:  2.00D  GRAD.:     2.020 HEAT:  19.13705
 CYCLE:   477 TIME:   0.523 TIME LEFT:  2.00D  GRAD.:     0.911 HEAT:  19.13692
 CYCLE:   478 TIME:   0.461 TIME LEFT:  2.00D  GRAD.:     0.987 HEAT:  19.13680
 CYCLE:   479 TIME:   0.453 TIME LEFT:  2.00D  GRAD.:     1.642 HEAT:  19.13667
 CYCLE:   480 TIME:   0.555 TIME LEFT:  2.00D  GRAD.:     1.293 HEAT:  19.13657
 CYCLE:   481 TIME:   0.586 TIME LEFT:  2.00D  GRAD.:     0.958 HEAT:  19.13648
 CYCLE:   482 TIME:   0.477 TIME LEFT:  2.00D  GRAD.:     1.256 HEAT:  19.13640
 CYCLE:   483 TIME:   0.508 TIME LEFT:  2.00D  GRAD.:     1.363 HEAT:  19.13626
 CYCLE:   484 TIME:   0.500 TIME LEFT:  2.00D  GRAD.:    10.081 HEAT:  19.13675
 CYCLE:   485 TIME:   0.430 TIME LEFT:  2.00D  GRAD.:     1.424 HEAT:  19.13613
 CYCLE:   486 TIME:   0.484 TIME LEFT:  2.00D  GRAD.:     0.826 HEAT:  19.13607
 CYCLE:   487 TIME:   0.547 TIME LEFT:  2.00D  GRAD.:     1.220 HEAT:  19.13597
 CYCLE:   488 TIME:   0.633 TIME LEFT:  2.00D  GRAD.:     1.134 HEAT:  19.13591
 CYCLE:   489 TIME:   0.562 TIME LEFT:  2.00D  GRAD.:     1.295 HEAT:  19.13581
 CYCLE:   490 TIME:   0.469 TIME LEFT:  2.00D  GRAD.:     0.867 HEAT:  19.13574
 CYCLE:   491 TIME:   0.453 TIME LEFT:  2.00D  GRAD.:     0.601 HEAT:  19.13569
 CYCLE:   492 TIME:   0.477 TIME LEFT:  2.00D  GRAD.:     0.897 HEAT:  19.13559
 CYCLE:   493 TIME:   0.562 TIME LEFT:  2.00D  GRAD.:     1.707 HEAT:  19.13550
 CYCLE:   494 TIME:   0.477 TIME LEFT:  2.00D  GRAD.:     1.264 HEAT:  19.13535
 CYCLE:   495 TIME:   0.453 TIME LEFT:  2.00D  GRAD.:     0.825 HEAT:  19.13523
 CYCLE:   496 TIME:   0.562 TIME LEFT:  2.00D  GRAD.:     1.102 HEAT:  19.13510
 CYCLE:   497 TIME:   0.586 TIME LEFT:  2.00D  GRAD.:     0.772 HEAT:  19.13491
 CYCLE:   498 TIME:   0.547 TIME LEFT:  2.00D  GRAD.:     1.537 HEAT:  19.13474
 CYCLE:   499 TIME:   0.438 TIME LEFT:  2.00D  GRAD.:     4.025 HEAT:  19.13475
 CYCLE:   500 TIME:   0.430 TIME LEFT:  2.00D  GRAD.:     0.865 HEAT:  19.13462
 CYCLE:   501 TIME:   0.484 TIME LEFT:  2.00D  GRAD.:     1.507 HEAT:  19.13463
 CYCLE:   502 TIME:   0.445 TIME LEFT:  2.00D  GRAD.:     0.716 HEAT:  19.13455
 CYCLE:   503 TIME:   0.484 TIME LEFT:  2.00D  GRAD.:     2.250 HEAT:  19.13455
 CYCLE:   504 TIME:   0.586 TIME LEFT:  2.00D  GRAD.:     1.278 HEAT:  19.13446
 CYCLE:   505 TIME:   0.586 TIME LEFT:  2.00D  GRAD.:     1.166 HEAT:  19.13442
 CYCLE:   506 TIME:   0.539 TIME LEFT:  2.00D  GRAD.:     0.784 HEAT:  19.13435
 CYCLE:   507 TIME:   0.555 TIME LEFT:  2.00D  GRAD.:     2.193 HEAT:  19.13435
 CYCLE:   508 TIME:   0.461 TIME LEFT:  2.00D  GRAD.:     1.043 HEAT:  19.13422
 CYCLE:   509 TIME:   0.523 TIME LEFT:  2.00D  GRAD.:     0.817 HEAT:  19.13419
 CYCLE:   510 TIME:   0.438 TIME LEFT:  2.00D  GRAD.:     0.718 HEAT:  19.13411
 CYCLE:   511 TIME:   0.570 TIME LEFT:  2.00D  GRAD.:     0.914 HEAT:  19.13401
 CYCLE:   512 TIME:   0.617 TIME LEFT:  2.00D  GRAD.:     1.858 HEAT:  19.13389
 CYCLE:   513 TIME:   0.508 TIME LEFT:  2.00D  GRAD.:     1.769 HEAT:  19.13380
 CYCLE:   514 TIME:   0.422 TIME LEFT:  2.00D  GRAD.:     0.888 HEAT:  19.13375
 CYCLE:   515 TIME:   0.562 TIME LEFT:  2.00D  GRAD.:     0.774 HEAT:  19.13368
 CYCLE:   516 TIME:   0.500 TIME LEFT:  2.00D  GRAD.:     1.896 HEAT:  19.13364
 CYCLE:   517 TIME:   0.438 TIME LEFT:  2.00D  GRAD.:     1.068 HEAT:  19.13358
 CYCLE:   518 TIME:   0.547 TIME LEFT:  2.00D  GRAD.:     1.695 HEAT:  19.13351
 CYCLE:   519 TIME:   0.438 TIME LEFT:  2.00D  GRAD.:     1.515 HEAT:  19.13343
 CYCLE:   520 TIME:   0.500 TIME LEFT:  2.00D  GRAD.:     1.717 HEAT:  19.13329
 CYCLE:   521 TIME:   0.531 TIME LEFT:  2.00D  GRAD.:     1.364 HEAT:  19.13317
 CYCLE:   522 TIME:   0.422 TIME LEFT:  2.00D  GRAD.:     0.795 HEAT:  19.13308
 CYCLE:   523 TIME:   0.438 TIME LEFT:  2.00D  GRAD.:     0.893 HEAT:  19.13302
 CYCLE:   524 TIME:   0.469 TIME LEFT:  2.00D  GRAD.:     1.534 HEAT:  19.13299
 CYCLE:   525 TIME:   0.469 TIME LEFT:  2.00D  GRAD.:     1.266 HEAT:  19.13289
 CYCLE:   526 TIME:   0.453 TIME LEFT:  2.00D  GRAD.:     1.166 HEAT:  19.13271
 CYCLE:   527 TIME:   0.461 TIME LEFT:  2.00D  GRAD.:     5.475 HEAT:  19.13284
 CYCLE:   528 TIME:   0.453 TIME LEFT:  2.00D  GRAD.:     3.650 HEAT:  19.13280
 CYCLE:   529 TIME:   0.445 TIME LEFT:  2.00D  GRAD.:     0.693 HEAT:  19.13249
 CYCLE:   530 TIME:   0.461 TIME LEFT:  2.00D  GRAD.:     1.668 HEAT:  19.13244
 CYCLE:   531 TIME:   0.445 TIME LEFT:  2.00D  GRAD.:     0.877 HEAT:  19.13235
 CYCLE:   532 TIME:   0.617 TIME LEFT:  2.00D  GRAD.:     1.147 HEAT:  19.13231
 CYCLE:   533 TIME:   0.508 TIME LEFT:  2.00D  GRAD.:     0.747 HEAT:  19.13219
 CYCLE:   534 TIME:   0.562 TIME LEFT:  2.00D  GRAD.:     1.198 HEAT:  19.13213
 CYCLE:   535 TIME:   0.570 TIME LEFT:  2.00D  GRAD.:     1.983 HEAT:  19.13201
 CYCLE:   536 TIME:   0.523 TIME LEFT:  2.00D  GRAD.:     1.465 HEAT:  19.13191
 CYCLE:   537 TIME:   0.500 TIME LEFT:  2.00D  GRAD.:     0.954 HEAT:  19.13177
 CYCLE:   538 TIME:   0.523 TIME LEFT:  2.00D  GRAD.:     3.232 HEAT:  19.13174
 CYCLE:   539 TIME:   0.422 TIME LEFT:  2.00D  GRAD.:     1.394 HEAT:  19.13166
 CYCLE:   540 TIME:   0.422 TIME LEFT:  2.00D  GRAD.:     0.834 HEAT:  19.13161
 CYCLE:   541 TIME:   0.477 TIME LEFT:  2.00D  GRAD.:     1.851 HEAT:  19.13160
 CYCLE:   542 TIME:   0.602 TIME LEFT:  2.00D  GRAD.:     1.087 HEAT:  19.13153
 CYCLE:   543 TIME:   0.547 TIME LEFT:  2.00D  GRAD.:     1.407 HEAT:  19.13152
 CYCLE:   544 TIME:   0.461 TIME LEFT:  2.00D  GRAD.:     1.100 HEAT:  19.13145
 CYCLE:   545 TIME:   0.445 TIME LEFT:  2.00D  GRAD.:     0.882 HEAT:  19.13138
 CYCLE:   546 TIME:   0.508 TIME LEFT:  2.00D  GRAD.:     1.458 HEAT:  19.13123
 CYCLE:   547 TIME:   0.539 TIME LEFT:  2.00D  GRAD.:     2.518 HEAT:  19.13121
 CYCLE:   548 TIME:   0.492 TIME LEFT:  2.00D  GRAD.:     0.801 HEAT:  19.13110
 CYCLE:   549 TIME:   0.422 TIME LEFT:  2.00D  GRAD.:     0.609 HEAT:  19.13106
 CYCLE:   550 TIME:   0.609 TIME LEFT:  2.00D  GRAD.:     1.361 HEAT:  19.13100
 CYCLE:   551 TIME:   0.461 TIME LEFT:  2.00D  GRAD.:     0.992 HEAT:  19.13093
 CYCLE:   552 TIME:   0.453 TIME LEFT:  2.00D  GRAD.:     0.938 HEAT:  19.13082
 CYCLE:   553 TIME:   0.453 TIME LEFT:  2.00D  GRAD.:     2.242 HEAT:  19.13077
 CYCLE:   554 TIME:   0.430 TIME LEFT:  2.00D  GRAD.:     1.072 HEAT:  19.13073
 CYCLE:   555 TIME:   0.461 TIME LEFT:  2.00D  GRAD.:     1.660 HEAT:  19.13073
 CYCLE:   556 TIME:   0.453 TIME LEFT:  2.00D  GRAD.:     0.744 HEAT:  19.13063
 CYCLE:   557 TIME:   0.461 TIME LEFT:  2.00D  GRAD.:     1.064 HEAT:  19.13057
 CYCLE:   558 TIME:   0.438 TIME LEFT:  2.00D  GRAD.:     0.818 HEAT:  19.13047
 CYCLE:   559 TIME:   0.484 TIME LEFT:  2.00D  GRAD.:     2.062 HEAT:  19.13042
 CYCLE:   560 TIME:   0.430 TIME LEFT:  2.00D  GRAD.:     0.957 HEAT:  19.13031
 CYCLE:   561 TIME:   0.469 TIME LEFT:  2.00D  GRAD.:     1.066 HEAT:  19.13026
 CYCLE:   562 TIME:   0.445 TIME LEFT:  2.00D  GRAD.:     1.165 HEAT:  19.13017
 CYCLE:   563 TIME:   0.508 TIME LEFT:  2.00D  GRAD.:     5.094 HEAT:  19.13043
 CYCLE:   564 TIME:   0.414 TIME LEFT:  2.00D  GRAD.:     1.245 HEAT:  19.12997
 CYCLE:   565 TIME:   0.562 TIME LEFT:  2.00D  GRAD.:     1.807 HEAT:  19.12989
 CYCLE:   566 TIME:   0.648 TIME LEFT:  2.00D  GRAD.:     1.442 HEAT:  19.12981
 CYCLE:   567 TIME:   0.641 TIME LEFT:  2.00D  GRAD.:     1.304 HEAT:  19.12974
 CYCLE:   568 TIME:   0.617 TIME LEFT:  2.00D  GRAD.:     4.329 HEAT:  19.12992
 CYCLE:   569 TIME:   0.578 TIME LEFT:  2.00D  GRAD.:     5.105 HEAT:  19.12976
 CYCLE:   570 TIME:   0.531 TIME LEFT:  2.00D  GRAD.:     0.648 HEAT:  19.12951
 CYCLE:   571 TIME:   0.531 TIME LEFT:  2.00D  GRAD.:     0.694 HEAT:  19.12947
 CYCLE:   572 TIME:   0.562 TIME LEFT:  2.00D  GRAD.:     1.139 HEAT:  19.12937
 CYCLE:   573 TIME:   0.500 TIME LEFT:  2.00D  GRAD.:     1.117 HEAT:  19.12928
 CYCLE:   574 TIME:   0.594 TIME LEFT:  2.00D  GRAD.:     1.197 HEAT:  19.12922
 CYCLE:   575 TIME:   0.469 TIME LEFT:  2.00D  GRAD.:     0.865 HEAT:  19.12915
 CYCLE:   576 TIME:   0.453 TIME LEFT:  2.00D  GRAD.:     1.070 HEAT:  19.12903
 CYCLE:   577 TIME:   0.555 TIME LEFT:  2.00D  GRAD.:     0.908 HEAT:  19.12891
 CYCLE:   578 TIME:   0.453 TIME LEFT:  2.00D  GRAD.:     1.084 HEAT:  19.12885
 CYCLE:   579 TIME:   0.438 TIME LEFT:  2.00D  GRAD.:     2.432 HEAT:  19.12884
 CYCLE:   580 TIME:   0.438 TIME LEFT:  2.00D  GRAD.:     1.092 HEAT:  19.12871
 CYCLE:   581 TIME:   0.414 TIME LEFT:  2.00D  GRAD.:     0.586 HEAT:  19.12868
 CYCLE:   582 TIME:   0.453 TIME LEFT:  2.00D  GRAD.:     0.667 HEAT:  19.12863
 CYCLE:   583 TIME:   0.445 TIME LEFT:  2.00D  GRAD.:     0.738 HEAT:  19.12854
 CYCLE:   584 TIME:   0.523 TIME LEFT:  2.00D  GRAD.:     1.417 HEAT:  19.12834
 CYCLE:   585 TIME:   0.477 TIME LEFT:  2.00D  GRAD.:     9.041 HEAT:  19.12880
 CYCLE:   586 TIME:   0.516 TIME LEFT:  2.00D  GRAD.:     0.884 HEAT:  19.12818
 CYCLE:   587 TIME:   0.469 TIME LEFT:  2.00D  GRAD.:     0.818 HEAT:  19.12815
 CYCLE:   588 TIME:   0.477 TIME LEFT:  2.00D  GRAD.:     1.113 HEAT:  19.12811
 CYCLE:   589 TIME:   0.461 TIME LEFT:  2.00D  GRAD.:     1.334 HEAT:  19.12798
 CYCLE:   590 TIME:   0.445 TIME LEFT:  2.00D  GRAD.:     0.836 HEAT:  19.12787
 CYCLE:   591 TIME:   0.539 TIME LEFT:  2.00D  GRAD.:     0.906 HEAT:  19.12779
 CYCLE:   592 TIME:   0.492 TIME LEFT:  2.00D  GRAD.:     1.304 HEAT:  19.12768
 CYCLE:   593 TIME:   0.523 TIME LEFT:  2.00D  GRAD.:     0.782 HEAT:  19.12759
 CYCLE:   594 TIME:   0.547 TIME LEFT:  2.00D  GRAD.:     0.900 HEAT:  19.12755
 CYCLE:   595 TIME:   0.547 TIME LEFT:  2.00D  GRAD.:     1.982 HEAT:  19.12749
 CYCLE:   596 TIME:   0.500 TIME LEFT:  2.00D  GRAD.:     0.940 HEAT:  19.12740
 CYCLE:   597 TIME:   0.477 TIME LEFT:  2.00D  GRAD.:     0.979 HEAT:  19.12733
 CYCLE:   598 TIME:   0.445 TIME LEFT:  2.00D  GRAD.:     0.722 HEAT:  19.12729
 CYCLE:   599 TIME:   0.555 TIME LEFT:  2.00D  GRAD.:     1.074 HEAT:  19.12715
 CYCLE:   600 TIME:   0.562 TIME LEFT:  2.00D  GRAD.:     4.092 HEAT:  19.12714
 CYCLE:   601 TIME:   0.477 TIME LEFT:  2.00D  GRAD.:     1.357 HEAT:  19.12703
 CYCLE:   602 TIME:   0.430 TIME LEFT:  2.00D  GRAD.:     0.669 HEAT:  19.12700
 CYCLE:   603 TIME:   0.461 TIME LEFT:  2.00D  GRAD.:     0.842 HEAT:  19.12699
 CYCLE:   604 TIME:   0.414 TIME LEFT:  2.00D  GRAD.:     0.980 HEAT:  19.12695
 CYCLE:   605 TIME:   0.453 TIME LEFT:  2.00D  GRAD.:     1.294 HEAT:  19.12681
 CYCLE:   606 TIME:   0.438 TIME LEFT:  2.00D  GRAD.:     4.842 HEAT:  19.12721
 CYCLE:   607 TIME:   0.680 TIME LEFT:  2.00D  GRAD.:     1.305 HEAT:  19.12669
 CYCLE:   608 TIME:   0.453 TIME LEFT:  2.00D  GRAD.:     0.756 HEAT:  19.12666
 CYCLE:   609 TIME:   0.469 TIME LEFT:  2.00D  GRAD.:     0.739 HEAT:  19.12661
 CYCLE:   610 TIME:   0.508 TIME LEFT:  2.00D  GRAD.:     1.204 HEAT:  19.12655
 CYCLE:   611 TIME:   0.445 TIME LEFT:  2.00D  GRAD.:     0.847 HEAT:  19.12650
 CYCLE:   612 TIME:   0.445 TIME LEFT:  2.00D  GRAD.:     0.696 HEAT:  19.12644
 CYCLE:   613 TIME:   0.430 TIME LEFT:  2.00D  GRAD.:     0.884 HEAT:  19.12639
 CYCLE:   614 TIME:   0.438 TIME LEFT:  2.00D  GRAD.:     1.281 HEAT:  19.12632
 CYCLE:   615 TIME:   0.523 TIME LEFT:  2.00D  GRAD.:     1.073 HEAT:  19.12629
 CYCLE:   616 TIME:   0.523 TIME LEFT:  2.00D  GRAD.:     0.601 HEAT:  19.12627
 CYCLE:   617 TIME:   0.547 TIME LEFT:  2.00D  GRAD.:     0.528 HEAT:  19.12624
 CYCLE:   618 TIME:   0.562 TIME LEFT:  2.00D  GRAD.:     0.754 HEAT:  19.12620
 CYCLE:   619 TIME:   0.445 TIME LEFT:  2.00D  GRAD.:     1.173 HEAT:  19.12614
 CYCLE:   620 TIME:   0.562 TIME LEFT:  2.00D  GRAD.:     0.668 HEAT:  19.12608
 CYCLE:   621 TIME:   0.500 TIME LEFT:  2.00D  GRAD.:     0.651 HEAT:  19.12604
 CYCLE:   622 TIME:   0.422 TIME LEFT:  2.00D  GRAD.:     0.633 HEAT:  19.12601
 CYCLE:   623 TIME:   0.492 TIME LEFT:  2.00D  GRAD.:     0.597 HEAT:  19.12596
 CYCLE:   624 TIME:   0.602 TIME LEFT:  2.00D  GRAD.:     1.643 HEAT:  19.12595
 CYCLE:   625 TIME:   0.555 TIME LEFT:  2.00D  GRAD.:     0.532 HEAT:  19.12591
 CYCLE:   626 TIME:   0.438 TIME LEFT:  2.00D  GRAD.:     0.459 HEAT:  19.12588
 CYCLE:   627 TIME:   0.438 TIME LEFT:  2.00D  GRAD.:     0.702 HEAT:  19.12583
 CYCLE:   628 TIME:   0.594 TIME LEFT:  2.00D  GRAD.:     0.867 HEAT:  19.12575
 CYCLE:   629 TIME:   0.547 TIME LEFT:  2.00D  GRAD.:     5.124 HEAT:  19.12589
 CYCLE:   630 TIME:   0.430 TIME LEFT:  2.00D  GRAD.:     0.751 HEAT:  19.12568
 CYCLE:   631 TIME:   0.562 TIME LEFT:  2.00D  GRAD.:     0.699 HEAT:  19.12566
 CYCLE:   632 TIME:   0.484 TIME LEFT:  2.00D  GRAD.:     0.723 HEAT:  19.12559
 CYCLE:   633 TIME:   0.422 TIME LEFT:  2.00D  GRAD.:     0.532 HEAT:  19.12554
 CYCLE:   634 TIME:   0.453 TIME LEFT:  2.00D  GRAD.:     0.706 HEAT:  19.12549
 CYCLE:   635 TIME:   0.438 TIME LEFT:  2.00D  GRAD.:     1.459 HEAT:  19.12548
 CYCLE:   636 TIME:   0.430 TIME LEFT:  2.00D  GRAD.:     0.751 HEAT:  19.12543
 CYCLE:   637 TIME:   1.047 TIME LEFT:  2.00D  GRAD.:     0.450 HEAT:  19.12540
 CYCLE:   638 TIME:   0.422 TIME LEFT:  2.00D  GRAD.:     0.558 HEAT:  19.12536
 CYCLE:   639 TIME:   0.438 TIME LEFT:  2.00D  GRAD.:     1.580 HEAT:  19.12534
 CYCLE:   640 TIME:   0.422 TIME LEFT:  2.00D  GRAD.:     0.516 HEAT:  19.12528
 CYCLE:   641 TIME:   0.438 TIME LEFT:  2.00D  GRAD.:     0.542 HEAT:  19.12525
 CYCLE:   642 TIME:   0.430 TIME LEFT:  2.00D  GRAD.:     0.693 HEAT:  19.12520
 CYCLE:   643 TIME:   0.414 TIME LEFT:  2.00D  GRAD.:     1.145 HEAT:  19.12515
 CYCLE:   644 TIME:   0.438 TIME LEFT:  2.00D  GRAD.:     1.547 HEAT:  19.12513
 CYCLE:   645 TIME:   0.398 TIME LEFT:  2.00D  GRAD.:     0.540 HEAT:  19.12510
 CYCLE:   646 TIME:   0.383 TIME LEFT:  2.00D  GRAD.:     0.439 HEAT:  19.12510
 CYCLE:   647 TIME:   0.570 TIME LEFT:  2.00D  GRAD.:     1.246 HEAT:  19.12508
 CYCLE:   648 TIME:   0.508 TIME LEFT:  2.00D  GRAD.:     0.547 HEAT:  19.12506
 CYCLE:   649 TIME:   0.516 TIME LEFT:  2.00D  GRAD.:     0.551 HEAT:  19.12504
 CYCLE:   650 TIME:   0.523 TIME LEFT:  2.00D  GRAD.:     0.525 HEAT:  19.12502
 CYCLE:   651 TIME:   0.523 TIME LEFT:  2.00D  GRAD.:     0.688 HEAT:  19.12500
 CYCLE:   652 TIME:   0.398 TIME LEFT:  2.00D  GRAD.:     0.897 HEAT:  19.12498
 CYCLE:   653 TIME:   0.484 TIME LEFT:  2.00D  GRAD.:     0.412 HEAT:  19.12494
 CYCLE:   654 TIME:   0.492 TIME LEFT:  2.00D  GRAD.:     0.357 HEAT:  19.12491
 CYCLE:   655 TIME:   0.430 TIME LEFT:  2.00D  GRAD.:     0.861 HEAT:  19.12489
 CYCLE:   656 TIME:   0.422 TIME LEFT:  2.00D  GRAD.:     0.769 HEAT:  19.12486
 CYCLE:   657 TIME:   0.438 TIME LEFT:  2.00D  GRAD.:     1.039 HEAT:  19.12482
 CYCLE:   658 TIME:   0.430 TIME LEFT:  2.00D  GRAD.:     0.652 HEAT:  19.12479
 CYCLE:   659 TIME:   0.430 TIME LEFT:  2.00D  GRAD.:     0.497 HEAT:  19.12476
 CYCLE:   660 TIME:   0.391 TIME LEFT:  2.00D  GRAD.:     0.688 HEAT:  19.12472
 CYCLE:   661 TIME:   0.438 TIME LEFT:  2.00D  GRAD.:     0.637 HEAT:  19.12469
 CYCLE:   662 TIME:   0.516 TIME LEFT:  2.00D  GRAD.:     0.615 HEAT:  19.12466
 CYCLE:   663 TIME:   0.461 TIME LEFT:  2.00D  GRAD.:     0.730 HEAT:  19.12464
 CYCLE:   664 TIME:   0.633 TIME LEFT:  2.00D  GRAD.:     0.582 HEAT:  19.12463
 CYCLE:   665 TIME:   0.484 TIME LEFT:  2.00D  GRAD.:     0.518 HEAT:  19.12459
 CYCLE:   666 TIME:   0.500 TIME LEFT:  2.00D  GRAD.:     0.634 HEAT:  19.12454
 CYCLE:   667 TIME:   0.438 TIME LEFT:  2.00D  GRAD.:     0.542 HEAT:  19.12452
 CYCLE:   668 TIME:   0.430 TIME LEFT:  2.00D  GRAD.:     0.333 HEAT:  19.12450
 CYCLE:   669 TIME:   0.500 TIME LEFT:  2.00D  GRAD.:     0.888 HEAT:  19.12448
 CYCLE:   670 TIME:   0.523 TIME LEFT:  2.00D  GRAD.:     0.589 HEAT:  19.12446
 CYCLE:   671 TIME:   0.500 TIME LEFT:  2.00D  GRAD.:     0.577 HEAT:  19.12444
 CYCLE:   672 TIME:   0.430 TIME LEFT:  2.00D  GRAD.:     0.542 HEAT:  19.12442
 CYCLE:   673 TIME:   0.430 TIME LEFT:  2.00D  GRAD.:     0.649 HEAT:  19.12439
 CYCLE:   674 TIME:   0.461 TIME LEFT:  2.00D  GRAD.:     1.341 HEAT:  19.12439
 CYCLE:   675 TIME:   0.547 TIME LEFT:  2.00D  GRAD.:     0.422 HEAT:  19.12436
 CYCLE:   676 TIME:   0.422 TIME LEFT:  2.00D  GRAD.:     0.405 HEAT:  19.12436
 CYCLE:   677 TIME:   0.523 TIME LEFT:  2.00D  GRAD.:     0.946 HEAT:  19.12434
 CYCLE:   678 TIME:   0.570 TIME LEFT:  2.00D  GRAD.:     0.733 HEAT:  19.12433
 CYCLE:   679 TIME:   0.484 TIME LEFT:  2.00D  GRAD.:     0.669 HEAT:  19.12430
 CYCLE:   680 TIME:   0.570 TIME LEFT:  2.00D  GRAD.:     2.286 HEAT:  19.12433
 CYCLE:   681 TIME:   0.516 TIME LEFT:  2.00D  GRAD.:     0.530 HEAT:  19.12428
 CYCLE:   682 TIME:   0.484 TIME LEFT:  2.00D  GRAD.:     0.282 HEAT:  19.12428
 CYCLE:   683 TIME:   0.422 TIME LEFT:  2.00D  GRAD.:     0.364 HEAT:  19.12426
 CYCLE:   684 TIME:   0.422 TIME LEFT:  2.00D  GRAD.:     0.289 HEAT:  19.12424
 CYCLE:   685 TIME:   0.508 TIME LEFT:  2.00D  GRAD.:     1.198 HEAT:  19.12423
 CYCLE:   686 TIME:   0.430 TIME LEFT:  2.00D  GRAD.:     0.349 HEAT:  19.12419
 CYCLE:   687 TIME:   0.453 TIME LEFT:  2.00D  GRAD.:     0.378 HEAT:  19.12417
 CYCLE:   688 TIME:   0.531 TIME LEFT:  2.00D  GRAD.:     0.394 HEAT:  19.12415
 CYCLE:   689 TIME:   0.609 TIME LEFT:  2.00D  GRAD.:     1.910 HEAT:  19.12415
 CYCLE:   690 TIME:   0.570 TIME LEFT:  2.00D  GRAD.:     0.626 HEAT:  19.12411
 CYCLE:   691 TIME:   0.547 TIME LEFT:  2.00D  GRAD.:     0.397 HEAT:  19.12410
 CYCLE:   692 TIME:   0.578 TIME LEFT:  2.00D  GRAD.:     0.262 HEAT:  19.12408
 CYCLE:   693 TIME:   0.500 TIME LEFT:  2.00D  GRAD.:     0.359 HEAT:  19.12407
 CYCLE:   694 TIME:   0.461 TIME LEFT:  2.00D  GRAD.:     0.366 HEAT:  19.12405
 CYCLE:   695 TIME:   0.500 TIME LEFT:  2.00D  GRAD.:     2.465 HEAT:  19.12410
 CYCLE:   696 TIME:   0.453 TIME LEFT:  2.00D  GRAD.:     0.437 HEAT:  19.12403
 CYCLE:   697 TIME:   0.430 TIME LEFT:  2.00D  GRAD.:     0.419 HEAT:  19.12404
 CYCLE:   698 TIME:   0.422 TIME LEFT:  2.00D  GRAD.:     0.411 HEAT:  19.12401
 CYCLE:   699 TIME:   0.422 TIME LEFT:  2.00D  GRAD.:     0.495 HEAT:  19.12400
 CYCLE:   700 TIME:   0.484 TIME LEFT:  2.00D  GRAD.:     0.426 HEAT:  19.12399
 CYCLE:   701 TIME:   0.594 TIME LEFT:  2.00D  GRAD.:     0.200 HEAT:  19.12398
 CYCLE:   702 TIME:   0.586 TIME LEFT:  2.00D  GRAD.:     0.452 HEAT:  19.12397
 CYCLE:   703 TIME:   0.484 TIME LEFT:  2.00D  GRAD.:     0.811 HEAT:  19.12396
 CYCLE:   704 TIME:   0.523 TIME LEFT:  2.00D  GRAD.:     0.562 HEAT:  19.12394
 CYCLE:   705 TIME:   0.414 TIME LEFT:  2.00D  GRAD.:     0.373 HEAT:  19.12393
 CYCLE:   706 TIME:   0.516 TIME LEFT:  2.00D  GRAD.:     0.965 HEAT:  19.12394
 CYCLE:   707 TIME:   0.406 TIME LEFT:  2.00D  GRAD.:     0.549 HEAT:  19.12392
 CYCLE:   708 TIME:   0.422 TIME LEFT:  2.00D  GRAD.:     0.197 HEAT:  19.12391
 CYCLE:   709 TIME:   0.414 TIME LEFT:  2.00D  GRAD.:     0.356 HEAT:  19.12390
 CYCLE:   710 TIME:   0.438 TIME LEFT:  2.00D  GRAD.:     0.269 HEAT:  19.12389
 CYCLE:   711 TIME:   0.453 TIME LEFT:  2.00D  GRAD.:     0.260 HEAT:  19.12388
 CYCLE:   712 TIME:   0.453 TIME LEFT:  2.00D  GRAD.:     0.758 HEAT:  19.12388
 CYCLE:   713 TIME:   0.414 TIME LEFT:  2.00D  GRAD.:     0.639 HEAT:  19.12387
 CYCLE:   714 TIME:   0.438 TIME LEFT:  2.00D  GRAD.:     0.393 HEAT:  19.12386
 CYCLE:   715 TIME:   0.500 TIME LEFT:  2.00D  GRAD.:     0.305 HEAT:  19.12385
 CYCLE:   716 TIME:   0.438 TIME LEFT:  2.00D  GRAD.:     0.271 HEAT:  19.12384
 CYCLE:   717 TIME:   0.516 TIME LEFT:  2.00D  GRAD.:     0.899 HEAT:  19.12384
 CYCLE:   718 TIME:   0.391 TIME LEFT:  2.00D  GRAD.:     0.375 HEAT:  19.12383
 CYCLE:   719 TIME:   0.422 TIME LEFT:  2.00D  GRAD.:     0.666 HEAT:  19.12382
 CYCLE:   720 TIME:   0.430 TIME LEFT:  2.00D  GRAD.:     0.287 HEAT:  19.12381
 CYCLE:   721 TIME:   0.406 TIME LEFT:  2.00D  GRAD.:     0.253 HEAT:  19.12380
 CYCLE:   722 TIME:   0.406 TIME LEFT:  2.00D  GRAD.:     0.568 HEAT:  19.12380
 CYCLE:   723 TIME:   0.453 TIME LEFT:  2.00D  GRAD.:     0.764 HEAT:  19.12380
 CYCLE:   724 TIME:   0.445 TIME LEFT:  2.00D  GRAD.:     0.372 HEAT:  19.12378
 CYCLE:   725 TIME:   0.484 TIME LEFT:  2.00D  GRAD.:     0.323 HEAT:  19.12378
 CYCLE:   726 TIME:   0.586 TIME LEFT:  2.00D  GRAD.:     0.335 HEAT:  19.12377
 CYCLE:   727 TIME:   0.516 TIME LEFT:  2.00D  GRAD.:     0.389 HEAT:  19.12377
 CYCLE:   728 TIME:   0.414 TIME LEFT:  2.00D  GRAD.:     0.577 HEAT:  19.12376
 CYCLE:   729 TIME:   0.391 TIME LEFT:  2.00D  GRAD.:     0.230 HEAT:  19.12375
 CYCLE:   730 TIME:   0.422 TIME LEFT:  2.00D  GRAD.:     0.257 HEAT:  19.12375
 CYCLE:   731 TIME:   0.391 TIME LEFT:  2.00D  GRAD.:     0.316 HEAT:  19.12375
 CYCLE:   732 TIME:   0.414 TIME LEFT:  2.00D  GRAD.:     0.252 HEAT:  19.12374
 CYCLE:   733 TIME:   0.398 TIME LEFT:  2.00D  GRAD.:     0.574 HEAT:  19.12373
 CYCLE:   734 TIME:   0.391 TIME LEFT:  2.00D  GRAD.:     0.272 HEAT:  19.12373
 CYCLE:   735 TIME:   0.445 TIME LEFT:  2.00D  GRAD.:     0.244 HEAT:  19.12372
 CYCLE:   736 TIME:   0.398 TIME LEFT:  2.00D  GRAD.:     0.346 HEAT:  19.12372
 CYCLE:   737 TIME:   0.531 TIME LEFT:  2.00D  GRAD.:     0.421 HEAT:  19.12371
 CYCLE:   738 TIME:   0.383 TIME LEFT:  2.00D  GRAD.:     0.287 HEAT:  19.12371
[...]
  111          H           0.076136        0.9239     0.92386
  112          H           0.061414        0.9386     0.93859
  113          H           0.063895        0.9361     0.93611
  114          H           0.069574        0.9304     0.93043
  115          H           0.063182        0.9368     0.93682
  116          H           0.058523        0.9415     0.94148
  117          H           0.062741        0.9373     0.93726
  118          H           0.063197        0.9368     0.93680
  119          H           0.059606        0.9404     0.94039
  120          H           0.060549        0.9395     0.93945
  121          H           0.060824        0.9392     0.93918
  122          H           0.056942        0.9431     0.94306
  123          H           0.059320        0.9407     0.94068
  124          H           0.054802        0.9452     0.94520
  125          H           0.138772        0.8612     0.86123
  126          H           0.121972        0.8780     0.87803
  
 DIPOLE           X         Y         Z       TOTAL
 POINT-CHG.    -3.691    -0.536     3.458     5.086
 HYBRID         1.765     0.738     1.595     2.491
 SUM           -1.926     0.202     5.053     5.411


          ATOMIC ORBITAL ELECTRON POPULATIONS

     Atom    s        px        py        pz   
    1  C   1.15574   0.96501   1.02832   1.02805
    2  C   1.16685   0.95239   0.96693   1.02684
    3  C   1.17087   0.95323   0.96981   1.02856
    4  C   1.17091   0.95710   0.96632   1.02893
    5  C   1.17159   0.95033   0.97340   1.03433
    6  C   1.16935   0.95941   0.96242   1.02658
    7  C   1.17929   1.02258   0.95292   1.01027
    8  C   1.16023   0.95750   0.82589   1.00294
    9  N   1.52249   1.16399   1.19768   1.39401
   10  C   1.15461   0.82349   0.94833   0.94252
   11  C   1.17089   0.96998   1.01822   1.01791
   12  C   1.17613   0.94256   0.95085   0.97009
   13  C   1.14908   0.92139   0.98606   1.02374
   14  C   1.17300   0.92870   0.97390   0.93145
   15  C   1.15930   0.95496   0.98193   1.01574
   16  C   1.15620   0.93121   0.96449   0.98760
   17  C   1.15075   0.94292   0.90748   0.91750
   18  C   1.14300   0.92635   0.96661   0.99417
   19  C   1.15769   0.93483   0.96529   0.96795
   20  C   1.17991   0.93683   0.99156   0.98321
   21  C   1.17918   0.97524   0.97124   0.99212
   22  C   1.17683   0.94885   0.96170   0.95277
   23  C   1.17881   0.94549   1.00450   0.98994
   24  C   1.17936   0.97332   0.96239   0.98097
   25  C   1.15689   0.93204   0.97902   1.02203
   26  C   1.15564   0.98779   1.00728   1.02292
   27  C   1.15764   0.93446   0.94940   0.98899
   28  C   1.15275   0.94402   0.86950   0.95863
   29  C   1.14265   0.93382   0.96742   0.98334
   30  C   1.15785   0.93025   0.95731   0.97994
   31  C   1.18007   0.97693   0.95334   0.97856
   32  C   1.17932   0.93820   1.00240   0.99763
   33  C   1.17667   0.94762   0.95507   0.95960
   34  C   1.17880   0.97750   0.96840   0.99882
   35  C   1.17948   0.93313   0.99446   0.99075
   36  C   1.15733   0.94787   1.00509   0.98210
   37  C   1.15617   1.01517   1.02764   0.97553
   38  N   1.54602   1.08037   1.32394   1.32707
   39  C   1.15616   0.85413   0.94264   0.93475
   40  C   1.15985   0.95492   0.97423   1.01488
   41  C   1.17264   0.93097   0.97659   0.94980
   42  C   1.17834   1.00064   0.98044   1.00645
   43  C   1.17644   0.93826   0.96108   0.97415
   44  C   1.17109   0.96841   1.01420   1.01809
   45  C   1.16074   0.90549   0.94753   0.93763
   46  C   1.17940   1.02075   0.99535   0.97147
   47  C   1.16968   0.96693   1.00014   0.98163
   48  C   1.17117   0.95830   1.01469   0.98228
   49  C   1.17060   0.96453   1.00815   0.97897
   50  C   1.17017   0.95986   0.97847   1.01224
   51  C   1.16701   0.95748   0.97825   1.01053
   52  C   1.15637   0.98670   1.01689   1.01955
   53  C   1.22048   0.98701   1.03336   1.00374
   54  C   1.18243   0.92834   1.04526   1.00620
   55  C   1.18455   0.97594   0.93858   0.91295
   56  C   1.21797   1.04073   1.19478   1.00648
   57  S   1.88248   0.96283   1.58391   1.00220
   58  C   1.17030   0.93787   0.84220   0.88334
   59  C   1.14047   0.94669   1.12464   0.96867
   60  C   1.17940   0.85424   0.75057   0.80694
   61  O   1.91043   1.29248   1.39458   1.78745
   62  O   1.84006   1.47081   1.73646   1.26562
   63  C   1.19484   0.91602   0.91683   0.91939
   64  N   1.84837   1.11397   1.10754   1.08215
   65  H   0.87195
   66  H   0.94236
   67  H   0.94344
   68  H   0.94334
   69  H   0.93995
   70  H   0.93933
   71  H   0.93780
   72  H   0.93904
   73  H   0.93791
   74  H   0.93790
   75  H   0.93745
   76  H   0.92957
   77  H   0.93481
   78  H   0.93811
   79  H   0.92224
   80  H   0.92276
   81  H   0.92261
   82  H   0.90308
   83  H   0.87668
   84  H   0.89094
   85  H   0.87354
   86  H   0.88072
   87  H   0.88819
   88  H   0.88912
   89  H   0.88455
   90  H   0.93161
   91  H   0.93271
   92  H   0.93726
   93  H   0.94224
   94  H   0.93695
   95  H   0.87964
   96  H   0.88761
   97  H   0.89010
   98  H   0.88455
   99  H   0.93013
  100  H   0.93033
  101  H   0.93584
  102  H   0.94229
  103  H   0.93998
  104  H   0.88184
  105  H   0.89247
  106  H   0.90046
  107  H   0.88224
  108  H   0.90580
  109  H   0.92229
  110  H   0.92176
  111  H   0.92386
  112  H   0.93859
  113  H   0.93611
  114  H   0.93043
  115  H   0.93682
  116  H   0.94148
  117  H   0.93726
  118  H   0.93680
  119  H   0.94039
  120  H   0.93945
  121  H   0.93918
  122  H   0.94306
  123  H   0.94068
  124  H   0.94520
  125  H   0.86123
  126  H   0.87803
  127  H   0.75656
 ******************** TDHF POLARIZABILITIES ********************



          MOLECULAR WEIGHT =  866.21



          ROTATIONAL CONSTANTS IN CM(-1)

          A =    0.00116518   B =    0.00070969   C =    0.00046990



           PRINCIPAL MOMENTS OF INERTIA IN UNITS OF 10**(-40)*GRAM-CM**2

          A =    24024.4734   B =    39443.8600   C =    59571.4160


 ROTATION MATRIX FOR ORIENTATION OF MOLECULE:

         0.897206    0.054396    0.438250
         0.273776    0.710157   -0.648633
        -0.346509    0.701939    0.622264


          CARTESIAN COORDINATES 

    NO.       ATOM         X         Y         Z

     1         C       -9.4982   -6.4022    1.4862
     2         C       -8.1344   -6.3195    2.1523
     3         C       -7.2579   -5.2764    1.4637
     4         C       -5.8846   -5.1989    2.1268
     5         C       -5.0213   -4.1304    1.4582
     6         C       -3.6226   -4.1078    2.0681
     7         C       -2.8355   -2.8644    1.6648
     8         C       -2.6757   -2.7716    0.1409
     9         N       -1.6560   -1.7943   -0.2427
    10         C       -0.2876   -2.0275   -0.0154
    11         C        0.3691   -3.2353    0.2245
    12         C        1.7473   -3.2054    0.3311
    13         C        2.4644   -2.0049    0.2024
    14         C        1.8083   -0.7973   -0.0254
    15         C        0.4272   -0.8042   -0.1208
    16         C       -0.5498    0.2357   -0.3356
    17         C       -1.8322   -0.3934   -0.3763
    18         C       -2.9933    0.3433   -0.6012
    19         C       -4.3241   -0.2488   -0.6856
    20         C       -4.7926   -0.7286   -1.9073
    21         C       -6.0683   -1.2695   -1.9913
    22         C       -6.8792   -1.3326   -0.8606
    23         C       -6.4115   -0.8437    0.3552
    24         C       -5.1350   -0.3018    0.4450
    25         C       -8.2515   -1.9105   -0.9733
    26         C       -9.1785   -0.9005   -1.6333
    27         C       -2.8392    1.7113   -0.7597
    28         C       -1.5573    2.3441   -0.6978
    29         C       -0.3971    1.6067   -0.4936
    30         C        0.9420    2.1841   -0.4495
    31         C        1.6467    2.3933   -1.6332
    32         C        2.9462    2.8790   -1.5840
    33         C        3.5454    3.1570   -0.3578
    34         C        2.8330    2.9612    0.8213
    35         C        1.5316    2.4763    0.7778
    36         C        4.9584    3.6391   -0.3261
    37         C        5.8977    2.4795   -0.6243
    38         N       -1.7083    3.7289   -0.9818
    39         C       -3.0999    3.9749   -1.0859
    40         C       -3.8111    2.7494   -1.0122
    41         C       -5.1862    2.7368   -1.1832
    42         C       -5.8381    3.9416   -1.4058
    43         C       -5.1313    5.1449   -1.4612
    44         C       -3.7543    5.1844   -1.3029
    45         C       -0.8067    4.7795   -0.4987
    46         C       -1.0430    5.1146    0.9803
    47         C       -0.3820    6.4339    1.3675
    48         C        1.1321    6.4048    1.1721
    49         C        1.7754    7.6305    1.8177
    50         C        3.2733    7.7133    1.5321
    51         C        4.0651    6.6719    2.3170
    52         C        5.5542    6.8073    2.0398
    53         C        3.9032   -2.0082    0.3112
    54         C        4.6617   -1.0257    0.8995
    55         C        6.0501   -1.3149    0.8192
    56         C        6.2982   -2.5131    0.1805
    57         S        4.8550   -3.2614   -0.3252
    58         C        7.6197   -3.0177   -0.0191
    59         C        7.9405   -4.2457   -0.4819
    60         C        9.3545   -4.6065   -0.6342
    61         O       10.3210   -3.8979   -0.3871
    62         O        9.5546   -5.8575   -1.0971
    63         C        6.9851   -5.2304   -0.8293
    64         N        6.2264   -6.0543   -1.1194
    65         H        8.4321   -2.3178    0.2414
    66         H       -9.4283   -6.6869    0.4264
    67         H      -10.1454   -7.1479    1.9702
    68         H      -10.0388   -5.4454    1.5224
    69         H       -8.2499   -6.0808    3.2308
    70         H       -7.6404   -7.3141    2.1370
    71         H       -7.1540   -5.5153    0.3841
    72         H       -7.7546   -4.2829    1.4839
    73         H       -5.9928   -4.9858    3.2114
    74         H       -5.3783   -6.1863    2.0834
    75         H       -4.9656   -4.3203    0.3654
    76         H       -5.5033   -3.1329    1.5474
    77         H       -3.6827   -4.1506    3.1773
    78         H       -3.0664   -5.0280    1.7887
    79         H       -3.3259   -1.9463    2.0531
    80         H       -1.8407   -2.8798    2.1612
    81         H       -2.3897   -3.7589   -0.2933
    82         H       -3.6384   -2.5134   -0.3538
    83         H       -0.1760   -4.1758    0.3260
    84         H        2.2861   -4.1390    0.5263
    85         H        2.3703    0.1341   -0.1420
    86         H       -4.1562   -0.6750   -2.7959
    87         H       -6.4357   -1.6460   -2.9509
    88         H       -7.0450   -0.8797    1.2467
    89         H       -4.7701    0.0901    1.3993
    90         H       -8.2263   -2.8575   -1.5548
    91         H       -8.6496   -2.2142    0.0187
    92         H       -8.8373   -0.6209   -2.6405
    93         H      -10.2003   -1.2920   -1.7401
    94         H       -9.2530    0.0307   -1.0535
    95         H        1.1774    2.1675   -2.5958
    96         H        3.5008    3.0389   -2.5139
    97         H        3.2930    3.1792    1.7900
    98         H        0.9749    2.3119    1.7055
    99         H        5.1038    4.4603   -1.0609
   100         H        5.2125    4.1047    0.6508
   101         H        5.7269    2.0532   -1.6234
   102         H        6.9524    2.7878   -0.5863
   103         H        5.7794    1.6548    0.0948
   104         H       -5.7478    1.7994   -1.1454
   105         H       -6.9231    3.9514   -1.5407
   106         H       -5.6771    6.0779   -1.6342
   107         H       -3.2150    6.1318   -1.3529
   108         H        0.2459    4.4683   -0.6817
   109         H       -0.9532    5.6776   -1.1434
   110         H       -2.1321    5.1717    1.1977
   111         H       -0.6748    4.2864    1.6224
   112         H       -0.8289    7.2739    0.7938
   113         H       -0.6290    6.6635    2.4269
   114         H        1.5559    5.4675    1.5903
   115         H        1.3842    6.3708    0.0912
   116         H        1.2777    8.5535    1.4485
   117         H        1.5907    7.6373    2.9127
   118         H        3.4695    7.6108    0.4439
   119         H        3.6429    8.7313    1.7827
   120         H        3.8686    6.7721    3.4055
   121         H        3.7276    5.6448    2.0644
   122         H        5.7938    6.6736    0.9747
   123         H        5.9458    7.7926    2.3311
   124         H        6.1428    6.0596    2.5911
   125         H        4.2669   -0.1349    1.3824
   126         H        6.8156   -0.6567    1.2268
   127         H       10.4997   -6.0495   -1.1811


 ENERGY OF "REORIENTED" SYSTEM WITHOUT FIELD:       19.1235181532


  NFREQ=  3  IWFLB=  0  IBET=  1  IGAM=  1
  ATOL= 0.10000D-02  BTOL= 0.10000D-02    MAXITU=  500    MAXITA=  150


 *****************************************************************
 CALCULATION OF STATIC FIELD QUANTITIES
 *****************************************************************

 +++++ ALPHA AT       0.00000 EV.

                           COMPONENTS OF ALPHA

                     *X           *Y           *Z
           *=X:     880.7719     -52.3380      26.2078
           *=Y:     -52.3377     643.1960      16.5005
           *=Z:      26.1733      16.5140     319.9595

  ISOTROPIC AVERAGE ALPHA =     614.64247 A.U. =     91.08062 ANG.**3

 +++++ BETA (SECOND HARMONIC GENERATION) AT       0.00000 EV.

                              COMPONENTS OF BETA
            *XX         *XY         *YY         *XZ         *YZ         *ZZ
   *=X -7982.83641  3267.25456  -998.17132   378.99656  -183.66374     6.83950
   *=Y  3267.41557  -998.25788   117.15421  -183.70616    -2.70083   -21.24243
   *=Z   379.81694  -184.07407    -2.78817     6.83646   -21.21054   -57.52047


 AVERAGE BETAX(SHG) VALUE AT   0.00000 EV =      -5384.5368 a.u. = -0.465193E-28 ESU
 AVERAGE BETAY(SHG) VALUE AT   0.00000 EV =       2017.9448 a.u. =  0.174339E-28 ESU
 AVERAGE BETAZ(SHG) VALUE AT   0.00000 EV =        191.4118 a.u. =  0.165369E-29 ESU



 AVERAGE BETA (SHG) VALUE AT   0.00000 EV =       5753.4317 a.u. =  0.497063E-28 ESU
   (1 a.u. = 8.639418X10-33 esu)



 +++++ ALPHA AT       0.00000 EV.

                           COMPONENTS OF ALPHA

                     *X           *Y           *Z
           *=X:     880.7719     -52.3380      26.2078
           *=Y:     -52.3377     643.1960      16.5005
           *=Z:      26.1733      16.5140     319.9595

  ISOTROPIC AVERAGE ALPHA =     614.64247 A.U. =     91.08062 ANG.**3


 GAMMA (THIRD HARMONIC GENERATION) AT    0.00000 EV.


 GAMMA(X,X,X,X) =       1921393.11300
 GAMMA(Y,Y,Y,Y) =        246835.84928
 GAMMA(Z,Z,Z,Z) =          7197.36147
 GAMMA(X,X,Y,Y) =        381615.08495
 GAMMA(X,X,Z,Z) =         12331.80319
 GAMMA(Y,Y,X,X) =        381615.02584
 GAMMA(Y,Y,Z,Z) =         13383.23226
 GAMMA(Z,Z,X,X) =         12331.65930
 GAMMA(Z,Z,Y,Y) =         13383.40837


 AVERAGE GAMMA VALUE AT    0.00000 =        598017.30753 a.u. =       301203.53157 ESU (X10-39)




 **********************************************************************
 CALCULATION FOR A FREQUENCY OF    0.25000 EV  =       0.00919 A.U. 
                  WAVELENGTH OF    4959.37 NM  =    2016.38525 CM(-1)
 **********************************************************************

 +++++ ALPHA AT       0.25000 EV.

                           COMPONENTS OF ALPHA

                     *X           *Y           *Z
           *=X:     883.7954     -53.1869      26.2311
           *=Y:     -53.1869     644.8218      16.5109
           *=Z:      26.2019      16.5221     320.3063

  ISOTROPIC AVERAGE ALPHA =     616.30783 A.U. =     91.32740 ANG.**3

 +++++ BETA (SECOND HARMONIC GENERATION) AT       0.25000 EV.

                              COMPONENTS OF BETA
            *XX         *XY         *YY         *XZ         *YZ         *ZZ
   *=X -8367.89876  3431.65145 -1047.22688   397.98941  -191.67415     7.28180
   *=Y  3445.67085 -1065.00813   134.85095  -194.21941     1.52476   -21.21906
   *=Z   396.56496  -192.57820     0.49862     6.30129   -20.60557   -57.66081


 AVERAGE BETAX(SHG) VALUE AT   0.25000 EV =      -5652.2110 a.u. = -0.488318E-28 ESU
 AVERAGE BETAY(SHG) VALUE AT   0.25000 EV =       2130.2193 a.u. =  0.184039E-28 ESU
 AVERAGE BETAZ(SHG) VALUE AT   0.25000 EV =        204.6219 a.u. =  0.176781E-29 ESU



 AVERAGE BETA (SHG) VALUE AT   0.25000 EV =       6043.7731 a.u. =  0.522147E-28 ESU
   (1 a.u. = 8.639418X10-33 esu)



 +++++ ALPHA AT       0.75000 EV.

                           COMPONENTS OF ALPHA

                     *X           *Y           *Z
           *=X:     909.5525     -60.5728      26.4329
           *=Y:     -60.5769     658.4493      16.5874
           *=Z:      26.4076      16.5965     323.1245

  ISOTROPIC AVERAGE ALPHA =     630.37545 A.U. =     93.41200 ANG.**3


 GAMMA (THIRD HARMONIC GENERATION) AT    0.25000 EV.


 GAMMA(X,X,X,X) =       2149542.41460
 GAMMA(Y,Y,Y,Y) =        266296.98733
 GAMMA(Z,Z,Z,Z) =          7360.04464
 GAMMA(X,X,Y,Y) =        421308.32850
 GAMMA(X,X,Z,Z) =         12943.41758
 GAMMA(Y,Y,X,X) =        428199.07526
 GAMMA(Y,Y,Z,Z) =         14077.84970
 GAMMA(Z,Z,X,X) =         13173.32399
 GAMMA(Z,Z,Y,Y) =         13940.93755


 AVERAGE GAMMA VALUE AT    0.25000 =        665368.47583 a.u. =       335126.31188 ESU (X10-39)




 **********************************************************************
 CALCULATION FOR A FREQUENCY OF    0.50000 EV  =       0.01837 A.U. 
                  WAVELENGTH OF    2479.68 NM  =    4032.77050 CM(-1)
 **********************************************************************

 +++++ ALPHA AT       0.50000 EV.

                           COMPONENTS OF ALPHA

                     *X           *Y           *Z
           *=X:     893.1136     -55.8284      26.3083
           *=Y:     -55.8296     649.7972      16.5388
           *=Z:      26.2842      16.5477     321.3528

  ISOTROPIC AVERAGE ALPHA =     621.42121 A.U. =     92.08512 ANG.**3

 +++++ BETA (SECOND HARMONIC GENERATION) AT       0.50000 EV.

                              COMPONENTS OF BETA
            *XX         *XY         *YY         *XZ         *YZ         *ZZ
   *=X -9733.90503  4016.82360 -1220.88589   464.86283  -219.83447     8.80236
   *=Y  4083.21325 -1305.92214   198.67468  -231.23775    16.90664   -21.12739
   *=Z   455.90237  -222.38919    11.97226     4.27749   -18.42532   -58.01913


 AVERAGE BETAX(SHG) VALUE AT   0.50000 EV =      -6603.4176 a.u. = -0.570497E-28 ESU
 AVERAGE BETAY(SHG) VALUE AT   0.50000 EV =       2530.9813 a.u. =  0.218662E-28 ESU
 AVERAGE BETAZ(SHG) VALUE AT   0.50000 EV =        251.4712 a.u. =  0.217257E-29 ESU



 AVERAGE BETA (SHG) VALUE AT   0.50000 EV =       7076.3146 a.u. =  0.611352E-28 ESU
   (1 a.u. = 8.639418X10-33 esu)



 +++++ ALPHA AT       1.50000 EV.

                           COMPONENTS OF ALPHA

                     *X           *Y           *Z
           *=X:    1026.7895     -96.9224      26.5397
           *=Y:     -96.9494     715.7237      17.1137
           *=Z:      26.4916      17.1273     333.4224

  ISOTROPIC AVERAGE ALPHA =     691.97854 A.U. =    102.54064 ANG.**3


 GAMMA (THIRD HARMONIC GENERATION) AT    0.50000 EV.


 GAMMA(X,X,X,X) =       3206134.63348
 GAMMA(Y,Y,Y,Y) =        344804.98795
 GAMMA(Z,Z,Z,Z) =          7900.01984
 GAMMA(X,X,Y,Y) =        597725.25493
 GAMMA(X,X,Z,Z) =         15256.81429
 GAMMA(Y,Y,X,X) =        642570.95261
 GAMMA(Y,Y,Z,Z) =         16676.55843
 GAMMA(Z,Z,X,X) =         16572.84809
 GAMMA(Z,Z,Y,Y) =         15958.03155


 AVERAGE GAMMA VALUE AT    0.50000 =        972720.02024 a.u. =       489930.14354 ESU (X10-39)



 **********************
 *                    *
 * JOB ENDED NORMALLY *
 *                    *
 **********************



 TOTAL JOB TIME:           957.63 SECONDS

 == MOPAC DONE ==
