 *******************************************************************************
 ** Site#: 4824         For non-commercial use only    Version 21.013L 64BITS **
 *******************************************************************************
 ** Cite this program as: MOPAC2016, Version: 21.013L, James J. P. Stewart,   **
 ** Stewart Computational Chemistry, web: HTTP://OpenMOPAC.net. Days left:  88**
 *******************************************************************************
 **                                                                           **
 **                                MOPAC2016                                  **
 **                                                                           **
 *******************************************************************************

                              RM1 CALCULATION RESULTS

 *******************************************************************************
 *  CALCULATION DONE:                                Sun Oct 17 09:30:53 2021  *
 *  RM1        - The RM1 Hamiltonian to be used
 *  POLAR      - CALCULATE FIRST, SECOND AND THIRD-ORDER POLARIZABILITIES
 *  PRECISE    - TIGHTER CRITERIA TO BE USED
 *  T=         - A TIME OF 172800.0 SECONDS REQUESTED
 *  DUMP=N     - RESTART FILE WRITTEN EVERY 7200.0 SECONDS REQUESTED
 *  GNORM      - EXIT WHEN GRADIENT NORM DROPS BELOW 0.100
 *******************************************************************************
RM1 PRECISE POLAR GNORM=0.1


  ATOM    CHEMICAL      BOND LENGTH      BOND ANGLE     TWIST ANGLE 
 NUMBER    SYMBOL       (ANGSTROMS)      (DEGREES)       (DEGREES) 
   (I)                     NA:I           NB:NA:I       NC:NB:NA:I       NA    NB    NC 
     1       N          0.00000000       0.0000000       0.0000000        0     0     0
     2       C          1.15850000  *    0.0000000       0.0000000        1     0     0
     3       C          1.42950000  *  179.7046000  *    0.0000000        2     1     0
     4       C          1.34910000  *  121.4671000  * -179.6343000  *     3     2     1
     5       C          1.46520000  *  124.7657000  *   -1.4189000  *     4     3     2
     6       C          1.34820000  *  128.6048000  *  -42.2105000  *     5     4     3
     7       C          1.48660000  *  115.8175000  * -176.9404000  *     6     5     4
     8       C          1.35010000  *  116.1798000  *    1.1995000  *     7     6     5
     9       S          1.81840000  *  124.1575000  *  142.9585000  *     5     4     3
    10       C          1.47150000  *  127.4587000  *  179.2905000  *     8     7     6
    11       C          1.47790000  *  121.0361000  *  -10.6315000  *    10     8     7
    12       C          1.34470000  *  120.6484000  * -179.2922000  *    11    10     8
    13       C          1.47070000  *  120.2740000  *    0.0864000  *    12    11    10
    14       C          1.34560000  *  119.3400000  *   -0.3489000  *    13    12    11
    15       C          1.34840000  *  120.4123000  *  169.8252000  *    10     8     7
    16       N          1.41180000  *  120.3970000  *  178.4890000  *    13    12    11
    17       C          1.42270000  *  125.3937000  * -125.1793000  *    16    13    14
    18       C          1.34260000  *  129.8013000  *   17.6210000  *    17    16    13
    19       C          1.47530000  *  118.2034000  *  178.9712000  *    18    17    16
    20       C          1.34950000  *  120.8829000  *   -0.2650000  *    19    18    17
    21       C          1.47500000  *  120.6798000  *   -0.0543000  *    20    19    18
    22       C          1.34050000  *  117.6834000  *    0.2213000  *    21    20    19
    23       C          1.45690000  *  131.4009000  *  179.9627000  *    22    21    20
    24       C          1.42360000  *  124.5308000  *   75.1656000  *    16    13    14
    25       C          1.34270000  *  129.8367000  *  -15.7918000  *    24    16    13
    26       C          1.47490000  *  118.2795000  * -179.8635000  *    25    24    16
    27       C          1.34920000  *  120.8427000  *   -0.5991000  *    26    25    24
    28       C          1.34070000  *  131.4781000  *   -0.9737000  *    23    22    21
    29       C          1.47530000  *  117.7185000  *  177.7685000  *     3     2     4
    30       O          1.23230000  *  121.1128000  *   -4.2899000  *    29     3     4
    31       O          1.35510000  *  119.9730000  *  176.2360000  *    29     3     4
    32       H          1.05290000  *  118.6239000  *  176.1966000  *     4     3     2
    33       H          1.04860000  *  122.8189000  *    0.9406000  *     6     5     4
    34       H          1.04810000  *  120.9476000  * -179.0544000  *     7     6     5
    35       H          1.05020000  *  120.4643000  *  179.8743000  *    11    10    15
    36       H          1.05150000  *  119.8106000  *  179.6612000  *    12    11    10
    37       H          1.05120000  *  120.2351000  *    0.9897000  *    14    13    16
    38       H          1.05060000  *  120.6643000  *   -0.5852000  *    15    10     8
    39       H          1.05020000  *  121.2291000  *   -0.4326000  *    18    17    16
    40       H          1.05090000  *  119.4255000  *  179.9216000  *    19    18    17
    41       H          1.05130000  *  119.7938000  *  179.9406000  *    20    19    18
    42       H          1.05010000  *  120.8076000  * -179.6271000  *    21    20    19
    43       H          1.04950000  *  121.2642000  *   -0.0615000  *    25    24    16
    44       H          1.05090000  *  119.4029000  *  179.2747000  *    26    25    24
    45       H          1.05060000  *  119.7440000  * -179.9136000  *    27    26    25
    46       H          1.04990000  *  121.5314000  *    0.6293000  *    28    23    22
    47       H          0.94080000  *  121.0448000  *    0.6876000  *    31    29    30
 


          CARTESIAN COORDINATES 

    NO.       ATOM           X           Y           Z

     1         N          0.0000      0.0000      0.0000
     2         C          1.1585      0.0000      0.0000
     3         C          2.5880      0.0074      0.0000
     4         C          3.2981     -1.1397     -0.0073
     5         C          2.7149     -2.4836      0.0139
     6         C          1.6793     -2.9397      0.7468
     7         C          1.3659     -4.3850      0.5956
     8         C          2.1664     -5.0841     -0.2370
     9         S          3.3908     -3.9045     -0.8976
    10         C          2.0910     -6.5186     -0.5561
    11         C          1.2175     -7.4263      0.2167
    12         C          1.1653     -8.7384     -0.0725
    13         C          1.9814     -9.2900     -1.1646
    14         C          2.7746     -8.4674     -1.8752
    15         C          2.8293     -7.0343     -1.5597
    16         N          1.9528    -10.6724     -1.4499
    17         C          0.7850    -11.4280     -1.7490
    18         C         -0.4315    -11.0127     -2.1365
    19         C         -1.4640    -12.0322     -2.4031
    20         C         -1.1912    -13.3467     -2.2663
    21         C          0.1493    -13.7975     -1.8472
    22         C          1.0748    -12.8584     -1.6056
    23         C          2.4655    -12.9622     -1.1839
    24         C          2.9785    -11.5919     -1.0907
    25         C          4.2431    -11.3613     -0.7028
    26         C          5.1004    -12.5201     -0.3901
    27         C          4.6221    -13.7785     -0.4798
    28         C          3.2290    -14.0260     -0.8956
    29         C          3.2674      1.3162     -0.0425
    30         O          4.4966      1.3970     -0.0067
    31         O          2.5377      2.4559     -0.1115
    32         H          4.3477     -1.0827     -0.0683
    33         H          1.1420     -2.3319      1.4113
    34         H          0.5677     -4.8208      1.1167
    35         H          0.6311     -7.0570      1.0058
    36         H          0.5433     -9.3732      0.4894
    37         H          3.3659     -8.8470     -2.6571
    38         H          3.4599     -6.4190     -2.1319
    39         H         -0.6454     -9.9917     -2.2574
    40         H         -2.4233    -11.7285     -2.7063
    41         H         -1.9402    -14.0586     -2.4599
    42         H          0.3655    -14.8201     -1.7458
    43         H          4.6195    -10.3848     -0.6250
    44         H          6.0965    -12.3605     -0.0959
    45         H          5.2475    -14.5913     -0.2516
    46         H          2.8548    -15.0046     -0.9625
    47         H          2.9553      3.2984     -0.1418

  H: (RM1): G.B. ROCHA, R.O. FREIRE, A.M.SIMAS, J.J.P. STEWART, J. COMP. CHEM. 27, 1101 (2006)
  C: (RM1): G.B. ROCHA, R.O. FREIRE, A.M.SIMAS, J.J.P. STEWART, J. COMP. CHEM. 27, 1101 (2006)
  N: (RM1): G.B. ROCHA, R.O. FREIRE, A.M.SIMAS, J.J.P. STEWART, J. COMP. CHEM. 27, 1101 (2006)
  O: (RM1): G.B. ROCHA, R.O. FREIRE, A.M.SIMAS, J.J.P. STEWART, J. COMP. CHEM. 27, 1101 (2006)
  S: (RM1): G.B. ROCHA, R.O. FREIRE, A.M.SIMAS, J.J.P. STEWART, J. COMP. CHEM. 27, 1101 (2006)

           Empirical Formula: C26 H16 N2 O2 S  =    47 atoms



      MOLECULAR POINT GROUP   :   C1  


      RHF CALCULATION, NO. OF DOUBLY OCCUPIED LEVELS = 74


          Geometry optimization using L-BFGS
 CYCLE:     1 TIME:   0.105 TIME LEFT:  2.00D  GRAD.:   734.776 HEAT:  116.5978
 CYCLE:     2 TIME:   0.047 TIME LEFT:  2.00D  GRAD.:   449.326 HEAT:  114.0934
 CYCLE:     3 TIME:   0.043 TIME LEFT:  2.00D  GRAD.:   363.729 HEAT:  113.0091
 CYCLE:     4 TIME:   0.043 TIME LEFT:  2.00D  GRAD.:   448.731 HEAT:  114.0932
 CYCLE:     5 TIME:   0.059 TIME LEFT:  2.00D  GRAD.:   365.406 HEAT:  113.0043
 CYCLE:     6 TIME:   0.039 TIME LEFT:  2.00D  GRAD.:   448.669 HEAT:  114.0932
 CYCLE:     7 TIME:   0.043 TIME LEFT:  2.00D  GRAD.:   365.449 HEAT:  113.0043
 CYCLE:     8 TIME:   0.039 TIME LEFT:  2.00D  GRAD.:   366.226 HEAT:  113.0043
 CYCLE:     9 TIME:   0.051 TIME LEFT:  2.00D  GRAD.:   402.327 HEAT:  106.5094
 CYCLE:    10 TIME:   0.051 TIME LEFT:  2.00D  GRAD.:   435.097 HEAT:  102.8829
 CYCLE:    11 TIME:   0.047 TIME LEFT:  2.00D  GRAD.:   450.717 HEAT:  90.65692
 CYCLE:    12 TIME:   0.051 TIME LEFT:  2.00D  GRAD.:   566.793 HEAT:  84.12800
 CYCLE:    13 TIME:   0.055 TIME LEFT:  2.00D  GRAD.:   228.960 HEAT:  78.77657
 CYCLE:    14 TIME:   0.043 TIME LEFT:  2.00D  GRAD.:   138.911 HEAT:  76.77021
 CYCLE:    15 TIME:   0.043 TIME LEFT:  2.00D  GRAD.:   114.440 HEAT:  76.15116
 CYCLE:    16 TIME:   0.047 TIME LEFT:  2.00D  GRAD.:   105.880 HEAT:  74.61846
 CYCLE:    17 TIME:   0.051 TIME LEFT:  2.00D  GRAD.:    69.967 HEAT:  73.36782
 CYCLE:    18 TIME:   0.043 TIME LEFT:  2.00D  GRAD.:    59.660 HEAT:  72.42110
 CYCLE:    19 TIME:   0.039 TIME LEFT:  2.00D  GRAD.:    55.079 HEAT:  71.86120
 CYCLE:    20 TIME:   0.043 TIME LEFT:  2.00D  GRAD.:   201.661 HEAT:  71.56505
 CYCLE:    21 TIME:   0.039 TIME LEFT:  2.00D  GRAD.:    62.856 HEAT:  71.25816
 CYCLE:    22 TIME:   0.055 TIME LEFT:  2.00D  GRAD.:    54.169 HEAT:  71.14207
 CYCLE:    23 TIME:   0.059 TIME LEFT:  2.00D  GRAD.:    55.113 HEAT:  70.83650
 CYCLE:    24 TIME:   0.047 TIME LEFT:  2.00D  GRAD.:   289.342 HEAT:  71.39121
 CYCLE:    25 TIME:   0.039 TIME LEFT:  2.00D  GRAD.:    52.852 HEAT:  70.47135
 CYCLE:    26 TIME:   0.039 TIME LEFT:  2.00D  GRAD.:    35.607 HEAT:  70.40672
 CYCLE:    27 TIME:   0.047 TIME LEFT:  2.00D  GRAD.:    28.269 HEAT:  70.28711
 CYCLE:    28 TIME:   0.039 TIME LEFT:  2.00D  GRAD.:    27.952 HEAT:  70.21084
 CYCLE:    29 TIME:   0.043 TIME LEFT:  2.00D  GRAD.:    51.084 HEAT:  69.95435
 CYCLE:    30 TIME:   0.047 TIME LEFT:  2.00D  GRAD.:   219.525 HEAT:  70.52460
 CYCLE:    31 TIME:   0.043 TIME LEFT:  2.00D  GRAD.:    19.411 HEAT:  69.84712
 CYCLE:    32 TIME:   0.039 TIME LEFT:  2.00D  GRAD.:    16.172 HEAT:  69.83146
 CYCLE:    33 TIME:   0.039 TIME LEFT:  2.00D  GRAD.:    17.298 HEAT:  69.78341
 CYCLE:    34 TIME:   0.043 TIME LEFT:  2.00D  GRAD.:   377.552 HEAT:  70.21304
 CYCLE:    35 TIME:   0.043 TIME LEFT:  2.00D  GRAD.:    30.368 HEAT:  69.73249
 CYCLE:    36 TIME:   0.039 TIME LEFT:  2.00D  GRAD.:    22.658 HEAT:  69.71344
 CYCLE:    37 TIME:   0.039 TIME LEFT:  2.00D  GRAD.:    13.633 HEAT:  69.66958
 CYCLE:    38 TIME:   0.043 TIME LEFT:  2.00D  GRAD.:    20.157 HEAT:  69.64555
 CYCLE:    39 TIME:   0.043 TIME LEFT:  2.00D  GRAD.:    53.666 HEAT:  69.65046
 CYCLE:    40 TIME:   0.043 TIME LEFT:  2.00D  GRAD.:    14.010 HEAT:  69.60956
 CYCLE:    41 TIME:   0.043 TIME LEFT:  2.00D  GRAD.:    10.640 HEAT:  69.60085
 CYCLE:    42 TIME:   0.047 TIME LEFT:  2.00D  GRAD.:    10.323 HEAT:  69.58118
 CYCLE:    43 TIME:   0.039 TIME LEFT:  2.00D  GRAD.:     9.237 HEAT:  69.56676
 CYCLE:    44 TIME:   0.059 TIME LEFT:  2.00D  GRAD.:    25.200 HEAT:  69.54920
 CYCLE:    45 TIME:   0.051 TIME LEFT:  2.00D  GRAD.:    15.437 HEAT:  69.53457
 CYCLE:    46 TIME:   0.047 TIME LEFT:  2.00D  GRAD.:    10.217 HEAT:  69.52510
 CYCLE:    47 TIME:   0.047 TIME LEFT:  2.00D  GRAD.:     8.367 HEAT:  69.51190
 CYCLE:    48 TIME:   0.035 TIME LEFT:  2.00D  GRAD.:    42.707 HEAT:  69.50609
 CYCLE:    49 TIME:   0.043 TIME LEFT:  2.00D  GRAD.:    15.141 HEAT:  69.49489
 CYCLE:    50 TIME:   0.047 TIME LEFT:  2.00D  GRAD.:    11.853 HEAT:  69.48578
 CYCLE:    51 TIME:   0.055 TIME LEFT:  2.00D  GRAD.:    14.416 HEAT:  69.47717
 CYCLE:    52 TIME:   0.055 TIME LEFT:  2.00D  GRAD.:    21.598 HEAT:  69.45233
 CYCLE:    53 TIME:   0.047 TIME LEFT:  2.00D  GRAD.:    21.342 HEAT:  69.43061
 CYCLE:    54 TIME:   0.055 TIME LEFT:  2.00D  GRAD.:    18.218 HEAT:  69.40183
 CYCLE:    55 TIME:   0.039 TIME LEFT:  2.00D  GRAD.:    13.074 HEAT:  69.38007
 CYCLE:    56 TIME:   0.039 TIME LEFT:  2.00D  GRAD.:    21.561 HEAT:  69.33599
 CYCLE:    57 TIME:   0.059 TIME LEFT:  2.00D  GRAD.:    18.372 HEAT:  69.30993
 CYCLE:    58 TIME:   0.039 TIME LEFT:  2.00D  GRAD.:    31.234 HEAT:  69.27377
 CYCLE:    59 TIME:   0.039 TIME LEFT:  2.00D  GRAD.:    22.206 HEAT:  69.23448
 CYCLE:    60 TIME:   0.043 TIME LEFT:  2.00D  GRAD.:    19.364 HEAT:  69.20266
 CYCLE:    61 TIME:   0.039 TIME LEFT:  2.00D  GRAD.:   169.867 HEAT:  69.29911
 CYCLE:    62 TIME:   0.039 TIME LEFT:  2.00D  GRAD.:   135.669 HEAT:  69.22370
 CYCLE:    63 TIME:   0.043 TIME LEFT:  2.00D  GRAD.:    12.114 HEAT:  69.16041
 CYCLE:    64 TIME:   0.051 TIME LEFT:  2.00D  GRAD.:    37.133 HEAT:  69.13288
 CYCLE:    65 TIME:   0.062 TIME LEFT:  2.00D  GRAD.:    78.931 HEAT:  69.17121
 CYCLE:    66 TIME:   0.055 TIME LEFT:  2.00D  GRAD.:    56.402 HEAT:  69.10839
 CYCLE:    67 TIME:   0.043 TIME LEFT:  2.00D  GRAD.:    22.148 HEAT:  69.09359
 CYCLE:    68 TIME:   0.039 TIME LEFT:  2.00D  GRAD.:    12.723 HEAT:  69.08484
 CYCLE:    69 TIME:   0.039 TIME LEFT:  2.00D  GRAD.:    13.023 HEAT:  69.07226
 CYCLE:    70 TIME:   0.039 TIME LEFT:  2.00D  GRAD.:    21.035 HEAT:  69.04102
 CYCLE:    71 TIME:   0.043 TIME LEFT:  2.00D  GRAD.:    19.840 HEAT:  69.00740
 CYCLE:    72 TIME:   0.047 TIME LEFT:  2.00D  GRAD.:    37.275 HEAT:  69.01291
 CYCLE:    73 TIME:   0.055 TIME LEFT:  2.00D  GRAD.:     8.949 HEAT:  68.98168
 CYCLE:    74 TIME:   0.059 TIME LEFT:  2.00D  GRAD.:     8.040 HEAT:  68.97392
 CYCLE:    75 TIME:   0.055 TIME LEFT:  2.00D  GRAD.:     9.642 HEAT:  68.95308
 CYCLE:    76 TIME:   0.051 TIME LEFT:  2.00D  GRAD.:   115.238 HEAT:  69.06076
 CYCLE:    77 TIME:   0.062 TIME LEFT:  2.00D  GRAD.:    13.850 HEAT:  68.94790
 CYCLE:    78 TIME:   0.055 TIME LEFT:  2.00D  GRAD.:    10.391 HEAT:  68.94047
 CYCLE:    79 TIME:   0.059 TIME LEFT:  2.00D  GRAD.:     8.650 HEAT:  68.93695
 CYCLE:    80 TIME:   0.059 TIME LEFT:  2.00D  GRAD.:    92.444 HEAT:  68.95172
 CYCLE:    81 TIME:   0.055 TIME LEFT:  2.00D  GRAD.:    16.412 HEAT:  68.92625
 CYCLE:    82 TIME:   0.055 TIME LEFT:  2.00D  GRAD.:    10.405 HEAT:  68.92089
 CYCLE:    83 TIME:   0.055 TIME LEFT:  2.00D  GRAD.:    40.878 HEAT:  68.90631
 CYCLE:    84 TIME:   0.059 TIME LEFT:  2.00D  GRAD.:    30.800 HEAT:  68.89332
 CYCLE:    85 TIME:   0.055 TIME LEFT:  2.00D  GRAD.:    11.342 HEAT:  68.87570
 CYCLE:    86 TIME:   0.059 TIME LEFT:  2.00D  GRAD.:     9.397 HEAT:  68.87013
 CYCLE:    87 TIME:   0.055 TIME LEFT:  2.00D  GRAD.:    16.135 HEAT:  68.86348
 CYCLE:    88 TIME:   0.059 TIME LEFT:  2.00D  GRAD.:    14.066 HEAT:  68.85641
 CYCLE:    89 TIME:   0.055 TIME LEFT:  2.00D  GRAD.:    11.424 HEAT:  68.83103
 CYCLE:    90 TIME:   0.059 TIME LEFT:  2.00D  GRAD.:    24.854 HEAT:  68.82293
 CYCLE:    91 TIME:   0.055 TIME LEFT:  2.00D  GRAD.:     9.749 HEAT:  68.80478
 CYCLE:    92 TIME:   0.059 TIME LEFT:  2.00D  GRAD.:     9.165 HEAT:  68.79407
 CYCLE:    93 TIME:   0.055 TIME LEFT:  2.00D  GRAD.:    11.029 HEAT:  68.78109
 CYCLE:    94 TIME:   0.039 TIME LEFT:  2.00D  GRAD.:    23.530 HEAT:  68.76827
 CYCLE:    95 TIME:   0.047 TIME LEFT:  2.00D  GRAD.:    13.771 HEAT:  68.75642
 CYCLE:    96 TIME:   0.055 TIME LEFT:  2.00D  GRAD.:     8.528 HEAT:  68.74754
 CYCLE:    97 TIME:   0.039 TIME LEFT:  2.00D  GRAD.:    23.528 HEAT:  68.74372
 CYCLE:    98 TIME:   0.039 TIME LEFT:  2.00D  GRAD.:    11.644 HEAT:  68.73921
 CYCLE:    99 TIME:   0.035 TIME LEFT:  2.00D  GRAD.:    11.110 HEAT:  68.73436
 CYCLE:   100 TIME:   0.047 TIME LEFT:  2.00D  GRAD.:    16.711 HEAT:  68.72924
 CYCLE:   101 TIME:   0.047 TIME LEFT:  2.00D  GRAD.:    13.092 HEAT:  68.72299
 CYCLE:   102 TIME:   0.051 TIME LEFT:  2.00D  GRAD.:    18.249 HEAT:  68.71758
 CYCLE:   103 TIME:   0.039 TIME LEFT:  2.00D  GRAD.:     8.319 HEAT:  68.70950
 CYCLE:   104 TIME:   0.039 TIME LEFT:  2.00D  GRAD.:     5.494 HEAT:  68.70639
 CYCLE:   105 TIME:   0.055 TIME LEFT:  2.00D  GRAD.:     7.051 HEAT:  68.70028
 CYCLE:   106 TIME:   0.059 TIME LEFT:  2.00D  GRAD.:     8.308 HEAT:  68.68974
 CYCLE:   107 TIME:   0.039 TIME LEFT:  2.00D  GRAD.:    12.330 HEAT:  68.67677
 CYCLE:   108 TIME:   0.043 TIME LEFT:  2.00D  GRAD.:    36.399 HEAT:  68.66640
 CYCLE:   109 TIME:   0.039 TIME LEFT:  2.00D  GRAD.:    39.292 HEAT:  68.66949
 CYCLE:   110 TIME:   0.051 TIME LEFT:  2.00D  GRAD.:     7.728 HEAT:  68.65270
 CYCLE:   111 TIME:   0.043 TIME LEFT:  2.00D  GRAD.:     7.092 HEAT:  68.65110
 CYCLE:   112 TIME:   0.055 TIME LEFT:  2.00D  GRAD.:    29.792 HEAT:  68.64885
 CYCLE:   113 TIME:   0.055 TIME LEFT:  2.00D  GRAD.:    10.553 HEAT:  68.64321
 CYCLE:   114 TIME:   0.043 TIME LEFT:  2.00D  GRAD.:     9.919 HEAT:  68.63894
 CYCLE:   115 TIME:   0.039 TIME LEFT:  2.00D  GRAD.:    14.145 HEAT:  68.63584
 CYCLE:   116 TIME:   0.039 TIME LEFT:  2.00D  GRAD.:    17.358 HEAT:  68.63043
 CYCLE:   117 TIME:   0.039 TIME LEFT:  2.00D  GRAD.:    13.663 HEAT:  68.62587
 CYCLE:   118 TIME:   0.039 TIME LEFT:  2.00D  GRAD.:     6.500 HEAT:  68.61917
 CYCLE:   119 TIME:   0.039 TIME LEFT:  2.00D  GRAD.:    13.012 HEAT:  68.61598
 CYCLE:   120 TIME:   0.039 TIME LEFT:  2.00D  GRAD.:    16.992 HEAT:  68.61233
 CYCLE:   121 TIME:   0.043 TIME LEFT:  2.00D  GRAD.:    19.973 HEAT:  68.60459
 CYCLE:   122 TIME:   0.043 TIME LEFT:  2.00D  GRAD.:    20.662 HEAT:  68.59603
 CYCLE:   123 TIME:   0.043 TIME LEFT:  2.00D  GRAD.:    44.803 HEAT:  68.60018
 CYCLE:   124 TIME:   0.047 TIME LEFT:  2.00D  GRAD.:    38.701 HEAT:  68.59814
 CYCLE:   125 TIME:   0.043 TIME LEFT:  2.00D  GRAD.:     6.133 HEAT:  68.58486
 CYCLE:   126 TIME:   0.039 TIME LEFT:  2.00D  GRAD.:     7.452 HEAT:  68.58298
 CYCLE:   127 TIME:   0.039 TIME LEFT:  2.00D  GRAD.:    11.886 HEAT:  68.58039
 CYCLE:   128 TIME:   0.039 TIME LEFT:  2.00D  GRAD.:   112.454 HEAT:  68.61621
 CYCLE:   129 TIME:   0.043 TIME LEFT:  2.00D  GRAD.:    13.508 HEAT:  68.57155
 CYCLE:   130 TIME:   0.039 TIME LEFT:  2.00D  GRAD.:     9.508 HEAT:  68.56851
 CYCLE:   131 TIME:   0.043 TIME LEFT:  2.00D  GRAD.:     8.718 HEAT:  68.56092
 CYCLE:   132 TIME:   0.039 TIME LEFT:  2.00D  GRAD.:    13.263 HEAT:  68.54929
 CYCLE:   133 TIME:   0.039 TIME LEFT:  2.00D  GRAD.:     9.823 HEAT:  68.53818
 CYCLE:   134 TIME:   0.039 TIME LEFT:  2.00D  GRAD.:    24.677 HEAT:  68.53089
 CYCLE:   135 TIME:   0.039 TIME LEFT:  2.00D  GRAD.:     7.278 HEAT:  68.52104
 CYCLE:   136 TIME:   0.039 TIME LEFT:  2.00D  GRAD.:     6.750 HEAT:  68.51807
 CYCLE:   137 TIME:   0.055 TIME LEFT:  2.00D  GRAD.:     8.241 HEAT:  68.50570
 CYCLE:   138 TIME:   0.051 TIME LEFT:  2.00D  GRAD.:    40.040 HEAT:  68.50417
 CYCLE:   139 TIME:   0.047 TIME LEFT:  2.00D  GRAD.:    11.088 HEAT:  68.48610
 CYCLE:   140 TIME:   0.039 TIME LEFT:  2.00D  GRAD.:     6.442 HEAT:  68.48125
 CYCLE:   141 TIME:   0.055 TIME LEFT:  2.00D  GRAD.:     7.082 HEAT:  68.47593
 CYCLE:   142 TIME:   0.047 TIME LEFT:  2.00D  GRAD.:    20.454 HEAT:  68.47036
 CYCLE:   143 TIME:   0.043 TIME LEFT:  2.00D  GRAD.:    10.434 HEAT:  68.46015
 CYCLE:   144 TIME:   0.055 TIME LEFT:  2.00D  GRAD.:     9.881 HEAT:  68.45315
 CYCLE:   145 TIME:   0.047 TIME LEFT:  2.00D  GRAD.:    15.676 HEAT:  68.44035
 CYCLE:   146 TIME:   0.059 TIME LEFT:  2.00D  GRAD.:     9.949 HEAT:  68.42814
 CYCLE:   147 TIME:   0.039 TIME LEFT:  2.00D  GRAD.:     7.475 HEAT:  68.41444
 CYCLE:   148 TIME:   0.059 TIME LEFT:  2.00D  GRAD.:    15.894 HEAT:  68.39945
 CYCLE:   149 TIME:   0.059 TIME LEFT:  2.00D  GRAD.:    19.262 HEAT:  68.39149
 CYCLE:   150 TIME:   0.062 TIME LEFT:  2.00D  GRAD.:     9.336 HEAT:  68.38125
 CYCLE:   151 TIME:   0.055 TIME LEFT:  2.00D  GRAD.:     7.843 HEAT:  68.37285
 CYCLE:   152 TIME:   0.043 TIME LEFT:  2.00D  GRAD.:    19.039 HEAT:  68.36523
 CYCLE:   153 TIME:   0.039 TIME LEFT:  2.00D  GRAD.:    14.018 HEAT:  68.36037
 CYCLE:   154 TIME:   0.039 TIME LEFT:  2.00D  GRAD.:     8.014 HEAT:  68.35728
 CYCLE:   155 TIME:   0.039 TIME LEFT:  2.00D  GRAD.:    13.385 HEAT:  68.35161
 CYCLE:   156 TIME:   0.039 TIME LEFT:  2.00D  GRAD.:    19.995 HEAT:  68.34511
 CYCLE:   157 TIME:   0.047 TIME LEFT:  2.00D  GRAD.:    45.218 HEAT:  68.34434
 CYCLE:   158 TIME:   0.039 TIME LEFT:  2.00D  GRAD.:     8.345 HEAT:  68.33215
 CYCLE:   159 TIME:   0.039 TIME LEFT:  2.00D  GRAD.:     6.534 HEAT:  68.32972
 CYCLE:   160 TIME:   0.043 TIME LEFT:  2.00D  GRAD.:    16.095 HEAT:  68.32616
 CYCLE:   161 TIME:   0.051 TIME LEFT:  2.00D  GRAD.:     7.898 HEAT:  68.32199
 CYCLE:   162 TIME:   0.051 TIME LEFT:  2.00D  GRAD.:    15.491 HEAT:  68.31005
 CYCLE:   163 TIME:   0.059 TIME LEFT:  2.00D  GRAD.:    21.623 HEAT:  68.29943
 CYCLE:   164 TIME:   0.059 TIME LEFT:  2.00D  GRAD.:    21.358 HEAT:  68.28242
 CYCLE:   165 TIME:   0.059 TIME LEFT:  2.00D  GRAD.:    26.179 HEAT:  68.26913
 CYCLE:   166 TIME:   0.062 TIME LEFT:  2.00D  GRAD.:    20.212 HEAT:  68.25879
 CYCLE:   167 TIME:   0.059 TIME LEFT:  2.00D  GRAD.:    14.590 HEAT:  68.24845
 CYCLE:   168 TIME:   0.059 TIME LEFT:  2.00D  GRAD.:    15.091 HEAT:  68.22518
 CYCLE:   169 TIME:   0.059 TIME LEFT:  2.00D  GRAD.:    22.722 HEAT:  68.20388
 CYCLE:   170 TIME:   0.418 TIME LEFT:  2.00D  GRAD.:    11.936 HEAT:  68.18514
 CYCLE:   171 TIME:   0.059 TIME LEFT:  2.00D  GRAD.:    13.416 HEAT:  68.17539
 CYCLE:   172 TIME:   0.055 TIME LEFT:  2.00D  GRAD.:    26.841 HEAT:  68.16899
 CYCLE:   173 TIME:   0.051 TIME LEFT:  2.00D  GRAD.:    15.164 HEAT:  68.16304
 CYCLE:   174 TIME:   0.055 TIME LEFT:  2.00D  GRAD.:    11.471 HEAT:  68.15309
 CYCLE:   175 TIME:   0.043 TIME LEFT:  2.00D  GRAD.:    14.776 HEAT:  68.14296
 CYCLE:   176 TIME:   0.043 TIME LEFT:  2.00D  GRAD.:    21.276 HEAT:  68.12841
 CYCLE:   177 TIME:   0.039 TIME LEFT:  2.00D  GRAD.:    11.340 HEAT:  68.11104
 CYCLE:   178 TIME:   0.039 TIME LEFT:  2.00D  GRAD.:     7.640 HEAT:  68.10108
 CYCLE:   179 TIME:   0.039 TIME LEFT:  2.00D  GRAD.:    25.984 HEAT:  68.09091
 CYCLE:   180 TIME:   0.039 TIME LEFT:  2.00D  GRAD.:    11.169 HEAT:  68.08450
 CYCLE:   181 TIME:   0.051 TIME LEFT:  2.00D  GRAD.:     9.953 HEAT:  68.07994
 CYCLE:   182 TIME:   0.039 TIME LEFT:  2.00D  GRAD.:     6.826 HEAT:  68.06994
 CYCLE:   183 TIME:   0.039 TIME LEFT:  2.00D  GRAD.:     8.738 HEAT:  68.05911
 CYCLE:   184 TIME:   0.047 TIME LEFT:  2.00D  GRAD.:    13.552 HEAT:  68.04685
 CYCLE:   185 TIME:   0.043 TIME LEFT:  2.00D  GRAD.:    34.423 HEAT:  68.05363
 CYCLE:   186 TIME:   0.047 TIME LEFT:  2.00D  GRAD.:     7.349 HEAT:  68.03187
 CYCLE:   187 TIME:   0.043 TIME LEFT:  2.00D  GRAD.:     5.890 HEAT:  68.02945
 CYCLE:   188 TIME:   0.047 TIME LEFT:  2.00D  GRAD.:    25.989 HEAT:  68.02899
 CYCLE:   189 TIME:   0.039 TIME LEFT:  2.00D  GRAD.:     5.387 HEAT:  68.02328
 CYCLE:   190 TIME:   0.039 TIME LEFT:  2.00D  GRAD.:     7.683 HEAT:  68.02064
 CYCLE:   191 TIME:   0.039 TIME LEFT:  2.00D  GRAD.:    13.539 HEAT:  68.01458
 CYCLE:   192 TIME:   0.055 TIME LEFT:  2.00D  GRAD.:     9.410 HEAT:  68.00902
 CYCLE:   193 TIME:   0.059 TIME LEFT:  2.00D  GRAD.:    23.455 HEAT:  68.00466
 CYCLE:   194 TIME:   0.059 TIME LEFT:  2.00D  GRAD.:    39.786 HEAT:  68.00583
 CYCLE:   195 TIME:   0.039 TIME LEFT:  2.00D  GRAD.:     9.977 HEAT:  67.99758
 CYCLE:   196 TIME:   0.043 TIME LEFT:  2.00D  GRAD.:     7.721 HEAT:  67.99597
 CYCLE:   197 TIME:   0.047 TIME LEFT:  2.00D  GRAD.:     4.748 HEAT:  67.99236
 CYCLE:   198 TIME:   0.047 TIME LEFT:  2.00D  GRAD.:     5.563 HEAT:  67.98880
 CYCLE:   199 TIME:   0.043 TIME LEFT:  2.00D  GRAD.:    14.229 HEAT:  67.98434
 CYCLE:   200 TIME:   0.039 TIME LEFT:  2.00D  GRAD.:     5.300 HEAT:  67.97959
 CYCLE:   201 TIME:   0.039 TIME LEFT:  2.00D  GRAD.:     5.025 HEAT:  67.97633
 CYCLE:   202 TIME:   0.039 TIME LEFT:  2.00D  GRAD.:     6.938 HEAT:  67.97201
 CYCLE:   203 TIME:   0.039 TIME LEFT:  2.00D  GRAD.:     7.467 HEAT:  67.96988
 CYCLE:   204 TIME:   0.039 TIME LEFT:  2.00D  GRAD.:    11.277 HEAT:  67.96823
 CYCLE:   205 TIME:   0.039 TIME LEFT:  2.00D  GRAD.:     5.377 HEAT:  67.96628
 CYCLE:   206 TIME:   0.039 TIME LEFT:  2.00D  GRAD.:     5.334 HEAT:  67.96440
 CYCLE:   207 TIME:   0.035 TIME LEFT:  2.00D  GRAD.:     5.641 HEAT:  67.96299
 CYCLE:   208 TIME:   0.039 TIME LEFT:  2.00D  GRAD.:    60.900 HEAT:  67.97582
 CYCLE:   209 TIME:   0.039 TIME LEFT:  2.00D  GRAD.:     8.251 HEAT:  67.95947
 CYCLE:   210 TIME:   0.039 TIME LEFT:  2.00D  GRAD.:     5.673 HEAT:  67.95868
 CYCLE:   211 TIME:   0.039 TIME LEFT:  2.00D  GRAD.:     7.223 HEAT:  67.95678
 CYCLE:   212 TIME:   0.039 TIME LEFT:  2.00D  GRAD.:     7.394 HEAT:  67.95527
 CYCLE:   213 TIME:   0.039 TIME LEFT:  2.00D  GRAD.:    22.026 HEAT:  67.95973
 CYCLE:   214 TIME:   0.043 TIME LEFT:  2.00D  GRAD.:     3.635 HEAT:  67.95309
 CYCLE:   215 TIME:   0.039 TIME LEFT:  2.00D  GRAD.:     3.632 HEAT:  67.95263
 CYCLE:   216 TIME:   0.062 TIME LEFT:  2.00D  GRAD.:    34.500 HEAT:  67.95496
 CYCLE:   217 TIME:   0.043 TIME LEFT:  2.00D  GRAD.:     7.022 HEAT:  67.94946
 CYCLE:   218 TIME:   0.039 TIME LEFT:  2.00D  GRAD.:     2.959 HEAT:  67.94889
 CYCLE:   219 TIME:   0.039 TIME LEFT:  2.00D  GRAD.:     6.398 HEAT:  67.94832
 CYCLE:   220 TIME:   0.039 TIME LEFT:  2.00D  GRAD.:     9.121 HEAT:  67.94772
 CYCLE:   221 TIME:   0.035 TIME LEFT:  2.00D  GRAD.:    12.177 HEAT:  67.94640
 CYCLE:   222 TIME:   0.039 TIME LEFT:  2.00D  GRAD.:     8.226 HEAT:  67.94450
 CYCLE:   223 TIME:   0.039 TIME LEFT:  2.00D  GRAD.:     5.642 HEAT:  67.94277
 CYCLE:   224 TIME:   0.039 TIME LEFT:  2.00D  GRAD.:    21.454 HEAT:  67.94373
 CYCLE:   225 TIME:   0.043 TIME LEFT:  2.00D  GRAD.:     3.429 HEAT:  67.94067
 CYCLE:   226 TIME:   0.043 TIME LEFT:  2.00D  GRAD.:     3.014 HEAT:  67.94024
 CYCLE:   227 TIME:   0.055 TIME LEFT:  2.00D  GRAD.:     2.448 HEAT:  67.93933
 CYCLE:   228 TIME:   0.039 TIME LEFT:  2.00D  GRAD.:     3.632 HEAT:  67.93826
 CYCLE:   229 TIME:   0.047 TIME LEFT:  2.00D  GRAD.:    11.024 HEAT:  67.93880
 CYCLE:   230 TIME:   0.051 TIME LEFT:  2.00D  GRAD.:     3.154 HEAT:  67.93690
 CYCLE:   231 TIME:   0.055 TIME LEFT:  2.00D  GRAD.:     2.915 HEAT:  67.93628
 CYCLE:   232 TIME:   0.043 TIME LEFT:  2.00D  GRAD.:     6.550 HEAT:  67.93556
 CYCLE:   233 TIME:   0.039 TIME LEFT:  2.00D  GRAD.:     9.389 HEAT:  67.93520
 CYCLE:   234 TIME:   0.039 TIME LEFT:  2.00D  GRAD.:     4.236 HEAT:  67.93482
 CYCLE:   235 TIME:   0.055 TIME LEFT:  2.00D  GRAD.:     2.213 HEAT:  67.93459
 CYCLE:   236 TIME:   0.059 TIME LEFT:  2.00D  GRAD.:     2.863 HEAT:  67.93439
 CYCLE:   237 TIME:   0.039 TIME LEFT:  2.00D  GRAD.:     4.536 HEAT:  67.93398
 CYCLE:   238 TIME:   0.039 TIME LEFT:  2.00D  GRAD.:     3.049 HEAT:  67.93350
 CYCLE:   239 TIME:   0.055 TIME LEFT:  2.00D  GRAD.:     2.334 HEAT:  67.93286
 CYCLE:   240 TIME:   0.043 TIME LEFT:  2.00D  GRAD.:     3.055 HEAT:  67.93240
 CYCLE:   241 TIME:   0.055 TIME LEFT:  2.00D  GRAD.:     3.823 HEAT:  67.93179
 CYCLE:   242 TIME:   0.043 TIME LEFT:  2.00D  GRAD.:     4.077 HEAT:  67.93172
 CYCLE:   243 TIME:   0.055 TIME LEFT:  2.00D  GRAD.:    15.890 HEAT:  67.93355
 CYCLE:   244 TIME:   0.258 TIME LEFT:  2.00D  GRAD.:     2.077 HEAT:  67.93056
 CYCLE:   245 TIME:   0.051 TIME LEFT:  2.00D  GRAD.:     2.899 HEAT:  67.93022
 CYCLE:   246 TIME:   0.039 TIME LEFT:  2.00D  GRAD.:     7.335 HEAT:  67.92950
 CYCLE:   247 TIME:   0.047 TIME LEFT:  2.00D  GRAD.:     3.250 HEAT:  67.92898
 CYCLE:   248 TIME:   0.043 TIME LEFT:  2.00D  GRAD.:     1.531 HEAT:  67.92888
 CYCLE:   249 TIME:   0.051 TIME LEFT:  2.00D  GRAD.:     1.315 HEAT:  67.92882
 CYCLE:   250 TIME:   0.055 TIME LEFT:  2.00D  GRAD.:     3.323 HEAT:  67.92867
 CYCLE:   251 TIME:   0.047 TIME LEFT:  2.00D  GRAD.:     3.302 HEAT:  67.92851
 CYCLE:   252 TIME:   0.043 TIME LEFT:  2.00D  GRAD.:     6.498 HEAT:  67.92832
 CYCLE:   253 TIME:   0.047 TIME LEFT:  2.00D  GRAD.:     6.991 HEAT:  67.92819
 CYCLE:   254 TIME:   0.055 TIME LEFT:  2.00D  GRAD.:     7.809 HEAT:  67.92847
 CYCLE:   255 TIME:   0.059 TIME LEFT:  2.00D  GRAD.:     2.557 HEAT:  67.92672
 CYCLE:   256 TIME:   0.055 TIME LEFT:  2.00D  GRAD.:     2.401 HEAT:  67.92652
 CYCLE:   257 TIME:   0.055 TIME LEFT:  2.00D  GRAD.:     1.723 HEAT:  67.92613
 CYCLE:   258 TIME:   0.055 TIME LEFT:  2.00D  GRAD.:     3.802 HEAT:  67.92582
 CYCLE:   259 TIME:   0.055 TIME LEFT:  2.00D  GRAD.:     2.368 HEAT:  67.92541
 CYCLE:   260 TIME:   0.055 TIME LEFT:  2.00D  GRAD.:     5.079 HEAT:  67.92509
 CYCLE:   261 TIME:   0.055 TIME LEFT:  2.00D  GRAD.:     8.075 HEAT:  67.92480
 CYCLE:   262 TIME:   0.035 TIME LEFT:  2.00D  GRAD.:     1.676 HEAT:  67.92441
 CYCLE:   263 TIME:   0.055 TIME LEFT:  2.00D  GRAD.:     1.667 HEAT:  67.92434
 CYCLE:   264 TIME:   0.055 TIME LEFT:  2.00D  GRAD.:     3.985 HEAT:  67.92398
 CYCLE:   265 TIME:   0.055 TIME LEFT:  2.00D  GRAD.:     1.671 HEAT:  67.92353
 CYCLE:   266 TIME:   0.059 TIME LEFT:  2.00D  GRAD.:     1.475 HEAT:  67.92325
 CYCLE:   267 TIME:   0.059 TIME LEFT:  2.00D  GRAD.:     1.969 HEAT:  67.92284
 CYCLE:   268 TIME:   0.059 TIME LEFT:  2.00D  GRAD.:     1.965 HEAT:  67.92241
 CYCLE:   269 TIME:   0.055 TIME LEFT:  2.00D  GRAD.:     1.953 HEAT:  67.92199
 CYCLE:   270 TIME:   0.059 TIME LEFT:  2.00D  GRAD.:     1.670 HEAT:  67.92164
 CYCLE:   271 TIME:   0.055 TIME LEFT:  2.00D  GRAD.:     1.383 HEAT:  67.92144
 CYCLE:   272 TIME:   0.055 TIME LEFT:  2.00D  GRAD.:     1.876 HEAT:  67.92119
 CYCLE:   273 TIME:   0.043 TIME LEFT:  2.00D  GRAD.:     4.069 HEAT:  67.92112
 CYCLE:   274 TIME:   0.039 TIME LEFT:  2.00D  GRAD.:     1.517 HEAT:  67.92094
 CYCLE:   275 TIME:   0.059 TIME LEFT:  2.00D  GRAD.:     1.150 HEAT:  67.92078
 CYCLE:   276 TIME:   0.059 TIME LEFT:  2.00D  GRAD.:     8.770 HEAT:  67.92077
 CYCLE:   277 TIME:   0.047 TIME LEFT:  2.00D  GRAD.:     2.116 HEAT:  67.92058
 CYCLE:   278 TIME:   0.039 TIME LEFT:  2.00D  GRAD.:     1.110 HEAT:  67.92053
 CYCLE:   279 TIME:   0.035 TIME LEFT:  2.00D  GRAD.:     1.244 HEAT:  67.92047
 CYCLE:   280 TIME:   0.047 TIME LEFT:  2.00D  GRAD.:     1.653 HEAT:  67.92038
 CYCLE:   281 TIME:   0.051 TIME LEFT:  2.00D  GRAD.:     2.687 HEAT:  67.92019
 CYCLE:   282 TIME:   0.051 TIME LEFT:  2.00D  GRAD.:     1.869 HEAT:  67.91985
 CYCLE:   283 TIME:   0.047 TIME LEFT:  2.00D  GRAD.:     1.549 HEAT:  67.91953
 CYCLE:   284 TIME:   0.039 TIME LEFT:  2.00D  GRAD.:     2.284 HEAT:  67.91920
 CYCLE:   285 TIME:   0.039 TIME LEFT:  2.00D  GRAD.:     2.286 HEAT:  67.91883
 CYCLE:   286 TIME:   0.043 TIME LEFT:  2.00D  GRAD.:     1.753 HEAT:  67.91863
 CYCLE:   287 TIME:   0.059 TIME LEFT:  2.00D  GRAD.:     0.997 HEAT:  67.91836
 CYCLE:   288 TIME:   0.047 TIME LEFT:  2.00D  GRAD.:     2.319 HEAT:  67.91823
 CYCLE:   289 TIME:   0.039 TIME LEFT:  2.00D  GRAD.:     1.767 HEAT:  67.91808
 CYCLE:   290 TIME:   0.043 TIME LEFT:  2.00D  GRAD.:     2.657 HEAT:  67.91788
 CYCLE:   291 TIME:   0.039 TIME LEFT:  2.00D  GRAD.:     1.308 HEAT:  67.91778
 CYCLE:   292 TIME:   0.043 TIME LEFT:  2.00D  GRAD.:     1.314 HEAT:  67.91773
 CYCLE:   293 TIME:   0.051 TIME LEFT:  2.00D  GRAD.:     0.962 HEAT:  67.91761
 CYCLE:   294 TIME:   0.051 TIME LEFT:  2.00D  GRAD.:     0.932 HEAT:  67.91734
 CYCLE:   295 TIME:   0.043 TIME LEFT:  2.00D  GRAD.:     6.064 HEAT:  67.91734
 CYCLE:   296 TIME:   0.039 TIME LEFT:  2.00D  GRAD.:     2.292 HEAT:  67.91708
 CYCLE:   297 TIME:   0.043 TIME LEFT:  2.00D  GRAD.:     1.349 HEAT:  67.91691
 CYCLE:   298 TIME:   0.047 TIME LEFT:  2.00D  GRAD.:     1.160 HEAT:  67.91676
 CYCLE:   299 TIME:   0.059 TIME LEFT:  2.00D  GRAD.:     1.006 HEAT:  67.91652
 CYCLE:   300 TIME:   0.059 TIME LEFT:  2.00D  GRAD.:     5.468 HEAT:  67.91658
 CYCLE:   301 TIME:   0.055 TIME LEFT:  2.00D  GRAD.:     1.449 HEAT:  67.91629
 CYCLE:   302 TIME:   0.059 TIME LEFT:  2.00D  GRAD.:     0.883 HEAT:  67.91619
 CYCLE:   303 TIME:   0.059 TIME LEFT:  2.00D  GRAD.:     1.875 HEAT:  67.91600
 CYCLE:   304 TIME:   0.062 TIME LEFT:  2.00D  GRAD.:     5.446 HEAT:  67.91601
 CYCLE:   305 TIME:   0.055 TIME LEFT:  2.00D  GRAD.:     1.384 HEAT:  67.91579
 CYCLE:   306 TIME:   0.055 TIME LEFT:  2.00D  GRAD.:     1.296 HEAT:  67.91575
 CYCLE:   307 TIME:   0.039 TIME LEFT:  2.00D  GRAD.:     2.433 HEAT:  67.91556
 CYCLE:   308 TIME:   0.043 TIME LEFT:  2.00D  GRAD.:     1.256 HEAT:  67.91543
 CYCLE:   309 TIME:   0.047 TIME LEFT:  2.00D  GRAD.:     1.048 HEAT:  67.91530
 CYCLE:   310 TIME:   0.043 TIME LEFT:  2.00D  GRAD.:     1.808 HEAT:  67.91516
 CYCLE:   311 TIME:   0.059 TIME LEFT:  2.00D  GRAD.:     1.823 HEAT:  67.91500
 CYCLE:   312 TIME:   0.059 TIME LEFT:  2.00D  GRAD.:     4.254 HEAT:  67.91480
 CYCLE:   313 TIME:   0.055 TIME LEFT:  2.00D  GRAD.:     2.809 HEAT:  67.91446
 CYCLE:   314 TIME:   0.039 TIME LEFT:  2.00D  GRAD.:     1.448 HEAT:  67.91415
 CYCLE:   315 TIME:   0.059 TIME LEFT:  2.00D  GRAD.:     3.006 HEAT:  67.91381
 CYCLE:   316 TIME:   0.043 TIME LEFT:  2.00D  GRAD.:     1.691 HEAT:  67.91340
 CYCLE:   317 TIME:   0.047 TIME LEFT:  2.00D  GRAD.:     2.685 HEAT:  67.91317
 CYCLE:   318 TIME:   0.047 TIME LEFT:  2.00D  GRAD.:     4.150 HEAT:  67.91302
 CYCLE:   319 TIME:   0.047 TIME LEFT:  2.00D  GRAD.:     1.820 HEAT:  67.91283
 CYCLE:   320 TIME:   0.043 TIME LEFT:  2.00D  GRAD.:     1.955 HEAT:  67.91272
 CYCLE:   321 TIME:   0.043 TIME LEFT:  2.00D  GRAD.:     5.627 HEAT:  67.91247
 CYCLE:   322 TIME:   0.047 TIME LEFT:  2.00D  GRAD.:     1.754 HEAT:  67.91227
 CYCLE:   323 TIME:   0.047 TIME LEFT:  2.00D  GRAD.:     1.684 HEAT:  67.91217
 CYCLE:   324 TIME:   0.051 TIME LEFT:  2.00D  GRAD.:     1.776 HEAT:  67.91207
 CYCLE:   325 TIME:   0.051 TIME LEFT:  2.00D  GRAD.:     2.178 HEAT:  67.91179
 CYCLE:   326 TIME:   0.051 TIME LEFT:  2.00D  GRAD.:     1.725 HEAT:  67.91161
 CYCLE:   327 TIME:   0.062 TIME LEFT:  2.00D  GRAD.:     1.054 HEAT:  67.91151
 CYCLE:   328 TIME:   0.066 TIME LEFT:  2.00D  GRAD.:     1.901 HEAT:  67.91139
 CYCLE:   329 TIME:   0.066 TIME LEFT:  2.00D  GRAD.:     1.722 HEAT:  67.91129
 CYCLE:   330 TIME:   0.051 TIME LEFT:  2.00D  GRAD.:     5.122 HEAT:  67.91122
 CYCLE:   331 TIME:   0.051 TIME LEFT:  2.00D  GRAD.:     1.948 HEAT:  67.91094
 CYCLE:   332 TIME:   0.055 TIME LEFT:  2.00D  GRAD.:     1.586 HEAT:  67.91089
 CYCLE:   333 TIME:   0.059 TIME LEFT:  2.00D  GRAD.:     2.763 HEAT:  67.91085
 CYCLE:   334 TIME:   0.062 TIME LEFT:  2.00D  GRAD.:     1.858 HEAT:  67.91066
 CYCLE:   335 TIME:   0.059 TIME LEFT:  2.00D  GRAD.:     0.810 HEAT:  67.91055
 CYCLE:   336 TIME:   0.074 TIME LEFT:  2.00D  GRAD.:     2.516 HEAT:  67.91047
 CYCLE:   337 TIME:   0.047 TIME LEFT:  2.00D  GRAD.:     2.017 HEAT:  67.91037
 CYCLE:   338 TIME:   0.055 TIME LEFT:  2.00D  GRAD.:     2.680 HEAT:  67.91029
 CYCLE:   339 TIME:   0.047 TIME LEFT:  2.00D  GRAD.:     2.819 HEAT:  67.91010
 CYCLE:   340 TIME:   0.051 TIME LEFT:  2.00D  GRAD.:     3.566 HEAT:  67.90996
 CYCLE:   341 TIME:   0.055 TIME LEFT:  2.00D  GRAD.:     1.959 HEAT:  67.90983
 CYCLE:   342 TIME:   0.062 TIME LEFT:  2.00D  GRAD.:     0.988 HEAT:  67.90971
 CYCLE:   343 TIME:   0.066 TIME LEFT:  2.00D  GRAD.:     1.583 HEAT:  67.90964
 CYCLE:   344 TIME:   0.043 TIME LEFT:  2.00D  GRAD.:     1.157 HEAT:  67.90956
 CYCLE:   345 TIME:   0.055 TIME LEFT:  2.00D  GRAD.:     7.854 HEAT:  67.90968
 CYCLE:   346 TIME:   0.055 TIME LEFT:  2.00D  GRAD.:     1.824 HEAT:  67.90935
 CYCLE:   347 TIME:   0.055 TIME LEFT:  2.00D  GRAD.:     1.098 HEAT:  67.90932
 CYCLE:   348 TIME:   0.062 TIME LEFT:  2.00D  GRAD.:     0.947 HEAT:  67.90923
 CYCLE:   349 TIME:   0.070 TIME LEFT:  2.00D  GRAD.:     1.141 HEAT:  67.90899
 CYCLE:   350 TIME:   0.062 TIME LEFT:  2.00D  GRAD.:     2.236 HEAT:  67.90881
 CYCLE:   351 TIME:   0.066 TIME LEFT:  2.00D  GRAD.:     5.223 HEAT:  67.90878
 CYCLE:   352 TIME:   0.043 TIME LEFT:  2.00D  GRAD.:     1.348 HEAT:  67.90859
 CYCLE:   353 TIME:   0.047 TIME LEFT:  2.00D  GRAD.:     1.290 HEAT:  67.90852
 CYCLE:   354 TIME:   0.051 TIME LEFT:  2.00D  GRAD.:     2.267 HEAT:  67.90840
 CYCLE:   355 TIME:   0.055 TIME LEFT:  2.00D  GRAD.:     1.538 HEAT:  67.90825
 CYCLE:   356 TIME:   0.055 TIME LEFT:  2.00D  GRAD.:     1.560 HEAT:  67.90798
 CYCLE:   357 TIME:   0.059 TIME LEFT:  2.00D  GRAD.:     2.006 HEAT:  67.90784
 CYCLE:   358 TIME:   0.066 TIME LEFT:  2.00D  GRAD.:     1.814 HEAT:  67.90760
 CYCLE:   359 TIME:   0.062 TIME LEFT:  2.00D  GRAD.:     7.221 HEAT:  67.90771
 CYCLE:   360 TIME:   0.062 TIME LEFT:  2.00D  GRAD.:     2.554 HEAT:  67.90732
 CYCLE:   361 TIME:   0.043 TIME LEFT:  2.00D  GRAD.:     1.000 HEAT:  67.90725
 CYCLE:   362 TIME:   0.047 TIME LEFT:  2.00D  GRAD.:     1.286 HEAT:  67.90723
 CYCLE:   363 TIME:   0.051 TIME LEFT:  2.00D  GRAD.:     1.611 HEAT:  67.90716
 CYCLE:   364 TIME:   0.039 TIME LEFT:  2.00D  GRAD.:     9.699 HEAT:  67.90748
 CYCLE:   365 TIME:   0.043 TIME LEFT:  2.00D  GRAD.:     1.656 HEAT:  67.90696
 CYCLE:   366 TIME:   0.043 TIME LEFT:  2.00D  GRAD.:     0.947 HEAT:  67.90690
 CYCLE:   367 TIME:   0.051 TIME LEFT:  2.00D  GRAD.:     1.225 HEAT:  67.90684
 CYCLE:   368 TIME:   0.047 TIME LEFT:  2.00D  GRAD.:     1.437 HEAT:  67.90677
 CYCLE:   369 TIME:   0.059 TIME LEFT:  2.00D  GRAD.:     5.515 HEAT:  67.90685
 CYCLE:   370 TIME:   0.039 TIME LEFT:  2.00D  GRAD.:     1.016 HEAT:  67.90652
 CYCLE:   371 TIME:   0.039 TIME LEFT:  2.00D  GRAD.:     1.017 HEAT:  67.90642
 CYCLE:   372 TIME:   0.039 TIME LEFT:  2.00D  GRAD.:     3.542 HEAT:  67.90635
 CYCLE:   373 TIME:   0.039 TIME LEFT:  2.00D  GRAD.:     2.176 HEAT:  67.90617
 CYCLE:   374 TIME:   0.039 TIME LEFT:  2.00D  GRAD.:     0.902 HEAT:  67.90610
 CYCLE:   375 TIME:   0.043 TIME LEFT:  2.00D  GRAD.:     0.829 HEAT:  67.90604
 CYCLE:   376 TIME:   0.039 TIME LEFT:  2.00D  GRAD.:     1.778 HEAT:  67.90588
 CYCLE:   377 TIME:   0.039 TIME LEFT:  2.00D  GRAD.:     2.865 HEAT:  67.90576
 CYCLE:   378 TIME:   0.035 TIME LEFT:  2.00D  GRAD.:     5.921 HEAT:  67.90568
 CYCLE:   379 TIME:   0.043 TIME LEFT:  2.00D  GRAD.:     1.677 HEAT:  67.90557
 CYCLE:   380 TIME:   0.051 TIME LEFT:  2.00D  GRAD.:     1.045 HEAT:  67.90553
 CYCLE:   381 TIME:   0.051 TIME LEFT:  2.00D  GRAD.:     1.460 HEAT:  67.90549
 CYCLE:   382 TIME:   0.059 TIME LEFT:  2.00D  GRAD.:     1.847 HEAT:  67.90541
 CYCLE:   383 TIME:   0.055 TIME LEFT:  2.00D  GRAD.:     2.152 HEAT:  67.90525
 CYCLE:   384 TIME:   0.059 TIME LEFT:  2.00D  GRAD.:     5.998 HEAT:  67.90592
 CYCLE:   385 TIME:   0.059 TIME LEFT:  2.00D  GRAD.:     3.260 HEAT:  67.90532
 CYCLE:   386 TIME:   0.055 TIME LEFT:  2.00D  GRAD.:     0.872 HEAT:  67.90501
 CYCLE:   387 TIME:   0.051 TIME LEFT:  2.00D  GRAD.:     0.884 HEAT:  67.90495
 CYCLE:   388 TIME:   0.039 TIME LEFT:  2.00D  GRAD.:     2.225 HEAT:  67.90487
 CYCLE:   389 TIME:   0.039 TIME LEFT:  2.00D  GRAD.:     1.175 HEAT:  67.90477
 CYCLE:   390 TIME:   0.039 TIME LEFT:  2.00D  GRAD.:     0.638 HEAT:  67.90471
 CYCLE:   391 TIME:   0.043 TIME LEFT:  2.00D  GRAD.:     0.730 HEAT:  67.90465
 CYCLE:   392 TIME:   0.039 TIME LEFT:  2.00D  GRAD.:     1.343 HEAT:  67.90455
 CYCLE:   393 TIME:   0.055 TIME LEFT:  2.00D  GRAD.:    10.594 HEAT:  67.90483
 CYCLE:   394 TIME:   0.051 TIME LEFT:  2.00D  GRAD.:     0.806 HEAT:  67.90447
 CYCLE:   395 TIME:   0.039 TIME LEFT:  2.00D  GRAD.:     0.804 HEAT:  67.90444
 CYCLE:   396 TIME:   0.039 TIME LEFT:  2.00D  GRAD.:     1.023 HEAT:  67.90438
 CYCLE:   397 TIME:   0.035 TIME LEFT:  2.00D  GRAD.:     0.964 HEAT:  67.90433
 CYCLE:   398 TIME:   0.039 TIME LEFT:  2.00D  GRAD.:     1.930 HEAT:  67.90423
 CYCLE:   399 TIME:   0.039 TIME LEFT:  2.00D  GRAD.:     1.097 HEAT:  67.90414
 CYCLE:   400 TIME:   0.039 TIME LEFT:  2.00D  GRAD.:     0.704 HEAT:  67.90410
 CYCLE:   401 TIME:   0.039 TIME LEFT:  2.00D  GRAD.:     1.308 HEAT:  67.90402
 CYCLE:   402 TIME:   0.039 TIME LEFT:  2.00D  GRAD.:     1.284 HEAT:  67.90397
 CYCLE:   403 TIME:   0.043 TIME LEFT:  2.00D  GRAD.:     2.919 HEAT:  67.90390
 CYCLE:   404 TIME:   0.043 TIME LEFT:  2.00D  GRAD.:     0.695 HEAT:  67.90378
 CYCLE:   405 TIME:   0.043 TIME LEFT:  2.00D  GRAD.:     0.630 HEAT:  67.90375
 CYCLE:   406 TIME:   0.047 TIME LEFT:  2.00D  GRAD.:     1.326 HEAT:  67.90371
 CYCLE:   407 TIME:   0.043 TIME LEFT:  2.00D  GRAD.:     1.744 HEAT:  67.90367
 CYCLE:   408 TIME:   0.059 TIME LEFT:  2.00D  GRAD.:     1.302 HEAT:  67.90361
 CYCLE:   409 TIME:   0.051 TIME LEFT:  2.00D  GRAD.:     1.400 HEAT:  67.90355
 CYCLE:   410 TIME:   0.039 TIME LEFT:  2.00D  GRAD.:     4.269 HEAT:  67.90355
 CYCLE:   411 TIME:   0.035 TIME LEFT:  2.00D  GRAD.:     1.385 HEAT:  67.90349
 CYCLE:   412 TIME:   0.047 TIME LEFT:  2.00D  GRAD.:     0.800 HEAT:  67.90344
 CYCLE:   413 TIME:   0.043 TIME LEFT:  2.00D  GRAD.:     0.939 HEAT:  67.90338
 CYCLE:   414 TIME:   0.039 TIME LEFT:  2.00D  GRAD.:     1.044 HEAT:  67.90334
 CYCLE:   415 TIME:   0.043 TIME LEFT:  2.00D  GRAD.:     1.533 HEAT:  67.90327
 CYCLE:   416 TIME:   0.047 TIME LEFT:  2.00D  GRAD.:     2.986 HEAT:  67.90323
 CYCLE:   417 TIME:   0.051 TIME LEFT:  2.00D  GRAD.:     0.702 HEAT:  67.90313
 CYCLE:   418 TIME:   0.051 TIME LEFT:  2.00D  GRAD.:     0.899 HEAT:  67.90310
 CYCLE:   419 TIME:   0.039 TIME LEFT:  2.00D  GRAD.:     1.145 HEAT:  67.90307
 CYCLE:   420 TIME:   0.047 TIME LEFT:  2.00D  GRAD.:     2.166 HEAT:  67.90303
 CYCLE:   421 TIME:   0.059 TIME LEFT:  2.00D  GRAD.:     2.997 HEAT:  67.90312
 CYCLE:   422 TIME:   0.055 TIME LEFT:  2.00D  GRAD.:     0.728 HEAT:  67.90295
 CYCLE:   423 TIME:   0.051 TIME LEFT:  2.00D  GRAD.:     0.704 HEAT:  67.90293
 CYCLE:   424 TIME:   0.055 TIME LEFT:  2.00D  GRAD.:     1.036 HEAT:  67.90288
 CYCLE:   425 TIME:   0.059 TIME LEFT:  2.00D  GRAD.:     2.665 HEAT:  67.90285
 CYCLE:   426 TIME:   0.055 TIME LEFT:  2.00D  GRAD.:     1.140 HEAT:  67.90281
 CYCLE:   427 TIME:   0.059 TIME LEFT:  2.00D  GRAD.:     0.939 HEAT:  67.90278
 CYCLE:   428 TIME:   0.055 TIME LEFT:  2.00D  GRAD.:     1.312 HEAT:  67.90271
 CYCLE:   429 TIME:   0.059 TIME LEFT:  2.00D  GRAD.:     0.948 HEAT:  67.90265
 CYCLE:   430 TIME:   0.059 TIME LEFT:  2.00D  GRAD.:     0.713 HEAT:  67.90258
 CYCLE:   431 TIME:   0.047 TIME LEFT:  2.00D  GRAD.:     3.261 HEAT:  67.90257
 CYCLE:   432 TIME:   0.035 TIME LEFT:  2.00D  GRAD.:     1.315 HEAT:  67.90250
 CYCLE:   433 TIME:   0.043 TIME LEFT:  2.00D  GRAD.:     0.719 HEAT:  67.90245
 CYCLE:   434 TIME:   0.043 TIME LEFT:  2.00D  GRAD.:     0.757 HEAT:  67.90242
 CYCLE:   435 TIME:   0.047 TIME LEFT:  2.00D  GRAD.:     0.795 HEAT:  67.90239
 CYCLE:   436 TIME:   0.043 TIME LEFT:  2.00D  GRAD.:     1.849 HEAT:  67.90247
 CYCLE:   437 TIME:   0.043 TIME LEFT:  2.00D  GRAD.:     0.672 HEAT:  67.90229
 CYCLE:   438 TIME:   0.043 TIME LEFT:  2.00D  GRAD.:     0.554 HEAT:  67.90225
 CYCLE:   439 TIME:   0.047 TIME LEFT:  2.00D  GRAD.:     5.695 HEAT:  67.90227
 CYCLE:   440 TIME:   0.043 TIME LEFT:  2.00D  GRAD.:     0.845 HEAT:  67.90215
 CYCLE:   441 TIME:   0.039 TIME LEFT:  2.00D  GRAD.:     0.778 HEAT:  67.90213
 CYCLE:   442 TIME:   0.039 TIME LEFT:  2.00D  GRAD.:     1.046 HEAT:  67.90208
 CYCLE:   443 TIME:   0.039 TIME LEFT:  2.00D  GRAD.:     0.830 HEAT:  67.90201
 CYCLE:   444 TIME:   0.043 TIME LEFT:  2.00D  GRAD.:     3.729 HEAT:  67.90207
 CYCLE:   445 TIME:   0.039 TIME LEFT:  2.00D  GRAD.:     0.928 HEAT:  67.90189
 CYCLE:   446 TIME:   0.039 TIME LEFT:  2.00D  GRAD.:     0.698 HEAT:  67.90186
 CYCLE:   447 TIME:   0.043 TIME LEFT:  2.00D  GRAD.:     0.962 HEAT:  67.90180
 CYCLE:   448 TIME:   0.047 TIME LEFT:  2.00D  GRAD.:     2.181 HEAT:  67.90179
 CYCLE:   449 TIME:   0.043 TIME LEFT:  2.00D  GRAD.:     0.551 HEAT:  67.90168
 CYCLE:   450 TIME:   0.039 TIME LEFT:  2.00D  GRAD.:     0.664 HEAT:  67.90165
 CYCLE:   451 TIME:   0.039 TIME LEFT:  2.00D  GRAD.:     0.639 HEAT:  67.90159
 CYCLE:   452 TIME:   0.039 TIME LEFT:  2.00D  GRAD.:     0.794 HEAT:  67.90147
 CYCLE:   453 TIME:   0.055 TIME LEFT:  2.00D  GRAD.:     5.540 HEAT:  67.90156
 CYCLE:   454 TIME:   0.055 TIME LEFT:  2.00D  GRAD.:     9.500 HEAT:  67.90186
 CYCLE:   455 TIME:   0.055 TIME LEFT:  2.00D  GRAD.:     0.785 HEAT:  67.90135
 CYCLE:   456 TIME:   0.055 TIME LEFT:  2.00D  GRAD.:     0.800 HEAT:  67.90133
 CYCLE:   457 TIME:   0.043 TIME LEFT:  2.00D  GRAD.:     9.585 HEAT:  67.90191
 CYCLE:   458 TIME:   0.035 TIME LEFT:  2.00D  GRAD.:     1.174 HEAT:  67.90125
 CYCLE:   459 TIME:   0.043 TIME LEFT:  2.00D  GRAD.:     0.706 HEAT:  67.90122
 CYCLE:   460 TIME:   0.043 TIME LEFT:  2.00D  GRAD.:     1.079 HEAT:  67.90118
 CYCLE:   461 TIME:   0.043 TIME LEFT:  2.00D  GRAD.:     1.111 HEAT:  67.90114
 CYCLE:   462 TIME:   0.047 TIME LEFT:  2.00D  GRAD.:     2.016 HEAT:  67.90110
 CYCLE:   463 TIME:   0.039 TIME LEFT:  2.00D  GRAD.:     1.052 HEAT:  67.90103
 CYCLE:   464 TIME:   0.039 TIME LEFT:  2.00D  GRAD.:     0.942 HEAT:  67.90100
 CYCLE:   465 TIME:   0.039 TIME LEFT:  2.00D  GRAD.:     0.691 HEAT:  67.90094
 CYCLE:   466 TIME:   0.059 TIME LEFT:  2.00D  GRAD.:     2.640 HEAT:  67.90094
 CYCLE:   467 TIME:   0.047 TIME LEFT:  2.00D  GRAD.:     0.935 HEAT:  67.90080
 CYCLE:   468 TIME:   0.047 TIME LEFT:  2.00D  GRAD.:     0.824 HEAT:  67.90076
 CYCLE:   469 TIME:   0.039 TIME LEFT:  2.00D  GRAD.:     0.861 HEAT:  67.90071
 CYCLE:   470 TIME:   0.059 TIME LEFT:  2.00D  GRAD.:     2.514 HEAT:  67.90069
 CYCLE:   471 TIME:   0.039 TIME LEFT:  2.00D  GRAD.:     1.122 HEAT:  67.90064
 CYCLE:   472 TIME:   0.039 TIME LEFT:  2.00D  GRAD.:     1.838 HEAT:  67.90061
 CYCLE:   473 TIME:   0.035 TIME LEFT:  2.00D  GRAD.:     0.914 HEAT:  67.90056
 CYCLE:   474 TIME:   0.047 TIME LEFT:  2.00D  GRAD.:     1.085 HEAT:  67.90052
 CYCLE:   475 TIME:   0.043 TIME LEFT:  2.00D  GRAD.:     1.032 HEAT:  67.90047
 CYCLE:   476 TIME:   0.047 TIME LEFT:  2.00D  GRAD.:     5.642 HEAT:  67.90060
 CYCLE:   477 TIME:   0.055 TIME LEFT:  2.00D  GRAD.:     0.770 HEAT:  67.90040
 CYCLE:   478 TIME:   0.043 TIME LEFT:  2.00D  GRAD.:     0.472 HEAT:  67.90040
 CYCLE:   479 TIME:   0.047 TIME LEFT:  2.00D  GRAD.:     0.671 HEAT:  67.90036
 CYCLE:   480 TIME:   0.047 TIME LEFT:  2.00D  GRAD.:     0.792 HEAT:  67.90029
 CYCLE:   481 TIME:   0.059 TIME LEFT:  2.00D  GRAD.:     0.803 HEAT:  67.90024
 CYCLE:   482 TIME:   0.055 TIME LEFT:  2.00D  GRAD.:     0.856 HEAT:  67.90019
 CYCLE:   483 TIME:   0.062 TIME LEFT:  2.00D  GRAD.:     0.516 HEAT:  67.90015
 CYCLE:   484 TIME:   0.055 TIME LEFT:  2.00D  GRAD.:     0.855 HEAT:  67.90011
 CYCLE:   485 TIME:   0.051 TIME LEFT:  2.00D  GRAD.:    12.188 HEAT:  67.90071
 CYCLE:   486 TIME:   0.047 TIME LEFT:  2.00D  GRAD.:     1.071 HEAT:  67.90007
 CYCLE:   487 TIME:   0.051 TIME LEFT:  2.00D  GRAD.:     1.943 HEAT:  67.90012
 CYCLE:   488 TIME:   0.051 TIME LEFT:  2.00D  GRAD.:     2.426 HEAT:  67.90005
 CYCLE:   489 TIME:   0.035 TIME LEFT:  2.00D  GRAD.:     1.301 HEAT:  67.90002
 CYCLE:   490 TIME:   0.043 TIME LEFT:  2.00D  GRAD.:     2.964 HEAT:  67.90005
 CYCLE:   491 TIME:   0.035 TIME LEFT:  2.00D  GRAD.:     0.438 HEAT:  67.90000
 CYCLE:   492 TIME:   0.039 TIME LEFT:  2.00D  GRAD.:     0.584 HEAT:  67.90000
 CYCLE:   493 TIME:   0.043 TIME LEFT:  2.00D  GRAD.:     0.605 HEAT:  67.89999
 CYCLE:   494 TIME:   0.043 TIME LEFT:  2.00D  GRAD.:     1.891 HEAT:  67.89999
 CYCLE:   495 TIME:   0.047 TIME LEFT:  2.00D  GRAD.:     2.204 HEAT:  67.90002
 CYCLE:   496 TIME:   0.047 TIME LEFT:  2.00D  GRAD.:     0.875 HEAT:  67.89993
 CYCLE:   497 TIME:   0.043 TIME LEFT:  2.00D  GRAD.:     0.565 HEAT:  67.89992
 CYCLE:   498 TIME:   0.043 TIME LEFT:  2.00D  GRAD.:     0.476 HEAT:  67.89990
 CYCLE:   499 TIME:   0.043 TIME LEFT:  2.00D  GRAD.:     3.019 HEAT:  67.89999
 CYCLE:   500 TIME:   0.039 TIME LEFT:  2.00D  GRAD.:     0.301 HEAT:  67.89988
 CYCLE:   501 TIME:   0.039 TIME LEFT:  2.00D  GRAD.:     0.491 HEAT:  67.89988
 CYCLE:   502 TIME:   0.039 TIME LEFT:  2.00D  GRAD.:     0.718 HEAT:  67.89988
 CYCLE:   503 TIME:   0.047 TIME LEFT:  2.00D  GRAD.:     0.566 HEAT:  67.89985
 CYCLE:   504 TIME:   0.043 TIME LEFT:  2.00D  GRAD.:     1.771 HEAT:  67.89984
 CYCLE:   505 TIME:   0.051 TIME LEFT:  2.00D  GRAD.:     4.199 HEAT:  67.89987
 CYCLE:   506 TIME:   0.043 TIME LEFT:  2.00D  GRAD.:     0.384 HEAT:  67.89981
 CYCLE:   507 TIME:   0.043 TIME LEFT:  2.00D  GRAD.:     0.381 HEAT:  67.89981
 CYCLE:   508 TIME:   0.039 TIME LEFT:  2.00D  GRAD.:     3.180 HEAT:  67.90008
 CYCLE:   509 TIME:   0.043 TIME LEFT:  2.00D  GRAD.:     0.377 HEAT:  67.89979
 CYCLE:   510 TIME:   0.047 TIME LEFT:  2.00D  GRAD.:     0.300 HEAT:  67.89978
 CYCLE:   511 TIME:   0.047 TIME LEFT:  2.00D  GRAD.:     0.409 HEAT:  67.89978
 CYCLE:   512 TIME:   0.047 TIME LEFT:  2.00D  GRAD.:     1.073 HEAT:  67.89977
 CYCLE:   513 TIME:   0.039 TIME LEFT:  2.00D  GRAD.:     0.432 HEAT:  67.89975
 CYCLE:   514 TIME:   0.039 TIME LEFT:  2.00D  GRAD.:     0.370 HEAT:  67.89975
 CYCLE:   515 TIME:   0.039 TIME LEFT:  2.00D  GRAD.:     0.381 HEAT:  67.89974
 CYCLE:   516 TIME:   0.043 TIME LEFT:  2.00D  GRAD.:     0.561 HEAT:  67.89974
 CYCLE:   517 TIME:   0.039 TIME LEFT:  2.00D  GRAD.:     5.140 HEAT:  67.89996
 CYCLE:   518 TIME:   0.039 TIME LEFT:  2.00D  GRAD.:     5.717 HEAT:  67.90005
 CYCLE:   519 TIME:   0.039 TIME LEFT:  2.00D  GRAD.:     3.114 HEAT:  67.89990
 CYCLE:   520 TIME:   0.039 TIME LEFT:  2.00D  GRAD.:     4.001 HEAT:  67.89990
 CYCLE:   521 TIME:   0.039 TIME LEFT:  2.00D  GRAD.:    19.626 HEAT:  67.90112
 CYCLE:   522 TIME:   0.043 TIME LEFT:  2.00D  GRAD.:     2.139 HEAT:  67.89975
 CYCLE:   523 TIME:   0.039 TIME LEFT:  2.00D  GRAD.:     0.869 HEAT:  67.89972
 CYCLE:   524 TIME:   0.039 TIME LEFT:  2.00D  GRAD.:     0.247 HEAT:  67.89970
 CYCLE:   525 TIME:   0.039 TIME LEFT:  2.00D  GRAD.:     0.502 HEAT:  67.89973
 CYCLE:   526 TIME:   0.043 TIME LEFT:  2.00D  GRAD.:     1.231 HEAT:  67.89971
 CYCLE:   527 TIME:   0.043 TIME LEFT:  2.00D  GRAD.:     0.467 HEAT:  67.89969
 CYCLE:   528 TIME:   0.039 TIME LEFT:  2.00D  GRAD.:     0.229 HEAT:  67.89968
 CYCLE:   529 TIME:   0.047 TIME LEFT:  2.00D  GRAD.:     1.605 HEAT:  67.89971
 CYCLE:   530 TIME:   0.055 TIME LEFT:  2.00D  GRAD.:     0.409 HEAT:  67.89968
 CYCLE:   531 TIME:   0.055 TIME LEFT:  2.00D  GRAD.:     0.218 HEAT:  67.89967
 CYCLE:   532 TIME:   0.059 TIME LEFT:  2.00D  GRAD.:     0.686 HEAT:  67.89966
 CYCLE:   533 TIME:   0.062 TIME LEFT:  2.00D  GRAD.:     0.515 HEAT:  67.89965
 CYCLE:   534 TIME:   0.055 TIME LEFT:  2.00D  GRAD.:     0.462 HEAT:  67.89963
 CYCLE:   535 TIME:   0.059 TIME LEFT:  2.00D  GRAD.:     1.009 HEAT:  67.89963
 CYCLE:   536 TIME:   0.055 TIME LEFT:  2.00D  GRAD.:     0.506 HEAT:  67.89962
 CYCLE:   537 TIME:   0.059 TIME LEFT:  2.00D  GRAD.:     5.050 HEAT:  67.89971
 CYCLE:   538 TIME:   0.055 TIME LEFT:  2.00D  GRAD.:     0.524 HEAT:  67.89960
 CYCLE:   539 TIME:   0.059 TIME LEFT:  2.00D  GRAD.:     0.307 HEAT:  67.89960
 CYCLE:   540 TIME:   0.043 TIME LEFT:  2.00D  GRAD.:     0.429 HEAT:  67.89959
 CYCLE:   541 TIME:   0.039 TIME LEFT:  2.00D  GRAD.:     0.721 HEAT:  67.89958
 CYCLE:   542 TIME:   0.039 TIME LEFT:  2.00D  GRAD.:     0.282 HEAT:  67.89957
 CYCLE:   543 TIME:   0.055 TIME LEFT:  2.00D  GRAD.:     0.648 HEAT:  67.89957
 CYCLE:   544 TIME:   0.055 TIME LEFT:  2.00D  GRAD.:     0.411 HEAT:  67.89957
 CYCLE:   545 TIME:   0.051 TIME LEFT:  2.00D  GRAD.:     0.943 HEAT:  67.89957
 CYCLE:   546 TIME:   0.039 TIME LEFT:  2.00D  GRAD.:     0.321 HEAT:  67.89955
 CYCLE:   547 TIME:   0.039 TIME LEFT:  2.00D  GRAD.:     0.226 HEAT:  67.89955
 CYCLE:   548 TIME:   0.039 TIME LEFT:  2.00D  GRAD.:     0.389 HEAT:  67.89954
 CYCLE:   549 TIME:   0.039 TIME LEFT:  2.00D  GRAD.:     0.369 HEAT:  67.89954
 CYCLE:   550 TIME:   0.039 TIME LEFT:  2.00D  GRAD.:     1.104 HEAT:  67.89953
 CYCLE:   551 TIME:   0.035 TIME LEFT:  2.00D  GRAD.:     0.628 HEAT:  67.89953
 CYCLE:   552 TIME:   0.043 TIME LEFT:  2.00D  GRAD.:     0.747 HEAT:  67.89952
 CYCLE:   553 TIME:   0.039 TIME LEFT:  2.00D  GRAD.:     0.485 HEAT:  67.89952
 CYCLE:   554 TIME:   0.039 TIME LEFT:  2.00D  GRAD.:     0.451 HEAT:  67.89951
 CYCLE:   555 TIME:   0.039 TIME LEFT:  2.00D  GRAD.:     0.528 HEAT:  67.89950
 CYCLE:   556 TIME:   0.051 TIME LEFT:  2.00D  GRAD.:     0.318 HEAT:  67.89949
 CYCLE:   557 TIME:   0.059 TIME LEFT:  2.00D  GRAD.:     0.262 HEAT:  67.89948
 CYCLE:   558 TIME:   0.051 TIME LEFT:  2.00D  GRAD.:     0.388 HEAT:  67.89948
 CYCLE:   559 TIME:   0.047 TIME LEFT:  2.00D  GRAD.:     0.417 HEAT:  67.89946
 CYCLE:   560 TIME:   0.055 TIME LEFT:  2.00D  GRAD.:     0.766 HEAT:  67.89944
 CYCLE:   561 TIME:   0.051 TIME LEFT:  2.00D  GRAD.:     0.781 HEAT:  67.89944
 CYCLE:   562 TIME:   0.043 TIME LEFT:  2.00D  GRAD.:     0.291 HEAT:  67.89943
 CYCLE:   563 TIME:   0.047 TIME LEFT:  2.00D  GRAD.:     0.256 HEAT:  67.89942
 CYCLE:   564 TIME:   0.039 TIME LEFT:  2.00D  GRAD.:     0.310 HEAT:  67.89942
 CYCLE:   565 TIME:   0.043 TIME LEFT:  2.00D  GRAD.:     1.055 HEAT:  67.89942
 CYCLE:   566 TIME:   0.039 TIME LEFT:  2.00D  GRAD.:     0.446 HEAT:  67.89941
 CYCLE:   567 TIME:   0.238 TIME LEFT:  2.00D  GRAD.:     0.209 HEAT:  67.89941
 CYCLE:   568 TIME:   0.035 TIME LEFT:  2.00D  GRAD.:     0.234 HEAT:  67.89941
 CYCLE:   569 TIME:   0.039 TIME LEFT:  2.00D  GRAD.:     0.240 HEAT:  67.89941
 CYCLE:   570 TIME:   0.051 TIME LEFT:  2.00D  GRAD.:     0.203 HEAT:  67.89940
 CYCLE:   571 TIME:   0.035 TIME LEFT:  2.00D  GRAD.:     0.351 HEAT:  67.89939
 CYCLE:   572 TIME:   0.047 TIME LEFT:  2.00D  GRAD.:     0.165 HEAT:  67.89939
 CYCLE:   573 TIME:   0.043 TIME LEFT:  2.00D  GRAD.:     0.192 HEAT:  67.89939
 CYCLE:   574 TIME:   0.043 TIME LEFT:  2.00D  GRAD.:     0.257 HEAT:  67.89938
 CYCLE:   575 TIME:   0.043 TIME LEFT:  2.00D  GRAD.:     0.179 HEAT:  67.89938
 CYCLE:   576 TIME:   0.043 TIME LEFT:  2.00D  GRAD.:     0.311 HEAT:  67.89938
 CYCLE:   577 TIME:   0.055 TIME LEFT:  2.00D  GRAD.:     0.223 HEAT:  67.89937
 CYCLE:   578 TIME:   0.035 TIME LEFT:  2.00D  GRAD.:     0.200 HEAT:  67.89937
 CYCLE:   579 TIME:   0.039 TIME LEFT:  2.00D  GRAD.:     0.469 HEAT:  67.89936
 CYCLE:   580 TIME:   0.035 TIME LEFT:  2.00D  GRAD.:     1.201 HEAT:  67.89936
 CYCLE:   581 TIME:   0.039 TIME LEFT:  2.00D  GRAD.:     0.124 HEAT:  67.89936
 CYCLE:   582 TIME:   0.047 TIME LEFT:  2.00D  GRAD.:     0.155 HEAT:  67.89936
 CYCLE:   583 TIME:   0.039 TIME LEFT:  2.00D  GRAD.:     0.111 HEAT:  67.89936
 CYCLE:   584 TIME:   0.039 TIME LEFT:  2.00D  GRAD.:     0.188 HEAT:  67.89935
 CYCLE:   585 TIME:   0.047 TIME LEFT:  2.00D  GRAD.:     0.245 HEAT:  67.89935
 CYCLE:   586 TIME:   0.035 TIME LEFT:  2.00D  GRAD.:     0.095 HEAT:  67.89935

 -------------------------------------------------------------------------------
 RM1 PRECISE POLAR GNORM=0.1




     HERBERTS TEST WAS SATISFIED IN BFGS                      
     SCF FIELD WAS ACHIEVED                                   


                              RM1 CALCULATION
                                                       MOPAC2016 (Version: 21.013L)
                                                       Sun Oct 17 09:31:21 2021
                                                       No. of days remaining =  88




          FINAL HEAT OF FORMATION =         67.89935 KCAL/MOL =     284.09088 KJ/MOL


          TOTAL ENERGY            =      -4719.28732 EV
          ELECTRONIC ENERGY       =     -36115.23084 EV  POINT GROUP:     C1  
          CORE-CORE REPULSION     =      31395.94352 EV
          COSMO AREA              =        422.06 SQUARE ANGSTROMS
          COSMO VOLUME            =        475.60 CUBIC ANGSTROMS

          GRADIENT NORM           =          0.09473 = 0.01382 PER ATOM
          IONIZATION POTENTIAL    =          8.163268 EV
          HOMO LUMO ENERGIES (EV) =         -8.163 -1.320
          NO. OF FILLED LEVELS    =         74
          MOLECULAR WEIGHT        =        420.4846

          MOLECULAR DIMENSIONS (Angstroms)

            Atom       Atom       Distance
            H    47    H    42    17.96579
            H    44    H    40     8.85836
            H    35    H    37     3.49086


          SCF CALCULATIONS        =        587
 
          WALL-CLOCK TIME         =         28.359 SECONDS
          COMPUTATION TIME        =  9 MINUTES AND 17.789 SECONDS




  ATOM    CHEMICAL      BOND LENGTH      BOND ANGLE     TWIST ANGLE 
 NUMBER    SYMBOL       (ANGSTROMS)      (DEGREES)       (DEGREES) 
   (I)                     NA:I           NB:NA:I       NC:NB:NA:I       NA    NB    NC 
     1       N          0.00000000       0.0000000       0.0000000        0     0     0
     2       C          1.15644636  *    0.0000000       0.0000000        1     0     0
     3       C          1.41713108  *  179.1881767  *    0.0000000        2     1     0
     4       C          1.34736646  *  123.0591875  * -178.7659385  *     3     2     1
     5       C          1.43367880  *  123.3894353  *   -2.6420116  *     4     3     2
     6       C          1.36925213  *  127.2469367  *  -36.1271810  *     5     4     3
     7       C          1.43039062  *  111.8291387  * -179.0816433  *     6     5     4
     8       C          1.36733892  *  111.9845828  *   -0.0708230  *     7     6     5
     9       S          1.71173758  *  120.5557527  *  145.5000650  *     5     4     3
    10       C          1.44420768  *  125.4801612  * -179.9889444  *     8     7     6
    11       C          1.39484192  *  119.2326381  *  -41.8809414  *    10     8     7
    12       C          1.38694907  *  120.2729208  *  179.9244817  *    11    10     8
    13       C          1.39844825  *  119.2854050  *   -0.7624541  *    12    11    10
    14       C          1.39867075  *  120.7875009  *    0.3251920  *    13    12    11
    15       C          1.39469097  *  120.6885719  *  137.5452985  *    10     8     7
    16       N          1.41239474  *  119.6139449  * -179.6522203  *    13    12    11
    17       C          1.41094113  *  125.9084964  * -130.9072748  *    16    13    14
    18       C          1.39116119  *  129.6768171  *    1.9953076  *    17    16    13
    19       C          1.38704455  *  117.0569475  *  179.3168401  *    18    17    16
    20       C          1.39801384  *  121.7353391  *   -0.4513827  *    19    18    17
    21       C          1.38754303  *  121.1221834  *   -0.5086282  *    20    19    18
    22       C          1.38492972  *  118.3658533  *    0.5410410  *    21    20    19
    23       C          1.44164561  *  132.6812886  * -179.1361978  *    22    21    20
    24       C          1.41085656  *  125.9124273  *   49.2387627  *    16    13    14
    25       C          1.39115885  *  129.6828652  *    1.7092171  *    24    16    13
    26       C          1.38707438  *  117.0602195  *  179.3640055  *    25    24    16
    27       C          1.39795938  *  121.7351945  *   -0.4578074  *    26    25    24
    28       C          1.38489099  *  132.6818088  *   -0.7810487  *    23    22    21
    29       C          1.46968201  *  117.4336060  *  178.6590518  *     3     2     4
    30       O          1.22278920  *  126.4593537  *    1.4194883  *    29     3     4
    31       O          1.34773840  *  113.9425746  * -178.4506629  *    29     3     4
    32       H          1.10151190  *  120.2701819  *  177.0416062  *     4     3     2
    33       H          1.08860807  *  125.7705286  *   -0.5939337  *     6     5     4
    34       H          1.08771034  *  122.7923010  * -179.0974613  *     7     6     5
    35       H          1.09488145  *  120.1764966  *  179.5531968  *    11    10    15
    36       H          1.09511558  *  119.9249564  *  178.2600734  *    12    11    10
    37       H          1.09515676  *  120.7756024  *    1.4622239  *    14    13    16
    38       H          1.09486915  *  120.2649548  *   -0.2586370  *    15    10     8
    39       H          1.09164515  *  121.8188659  *    0.2695476  *    18    17    16
    40       H          1.09470385  *  119.1497895  *  179.7534420  *    19    18    17
    41       H          1.09354438  *  119.2532963  *  179.8149620  *    20    19    18
    42       H          1.09282271  *  121.3553680  * -179.3138616  *    21    20    19
    43       H          1.09159972  *  121.8172563  *    0.2850191  *    25    24    16
    44       H          1.09469256  *  119.1491078  *  179.7273486  *    26    25    24
    45       H          1.09353657  *  119.2580536  *  179.8168354  *    27    26    25
    46       H          1.09282500  *  120.2806067  *    0.7233595  *    28    23    22
    47       H          0.96840461  *  111.0798100  *    0.2663924  *    31    29    30

                             CARTESIAN COORDINATES

   1    N        0.000000000     0.000000000     0.000000000
   2    C        1.156446363     0.000000000     0.000000000
   3    C        2.573435194     0.020078643     0.000000000
   4    C        3.324352613    -1.098370256    -0.024320139
   5    C        2.771243367    -2.420785752     0.002555707
   6    C        1.664793063    -2.842500551     0.690142605
   7    C        1.419496523    -4.238586544     0.498333212
   8    C        2.347421956    -4.812885352    -0.325530247
   9    S        3.523079494    -3.696132096    -0.856676320
  10    C        2.376458392    -6.203345449    -0.714777506
  11    C        2.113802857    -7.184084353     0.241646699
  12    C        2.134429187    -8.525850549    -0.108875419
  13    C        2.405304663    -8.882713308    -1.433614247
  14    C        2.660676369    -7.904911663    -2.400552257
  15    C        2.651364657    -6.568022753    -2.032578673
  16    N        2.420762064   -10.246729362    -1.799783845
  17    C        1.424813069   -11.197532532    -1.491865354
  18    C        0.218713947   -11.034011992    -0.818132924
  19    C       -0.579517916   -12.158807772    -0.671323767
  20    C       -0.198986464   -13.402558060    -1.183889591
  21    C        0.995050908   -13.559339876    -1.873070182
  22    C        1.812328395   -12.452842460    -2.033542339
  23    C        3.080315522   -12.261695702    -2.692339451
  24    C        3.436096669   -10.894944210    -2.534242408
  25    C        4.633782562   -10.390234317    -3.030366770
  26    C        5.456045653   -11.273907957    -3.713725853
  27    C        5.106928591   -12.615921554    -3.890946688
  28    C        3.921176405   -13.122266909    -3.378118734
  29    C        3.231998257     1.333948490    -0.002433406
  30    O        4.435825147     1.543274912    -0.049302441
  31    O        2.377251254     2.374292709     0.056645062
  32    H        4.422622430    -1.028851403    -0.072268183
  33    H        1.041252046    -2.223956977     1.333312856
  34    H        0.577180447    -4.756437407     0.951596808
  35    H        1.904993179    -6.900031159     1.278216856
  36    H        1.955535113    -9.292250360     0.652640419
  37    H        2.848944045    -8.183264952    -3.442878047
  38    H        2.844479413    -5.800176027    -2.788790648
  39    H       -0.098660191   -10.062900665    -0.433547988
  40    H       -1.534216487   -12.069890971    -0.143099424
  41    H       -0.858310635   -14.263384771    -1.042085763
  42    H        1.291034291   -14.527346451    -2.284917951
  43    H        4.926561317    -9.349624874    -2.878700927
  44    H        6.404801078   -10.911880842    -4.122567272
  45    H        5.784371327   -13.276500403    -4.439152078
  46    H        3.649428940   -14.173076408    -3.505473312
  47    H        2.853731702     3.217343520     0.050384114


           Empirical Formula: C26 H16 N2 O2 S  =    47 atoms



      MOLECULAR POINT GROUP   :   C1  


                  EIGENVALUES  
 -39.93147 -39.25275 -37.62094 -37.11243 -36.06746 -36.02579 -35.47446 -34.99746
 -33.40618 -31.82617 -30.55165 -30.40576 -29.61912 -28.77010 -27.75497 -27.52658
 -25.58216 -23.92380 -23.61662 -23.06083 -22.76920 -22.40318 -21.99336 -21.19171
 -20.67115 -20.23841 -19.36724 -18.48530 -18.30608 -17.93251 -17.75234 -17.46638
 -17.16613 -16.51885 -16.34585 -16.14150 -15.88022 -15.70493 -15.49733 -15.27925
 -15.12773 -14.88203 -14.82941 -14.68205 -14.62371 -14.51273 -14.44092 -14.39002
 -14.25345 -14.03431 -13.77207 -13.55129 -13.34835 -13.27577 -13.15717 -12.74141
 -12.72790 -12.59691 -12.55809 -12.50972 -12.11541 -11.97466 -11.93973 -11.78232
 -11.73664 -11.35582 -10.46111 -10.20681 -10.11494  -9.76548  -9.71715  -9.31821
  -8.63232  -8.16327  -1.32043  -0.46196  -0.04113   0.11339   0.30135   0.32358
   0.73515   1.03052   1.11341   1.14311   1.23303   1.36028   1.47765   1.51657
   2.15337   2.37591   2.49037   2.88669   2.90222   3.18454   3.54653   3.63556
   3.72942   3.74038   3.75372   3.86615   4.03086   4.12329   4.15502   4.20122
   4.24718   4.29504   4.30192   4.34555   4.39819   4.42266   4.56951   4.59284
   4.59503   4.63112   4.72408   4.78844   4.81387   4.84096   4.93253   4.94065
   4.95698   5.01273   5.13550   5.20592   5.26099   5.28142   5.31616   5.44823
   5.58728   5.59723   5.67233   5.84839   5.89253   5.91865   6.03182   6.15758
   6.16655   6.40791   6.47702   6.60351


              NET ATOMIC CHARGES AND DIPOLE CONTRIBUTIONS

  ATOM NO.   TYPE          CHARGE      No. of ELECS.   s-Pop       p-Pop 
   30          O          -0.375660        6.3757     1.91039     4.46527
   29          C           0.401138        3.5989     1.18046     2.41840
   31          O          -0.310198        6.3102     1.83988     4.47032
   47          H           0.245773        0.7542     0.75423
    2          C           0.051026        3.9490     1.19485     2.75412
    1          N          -0.146464        5.1465     1.84821     3.29825
    3          C          -0.138345        4.1383     1.14252     2.99582
    4          C           0.134084        3.8659     1.17210     2.69382
    5          C          -0.413540        4.4135     1.21534     3.19820
    6          C          -0.019274        4.0193     1.18475     2.83453
    7          C          -0.128283        4.1283     1.18393     2.94435
    8          C          -0.265434        4.2654     1.21672     3.04872
    9          S           0.496904        5.5031     1.88404     3.61906
   10          C          -0.019373        4.0194     1.14964     2.86974
   11          C          -0.064187        4.0642     1.17823     2.88595
   12          C          -0.148358        4.1484     1.18270     2.96566
   13          C           0.150096        3.8499     1.14184     2.70806
   14          C          -0.145172        4.1452     1.18223     2.96294
   15          C          -0.071982        4.0720     1.17761     2.89437
   16          N          -0.265397        5.2654     1.47957     3.78583
   17          C           0.124352        3.8756     1.15107     2.72457
   18          C          -0.170641        4.1706     1.17179     2.99885
   19          C          -0.052890        4.0529     1.17655     2.87634
   20          C          -0.156360        4.1564     1.17839     2.97797
   21          C          -0.035166        4.0352     1.16968     2.86549
   22          C          -0.089801        4.0898     1.15908     2.93072
   23          C          -0.089535        4.0895     1.15910     2.93044
   24          C           0.124371        3.8756     1.15106     2.72457
   25          C          -0.171083        4.1711     1.17169     2.99940
   26          C          -0.052998        4.0530     1.17649     2.87651
   27          C          -0.156516        4.1565     1.17837     2.97815
   28          C          -0.035046        4.0350     1.16969     2.86535
   32          H           0.134568        0.8654     0.86543
   33          H           0.137660        0.8623     0.86234
   34          H           0.138130        0.8619     0.86187
   35          H           0.116602        0.8834     0.88340
   36          H           0.132628        0.8674     0.86737
   37          H           0.132899        0.8671     0.86710
   38          H           0.115948        0.8841     0.88405
   39          H           0.122673        0.8773     0.87733
   40          H           0.102325        0.8977     0.89768
   41          H           0.109317        0.8907     0.89068
   42          H           0.108837        0.8912     0.89116
   43          H           0.122137        0.8779     0.87786
   44          H           0.102059        0.8979     0.89794
   45          H           0.109276        0.8907     0.89072
   46          H           0.108899        0.8911     0.89110
   
 DIPOLE           X         Y         Z       TOTAL
 POINT-CHG.     2.212    -3.021    -0.743     3.817
 HYBRID        -0.630     0.829     1.040     1.472
 SUM            1.583    -2.192     0.298     2.720


          ATOMIC ORBITAL ELECTRON POPULATIONS

     Atom    s        px        py        pz   
    1  N   1.84821   1.11228   1.08701   1.09896
    2  C   1.19485   0.91178   0.92004   0.92231
    3  C   1.14252   0.89028   0.93390   1.17164
    4  C   1.17210   0.99037   0.88752   0.81592
    5  C   1.21534   1.05926   1.00392   1.13502
    6  C   1.18475   0.92615   0.95163   0.95675
    7  C   1.18393   1.00028   0.94462   0.99945
    8  C   1.21672   1.02056   0.98807   1.04009
    9  S   1.88404   1.22604   0.91971   1.47331
   10  C   1.14964   1.02812   0.89930   0.94231
   11  C   1.17823   0.97238   0.92628   0.98729
   12  C   1.18270   1.03586   0.97488   0.95492
   13  C   1.14184   0.98718   0.79985   0.92103
   14  C   1.18223   1.03483   0.93307   0.99504
   15  C   1.17761   0.97953   0.96202   0.95282
   16  N   1.47957   1.20452   1.07209   1.50921
   17  C   1.15107   0.88887   0.86357   0.97213
   18  C   1.17179   0.94875   0.99881   1.05130
   19  C   1.17655   0.97770   0.92653   0.97211
   20  C   1.17839   0.98093   0.97696   1.02007
   21  C   1.16968   0.93528   0.96606   0.96415
   22  C   1.15908   0.95990   0.93622   1.03460
   23  C   1.15910   0.96025   0.93141   1.03878
   24  C   1.15106   0.88556   0.90349   0.93552
   25  C   1.17169   0.94899   1.00531   1.04509
   26  C   1.17649   0.97694   0.93484   0.96474
   27  C   1.17837   0.98236   0.96206   1.03372
   28  C   1.16969   0.93417   0.97886   0.95233
   29  C   1.18046   0.84473   0.85038   0.72329
   30  O   1.91039   1.15924   1.85395   1.45208
   31  O   1.83988   1.41995   1.18679   1.86358
   32  H   0.86543
   33  H   0.86234
   34  H   0.86187
   35  H   0.88340
   36  H   0.86737
   37  H   0.86710
   38  H   0.88405
   39  H   0.87733
   40  H   0.89768
   41  H   0.89068
   42  H   0.89116
   43  H   0.87786
   44  H   0.89794
   45  H   0.89072
   46  H   0.89110
   47  H   0.75423
 ******************** TDHF POLARIZABILITIES ********************



          MOLECULAR WEIGHT =  420.48



          ROTATIONAL CONSTANTS IN CM(-1)

          A =    0.01359337   B =    0.00146002   C =    0.00134159



           PRINCIPAL MOMENTS OF INERTIA IN UNITS OF 10**(-40)*GRAM-CM**2

          A =     2059.2963   B =    19172.8932   C =    20865.3585


 ROTATION MATRIX FOR ORIENTATION OF MOLECULE:

        -0.014607    0.887818    0.459963
        -0.982882    0.071744   -0.169693
        -0.183656   -0.454568    0.871572


          CARTESIAN COORDINATES 

    NO.       ATOM         X         Y         Z

     1         N       -6.6682   -2.2296   -1.2881
     2         C       -6.6851   -1.2029   -0.7562
     3         C       -6.7256    0.0566   -0.1079
     4         C       -5.6328    0.6541    0.4061
     5         C       -4.3298    0.0559    0.3995
     6         C       -4.0255   -1.2692    0.5615
     7         C       -2.6145   -1.5000    0.5184
     8         C       -1.9122   -0.3428    0.3246
     9         S       -2.9295    1.0225    0.2129
    10         C       -0.4745   -0.2399    0.2346
    11         C        0.3176   -0.9782    1.1138
    12         C        1.7005   -0.8968    1.0455
    13         C        2.2906   -0.0797    0.0760
    14         C        1.5034    0.6567   -0.8152
    15         C        0.1219    0.5771   -0.7256
    16         N        3.6983    0.0026   -0.0045
    17         C        4.5908   -1.0898   -0.0329
    18         C        4.3240   -2.4551   -0.0282
    19         C        5.4142   -3.3113   -0.0765
    20         C        6.7252   -2.8296   -0.1372
    21         C        6.9885   -1.4675   -0.1621
    22         C        5.9184   -0.5896   -0.1138
    23         C        5.8330    0.8493   -0.1372
    24         C        4.4554    1.1914   -0.0676
    25         C        4.0330    2.5164   -0.0348
    26         C        5.0150    3.4937   -0.1022
    27         C        6.3717    3.1680   -0.1896
    28         C        6.7925    1.8458   -0.2021
    29         C       -8.0261    0.7366   -0.0300
    30         O       -8.2408    1.8418    0.4473
    31         O       -9.0470    0.0256   -0.5482
    32         H       -5.7083    1.6559    0.8577
    33         H       -4.7424   -2.0708    0.7303
    34         H       -2.1764   -2.4910    0.6139
    35         H       -0.1489   -1.6144    1.8730
    36         H        2.3165   -1.4568    1.7570
    37         H        1.9656    1.2777   -1.5898
    38         H       -0.4967    1.1474   -1.4262
    39         H        3.3035   -2.8421   -0.0038
    40         H        5.2437   -4.3926   -0.0704
    41         H        7.5549   -3.5412   -0.1708
    42         H        8.0112   -1.0870   -0.2206
    43         H        2.9781    2.7821    0.0555
    44         H        4.7204    4.5478   -0.0836
    45         H        7.1118    3.9713   -0.2437
    46         H        7.8527    1.5871   -0.2597
    47         H       -9.8814    0.5119   -0.4776


 ENERGY OF "REORIENTED" SYSTEM WITHOUT FIELD:       67.8993512082


  NFREQ=  3  IWFLB=  0  IBET=  1  IGAM=  1
  ATOL= 0.10000D-02  BTOL= 0.10000D-02    MAXITU=  500    MAXITA=  150


 *****************************************************************
 CALCULATION OF STATIC FIELD QUANTITIES
 *****************************************************************

 +++++ ALPHA AT       0.00000 EV.

                           COMPONENTS OF ALPHA

                     *X           *Y           *Z
           *=X:     509.0844       5.7758       7.2517
           *=Y:       5.7771     322.2675      -8.7992
           *=Z:       7.2759      -8.7982      90.7632

  ISOTROPIC AVERAGE ALPHA =     307.37169 A.U. =     45.54778 ANG.**3

 +++++ BETA (SECOND HARMONIC GENERATION) AT       0.00000 EV.

                              COMPONENTS OF BETA
            *XX         *XY         *YY         *XZ         *YZ         *ZZ
   *=X  5615.25849  -353.85228  -619.40961  -104.17358   -66.15671   -51.14192
   *=Y  -353.64525  -619.29984    65.53033   -66.14718    53.62705    13.39089
   *=Z  -103.66638   -66.27485    53.60088   -51.16488    13.38940   -13.85460


 AVERAGE BETAX(SHG) VALUE AT   0.00000 EV =       2966.8589 a.u. =  0.256319E-28 ESU
 AVERAGE BETAY(SHG) VALUE AT   0.00000 EV =       -164.9178 a.u. = -0.142479E-29 ESU
 AVERAGE BETAZ(SHG) VALUE AT   0.00000 EV =        -38.5445 a.u. = -0.333002E-30 ESU



 AVERAGE BETA (SHG) VALUE AT   0.00000 EV =       2971.6890 a.u. =  0.256737E-28 ESU
   (1 a.u. = 8.639418X10-33 esu)



 +++++ ALPHA AT       0.00000 EV.

                           COMPONENTS OF ALPHA

                     *X           *Y           *Z
           *=X:     509.0844       5.7758       7.2517
           *=Y:       5.7771     322.2675      -8.7992
           *=Z:       7.2759      -8.7982      90.7632

  ISOTROPIC AVERAGE ALPHA =     307.37169 A.U. =     45.54778 ANG.**3


 GAMMA (THIRD HARMONIC GENERATION) AT    0.00000 EV.


 GAMMA(X,X,X,X) =       1614888.51022
 GAMMA(Y,Y,Y,Y) =         88648.34432
 GAMMA(Z,Z,Z,Z) =          2302.89322
 GAMMA(X,X,Y,Y) =         18840.64527
 GAMMA(X,X,Z,Z) =         -4353.54802
 GAMMA(Y,Y,X,X) =         18840.39519
 GAMMA(Y,Y,Z,Z) =          4005.52459
 GAMMA(Z,Z,X,X) =         -4353.90207
 GAMMA(Z,Z,Y,Y) =          4005.59975


 AVERAGE GAMMA VALUE AT    0.00000 =        348564.89249 a.u. =       175561.76933 ESU (X10-39)




 **********************************************************************
 CALCULATION FOR A FREQUENCY OF    0.25000 EV  =       0.00919 A.U. 
                  WAVELENGTH OF    4959.37 NM  =    2016.38525 CM(-1)
 **********************************************************************

 +++++ ALPHA AT       0.25000 EV.

                           COMPONENTS OF ALPHA

                     *X           *Y           *Z
           *=X:     511.1496       5.8143       7.3407
           *=Y:       5.8154     322.8688      -8.8194
           *=Z:       7.3551      -8.8191      90.8725

  ISOTROPIC AVERAGE ALPHA =     308.29696 A.U. =     45.68490 ANG.**3

 +++++ BETA (SECOND HARMONIC GENERATION) AT       0.25000 EV.

                              COMPONENTS OF BETA
            *XX         *XY         *YY         *XZ         *YZ         *ZZ
   *=X  5867.90996  -368.75772  -635.84561  -105.59010   -67.59719   -53.04559
   *=Y  -350.02303  -631.10288    66.59771   -67.43837    54.59995    13.56601
   *=Z   -98.38951   -69.15474    54.25667   -51.21147    13.22010   -13.99868


 AVERAGE BETAX(SHG) VALUE AT   0.25000 EV =       3110.0420 a.u. =  0.268690E-28 ESU
 AVERAGE BETAY(SHG) VALUE AT   0.25000 EV =       -169.5478 a.u. = -0.146479E-29 ESU
 AVERAGE BETAZ(SHG) VALUE AT   0.25000 EV =        -37.6218 a.u. = -0.325031E-30 ESU



 AVERAGE BETA (SHG) VALUE AT   0.25000 EV =       3114.8873 a.u. =  0.269108E-28 ESU
   (1 a.u. = 8.639418X10-33 esu)



 +++++ ALPHA AT       0.75000 EV.

                           COMPONENTS OF ALPHA

                     *X           *Y           *Z
           *=X:     528.7182       6.1391       8.0228
           *=Y:       6.1406     327.8087      -8.9901
           *=Z:       8.0382      -8.9899      91.7577

  ISOTROPIC AVERAGE ALPHA =     316.09486 A.U. =     46.84042 ANG.**3


 GAMMA (THIRD HARMONIC GENERATION) AT    0.25000 EV.


 GAMMA(X,X,X,X) =       1785744.04841
 GAMMA(Y,Y,Y,Y) =         93067.27149
 GAMMA(Z,Z,Z,Z) =          2363.13500
 GAMMA(X,X,Y,Y) =         19792.38003
 GAMMA(X,X,Z,Z) =         -5079.12136
 GAMMA(Y,Y,X,X) =         19596.65910
 GAMMA(Y,Y,Z,Z) =          4156.14314
 GAMMA(Z,Z,X,X) =         -4413.18924
 GAMMA(Z,Z,Y,Y) =          4089.02314


 AVERAGE GAMMA VALUE AT    0.25000 =        383863.26994 a.u. =       193340.51220 ESU (X10-39)




 **********************************************************************
 CALCULATION FOR A FREQUENCY OF    0.50000 EV  =       0.01837 A.U. 
                  WAVELENGTH OF    2479.68 NM  =    4032.77050 CM(-1)
 **********************************************************************

 +++++ ALPHA AT       0.50000 EV.

                           COMPONENTS OF ALPHA

                     *X           *Y           *Z
           *=X:     517.5094       5.9320       7.5851
           *=Y:       5.9333     324.6925      -8.8828
           *=Z:       7.6005      -8.8824      91.2001

  ISOTROPIC AVERAGE ALPHA =     311.13400 A.U. =     46.10530 ANG.**3

 +++++ BETA (SECOND HARMONIC GENERATION) AT       0.50000 EV.

                              COMPONENTS OF BETA
            *XX         *XY         *YY         *XZ         *YZ         *ZZ
   *=X  6748.76098  -420.72076  -691.48502  -110.81783   -72.22049   -59.60429
   *=Y  -334.50135  -668.82883    70.16481   -71.38625    57.77765    14.13235
   *=Z   -78.02915   -78.91297    56.25801   -51.15992    12.62089   -14.46251


 AVERAGE BETAX(SHG) VALUE AT   0.50000 EV =       3611.0432 a.u. =  0.311973E-28 ESU
 AVERAGE BETAY(SHG) VALUE AT   0.50000 EV =       -185.2149 a.u. = -0.160015E-29 ESU
 AVERAGE BETAZ(SHG) VALUE AT   0.50000 EV =        -34.2478 a.u. = -0.295881E-30 ESU



 AVERAGE BETA (SHG) VALUE AT   0.50000 EV =       3615.9522 a.u. =  0.312397E-28 ESU
   (1 a.u. = 8.639418X10-33 esu)



 +++++ ALPHA AT       1.50000 EV.

                           COMPONENTS OF ALPHA

                     *X           *Y           *Z
           *=X:     607.7897       7.5700      11.2471
           *=Y:       7.5761     346.5283      -9.6112
           *=Z:      11.2736      -9.6112      95.0561

  ISOTROPIC AVERAGE ALPHA =     349.79137 A.U. =     51.83373 ANG.**3


 GAMMA (THIRD HARMONIC GENERATION) AT    0.50000 EV.


 GAMMA(X,X,X,X) =       2528743.19237
 GAMMA(Y,Y,Y,Y) =        108678.85901
 GAMMA(Z,Z,Z,Z) =          2569.98169
 GAMMA(X,X,Y,Y) =         22891.47218
 GAMMA(X,X,Z,Z) =         -8394.80189
 GAMMA(Y,Y,X,X) =         21905.57770
 GAMMA(Y,Y,Z,Z) =          4682.15622
 GAMMA(Z,Z,X,X) =         -4474.44064
 GAMMA(Z,Z,Y,Y) =          4370.53213


 AVERAGE GAMMA VALUE AT    0.50000 =        536194.50575 a.u. =       270065.22504 ESU (X10-39)



 **********************
 *                    *
 * JOB ENDED NORMALLY *
 *                    *
 **********************



 TOTAL JOB TIME:            45.60 SECONDS

 == MOPAC DONE ==
