 *******************************************************************************
 ** Site#: 4824         For non-commercial use only    Version 21.013L 64BITS **
 *******************************************************************************
 ** Cite this program as: MOPAC2016, Version: 21.013L, James J. P. Stewart,   **
 ** Stewart Computational Chemistry, web: HTTP://OpenMOPAC.net. Days left:  87**
 *******************************************************************************
 **                                                                           **
 **                                MOPAC2016                                  **
 **                                                                           **
 *******************************************************************************

                              RM1 CALCULATION RESULTS

 *******************************************************************************
 *  CALCULATION DONE:                                Mon Oct 18 10:47:58 2021  *
 *  RM1        - The RM1 Hamiltonian to be used
 *  POLAR      - CALCULATE FIRST, SECOND AND THIRD-ORDER POLARIZABILITIES
 *  PRECISE    - TIGHTER CRITERIA TO BE USED
 *  XYZ        - CARTESIAN COORDINATE SYSTEM TO BE USED
 *  T=         - A TIME OF 172800.0 SECONDS REQUESTED
 *  DUMP=N     - RESTART FILE WRITTEN EVERY 7200.0 SECONDS REQUESTED
 *  GNORM      - EXIT WHEN GRADIENT NORM DROPS BELOW 0.100
 *******************************************************************************
RM1 PRECISE POLAR XYZ GNORM=0.1


   ATOM   CHEMICAL          X               Y               Z
  NUMBER   SYMBOL      (ANGSTROMS)     (ANGSTROMS)     (ANGSTROMS)
 
     1       N          0.00000000  *   0.00000000  *   0.00000000  *
     2       C          1.15638861  *   0.00000000  *   0.00000000  *
     3       C          2.57426855  *   0.00004413  *   0.00000000  *
     4       C          3.30209149  *  -1.13238518  *   0.00217484  *
     5       C          2.71029620  *  -2.45653871  *  -0.05210788  *
     6       C          1.68891215  *  -2.73641469  *  -0.97295425  *
     7       C          1.10202043  *  -3.98774681  *  -1.04048542  *
     8       C          1.55803376  *  -4.95777929  *  -0.14932142  *
     9       C          2.61654783  *  -4.69107145  *   0.76652464  *
    10       C          3.19809674  *  -3.43886698  *   0.80855431  *
    11       C          2.85829628  *  -5.90710350  *   1.50123694  *
    12       C          3.75192543  *  -6.23733640  *   2.50750577  *
    13       C          3.71641428  *  -7.52446470  *   3.02249077  *
    14       C          2.79859889  *  -8.46871153  *   2.54979861  *
    15       C          1.89298051  *  -8.16555160  *   1.54496121  *
    16       C          1.94029205  *  -6.87812609  *   1.01873485  *
    17       N          1.15198289  *  -6.29067972  *   0.00647224  *
    18       C          0.10695017  *  -6.92808524  *  -0.70771512  *
    19       C         -1.14598954  *  -6.32037860  *  -0.78559390  *
    20       C         -2.16641090  *  -6.94701523  *  -1.48891092  *
    21       C         -1.93900130  *  -8.17430804  *  -2.11455063  *
    22       C         -0.67640940  *  -8.77798762  *  -2.02514631  *
    23       C          0.34655050  *  -8.15823017  *  -1.32745049  *
    24       N         -2.91164479  *  -8.85957057  *  -2.92588258  *
    25       C         -3.99723233  *  -8.00277402  *  -3.44927937  *
    26       C         -3.44541980  * -10.06160042  *  -2.23948498  *
    27       C          3.25381713  *   1.30171520  *   0.03268471  *
    28       O          4.46091924  *   1.49164768  *   0.08279250  *
    29       O          2.41695818  *   2.35826640  *  -0.00042091  *
    30       H          4.40062668  *  -1.08956474  *   0.05727297  *
    31       H          1.36182973  *  -1.96078948  *  -1.67413318  *
    32       H          0.31873686  *  -4.20619520  *  -1.77011500  *
    33       H          4.01102671  *  -3.23109454  *   1.51015191  *
    34       H          4.46149649  *  -5.49477724  *   2.88071198  *
    35       H          4.41388356  *  -7.80887511  *   3.81545365  *
    36       H          2.79468481  *  -9.47229330  *   2.98714847  *
    37       H          1.16814960  *  -8.90207800  *   1.19228825  *
    38       H         -1.33739888  *  -5.36381290  *  -0.28699641  *
    39       H         -3.14407435  *  -6.45755128  *  -1.52542450  *
    40       H         -0.48170266  *  -9.73295125  *  -2.52587655  *
    41       H          1.33635205  *  -8.62465034  *  -1.27998263  *
    42       H         -4.76782589  *  -7.68660380  *  -2.72048003  *
    43       H         -3.58413600  *  -7.09127838  *  -3.91440685  *
    44       H         -4.52441987  *  -8.55547403  *  -4.24712566  *
    45       H         -4.10371960  *  -9.85694274  *  -1.37360531  *
    46       H         -4.03021921  * -10.66274961  *  -2.95718291  *
    47       H         -2.62798855  * -10.70650735  *  -1.87476330  *
    48       H          2.90817395  *   3.19217362  *   0.02604141  *
 


          CARTESIAN COORDINATES 

    NO.       ATOM           X           Y           Z

     1         N          0.0000      0.0000      0.0000
     2         C          1.1564      0.0000      0.0000
     3         C          2.5743      0.0000      0.0000
     4         C          3.3021     -1.1324      0.0022
     5         C          2.7103     -2.4565     -0.0521
     6         C          1.6889     -2.7364     -0.9730
     7         C          1.1020     -3.9877     -1.0405
     8         C          1.5580     -4.9578     -0.1493
     9         C          2.6165     -4.6911      0.7665
    10         C          3.1981     -3.4389      0.8086
    11         C          2.8583     -5.9071      1.5012
    12         C          3.7519     -6.2373      2.5075
    13         C          3.7164     -7.5245      3.0225
    14         C          2.7986     -8.4687      2.5498
    15         C          1.8930     -8.1656      1.5450
    16         C          1.9403     -6.8781      1.0187
    17         N          1.1520     -6.2907      0.0065
    18         C          0.1070     -6.9281     -0.7077
    19         C         -1.1460     -6.3204     -0.7856
    20         C         -2.1664     -6.9470     -1.4889
    21         C         -1.9390     -8.1743     -2.1146
    22         C         -0.6764     -8.7780     -2.0251
    23         C          0.3466     -8.1582     -1.3275
    24         N         -2.9116     -8.8596     -2.9259
    25         C         -3.9972     -8.0028     -3.4493
    26         C         -3.4454    -10.0616     -2.2395
    27         C          3.2538      1.3017      0.0327
    28         O          4.4609      1.4916      0.0828
    29         O          2.4170      2.3583     -0.0004
    30         H          4.4006     -1.0896      0.0573
    31         H          1.3618     -1.9608     -1.6741
    32         H          0.3187     -4.2062     -1.7701
    33         H          4.0110     -3.2311      1.5102
    34         H          4.4615     -5.4948      2.8807
    35         H          4.4139     -7.8089      3.8155
    36         H          2.7947     -9.4723      2.9871
    37         H          1.1681     -8.9021      1.1923
    38         H         -1.3374     -5.3638     -0.2870
    39         H         -3.1441     -6.4576     -1.5254
    40         H         -0.4817     -9.7330     -2.5259
    41         H          1.3364     -8.6247     -1.2800
    42         H         -4.7678     -7.6866     -2.7205
    43         H         -3.5841     -7.0913     -3.9144
    44         H         -4.5244     -8.5555     -4.2471
    45         H         -4.1037     -9.8569     -1.3736
    46         H         -4.0302    -10.6627     -2.9572
    47         H         -2.6280    -10.7065     -1.8748
    48         H          2.9082      3.1922      0.0260

  H: (RM1): G.B. ROCHA, R.O. FREIRE, A.M.SIMAS, J.J.P. STEWART, J. COMP. CHEM. 27, 1101 (2006)
  C: (RM1): G.B. ROCHA, R.O. FREIRE, A.M.SIMAS, J.J.P. STEWART, J. COMP. CHEM. 27, 1101 (2006)
  N: (RM1): G.B. ROCHA, R.O. FREIRE, A.M.SIMAS, J.J.P. STEWART, J. COMP. CHEM. 27, 1101 (2006)
  O: (RM1): G.B. ROCHA, R.O. FREIRE, A.M.SIMAS, J.J.P. STEWART, J. COMP. CHEM. 27, 1101 (2006)

           Empirical Formula: C24 H19 N3 O2  =    48 atoms



      MOLECULAR POINT GROUP   :   C1  


      RHF CALCULATION, NO. OF DOUBLY OCCUPIED LEVELS = 71


          Geometry optimization using L-BFGS
 CYCLE:     1 TIME:   0.156 TIME LEFT:  2.00D  GRAD.:     2.421 HEAT:  34.98706
 CYCLE:     2 TIME:   0.059 TIME LEFT:  2.00D  GRAD.:     2.410 HEAT:  34.98700
 CYCLE:     3 TIME:   0.062 TIME LEFT:  2.00D  GRAD.:     6.153 HEAT:  34.98948
 CYCLE:     4 TIME:   0.055 TIME LEFT:  2.00D  GRAD.:     2.544 HEAT:  34.98705
 CYCLE:     5 TIME:   0.066 TIME LEFT:  2.00D  GRAD.:     6.605 HEAT:  34.99136
 CYCLE:     6 TIME:   0.055 TIME LEFT:  2.00D  GRAD.:     3.181 HEAT:  34.98125
 CYCLE:     7 TIME:   0.059 TIME LEFT:  2.00D  GRAD.:     1.774 HEAT:  34.97983
 CYCLE:     8 TIME:   0.066 TIME LEFT:  2.00D  GRAD.:     0.784 HEAT:  34.97952
 CYCLE:     9 TIME:   0.055 TIME LEFT:  2.00D  GRAD.:     0.725 HEAT:  34.97938
 CYCLE:    10 TIME:   0.062 TIME LEFT:  2.00D  GRAD.:     0.854 HEAT:  34.97875
 CYCLE:    11 TIME:   0.074 TIME LEFT:  2.00D  GRAD.:     0.842 HEAT:  34.97841
 CYCLE:    12 TIME:   0.082 TIME LEFT:  2.00D  GRAD.:     0.978 HEAT:  34.97791
 CYCLE:    13 TIME:   0.066 TIME LEFT:  2.00D  GRAD.:     1.151 HEAT:  34.97766
 CYCLE:    14 TIME:   0.059 TIME LEFT:  2.00D  GRAD.:     0.549 HEAT:  34.97743
 CYCLE:    15 TIME:   0.055 TIME LEFT:  2.00D  GRAD.:     0.355 HEAT:  34.97729
 CYCLE:    16 TIME:   0.051 TIME LEFT:  2.00D  GRAD.:     0.351 HEAT:  34.97720
 CYCLE:    17 TIME:   0.055 TIME LEFT:  2.00D  GRAD.:     0.345 HEAT:  34.97707
 CYCLE:    18 TIME:   0.051 TIME LEFT:  2.00D  GRAD.:     0.842 HEAT:  34.97705
 CYCLE:    19 TIME:   0.051 TIME LEFT:  2.00D  GRAD.:     0.264 HEAT:  34.97692
 CYCLE:    20 TIME:   0.051 TIME LEFT:  2.00D  GRAD.:     0.202 HEAT:  34.97688
 CYCLE:    21 TIME:   0.051 TIME LEFT:  2.00D  GRAD.:     0.261 HEAT:  34.97681
 CYCLE:    22 TIME:   0.051 TIME LEFT:  2.00D  GRAD.:     0.563 HEAT:  34.97677
 CYCLE:    23 TIME:   0.051 TIME LEFT:  2.00D  GRAD.:     0.254 HEAT:  34.97673
 CYCLE:    24 TIME:   0.051 TIME LEFT:  2.00D  GRAD.:     0.165 HEAT:  34.97671
 CYCLE:    25 TIME:   0.051 TIME LEFT:  2.00D  GRAD.:     0.150 HEAT:  34.97669
 CYCLE:    26 TIME:   0.051 TIME LEFT:  2.00D  GRAD.:     0.171 HEAT:  34.97667
 CYCLE:    27 TIME:   0.051 TIME LEFT:  2.00D  GRAD.:     0.321 HEAT:  34.97666
 CYCLE:    28 TIME:   0.051 TIME LEFT:  2.00D  GRAD.:     0.099 HEAT:  34.97664

 -------------------------------------------------------------------------------
 RM1 PRECISE POLAR XYZ GNORM=0.1




     HERBERTS TEST WAS SATISFIED IN BFGS                      
     SCF FIELD WAS ACHIEVED                                   


                              RM1 CALCULATION
                                                       MOPAC2016 (Version: 21.013L)
                                                       Mon Oct 18 10:48:00 2021
                                                       No. of days remaining =  87




          FINAL HEAT OF FORMATION =         34.97664 KCAL/MOL =     146.34228 KJ/MOL


          TOTAL ENERGY            =      -4534.54168 EV
          ELECTRONIC ENERGY       =     -35193.90505 EV  POINT GROUP:     C1  
          CORE-CORE REPULSION     =      30659.36337 EV
          COSMO AREA              =        398.85 SQUARE ANGSTROMS
          COSMO VOLUME            =        449.81 CUBIC ANGSTROMS

          GRADIENT NORM           =          0.09910 = 0.01430 PER ATOM
          IONIZATION POTENTIAL    =          8.219293 EV
          HOMO LUMO ENERGIES (EV) =         -8.219 -0.817
          NO. OF FILLED LEVELS    =         71
          MOLECULAR WEIGHT        =        381.4330

          MOLECULAR DIMENSIONS (Angstroms)

            Atom       Atom       Distance
            H    48    H    46    15.77815
            H    44    H    35    10.39850
            H    41    N     1     3.36129


          SCF CALCULATIONS        =         29
 
          WALL-CLOCK TIME         =          1.777 SECONDS
          COMPUTATION TIME        =         20.838 SECONDS




   ATOM   CHEMICAL          X               Y               Z
  NUMBER   SYMBOL      (ANGSTROMS)     (ANGSTROMS)     (ANGSTROMS)
 
     1       N          0.00024467  *   0.01061586  *   0.00709518  *
     2       C          1.15651682  *  -0.00117492  *  -0.00512540  *
     3       C          2.57438283  *  -0.00088712  *  -0.00237633  *
     4       C          3.30285476  *  -1.13288827  *   0.00236316  *
     5       C          2.71119463  *  -2.45700494  *  -0.05286809  *
     6       C          1.68977627  *  -2.73684205  *  -0.97370164  *
     7       C          1.10219457  *  -3.98787912  *  -1.04067323  *
     8       C          1.55843204  *  -4.95812248  *  -0.14983503  *
     9       C          2.61673698  *  -4.69135744  *   0.76622382  *
    10       C          3.19848150  *  -3.43925306  *   0.80820355  *
    11       C          2.85839004  *  -5.90731102  *   1.50106401  *
    12       C          3.75185458  *  -6.23739915  *   2.50752016  *
    13       C          3.71628770  *  -7.52448826  *   3.02268488  *
    14       C          2.79852232  *  -8.46869448  *   2.54991488  *
    15       C          1.89310966  *  -8.16572109  *   1.54479768  *
    16       C          1.94055589  *  -6.87843791  *   1.01840791  *
    17       N          1.15238263  *  -6.29100733  *   0.00599359  *
    18       C          0.10696890  *  -6.92829176  *  -0.70773337  *
    19       C         -1.14591677  *  -6.32052254  *  -0.78554359  *
    20       C         -2.16632194  *  -6.94699747  *  -1.48907289  *
    21       C         -1.93898722  *  -8.17428105  *  -2.11471133  *
    22       C         -0.67655618  *  -8.77826170  *  -2.02483112  *
    23       C          0.34639229  *  -8.15862400  *  -1.32719008  *
    24       N         -2.91135234  *  -8.85952295  *  -2.92650645  *
    25       C         -3.99734149  *  -8.00270066  *  -3.44921529  *
    26       C         -3.44521074  * -10.06148946  *  -2.23984021  *
    27       C          3.25296184  *   1.30119028  *   0.03173794  *
    28       O          4.45990869  *   1.49168134  *   0.08361530  *
    29       O          2.41545432  *   2.35719840  *  -0.00164159  *
    30       H          4.40117874  *  -1.08972536  *   0.06109815  *
    31       H          1.36261600  *  -1.96117696  *  -1.67481906  *
    32       H          0.31835239  *  -4.20612878  *  -1.76977718  *
    33       H          4.01098954  *  -3.23138737  *   1.51024956  *
    34       H          4.46160532  *  -5.49492067  *   2.88054849  *
    35       H          4.41384204  *  -7.80886381  *   3.81559476  *
    36       H          2.79432828  *  -9.47220847  *   2.98744390  *
    37       H          1.16822767  *  -8.90226923  *   1.19229138  *
    38       H         -1.33750068  *  -5.36430931  *  -0.28631674  *
    39       H         -3.14391382  *  -6.45741447  *  -1.52564588  *
    40       H         -0.48195369  *  -9.73344451  *  -2.52517678  *
    41       H          1.33608127  *  -8.62527081  *  -1.27947983  *
    42       H         -4.76716977  *  -7.68602023  *  -2.71985292  *
    43       H         -3.58431947  *  -7.09152248  *  -3.91504284  *
    44       H         -4.52532356  *  -8.55558960  *  -4.24640620  *
    45       H         -4.10303439  *  -9.85660681  *  -1.37366600  *
    46       H         -4.03041910  * -10.66256318  *  -2.95725451  *
    47       H         -2.62778884  * -10.70660770  *  -1.87545863  *
    48       H          2.90599349  *   3.19143526  *   0.02651741  *

                             CARTESIAN COORDINATES

   1    N        0.000244669     0.010615858     0.007095177
   2    C        1.156516822    -0.001174923    -0.005125402
   3    C        2.574382832    -0.000887121    -0.002376328
   4    C        3.302854764    -1.132888273     0.002363160
   5    C        2.711194633    -2.457004939    -0.052868088
   6    C        1.689776265    -2.736842047    -0.973701643
   7    C        1.102194571    -3.987879116    -1.040673233
   8    C        1.558432043    -4.958122481    -0.149835035
   9    C        2.616736977    -4.691357445     0.766223823
  10    C        3.198481502    -3.439253057     0.808203554
  11    C        2.858390038    -5.907311024     1.501064013
  12    C        3.751854583    -6.237399151     2.507520158
  13    C        3.716287700    -7.524488258     3.022684881
  14    C        2.798522315    -8.468694479     2.549914880
  15    C        1.893109663    -8.165721088     1.544797679
  16    C        1.940555890    -6.878437915     1.018407908
  17    N        1.152382631    -6.291007331     0.005993592
  18    C        0.106968898    -6.928291756    -0.707733368
  19    C       -1.145916771    -6.320522536    -0.785543590
  20    C       -2.166321940    -6.946997466    -1.489072886
  21    C       -1.938987225    -8.174281046    -2.114711332
  22    C       -0.676556184    -8.778261698    -2.024831121
  23    C        0.346392293    -8.158623999    -1.327190084
  24    N       -2.911352344    -8.859522954    -2.926506446
  25    C       -3.997341491    -8.002700657    -3.449215293
  26    C       -3.445210740   -10.061489456    -2.239840213
  27    C        3.252961835     1.301190283     0.031737936
  28    O        4.459908693     1.491681341     0.083615303
  29    O        2.415454322     2.357198401    -0.001641586
  30    H        4.401178744    -1.089725356     0.061098154
  31    H        1.362616004    -1.961176965    -1.674819062
  32    H        0.318352395    -4.206128783    -1.769777178
  33    H        4.010989543    -3.231387365     1.510249562
  34    H        4.461605317    -5.494920665     2.880548486
  35    H        4.413842036    -7.808863813     3.815594761
  36    H        2.794328278    -9.472208469     2.987443897
  37    H        1.168227665    -8.902269230     1.192291382
  38    H       -1.337500676    -5.364309314    -0.286316743
  39    H       -3.143913818    -6.457414468    -1.525645882
  40    H       -0.481953688    -9.733444508    -2.525176778
  41    H        1.336081270    -8.625270813    -1.279479835
  42    H       -4.767169768    -7.686020229    -2.719852920
  43    H       -3.584319472    -7.091522481    -3.915042844
  44    H       -4.525323563    -8.555589601    -4.246406201
  45    H       -4.103034395    -9.856606812    -1.373666003
  46    H       -4.030419102   -10.662563179    -2.957254515
  47    H       -2.627788836   -10.706607696    -1.875458627
  48    H        2.905993493     3.191435262     0.026517413


           Empirical Formula: C24 H19 N3 O2  =    48 atoms



      MOLECULAR POINT GROUP   :   C1  


                  EIGENVALUES  
 -40.11825 -39.11457 -38.28372 -37.13965 -36.35416 -36.23032 -35.34853 -34.87406
 -33.05365 -31.59760 -30.52020 -29.89148 -29.71193 -28.18999 -28.03775 -27.93546
 -25.64087 -24.73257 -23.69001 -22.75665 -22.58325 -22.21066 -21.84308 -20.95507
 -20.85457 -19.14853 -18.64183 -18.13324 -18.05699 -17.79096 -17.09337 -16.83874
 -16.49749 -16.21507 -16.04714 -15.89359 -15.55270 -15.44358 -15.37940 -15.00280
 -14.90145 -14.88243 -14.75695 -14.68263 -14.57261 -14.30929 -14.18626 -13.89266
 -13.68626 -13.40646 -13.33770 -13.14427 -13.05654 -12.91835 -12.88159 -12.80783
 -12.67664 -12.45973 -12.38667 -12.28954 -12.09001 -11.91969 -11.61421 -11.02305
 -10.61232 -10.31265  -9.97970  -9.79180  -9.05363  -8.81357  -8.21929  -0.81745
  -0.26907   0.08282   0.23519   0.25068   0.90826   0.97225   1.30574   1.40485
   1.68545   2.21314   2.27406   2.44779   2.53975   2.70913   2.99044   3.08997
   3.53712   3.72626   3.74394   3.80801   3.90363   3.92535   3.94299   3.97760
   4.00586   4.11550   4.18829   4.21038   4.22479   4.27848   4.32815   4.36836
   4.45942   4.56980   4.60838   4.64473   4.68488   4.73866   4.75852   4.83384
   4.84758   4.87542   4.90896   5.06553   5.08474   5.12507   5.17219   5.21799
   5.30202   5.36732   5.48865   5.51600   5.57670   5.68967   5.78175   5.83662
   5.84941   5.93393   6.18994   6.24233   6.33137   6.51521   6.61960


              NET ATOMIC CHARGES AND DIPOLE CONTRIBUTIONS

  ATOM NO.   TYPE          CHARGE      No. of ELECS.   s-Pop       p-Pop       
   28          O          -0.378474        6.3785     1.91034     4.46813
   27          C           0.402184        3.5978     1.18095     2.41687
   29          O          -0.311820        6.3118     1.83998     4.47184
   48          H           0.244180        0.7558     0.75582
    2          C           0.053564        3.9464     1.19504     2.75140
    1          N          -0.151106        5.1511     1.84804     3.30306
    2          C           0.053564        3.9464     1.19504     2.75140
    3          C          -0.146589        4.1466     1.14240     3.00419
    4          C           0.105228        3.8948     1.18546     2.70931
    5          C          -0.176061        4.1761     1.16232     3.01375
    6          C          -0.008946        4.0089     1.17542     2.83353
    7          C          -0.181185        4.1812     1.17302     3.00816
    8          C           0.157275        3.8427     1.15222     2.69050
    9          C          -0.111062        4.1111     1.15899     2.95207
   10          C           0.011613        3.9884     1.16773     2.82066
   11          C          -0.088065        4.0881     1.15800     2.93007
   12          C          -0.036996        4.0370     1.16955     2.86745
   13          C          -0.151874        4.1519     1.17865     2.97322
   14          C          -0.053930        4.0539     1.17704     2.87689
   15          C          -0.162713        4.1627     1.17206     2.99066
   16          C           0.121106        3.8789     1.15163     2.72727
   17          N          -0.249722        5.2497     1.47871     3.77101
   18          C           0.089266        3.9107     1.14116     2.76957
   19          C          -0.104839        4.1048     1.18038     2.92446
   20          C          -0.146814        4.1468     1.18015     2.96666
   21          C           0.085123        3.9149     1.15966     2.75522
   22          C          -0.107686        4.1077     1.17980     2.92789
   23          C          -0.112579        4.1126     1.18072     2.93185
   24          N          -0.313744        5.3137     1.64895     3.66479
   25          C          -0.044944        4.0449     1.14844     2.89650
   26          C          -0.040217        4.0402     1.14935     2.89087
   30          H           0.132127        0.8679     0.86787
   31          H           0.114797        0.8852     0.88520
   32          H           0.133603        0.8664     0.86640
   33          H           0.113415        0.8866     0.88658
   34          H           0.108997        0.8910     0.89100
   35          H           0.110499        0.8895     0.88950
   36          H           0.103873        0.8961     0.89613
   37          H           0.124824        0.8752     0.87518
   38          H           0.127815        0.8722     0.87219
   39          H           0.120549        0.8795     0.87945
   40          H           0.126501        0.8735     0.87350
   41          H           0.126628        0.8734     0.87337
   42          H           0.038402        0.9616     0.96160
   43          H           0.074702        0.9253     0.92530
   44          H           0.072109        0.9279     0.92789
   45          H           0.039886        0.9601     0.96011
   46          H           0.070060        0.9299     0.92994
   47          H           0.071040        0.9290     0.92896
 DIPOLE           X         Y         Z       TOTAL
 POINT-CHG.    -1.039    -4.939    -0.590     5.082
 HYBRID         0.214     0.709     0.451     0.867
 SUM           -0.825    -4.230    -0.139     4.312


          ATOMIC ORBITAL ELECTRON POPULATIONS

     Atom    s        px        py        pz   
    1  N   1.84804   1.11329   1.08826   1.10152
    2  C   1.19504   0.91165   0.91903   0.92072
    3  C   1.14240   0.88980   0.93485   1.17954
    4  C   1.18546   0.99583   0.91014   0.80334
    5  C   1.16232   1.02951   0.94274   1.04149
    6  C   1.17542   0.91907   0.96053   0.95393
    7  C   1.17302   1.04682   0.94105   1.02030
    8  C   1.15222   0.92754   0.81859   0.94436
    9  C   1.15899   1.00086   0.94596   1.00526
   10  C   1.16773   0.95963   0.90844   0.95258
   11  C   1.15800   0.99894   0.92753   1.00359
   12  C   1.16955   0.96350   0.95983   0.94412
   13  C   1.17865   1.00780   0.94668   1.01874
   14  C   1.17704   0.94316   0.98257   0.95117
   15  C   1.17206   1.02752   0.95385   1.00928
   16  C   1.15163   0.90888   0.93549   0.88290
   17  N   1.47871   1.31584   1.10952   1.34566
   18  C   1.14116   0.86015   0.93945   0.96997
   19  C   1.18038   0.91989   1.00692   0.99765
   20  C   1.18015   0.99635   0.97590   0.99442
   21  C   1.15966   0.91110   0.92780   0.91631
   22  C   1.17980   0.92177   1.00955   0.99656
   23  C   1.18072   0.99789   0.95837   0.97560
   24  N   1.64895   1.17726   1.10299   1.38454
   25  C   1.14844   0.92501   0.97804   0.99346
   26  C   1.14935   1.00508   0.90438   0.98141
   27  C   1.18095   0.84567   0.84939   0.72181
   28  O   1.91034   1.15616   1.85851   1.45346
   29  O   1.83998   1.42262   1.18449   1.86474
   30  H   0.86787
   31  H   0.88520
   32  H   0.86640
   33  H   0.88658
   34  H   0.89100
   35  H   0.88950
   36  H   0.89613
   37  H   0.87518
   38  H   0.87219
   39  H   0.87945
   40  H   0.87350
   41  H   0.87337
   42  H   0.96160
   43  H   0.92530
   44  H   0.92789
   45  H   0.96011
   46  H   0.92994
   47  H   0.92896
   48  H   0.75582
 ******************** TDHF POLARIZABILITIES ********************



          MOLECULAR WEIGHT =  381.43



          ROTATIONAL CONSTANTS IN CM(-1)

          A =    0.00819132   B =    0.00266514   C =    0.00207936



           PRINCIPAL MOMENTS OF INERTIA IN UNITS OF 10**(-40)*GRAM-CM**2

          A =     3417.3702   B =    10503.3071   C =    13462.1896


 ROTATION MATRIX FOR ORIENTATION OF MOLECULE:

         0.442849   -0.664853   -0.601544
         0.880230    0.449998    0.150655
         0.170530   -0.596214    0.784505


          CARTESIAN COORDINATES 

    NO.       ATOM         X         Y         Z

     1         N        3.7728    2.7317    1.5478
     2         C        4.2724    1.9649    0.8409
     3         C        4.9010    1.0207   -0.0098
     4         C        4.2280    0.0242   -0.6149
     5         C        2.7910   -0.1454   -0.5018
     6         C        1.9353    0.9568   -0.6519
     7         C        0.5625    0.8244   -0.5395
     8         C        0.0624   -0.4466   -0.2612
     9         C        0.9221   -1.5764   -0.1390
    10         C        2.2890   -1.4247   -0.2674
    11         C        0.0841   -2.7224    0.1090
    12         C        0.3609   -4.0650    0.3113
    13         C       -0.6999   -4.9277    0.5430
    14         C       -2.0181   -4.4605    0.5819
    15         C       -2.3238   -3.1229    0.3837
    16         C       -1.2594   -2.2614    0.1361
    17         N       -1.2641   -0.8694   -0.0955
    18         C       -2.4097   -0.0356   -0.1226
    19         C       -2.4428    1.1173    0.6616
    20         C       -3.5661    1.9332    0.6291
    21         C       -4.6524    1.6028   -0.1833
    22         C       -4.6097    0.4381   -0.9632
    23         C       -3.4923   -0.3791   -0.9379
    24         N       -5.8246    2.4250   -0.3385
    25         C       -5.6405    3.8442    0.0338
    26         C       -7.0020    1.8296    0.3402
    27         C        6.3534    1.1352   -0.1951
    28         O        7.0645    0.3875   -0.8517
    29         O        6.9064    2.1871    0.4416
    30         H        4.7624   -0.7216   -1.2230
    31         H        2.3537    1.9414   -0.8883
    32         H       -0.1011    1.6821   -0.6728
    33         H        2.9516   -2.2900   -0.1740
    34         H        1.3924   -4.4251    0.2889
    35         H       -0.5061   -5.9922    0.7026
    36         H       -2.8287   -5.1702    0.7765
    37         H       -3.3533   -2.7623    0.4322
    38         H       -1.6008    1.3773    1.3126
    39         H       -3.5743    2.8253    1.2623
    40         H       -5.4496    0.1772   -1.6167
    41         H       -3.4566   -1.2755   -1.5661
    42         H       -5.5783    4.0637    1.1168
    43         H       -4.7350    4.2574   -0.4428
    44         H       -6.4969    4.4217   -0.3573
    45         H       -6.9652    1.8428    1.4463
    46         H       -7.9126    2.3760    0.0389
    47         H       -7.1457    0.7786    0.0372
    48         H        7.8627    2.2196    0.2943


 ENERGY OF "REORIENTED" SYSTEM WITHOUT FIELD:       34.9766440610


  NFREQ=  3  IWFLB=  0  IBET=  1  IGAM=  1
  ATOL= 0.10000D-02  BTOL= 0.10000D-02    MAXITU=  500    MAXITA=  150


 *****************************************************************
 CALCULATION OF STATIC FIELD QUANTITIES
 *****************************************************************

 +++++ ALPHA AT       0.00000 EV.

                           COMPONENTS OF ALPHA

                     *X           *Y           *Z
           *=X:     394.9995       8.7072       0.3851
           *=Y:       8.7063     311.7195      18.7668
           *=Z:       0.3932      18.7694     102.3879

  ISOTROPIC AVERAGE ALPHA =     269.70232 A.U. =     39.96576 ANG.**3

 +++++ BETA (SECOND HARMONIC GENERATION) AT       0.00000 EV.

                              COMPONENTS OF BETA
            *XX         *XY         *YY         *XZ         *YZ         *ZZ
   *=X -3906.40234 -1260.57224  -192.22963   133.98616    70.08549    80.52677
   *=Y -1260.72109  -192.45082   841.81137    70.12485   -88.11431     1.01560
   *=Z   133.59680    69.96592   -87.91532    80.57033     0.99052   -38.83509


 AVERAGE BETAX(SHG) VALUE AT   0.00000 EV =      -2410.9342 a.u. = -0.208291E-28 ESU
 AVERAGE BETAY(SHG) VALUE AT   0.00000 EV =       -250.6870 a.u. = -0.216579E-29 ESU
 AVERAGE BETAZ(SHG) VALUE AT   0.00000 EV =          4.1840 a.u. =  0.361472E-31 ESU



 AVERAGE BETA (SHG) VALUE AT   0.00000 EV =       2423.9359 a.u. =  0.209414E-28 ESU
   (1 a.u. = 8.639418X10-33 esu)



 +++++ ALPHA AT       0.00000 EV.

                           COMPONENTS OF ALPHA

                     *X           *Y           *Z
           *=X:     394.9995       8.7072       0.3851
           *=Y:       8.7063     311.7195      18.7668
           *=Z:       0.3932      18.7694     102.3879

  ISOTROPIC AVERAGE ALPHA =     269.70232 A.U. =     39.96576 ANG.**3


 GAMMA (THIRD HARMONIC GENERATION) AT    0.00000 EV.


 GAMMA(X,X,X,X) =        698278.95383
 GAMMA(Y,Y,Y,Y) =         96867.85883
 GAMMA(Z,Z,Z,Z) =          3208.12944
 GAMMA(X,X,Y,Y) =        103574.89015
 GAMMA(X,X,Z,Z) =          1781.27648
 GAMMA(Y,Y,X,X) =        103574.70010
 GAMMA(Y,Y,Z,Z) =          5278.42776
 GAMMA(Z,Z,X,X) =          1780.98497
 GAMMA(Z,Z,Y,Y) =          5278.47759


 AVERAGE GAMMA VALUE AT    0.00000 =        203924.73983 a.u. =       102710.82632 ESU (X10-39)




 **********************************************************************
 CALCULATION FOR A FREQUENCY OF    0.25000 EV  =       0.00919 A.U. 
                  WAVELENGTH OF    4959.37 NM  =    2016.38525 CM(-1)
 **********************************************************************

 +++++ ALPHA AT       0.25000 EV.

                           COMPONENTS OF ALPHA

                     *X           *Y           *Z
           *=X:     396.2273       8.8455       0.4214
           *=Y:       8.8449     312.3928      18.7717
           *=Z:       0.4282      18.7739     102.5019

  ISOTROPIC AVERAGE ALPHA =     270.37402 A.U. =     40.06530 ANG.**3

 +++++ BETA (SECOND HARMONIC GENERATION) AT       0.25000 EV.

                              COMPONENTS OF BETA
            *XX         *XY         *YY         *XZ         *YZ         *ZZ
   *=X -4042.08248 -1308.21051  -197.34800   137.85373    69.95733    82.62644
   *=Y -1313.13492  -205.74229   859.72317    70.51135   -90.40517     0.95135
   *=Z   131.47705    68.40517   -89.43566    81.66598     0.91117   -38.81351


 AVERAGE BETAX(SHG) VALUE AT   0.25000 EV =      -2497.8243 a.u. = -0.215797E-28 ESU
 AVERAGE BETAY(SHG) VALUE AT   0.25000 EV =       -269.5225 a.u. = -0.232852E-29 ESU
 AVERAGE BETAZ(SHG) VALUE AT   0.25000 EV =          4.0996 a.u. =  0.354181E-31 ESU



 AVERAGE BETA (SHG) VALUE AT   0.25000 EV =       2512.3267 a.u. =  0.217050E-28 ESU
   (1 a.u. = 8.639418X10-33 esu)



 +++++ ALPHA AT       0.75000 EV.

                           COMPONENTS OF ALPHA

                     *X           *Y           *Z
           *=X:     406.5208      10.0192       0.7183
           *=Y:      10.0195     317.9539      18.8052
           *=Z:       0.7271      18.8079     103.4290

  ISOTROPIC AVERAGE ALPHA =     275.96791 A.U. =     40.89422 ANG.**3


 GAMMA (THIRD HARMONIC GENERATION) AT    0.25000 EV.


 GAMMA(X,X,X,X) =        762298.26045
 GAMMA(Y,Y,Y,Y) =        102408.30918
 GAMMA(Z,Z,Z,Z) =          3291.39403
 GAMMA(X,X,Y,Y) =        111940.19837
 GAMMA(X,X,Z,Z) =          1723.46576
 GAMMA(Y,Y,X,X) =        112735.79968
 GAMMA(Y,Y,Z,Z) =          5480.07481
 GAMMA(Z,Z,X,X) =          1820.21879
 GAMMA(Z,Z,Y,Y) =          5474.45072


 AVERAGE GAMMA VALUE AT    0.25000 =        221434.43436 a.u. =       111529.93868 ESU (X10-39)




 **********************************************************************
 CALCULATION FOR A FREQUENCY OF    0.50000 EV  =       0.01837 A.U. 
                  WAVELENGTH OF    2479.68 NM  =    4032.77050 CM(-1)
 **********************************************************************

 +++++ ALPHA AT       0.50000 EV.

                           COMPONENTS OF ALPHA

                     *X           *Y           *Z
           *=X:     399.9847       9.2717       0.5290
           *=Y:       9.2714     314.4385      18.7844
           *=Z:       0.5362      18.7865     102.8458

  ISOTROPIC AVERAGE ALPHA =     272.42301 A.U. =     40.36892 ANG.**3

 +++++ BETA (SECOND HARMONIC GENERATION) AT       0.50000 EV.

                              COMPONENTS OF BETA
            *XX         *XY         *YY         *XZ         *YZ         *ZZ
   *=X -4501.33394 -1470.65510  -213.55589   151.11726    69.06943    89.66498
   *=Y -1491.13417  -251.64539   917.93948    71.71657   -98.10135     0.74937
   *=Z   122.67519    62.51460   -94.16653    85.16165     0.61323   -38.68123


 AVERAGE BETAX(SHG) VALUE AT   0.50000 EV =      -2792.1720 a.u. = -0.241227E-28 ESU
 AVERAGE BETAY(SHG) VALUE AT   0.50000 EV =       -335.3300 a.u. = -0.289706E-29 ESU
 AVERAGE BETAZ(SHG) VALUE AT   0.50000 EV =          3.6994 a.u. =  0.319603E-31 ESU



 AVERAGE BETA (SHG) VALUE AT   0.50000 EV =       2812.2384 a.u. =  0.242961E-28 ESU
   (1 a.u. = 8.639418X10-33 esu)



 +++++ ALPHA AT       1.50000 EV.

                           COMPONENTS OF ALPHA

                     *X           *Y           *Z
           *=X:     449.6238      15.0792       2.0802
           *=Y:      15.0831     339.6738      18.9377
           *=Z:       2.0921      18.9405     106.8341

  ISOTROPIC AVERAGE ALPHA =     298.71056 A.U. =     44.26434 ANG.**3


 GAMMA (THIRD HARMONIC GENERATION) AT    0.50000 EV.


 GAMMA(X,X,X,X) =       1025093.85961
 GAMMA(Y,Y,Y,Y) =        122560.58527
 GAMMA(Z,Z,Z,Z) =          3574.10422
 GAMMA(X,X,Y,Y) =        145292.96741
 GAMMA(X,X,Z,Z) =          1363.92692
 GAMMA(Y,Y,X,X) =        149526.21640
 GAMMA(Y,Y,Z,Z) =          6157.00735
 GAMMA(Z,Z,X,X) =          1942.67552
 GAMMA(Z,Z,Y,Y) =          6169.70790


 AVERAGE GAMMA VALUE AT    0.50000 =        292336.21012 a.u. =       147241.05437 ESU (X10-39)



 **********************
 *                    *
 * JOB ENDED NORMALLY *
 *                    *
 **********************



 TOTAL JOB TIME:            27.97 SECONDS

 == MOPAC DONE ==
