 *******************************************************************************
 ** Site#: 4824         For non-commercial use only    Version 21.013L 64BITS **
 *******************************************************************************
 ** Cite this program as: MOPAC2016, Version: 21.013L, James J. P. Stewart,   **
 ** Stewart Computational Chemistry, web: HTTP://OpenMOPAC.net. Days left:  88**
 *******************************************************************************
 **                                                                           **
 **                                MOPAC2016                                  **
 **                                                                           **
 *******************************************************************************

                              RM1 CALCULATION RESULTS

 *******************************************************************************
 *  CALCULATION DONE:                                Sun Oct 17 19:52:23 2021  *
 *  RM1        - The RM1 Hamiltonian to be used
 *  POLAR      - CALCULATE FIRST, SECOND AND THIRD-ORDER POLARIZABILITIES
 *  PRECISE    - TIGHTER CRITERIA TO BE USED
 *  T=         - A TIME OF 172800.0 SECONDS REQUESTED
 *  DUMP=N     - RESTART FILE WRITTEN EVERY 7200.0 SECONDS REQUESTED
 *  GNORM      - EXIT WHEN GRADIENT NORM DROPS BELOW 0.100
 *******************************************************************************
RM1 PRECISE POLAR GNORM=0.1


  ATOM    CHEMICAL      BOND LENGTH      BOND ANGLE     TWIST ANGLE 
 NUMBER    SYMBOL       (ANGSTROMS)      (DEGREES)       (DEGREES) 
   (I)                     NA:I           NB:NA:I       NC:NB:NA:I       NA    NB    NC 
     1       C          0.00000000       0.0000000       0.0000000        0     0     0
     2       C          1.54750000  *    0.0000000       0.0000000        1     0     0
     3       C          1.55130000  *  111.4942000  *    0.0000000        2     1     0
     4       C          1.55180000  *  111.2714000  *  179.9670000  *     3     2     1
     5       C          1.55150000  *  111.1333000  * -179.1950000  *     4     3     2
     6       C          1.55230000  *  111.4096000  *  179.7710000  *     5     4     3
     7       C          1.55310000  *  112.9315000  *  179.6499000  *     6     5     4
     8       C          1.54950000  *  112.8870000  *   70.2850000  *     7     6     5
     9       O          1.39760000  *  109.3959000  *  176.3374000  *     8     7     6
    10       C          1.36040000  *  125.7649000  * -159.4299000  *     9     8     7
    11       C          1.34820000  *  123.2320000  *  -22.4391000  *    10     9     8
    12       C          1.46950000  *  120.3820000  *  175.9801000  *    11    10     9
    13       C          1.34650000  *  120.1505000  *    0.0436000  *    12    11    10
    14       C          1.47320000  *  119.5973000  *    2.4549000  *    13    12    11
    15       C          1.34430000  *  120.0535000  *   -2.0501000  *    14    13    12
    16       C          1.46730000  *  120.4274000  * -173.6585000  *    13    12    11
    17       C          1.35030000  *  121.4096000  *   92.5202000  *    16    13    12
    18       C          1.46800000  *  130.8379000  *    1.4148000  *    17    16    13
    19       C          1.34380000  *  132.3582000  *   -1.7543000  *    18    17    16
    20       C          1.47290000  *  118.6552000  *  179.5310000  *    19    18    17
    21       C          1.34700000  *  120.5718000  *    0.1737000  *    20    19    18
    22       C          1.47200000  *  120.4295000  *    0.3956000  *    21    20    19
    23       C          1.34430000  *  118.6986000  *   -0.2598000  *    22    21    20
    24       N          1.42340000  *  129.1032000  *  179.3009000  *    23    22    21
    25       C          1.43700000  *  107.7455000  *  179.9893000  *    24    23    22
    26       C          1.35000000  *  130.6927000  * -179.5752000  *    25    24    23
    27       C          1.47530000  *  116.9226000  *  178.9325000  *    26    25    24
    28       C          1.34960000  *  122.7945000  *   -0.9861000  *    27    26    25
    29       N          1.43160000  *  108.9450000  * -179.0554000  *    28    27    26
    30       C          1.45590000  *  127.7584000  *  157.4915000  *    29    28    27
    31       C          1.55220000  *  110.2881000  *  117.5080000  *    30    29    28
    32       C          1.55270000  *  112.2369000  *  163.8314000  *    31    30    29
    33       C          1.55270000  *  114.2660000  *   81.0817000  *    32    31    30
    34       C          1.55270000  *  112.0156000  *   79.2855000  *    33    32    31
    35       C          1.55120000  *  111.4163000  *  168.0091000  *    34    33    32
    36       C          1.55140000  *  111.1346000  * -175.0045000  *    35    34    33
    37       C          1.54690000  *  111.4022000  *  177.0765000  *    36    35    34
    38       C          1.42060000  *  106.1469000  *    0.5518000  *    29    28    27
    39       C          1.33980000  *  109.6546000  *   -0.5600000  *    38    29    28
    40       C          1.46340000  *  120.7647000  *  179.2357000  *    39    38    29
    41       C          1.34940000  *  119.5671000  *   -0.4047000  *    40    39    38
    42       C          1.48250000  *  119.2701000  *    0.1894000  *    41    40    39
    43       C          1.34690000  *  120.9706000  *    0.0000000  *    42    41    40
    44       C          1.47020000  *  120.5681000  *  179.3471000  *    41    40    39
    45       C          1.35000000  *  127.5979000  *   21.8804000  *    44    41    40
    46       C          1.48560000  *  116.0376000  * -179.0281000  *    45    44    41
    47       C          1.34910000  *  116.2087000  *   -0.7927000  *    46    45    44
    48       S          1.82090000  *  125.7086000  * -157.3648000  *    44    41    40
    49       C          1.46890000  *  124.3593000  *  177.7490000  *    47    46    45
    50       C          1.34950000  *  126.1521000  *  166.7180000  *    49    47    46
    51       C          1.47630000  *  120.4310000  *  179.7350000  *    50    49    47
    52       O          1.23220000  *  121.2226000  *   -0.9061000  *    51    50    49
    53       O          1.35560000  *  119.9041000  *  179.8321000  *    51    50    49
    54       C          1.42890000  *  122.5475000  *   -1.2826000  *    50    49    47
    55       N          1.15830000  *  179.1514000  *  179.8884000  *    54    50    49
    56       C          1.46670000  *  123.9068000  *    0.2082000  *    26    25    24
    57       C          1.47340000  *  119.7434000  *  -95.3336000  *    56    26    25
    58       C          1.34420000  *  120.0753000  * -173.1968000  *    57    56    26
    59       C          1.47220000  *  120.4786000  *    0.1648000  *    58    57    56
    60       C          1.34830000  *  119.2423000  *   -1.0816000  *    59    58    57
    61       C          1.34650000  *  120.3751000  *   91.0415000  *    56    26    25
    62       O          1.35980000  *  117.1954000  *  178.4635000  *    59    58    57
    63       C          1.39610000  *  126.5800000  *    3.3261000  *    62    59    60
    64       C          1.54790000  *  109.1150000  *  179.0722000  *    63    62    59
    65       C          1.55090000  *  111.2025000  *  175.4757000  *    64    63    62
    66       C          1.55130000  *  111.3631000  * -177.7891000  *    65    64    63
    67       C          1.55170000  *  111.1967000  *  179.5759000  *    66    65    64
    68       C          1.55170000  *  111.2625000  * -178.8120000  *    67    66    65
    69       C          1.55150000  *  111.3597000  * -179.3042000  *    68    67    66
    70       C          1.54750000  *  111.4430000  * -179.7085000  *    69    68    67
    71       C          1.45840000  *  122.2821000  *  -14.9410000  *    24    23    22
    72       C          1.55210000  *  110.4893000  *   90.8982000  *    71    24    23
    73       C          1.55280000  *  112.7314000  * -175.2733000  *    72    71    24
    74       C          1.55180000  *  112.8335000  *  -75.8246000  *    73    72    71
    75       C          1.55140000  *  111.3883000  *  178.3314000  *    74    73    72
    76       C          1.55170000  *  111.2807000  *  174.9946000  *    75    74    73
    77       C          1.55120000  *  111.3091000  *  177.1796000  *    76    75    74
    78       C          1.54740000  *  111.5733000  *  177.4282000  *    77    76    75
    79       H          1.05420000  *  116.1203000  *  -12.7778000  *    49    47    46
    80       H          1.09100000  *  110.0380000  *  -60.2837000  *     1     2     3
    81       H          1.09110000  *  110.0680000  *   60.2233000  *     1     2     3
    82       H          1.09120000  *  109.4801000  *  179.9843000  *     1     2     3
    83       H          1.09240000  *  108.8215000  *   60.4715000  *     2     1    80
    84       H          1.09230000  *  108.8736000  *  178.8611000  *     2     1    80
    85       H          1.09260000  *  109.2028000  * -179.8329000  *     3     2    83
    86       H          1.09260000  *  109.1374000  *  179.9274000  *     3     2    84
    87       H          1.09250000  *  109.1817000  * -179.3509000  *     4     3    85
    88       H          1.09240000  *  109.2298000  * -179.2731000  *     4     3    86
    89       H          1.09200000  *  109.0046000  *  179.6841000  *     5     4    87
    90       H          1.09150000  *  108.7426000  *  179.4367000  *     5     4    88
    91       H          1.09240000  *  109.5965000  * -178.7014000  *     6     5    89
    92       H          1.09330000  *  108.5642000  * -179.8417000  *     6     5    90
    93       H          1.09330000  *  108.1908000  *   67.9252000  *     7     6    91
    94       H          1.09200000  *  109.5867000  * -174.3128000  *     7     6    91
    95       H          1.08920000  *  110.0570000  *  176.4042000  *     8     7    93
    96       H          1.09210000  *  109.1316000  *  178.5232000  *     8     7    94
    97       H          1.05060000  *  120.6478000  *   -1.5082000  *    11    10     9
    98       H          1.05150000  *  119.4309000  * -176.0854000  *    12    11    10
    99       H          1.05130000  *  120.0447000  *  178.0447000  *    14    13    12
   100       H          1.05110000  *  119.7783000  * -179.7720000  *    15    14    13
   101       H          1.04600000  *  122.1212000  *  179.2754000  *    19    18    23
   102       H          1.05110000  *  119.5879000  * -179.5946000  *    20    19    18
   103       H          1.05100000  *  119.9140000  * -179.8568000  *    21    20    19
   104       H          1.04960000  *  119.9124000  *  179.5232000  *    22    21    20
   105       H          1.09280000  *  108.4237000  *   30.9087000  *    30    29    38
   106       H          1.08610000  *  111.3256000  *  148.8428000  *    30    29    38
   107       H          1.09070000  *  109.8447000  *  168.0183000  *    31    30   105
   108       H          1.09280000  *  108.6005000  *  168.1529000  *    31    30   106
   109       H          1.09320000  *  108.6171000  *   79.7836000  *    32    31   107
   110       H          1.09300000  *  108.9236000  * -163.5848000  *    32    31   107
   111       H          1.09330000  *  107.6287000  *   76.9039000  *    33    32   109
   112       H          1.09150000  *  110.2904000  *   78.2868000  *    33    32   110
   113       H          1.09130000  *  109.6249000  *  170.6423000  *    34    33   111
   114       H          1.09280000  *  109.0151000  *  171.2539000  *    34    33   112
   115       H          1.09250000  *  109.1255000  * -176.3782000  *    35    34   113
   116       H          1.09170000  *  109.3596000  *  -57.5440000  *    35    34   113
   117       H          1.09140000  *  109.5259000  *  177.7718000  *    36    35   115
   118       H          1.09250000  *  109.4722000  *  177.9378000  *    36    35   116
   119       H          1.09120000  *  109.5106000  *   55.9296000  *    37    36   117
   120       H          1.09100000  *  109.9733000  *  175.6537000  *    37    36   117
   121       H          1.09020000  *  110.0960000  *  -64.0099000  *    37    36   117
   122       H          1.04460000  *  120.4286000  *  178.5890000  *    40    39    38
   123       H          1.05120000  *  119.9622000  * -179.5192000  *    42    41    40
   124       H          1.04990000  *  120.2833000  * -179.6657000  *    43    42    41
   125       H          1.04860000  *  122.8847000  *    0.9926000  *    45    44    41
   126       H          1.04960000  *  121.4183000  *  178.5744000  *    46    45    44
   127       H          0.94080000  *  121.0804000  *    0.1874000  *    53    51    52
   128       H          1.05130000  *  120.0410000  * -179.9419000  *    57    56    61
   129       H          1.05120000  *  119.7632000  *  179.7641000  *    58    57    56
   130       H          1.05040000  *  120.7973000  *    0.2458000  *    60    59    62
   131       H          1.05160000  *  120.3017000  *   -3.4996000  *    61    56    26
   132       H          1.09150000  *  109.5623000  *  -61.0285000  *    63    62    59
   133       H          1.09180000  *  109.7723000  *   59.1663000  *    63    62    59
   134       H          1.09240000  *  109.0570000  *  176.4078000  *    64    63   132
   135       H          1.09170000  *  108.9441000  *  -65.0589000  *    64    63   132
   136       H          1.09260000  *  109.1207000  * -177.9585000  *    65    64   134
   137       H          1.09260000  *  109.1438000  * -178.1799000  *    65    64   135
   138       H          1.09240000  *  109.2234000  *  179.7122000  *    66    65   136
   139       H          1.09250000  *  109.1708000  *  179.7507000  *    66    65   137
   140       H          1.09250000  *  109.1948000  * -178.9163000  *    67    66   138
   141       H          1.09260000  *  109.1511000  *  -60.0471000  *    67    66   138
   142       H          1.09250000  *  109.1809000  * -179.2521000  *    68    67   140
   143       H          1.09260000  *  109.1234000  *  -60.4171000  *    68    67   140
   144       H          1.09230000  *  109.4802000  * -179.8788000  *    69    68   142
   145       H          1.09240000  *  109.4448000  *  -60.7767000  *    69    68   142
   146       H          1.09110000  *  110.0416000  *  179.1330000  *    70    69   144
   147       H          1.09100000  *  110.0471000  *  -60.3765000  *    70    69   144
   148       H          1.09110000  *  109.5012000  *   59.3700000  *    70    69   144
   149       H          1.08530000  *  110.8516000  * -146.5145000  *    71    24    23
   150       H          1.09260000  *  109.0893000  *  -28.9608000  *    71    24    23
   151       H          1.09290000  *  108.5133000  * -178.6512000  *    72    71   149
   152       H          1.09100000  *  109.8668000  *  -60.8189000  *    72    71   149
   153       H          1.09230000  *  109.3772000  *  -73.2248000  *    73    72   151
   154       H          1.09330000  *  108.1237000  *  -72.9541000  *    73    72   152
   155       H          1.09200000  *  108.8360000  *  176.4403000  *    74    73   153
   156       H          1.09120000  *  109.6725000  *  -64.3515000  *    74    73   153
   157       H          1.09240000  *  109.0396000  *  175.5234000  *    75    74   155
   158       H          1.09260000  *  109.3078000  *  175.5584000  *    75    74   156
   159       H          1.09190000  *  108.9265000  *  176.9381000  *    76    75   157
   160       H          1.09250000  *  109.3728000  *  -64.1318000  *    76    75   157
   161       H          1.09230000  *  109.3803000  *  177.7368000  *    77    76   159
   162       H          1.09230000  *  109.4601000  *  -63.1975000  *    77    76   159
   163       H          1.09080000  *  110.0727000  *  -61.4292000  *    78    77   161
   164       H          1.09100000  *  109.4781000  *  -60.0379000  *    78    77   162
   165       H          1.09100000  *  110.0058000  *   59.6299000  *    78    77   162
 


          CARTESIAN COORDINATES 

    NO.       ATOM           X           Y           Z

     1         C          0.0000      0.0000      0.0000
     2         C          1.5475      0.0000      0.0000
     3         C          2.1159      1.4434      0.0000
     4         C          3.6677      1.4374      0.0008
     5         C          4.2327      2.8822      0.0212
     6         C          5.7850      2.8836      0.0279
     7         C          6.3888      4.3144      0.0395
     8         C          6.1736      5.0484      1.3870
     9         O          6.8144      6.2898      1.3468
    10         C          7.1832      7.0296      2.4273
    11         C          6.6155      6.8959      3.6429
    12         C          7.1217      7.6650      4.7882
    13         C          8.1576      8.5106      4.6303
    14         C          8.7444      8.7005      3.2924
    15         C          8.2735      8.0013      2.2452
    16         C          8.7573      9.1762      5.7923
    17         C          9.8131      8.6414      6.4423
    18         C         10.5792      7.4161      6.1839
    19         C         10.4546      6.4483      5.2600
    20         C         11.4175      5.3338      5.2703
    21         C         12.4001      5.2858      6.1904
    22         C         12.5220      6.3435      7.2069
    23         C         11.6383      7.3565      7.1935
    24         N         11.5418      8.4752      8.0683
    25         C         10.4284      9.2743      7.6362
    26         C          9.9319     10.4303      8.1259
    27         C          8.7730     11.0111      7.4215
    28         C          8.2263     10.4465      6.3244
    29         N          7.1401     11.2629      5.8737
    30         C          6.5626     11.3208      4.5385
    31         C          5.0765     10.8740      4.5751
    32         C          4.3065     11.2888      3.2922
    33         C          4.5223     10.3388      2.0831
    34         C          3.6585      9.0532      2.1917
    35         C          3.6504      8.2619      0.8575
    36         C          2.6877      7.0477      0.9331
    37         C          2.6195      6.2965     -0.4175
    38         C          7.0777     12.3657      6.7671
    39         C          8.0307     12.2437      7.7009
    40         C          8.1956     13.2614      8.7395
    41         C          7.3833     14.3387      8.7510
    42         C          6.3348     14.4672      7.7108
    43         C          6.1839     13.5263      6.7589
    44         C          7.5202     15.3673      9.7926
    45         C          8.6047     15.6311     10.5521
    46         C          8.4526     16.7214     11.5497
    47         C          7.2543     17.3405     11.5776
    48         S          6.2201     16.5300     10.3156
    49         C          6.8939     18.4069     12.5213
    50         C          5.8202     19.2196     12.4322
    51         C          5.5752     20.2504     13.4602
    52         O          6.3297     20.3818     14.4255
    53         O          4.4952     21.0633     13.3583
    54         C          4.8891     19.1473     11.3507
    55         N          4.1253     19.1016     10.4812
    56         C         10.4926     11.1366      9.2826
    57         C          9.9206     10.9148     10.6222
    58         C         10.3355     11.6572     11.6632
    59         C         11.3595     12.6984     11.4767
    60         C         11.8936     12.8853     10.2529
    61         C         11.4386     12.0794      9.1116
    62         O         11.7066     13.4312     12.5683
    63         C         12.5938     14.5087     12.5993
    64         C         12.6732     15.0585     14.0441
    65         C         13.7318     16.1862     14.1576
    66         C         13.8538     16.7021     15.6156
    67         C         14.9213     17.8227     15.7267
    68         C         15.0657     18.3192     17.1898
    69         C         16.1202     19.4519     17.3007
    70         C         16.2709     19.9435     18.7602
    71         C         12.2394      8.5258      9.3480
    72         C         13.6398      9.1732      9.1782
    73         C         14.4754      9.1475     10.4867
    74         C         14.0101     10.2083     11.5193
    75         C         14.8391     10.1257     12.8280
    76         C         14.4576     11.2657     13.8092
    77         C         15.2351     11.1427     15.1458
    78         C         14.9073     12.3123     16.1045
    79         H          7.5474     18.5453     13.3368
    80         H         -0.3738      0.5081      0.8902
    81         H         -0.3744      0.5090     -0.8895
    82         H         -0.3639     -1.0287     -0.0003
    83         H          1.8999     -0.5288      0.8886
    84         H          1.9008     -0.5301     -0.8873
    85         H          1.7591      1.9701     -0.8883
    86         H          1.7584      1.9692      0.8886
    87         H          4.0241      0.9006      0.8831
    88         H          4.0260      0.9232     -0.8939
    89         H          3.8796      3.4146     -0.8645
    90         H          3.8618      3.3913      0.9126
    91         H          6.1481      2.3329      0.8987
    92         H          6.1374      2.3728     -0.8723
    93         H          7.4643      4.2325     -0.1394
    94         H          5.9523      4.9026     -0.7705
    95         H          5.1098      5.2021      1.5630
    96         H          6.5891      4.4425      2.1950
    97         H          5.8317      6.2132      3.7958
    98         H          6.7090      7.5037      5.7418
    99         H          9.5331      9.3820      3.1555
   100         H          8.6978      8.1376      1.2933
   101         H          9.6994      6.4640      4.5364
   102         H         11.3376      4.5722      4.5503
   103         H         13.0830      4.4869      6.1868
   104         H         13.2862      6.2942      7.9246
   105         H          6.6221     12.3517      4.1808
   106         H          7.1189     10.7021      3.8404
   107         H          5.0179      9.7950      4.7233
   108         H          4.5880     11.3576      5.4246
   109         H          3.2387     11.3281      3.5234
   110         H          4.6150     12.2970      3.0040
   111         H          4.2271     10.8799      1.1801
   112         H          5.5771     10.0729      1.9943
   113         H          4.0465      8.4171      2.9890
   114         H          2.6309      9.3341      2.4355
   115         H          3.3224      8.9225      0.0515
   116         H          4.6615      7.9145      0.6366
   117         H          3.0282      6.3600      1.7092
   118         H          1.6840      7.3941      1.1903
   119         H          1.9771      5.4204     -0.3151
   120         H          2.2073      6.9506     -1.1873
   121         H          3.6167      5.9743     -0.7177
   122         H          8.9260     13.1501      9.4779
   123         H          5.7009     15.3057      7.7050
   124         H          5.4412     13.6307      6.0243
   125         H          9.5080     15.1074     10.4562
   126         H          9.2349     16.9818     12.1991
   127         H          4.3192     21.7208     14.0078
   128         H          9.1823     10.1800     10.7642
   129         H          9.9214     11.4973     12.6161
   130         H         12.6230     13.6237     10.0915
   131         H         11.8224     12.2783      8.1530
   132         H         13.5835     14.1765     12.2805
   133         H         12.2419     15.2962     11.9300
   134         H         11.6938     15.4473     14.3321
   135         H         12.9391     14.2431     14.7195
   136         H         14.7015     15.8008     13.8336
   137         H         13.4451     17.0140     13.5046
   138         H         12.8870     17.0929     15.9409
   139         H         14.1363     15.8721     16.2674
   140         H         15.8840     17.4371     15.3831
   141         H         14.6291     18.6607     15.0894
   142         H         14.1003     18.6928     17.5389
   143         H         15.3702     17.4827     17.8232
   144         H         17.0875     19.0846     16.9507
   145         H         15.8168     20.2938     16.6742
   146         H         15.3179     20.3296     19.1251
   147         H         16.5955     19.1216     19.4001
   148         H         17.0155     20.7400     18.8012
   149         H         11.6584      9.0730     10.0834
   150         H         12.3606      7.5091      9.7293
   151         H         14.1898      8.6155      8.4160
   152         H         13.5330     10.2019      8.8309
   153         H         14.4217      8.1513     10.9315
   154         H         15.5180      9.3514     10.2284
   155         H         14.1296     11.2019     11.0822
   156         H         12.9577     10.0496     11.7601
   157         H         14.6559      9.1604     13.3055
   158         H         15.9021     10.2044     12.5879
   159         H         14.6945     12.2257     13.3460
   160         H         13.3849     11.2255     14.0120
   161         H         14.9711     10.2016     15.6335
   162         H         16.3086     11.1445     14.9439
   163         H         13.8389     12.3282     16.3240
   164         H         15.4589     12.1839     17.0370
   165         H         15.1974     13.2604     15.6493

  H: (RM1): G.B. ROCHA, R.O. FREIRE, A.M.SIMAS, J.J.P. STEWART, J. COMP. CHEM. 27, 1101 (2006)
  C: (RM1): G.B. ROCHA, R.O. FREIRE, A.M.SIMAS, J.J.P. STEWART, J. COMP. CHEM. 27, 1101 (2006)
  N: (RM1): G.B. ROCHA, R.O. FREIRE, A.M.SIMAS, J.J.P. STEWART, J. COMP. CHEM. 27, 1101 (2006)
  O: (RM1): G.B. ROCHA, R.O. FREIRE, A.M.SIMAS, J.J.P. STEWART, J. COMP. CHEM. 27, 1101 (2006)
  S: (RM1): G.B. ROCHA, R.O. FREIRE, A.M.SIMAS, J.J.P. STEWART, J. COMP. CHEM. 27, 1101 (2006)

           Empirical Formula: C70 H87 N3 O4 S  =   165 atoms



      MOLECULAR POINT GROUP   :   C1  


      RHF CALCULATION, NO. OF DOUBLY OCCUPIED LEVELS = 206


          Geometry optimization using L-BFGS
 CYCLE:     1 TIME:   1.055 TIME LEFT:  2.00D  GRAD.:   832.510 HEAT:  1.564302
 CYCLE:     2 TIME:   0.711 TIME LEFT:  2.00D  GRAD.:   583.968 HEAT: -2.454649
 CYCLE:     3 TIME:   0.555 TIME LEFT:  2.00D  GRAD.:   597.865 HEAT: -5.395051
 CYCLE:     4 TIME:   0.633 TIME LEFT:  2.00D  GRAD.:   583.812 HEAT: -2.454527
 CYCLE:     5 TIME:   0.555 TIME LEFT:  2.00D  GRAD.:   600.104 HEAT: -5.400057
 CYCLE:     6 TIME:   0.680 TIME LEFT:  2.00D  GRAD.:   528.567 HEAT: -19.09023
 CYCLE:     7 TIME:   0.586 TIME LEFT:  2.00D  GRAD.:   561.523 HEAT: -28.93881
 CYCLE:     8 TIME:   0.625 TIME LEFT:  2.00D  GRAD.:   476.261 HEAT: -65.39733
 CYCLE:     9 TIME:   0.695 TIME LEFT:  2.00D  GRAD.:  1575.732 HEAT: -49.47733
 CYCLE:    10 TIME:   0.617 TIME LEFT:  2.00D  GRAD.:   361.442 HEAT: -77.46902
 CYCLE:    11 TIME:   0.602 TIME LEFT:  2.00D  GRAD.:   167.339 HEAT: -79.03519
 CYCLE:    12 TIME:   0.578 TIME LEFT:  2.00D  GRAD.:   186.792 HEAT: -80.64391
 CYCLE:    13 TIME:   0.578 TIME LEFT:  2.00D  GRAD.:   180.423 HEAT: -81.92323
 CYCLE:    14 TIME:   0.680 TIME LEFT:  2.00D  GRAD.:   211.509 HEAT: -85.67171
 CYCLE:    15 TIME:   0.617 TIME LEFT:  2.00D  GRAD.:   143.636 HEAT: -87.82458
 CYCLE:    16 TIME:   0.562 TIME LEFT:  2.00D  GRAD.:   115.154 HEAT: -88.87777
 CYCLE:    17 TIME:   0.602 TIME LEFT:  2.00D  GRAD.:   176.406 HEAT: -89.95125
 CYCLE:    18 TIME:   0.586 TIME LEFT:  2.00D  GRAD.:   206.003 HEAT: -90.74170
 CYCLE:    19 TIME:   0.578 TIME LEFT:  2.00D  GRAD.:   126.873 HEAT: -91.34718
 CYCLE:    20 TIME:   0.617 TIME LEFT:  2.00D  GRAD.:    83.500 HEAT: -91.96750
 CYCLE:    21 TIME:   0.570 TIME LEFT:  2.00D  GRAD.:    89.385 HEAT: -92.35736
 CYCLE:    22 TIME:   0.586 TIME LEFT:  2.00D  GRAD.:    96.651 HEAT: -93.31234
 CYCLE:    23 TIME:   0.602 TIME LEFT:  2.00D  GRAD.:   111.265 HEAT: -94.11709
 CYCLE:    24 TIME:   0.742 TIME LEFT:  2.00D  GRAD.:   108.820 HEAT: -94.39481
 CYCLE:    25 TIME:   0.594 TIME LEFT:  2.00D  GRAD.:    49.995 HEAT: -94.75564
 CYCLE:    26 TIME:   0.594 TIME LEFT:  2.00D  GRAD.:    52.089 HEAT: -94.85802
 CYCLE:    27 TIME:   0.656 TIME LEFT:  2.00D  GRAD.:    44.601 HEAT: -94.95897
 CYCLE:    28 TIME:   0.625 TIME LEFT:  2.00D  GRAD.:    34.748 HEAT: -95.27811
 CYCLE:    29 TIME:   0.625 TIME LEFT:  2.00D  GRAD.:   272.239 HEAT: -94.62933
 CYCLE:    30 TIME:   0.570 TIME LEFT:  2.00D  GRAD.:    34.457 HEAT: -95.42011
 CYCLE:    31 TIME:   0.531 TIME LEFT:  2.00D  GRAD.:    31.513 HEAT: -95.45700
 CYCLE:    32 TIME:   0.570 TIME LEFT:  2.00D  GRAD.:   114.808 HEAT: -95.51951
 CYCLE:    33 TIME:   0.578 TIME LEFT:  2.00D  GRAD.:    34.495 HEAT: -95.59775
 CYCLE:    34 TIME:   0.547 TIME LEFT:  2.00D  GRAD.:    28.952 HEAT: -95.61626
 CYCLE:    35 TIME:   0.578 TIME LEFT:  2.00D  GRAD.:    23.709 HEAT: -95.67112
 CYCLE:    36 TIME:   0.531 TIME LEFT:  2.00D  GRAD.:    24.482 HEAT: -95.74786
 CYCLE:    37 TIME:   0.570 TIME LEFT:  2.00D  GRAD.:    56.456 HEAT: -95.86857
 CYCLE:    38 TIME:   0.602 TIME LEFT:  2.00D  GRAD.:    26.067 HEAT: -95.93066
 CYCLE:    39 TIME:   0.586 TIME LEFT:  2.00D  GRAD.:    13.369 HEAT: -95.95063
 CYCLE:    40 TIME:   0.633 TIME LEFT:  2.00D  GRAD.:    16.400 HEAT: -95.96912
 CYCLE:    41 TIME:   0.539 TIME LEFT:  2.00D  GRAD.:    35.438 HEAT: -95.99521
 CYCLE:    42 TIME:   0.539 TIME LEFT:  2.00D  GRAD.:    22.400 HEAT: -96.02628
 CYCLE:    43 TIME:   0.633 TIME LEFT:  2.00D  GRAD.:    18.561 HEAT: -96.05202
 CYCLE:    44 TIME:   0.555 TIME LEFT:  2.00D  GRAD.:    53.101 HEAT: -96.06677
 CYCLE:    45 TIME:   0.547 TIME LEFT:  2.00D  GRAD.:    22.426 HEAT: -96.09381
 CYCLE:    46 TIME:   0.492 TIME LEFT:  2.00D  GRAD.:    16.694 HEAT: -96.11194
 CYCLE:    47 TIME:   0.578 TIME LEFT:  2.00D  GRAD.:    17.060 HEAT: -96.13209
 CYCLE:    48 TIME:   0.656 TIME LEFT:  2.00D  GRAD.:    97.448 HEAT: -96.12113
 CYCLE:    49 TIME:   0.594 TIME LEFT:  2.00D  GRAD.:    20.887 HEAT: -96.14823
 CYCLE:    50 TIME:   0.539 TIME LEFT:  2.00D  GRAD.:    15.593 HEAT: -96.15870
 CYCLE:    51 TIME:   0.602 TIME LEFT:  2.00D  GRAD.:    13.415 HEAT: -96.16738
 CYCLE:    52 TIME:   0.633 TIME LEFT:  2.00D  GRAD.:    18.788 HEAT: -96.19644
 CYCLE:    53 TIME:   0.586 TIME LEFT:  2.00D  GRAD.:    16.661 HEAT: -96.21509
 CYCLE:    54 TIME:   0.570 TIME LEFT:  2.00D  GRAD.:    22.863 HEAT: -96.26326
 CYCLE:    55 TIME:   0.586 TIME LEFT:  2.00D  GRAD.:    90.339 HEAT: -96.20595
 CYCLE:    56 TIME:   0.562 TIME LEFT:  2.00D  GRAD.:    16.456 HEAT: -96.29770
 CYCLE:    57 TIME:   0.531 TIME LEFT:  2.00D  GRAD.:    12.934 HEAT: -96.30764
 CYCLE:    58 TIME:   0.617 TIME LEFT:  2.00D  GRAD.:    57.610 HEAT: -96.32956
 CYCLE:    59 TIME:   0.547 TIME LEFT:  2.00D  GRAD.:    25.493 HEAT: -96.35337
 CYCLE:    60 TIME:   0.570 TIME LEFT:  2.00D  GRAD.:    17.678 HEAT: -96.36179
 CYCLE:    61 TIME:   0.594 TIME LEFT:  2.00D  GRAD.:    11.919 HEAT: -96.38065
 CYCLE:    62 TIME:   0.562 TIME LEFT:  2.00D  GRAD.:    14.047 HEAT: -96.39909
 CYCLE:    63 TIME:   0.547 TIME LEFT:  2.00D  GRAD.:   107.197 HEAT: -96.36784
 CYCLE:    64 TIME:   0.516 TIME LEFT:  2.00D  GRAD.:    23.153 HEAT: -96.42651
 CYCLE:    65 TIME:   0.539 TIME LEFT:  2.00D  GRAD.:    15.600 HEAT: -96.43548
 CYCLE:    66 TIME:   0.539 TIME LEFT:  2.00D  GRAD.:    19.651 HEAT: -96.45238
 CYCLE:    67 TIME:   0.562 TIME LEFT:  2.00D  GRAD.:    24.610 HEAT: -96.46386
 CYCLE:    68 TIME:   0.617 TIME LEFT:  2.00D  GRAD.:    29.852 HEAT: -96.49181
 CYCLE:    69 TIME:   0.648 TIME LEFT:  2.00D  GRAD.:    28.698 HEAT: -96.52082
 CYCLE:    70 TIME:   0.641 TIME LEFT:  2.00D  GRAD.:    25.387 HEAT: -96.55292
 CYCLE:    71 TIME:   0.570 TIME LEFT:  2.00D  GRAD.:    30.639 HEAT: -96.57449
 CYCLE:    72 TIME:   0.547 TIME LEFT:  2.00D  GRAD.:   166.651 HEAT: -96.43839
 CYCLE:    73 TIME:   0.555 TIME LEFT:  2.00D  GRAD.:   152.745 HEAT: -96.46586
 CYCLE:    74 TIME:   0.586 TIME LEFT:  2.00D  GRAD.:    55.830 HEAT: -96.58146
 CYCLE:    75 TIME:   0.641 TIME LEFT:  2.00D  GRAD.:    53.318 HEAT: -96.57249
 CYCLE:    76 TIME:   0.695 TIME LEFT:  2.00D  GRAD.:    24.357 HEAT: -96.61341
 CYCLE:    77 TIME:   0.617 TIME LEFT:  2.00D  GRAD.:    46.772 HEAT: -96.58506
 CYCLE:    78 TIME:   0.562 TIME LEFT:  2.00D  GRAD.:    87.109 HEAT: -96.59837
 CYCLE:    79 TIME:   0.586 TIME LEFT:  2.00D  GRAD.:    66.415 HEAT: -96.63084
 CYCLE:    80 TIME:   0.555 TIME LEFT:  2.00D  GRAD.:    13.692 HEAT: -96.67484
 CYCLE:    81 TIME:   0.555 TIME LEFT:  2.00D  GRAD.:    12.286 HEAT: -96.67880
 CYCLE:    82 TIME:   0.570 TIME LEFT:  2.00D  GRAD.:    17.739 HEAT: -96.68963
 CYCLE:    83 TIME:   0.617 TIME LEFT:  2.00D  GRAD.:    18.413 HEAT: -96.70805
 CYCLE:    84 TIME:   0.555 TIME LEFT:  2.00D  GRAD.:    34.015 HEAT: -96.72923
 CYCLE:    85 TIME:   0.602 TIME LEFT:  2.00D  GRAD.:    15.327 HEAT: -96.74077
 CYCLE:    86 TIME:   0.562 TIME LEFT:  2.00D  GRAD.:    17.648 HEAT: -96.74587
 CYCLE:    87 TIME:   0.562 TIME LEFT:  2.00D  GRAD.:    20.366 HEAT: -96.75969
 CYCLE:    88 TIME:   0.664 TIME LEFT:  2.00D  GRAD.:    22.994 HEAT: -96.79265
 CYCLE:    89 TIME:   0.609 TIME LEFT:  2.00D  GRAD.:    30.086 HEAT: -96.82912
 CYCLE:    90 TIME:   0.562 TIME LEFT:  2.00D  GRAD.:    15.795 HEAT: -96.86238
 CYCLE:    91 TIME:   0.516 TIME LEFT:  2.00D  GRAD.:    11.396 HEAT: -96.88304
 CYCLE:    92 TIME:   0.602 TIME LEFT:  2.00D  GRAD.:    14.083 HEAT: -96.90781
 CYCLE:    93 TIME:   0.672 TIME LEFT:  2.00D  GRAD.:    27.687 HEAT: -96.93397
 CYCLE:    94 TIME:   0.617 TIME LEFT:  2.00D  GRAD.:    30.520 HEAT: -96.95724
 CYCLE:    95 TIME:   0.609 TIME LEFT:  2.00D  GRAD.:    18.840 HEAT: -96.99482
 CYCLE:    96 TIME:   0.570 TIME LEFT:  2.00D  GRAD.:    13.281 HEAT: -97.01708
 CYCLE:    97 TIME:   0.570 TIME LEFT:  2.00D  GRAD.:    16.318 HEAT: -97.04773
 CYCLE:    98 TIME:   0.609 TIME LEFT:  2.00D  GRAD.:    93.300 HEAT: -97.06531
 CYCLE:    99 TIME:   0.648 TIME LEFT:  2.00D  GRAD.:    29.473 HEAT: -97.12184
 CYCLE:   100 TIME:   0.617 TIME LEFT:  2.00D  GRAD.:    23.404 HEAT: -97.13854
 CYCLE:   101 TIME:   0.609 TIME LEFT:  2.00D  GRAD.:    15.059 HEAT: -97.17775
 CYCLE:   102 TIME:   0.516 TIME LEFT:  2.00D  GRAD.:    18.018 HEAT: -97.21354
 CYCLE:   103 TIME:   0.578 TIME LEFT:  2.00D  GRAD.:    21.591 HEAT: -97.25964
 CYCLE:   104 TIME:   0.562 TIME LEFT:  2.00D  GRAD.:    52.790 HEAT: -97.27603
 CYCLE:   105 TIME:   0.562 TIME LEFT:  2.00D  GRAD.:    49.977 HEAT: -97.32500
 CYCLE:   106 TIME:   0.539 TIME LEFT:  2.00D  GRAD.:    15.422 HEAT: -97.37620
 CYCLE:   107 TIME:   0.703 TIME LEFT:  2.00D  GRAD.:    13.836 HEAT: -97.39808
 CYCLE:   108 TIME:   0.609 TIME LEFT:  2.00D  GRAD.:    23.439 HEAT: -97.41608
 CYCLE:   109 TIME:   0.625 TIME LEFT:  2.00D  GRAD.:    17.707 HEAT: -97.43713
 CYCLE:   110 TIME:   0.672 TIME LEFT:  2.00D  GRAD.:    24.155 HEAT: -97.46135
 CYCLE:   111 TIME:   0.602 TIME LEFT:  2.00D  GRAD.:    15.547 HEAT: -97.48752
 CYCLE:   112 TIME:   0.617 TIME LEFT:  2.00D  GRAD.:    62.756 HEAT: -97.50385
 CYCLE:   113 TIME:   0.531 TIME LEFT:  2.00D  GRAD.:    41.958 HEAT: -97.52606
 CYCLE:   114 TIME:   0.516 TIME LEFT:  2.00D  GRAD.:    21.024 HEAT: -97.53474
 CYCLE:   115 TIME:   0.578 TIME LEFT:  2.00D  GRAD.:    13.585 HEAT: -97.54509
 CYCLE:   116 TIME:   0.570 TIME LEFT:  2.00D  GRAD.:    19.093 HEAT: -97.55421
 CYCLE:   117 TIME:   0.523 TIME LEFT:  2.00D  GRAD.:    26.625 HEAT: -97.57648
 CYCLE:   118 TIME:   0.547 TIME LEFT:  2.00D  GRAD.:    27.429 HEAT: -97.63126
 CYCLE:   119 TIME:   0.523 TIME LEFT:  2.00D  GRAD.:    44.443 HEAT: -97.66481
 CYCLE:   120 TIME:   0.656 TIME LEFT:  2.00D  GRAD.:    35.798 HEAT: -97.72876
 CYCLE:   121 TIME:   0.602 TIME LEFT:  2.00D  GRAD.:    16.624 HEAT: -97.75536
 CYCLE:   122 TIME:   0.531 TIME LEFT:  2.00D  GRAD.:    13.446 HEAT: -97.76994
 CYCLE:   123 TIME:   0.594 TIME LEFT:  2.00D  GRAD.:    16.114 HEAT: -97.77946
 CYCLE:   124 TIME:   0.586 TIME LEFT:  2.00D  GRAD.:    18.544 HEAT: -97.79740
 CYCLE:   125 TIME:   0.555 TIME LEFT:  2.00D  GRAD.:    12.981 HEAT: -97.81872
 CYCLE:   126 TIME:   0.602 TIME LEFT:  2.00D  GRAD.:    13.245 HEAT: -97.83805
 CYCLE:   127 TIME:   0.758 TIME LEFT:  2.00D  GRAD.:   520.360 HEAT: -96.83350
 CYCLE:   128 TIME:   0.648 TIME LEFT:  2.00D  GRAD.:   102.433 HEAT: -97.78338
 CYCLE:   129 TIME:   0.609 TIME LEFT:  2.00D  GRAD.:    74.115 HEAT: -97.84114
 CYCLE:   130 TIME:   0.531 TIME LEFT:  2.00D  GRAD.:    15.811 HEAT: -97.85710
 CYCLE:   131 TIME:   0.523 TIME LEFT:  2.00D  GRAD.:     9.888 HEAT: -97.85918
 CYCLE:   132 TIME:   0.602 TIME LEFT:  2.00D  GRAD.:    11.067 HEAT: -97.86230
 CYCLE:   133 TIME:   0.602 TIME LEFT:  2.00D  GRAD.:    11.521 HEAT: -97.86689
 CYCLE:   134 TIME:   0.609 TIME LEFT:  2.00D  GRAD.:    26.283 HEAT: -97.89780
 CYCLE:   135 TIME:   0.594 TIME LEFT:  2.00D  GRAD.:    57.395 HEAT: -97.84239
 CYCLE:   136 TIME:   0.688 TIME LEFT:  2.00D  GRAD.:    11.715 HEAT: -97.91891
 CYCLE:   137 TIME:   0.617 TIME LEFT:  2.00D  GRAD.:     9.061 HEAT: -97.92532
 CYCLE:   138 TIME:   0.633 TIME LEFT:  2.00D  GRAD.:    14.843 HEAT: -97.94352
 CYCLE:   139 TIME:   0.570 TIME LEFT:  2.00D  GRAD.:    18.007 HEAT: -97.95749
 CYCLE:   140 TIME:   0.531 TIME LEFT:  2.00D  GRAD.:    23.244 HEAT: -97.97692
 CYCLE:   141 TIME:   0.586 TIME LEFT:  2.00D  GRAD.:    14.620 HEAT: -97.99732
 CYCLE:   142 TIME:   0.547 TIME LEFT:  2.00D  GRAD.:    15.516 HEAT: -98.01089
 CYCLE:   143 TIME:   0.578 TIME LEFT:  2.00D  GRAD.:    16.443 HEAT: -98.03460
 CYCLE:   144 TIME:   0.555 TIME LEFT:  2.00D  GRAD.:    64.029 HEAT: -98.04423
 CYCLE:   145 TIME:   0.547 TIME LEFT:  2.00D  GRAD.:    51.912 HEAT: -98.05741
 CYCLE:   146 TIME:   0.656 TIME LEFT:  2.00D  GRAD.:    22.143 HEAT: -98.07652
 CYCLE:   147 TIME:   0.617 TIME LEFT:  2.00D  GRAD.:    13.146 HEAT: -98.08681
 CYCLE:   148 TIME:   0.625 TIME LEFT:  2.00D  GRAD.:    17.090 HEAT: -98.09620
 CYCLE:   149 TIME:   0.555 TIME LEFT:  2.00D  GRAD.:    16.575 HEAT: -98.11638
 CYCLE:   150 TIME:   0.562 TIME LEFT:  2.00D  GRAD.:    35.421 HEAT: -98.14495
 CYCLE:   151 TIME:   0.594 TIME LEFT:  2.00D  GRAD.:    18.007 HEAT: -98.16614
 CYCLE:   152 TIME:   0.555 TIME LEFT:  2.00D  GRAD.:     9.776 HEAT: -98.17731
 CYCLE:   153 TIME:   0.602 TIME LEFT:  2.00D  GRAD.:     8.435 HEAT: -98.18676
 CYCLE:   154 TIME:   0.625 TIME LEFT:  2.00D  GRAD.:    11.044 HEAT: -98.20652
 CYCLE:   155 TIME:   0.586 TIME LEFT:  2.00D  GRAD.:    20.580 HEAT: -98.22373
 CYCLE:   156 TIME:   0.609 TIME LEFT:  2.00D  GRAD.:    13.005 HEAT: -98.24097
 CYCLE:   157 TIME:   0.594 TIME LEFT:  2.00D  GRAD.:    10.465 HEAT: -98.26017
 CYCLE:   158 TIME:   0.625 TIME LEFT:  2.00D  GRAD.:    32.285 HEAT: -98.26673
 CYCLE:   159 TIME:   0.547 TIME LEFT:  2.00D  GRAD.:    19.298 HEAT: -98.27523
 CYCLE:   160 TIME:   0.531 TIME LEFT:  2.00D  GRAD.:    19.781 HEAT: -98.28027
 CYCLE:   161 TIME:   0.586 TIME LEFT:  2.00D  GRAD.:    32.075 HEAT: -98.28069
 CYCLE:   162 TIME:   0.539 TIME LEFT:  2.00D  GRAD.:    10.640 HEAT: -98.28973
 CYCLE:   163 TIME:   0.539 TIME LEFT:  2.00D  GRAD.:     8.991 HEAT: -98.29453
 CYCLE:   164 TIME:   0.531 TIME LEFT:  2.00D  GRAD.:    10.170 HEAT: -98.30341
 CYCLE:   165 TIME:   0.555 TIME LEFT:  2.00D  GRAD.:    10.890 HEAT: -98.31949
 CYCLE:   166 TIME:   0.625 TIME LEFT:  2.00D  GRAD.:    28.647 HEAT: -98.33374
 CYCLE:   167 TIME:   0.625 TIME LEFT:  2.00D  GRAD.:    14.792 HEAT: -98.35475
 CYCLE:   168 TIME:   0.570 TIME LEFT:  2.00D  GRAD.:     9.857 HEAT: -98.36635
 CYCLE:   169 TIME:   0.539 TIME LEFT:  2.00D  GRAD.:     8.140 HEAT: -98.38075
 CYCLE:   170 TIME:   0.555 TIME LEFT:  2.00D  GRAD.:    12.287 HEAT: -98.39334
 CYCLE:   171 TIME:   0.586 TIME LEFT:  2.00D  GRAD.:     9.614 HEAT: -98.40581
 CYCLE:   172 TIME:   0.508 TIME LEFT:  2.00D  GRAD.:    74.197 HEAT: -98.39317
 CYCLE:   173 TIME:   0.523 TIME LEFT:  2.00D  GRAD.:    11.961 HEAT: -98.41481
 CYCLE:   174 TIME:   0.453 TIME LEFT:  2.00D  GRAD.:     8.555 HEAT: -98.41633
 CYCLE:   175 TIME:   0.523 TIME LEFT:  2.00D  GRAD.:    23.892 HEAT: -98.41742
 CYCLE:   176 TIME:   0.539 TIME LEFT:  2.00D  GRAD.:    13.780 HEAT: -98.42082
 CYCLE:   177 TIME:   0.508 TIME LEFT:  2.00D  GRAD.:     8.622 HEAT: -98.42854
 CYCLE:   178 TIME:   0.586 TIME LEFT:  2.00D  GRAD.:     9.733 HEAT: -98.43359
 CYCLE:   179 TIME:   0.609 TIME LEFT:  2.00D  GRAD.:    19.782 HEAT: -98.44470
 CYCLE:   180 TIME:   0.586 TIME LEFT:  2.00D  GRAD.:    34.602 HEAT: -98.42912
 CYCLE:   181 TIME:   0.641 TIME LEFT:  2.00D  GRAD.:    13.358 HEAT: -98.46824
 CYCLE:   182 TIME:   0.625 TIME LEFT:  2.00D  GRAD.:    16.043 HEAT: -98.47749
 CYCLE:   183 TIME:   0.625 TIME LEFT:  2.00D  GRAD.:    18.767 HEAT: -98.48794
 CYCLE:   184 TIME:   0.633 TIME LEFT:  2.00D  GRAD.:    23.035 HEAT: -98.50504
 CYCLE:   185 TIME:   0.633 TIME LEFT:  2.00D  GRAD.:    22.596 HEAT: -98.52187
 CYCLE:   186 TIME:   0.562 TIME LEFT:  2.00D  GRAD.:    13.347 HEAT: -98.53060
 CYCLE:   187 TIME:   0.586 TIME LEFT:  2.00D  GRAD.:    82.343 HEAT: -98.51249
 CYCLE:   188 TIME:   0.570 TIME LEFT:  2.00D  GRAD.:    18.068 HEAT: -98.55274
 CYCLE:   189 TIME:   0.570 TIME LEFT:  2.00D  GRAD.:    19.852 HEAT: -98.56292
 CYCLE:   190 TIME:   0.617 TIME LEFT:  2.00D  GRAD.:    88.836 HEAT: -98.54944
 CYCLE:   191 TIME:   0.594 TIME LEFT:  2.00D  GRAD.:    29.129 HEAT: -98.58076
 CYCLE:   192 TIME:   0.555 TIME LEFT:  2.00D  GRAD.:    36.461 HEAT: -98.58068
 CYCLE:   193 TIME:   0.547 TIME LEFT:  2.00D  GRAD.:    11.208 HEAT: -98.59093
 CYCLE:   194 TIME:   0.547 TIME LEFT:  2.00D  GRAD.:    12.904 HEAT: -98.59495
 CYCLE:   195 TIME:   0.594 TIME LEFT:  2.00D  GRAD.:    21.957 HEAT: -98.61124
 CYCLE:   196 TIME:   0.586 TIME LEFT:  2.00D  GRAD.:    24.582 HEAT: -98.62416
 CYCLE:   197 TIME:   0.609 TIME LEFT:  2.00D  GRAD.:   115.675 HEAT: -98.43291
 CYCLE:   198 TIME:   0.586 TIME LEFT:  2.00D  GRAD.:    11.725 HEAT: -98.64550
 CYCLE:   199 TIME:   0.508 TIME LEFT:  2.00D  GRAD.:    11.271 HEAT: -98.65308
 CYCLE:   200 TIME:   0.539 TIME LEFT:  2.00D  GRAD.:    18.079 HEAT: -98.69087
 CYCLE:   201 TIME:   0.633 TIME LEFT:  2.00D  GRAD.:    43.600 HEAT: -98.68842
 CYCLE:   202 TIME:   0.633 TIME LEFT:  2.00D  GRAD.:    15.952 HEAT: -98.71231
 CYCLE:   203 TIME:   0.617 TIME LEFT:  2.00D  GRAD.:    10.468 HEAT: -98.72005
 CYCLE:   204 TIME:   0.656 TIME LEFT:  2.00D  GRAD.:    18.884 HEAT: -98.73387
 CYCLE:   205 TIME:   0.672 TIME LEFT:  2.00D  GRAD.:    21.114 HEAT: -98.74858
 CYCLE:   206 TIME:   0.672 TIME LEFT:  2.00D  GRAD.:   185.512 HEAT: -98.67124
 CYCLE:   207 TIME:   0.625 TIME LEFT:  2.00D  GRAD.:    34.275 HEAT: -98.77088
 CYCLE:   208 TIME:   0.547 TIME LEFT:  2.00D  GRAD.:    25.508 HEAT: -98.78086
 CYCLE:   209 TIME:   0.500 TIME LEFT:  2.00D  GRAD.:    16.883 HEAT: -98.80488
 CYCLE:   210 TIME:   0.531 TIME LEFT:  2.00D  GRAD.:    12.172 HEAT: -98.81087
 CYCLE:   211 TIME:   0.586 TIME LEFT:  2.00D  GRAD.:    15.515 HEAT: -98.82211
 CYCLE:   212 TIME:   0.609 TIME LEFT:  2.00D  GRAD.:    23.530 HEAT: -98.84277
 CYCLE:   213 TIME:   0.609 TIME LEFT:  2.00D  GRAD.:    31.840 HEAT: -98.87150
 CYCLE:   214 TIME:   0.594 TIME LEFT:  2.00D  GRAD.:    26.980 HEAT: -98.89260
 CYCLE:   215 TIME:   0.516 TIME LEFT:  2.00D  GRAD.:    13.962 HEAT: -98.91087
 CYCLE:   216 TIME:   0.523 TIME LEFT:  2.00D  GRAD.:    12.078 HEAT: -98.92605
 CYCLE:   217 TIME:   0.547 TIME LEFT:  2.00D  GRAD.:    19.198 HEAT: -98.94155
 CYCLE:   218 TIME:   0.570 TIME LEFT:  2.00D  GRAD.:    24.013 HEAT: -98.96146
 CYCLE:   219 TIME:   0.617 TIME LEFT:  2.00D  GRAD.:    25.358 HEAT: -98.98721
 CYCLE:   220 TIME:   0.570 TIME LEFT:  2.00D  GRAD.:    63.999 HEAT: -98.99023
 CYCLE:   221 TIME:   0.570 TIME LEFT:  2.00D  GRAD.:    27.601 HEAT: -99.01514
 CYCLE:   222 TIME:   0.688 TIME LEFT:  2.00D  GRAD.:    13.500 HEAT: -99.02427
 CYCLE:   223 TIME:   0.648 TIME LEFT:  2.00D  GRAD.:    23.435 HEAT: -99.03175
 CYCLE:   224 TIME:   0.750 TIME LEFT:  2.00D  GRAD.:    25.054 HEAT: -99.04266
 CYCLE:   225 TIME:   0.656 TIME LEFT:  2.00D  GRAD.:    81.898 HEAT: -99.04644
 CYCLE:   226 TIME:   0.570 TIME LEFT:  2.00D  GRAD.:    19.323 HEAT: -99.08201
 CYCLE:   227 TIME:   0.531 TIME LEFT:  2.00D  GRAD.:    10.905 HEAT: -99.08716
 CYCLE:   228 TIME:   0.508 TIME LEFT:  2.00D  GRAD.:    14.148 HEAT: -99.09184
 CYCLE:   229 TIME:   0.688 TIME LEFT:  2.00D  GRAD.:    18.786 HEAT: -99.09844
 CYCLE:   230 TIME:   0.555 TIME LEFT:  2.00D  GRAD.:    22.294 HEAT: -99.11239
 CYCLE:   231 TIME:   0.609 TIME LEFT:  2.00D  GRAD.:    23.680 HEAT: -99.12951
 CYCLE:   232 TIME:   0.562 TIME LEFT:  2.00D  GRAD.:    29.219 HEAT: -99.13234
 CYCLE:   233 TIME:   0.594 TIME LEFT:  2.00D  GRAD.:    25.703 HEAT: -99.14604
 CYCLE:   234 TIME:   0.633 TIME LEFT:  2.00D  GRAD.:    20.415 HEAT: -99.17197
 CYCLE:   235 TIME:   0.625 TIME LEFT:  2.00D  GRAD.:    42.311 HEAT: -99.17242
 CYCLE:   236 TIME:   0.641 TIME LEFT:  2.00D  GRAD.:    14.119 HEAT: -99.18430
 CYCLE:   237 TIME:   0.570 TIME LEFT:  2.00D  GRAD.:     9.542 HEAT: -99.18939
 CYCLE:   238 TIME:   0.570 TIME LEFT:  2.00D  GRAD.:    18.252 HEAT: -99.20078
 CYCLE:   239 TIME:   0.555 TIME LEFT:  2.00D  GRAD.:    15.969 HEAT: -99.20968
 CYCLE:   240 TIME:   0.695 TIME LEFT:  2.00D  GRAD.:    78.851 HEAT: -99.19315
 CYCLE:   241 TIME:   0.602 TIME LEFT:  2.00D  GRAD.:    10.271 HEAT: -99.22654
 CYCLE:   242 TIME:   0.648 TIME LEFT:  2.00D  GRAD.:     8.658 HEAT: -99.22962
 CYCLE:   243 TIME:   0.609 TIME LEFT:  2.00D  GRAD.:    35.516 HEAT: -99.21569
 CYCLE:   244 TIME:   0.531 TIME LEFT:  2.00D  GRAD.:    11.122 HEAT: -99.25007
 CYCLE:   245 TIME:   0.539 TIME LEFT:  2.00D  GRAD.:     6.390 HEAT: -99.25596
 CYCLE:   246 TIME:   0.578 TIME LEFT:  2.00D  GRAD.:     7.658 HEAT: -99.26185
 CYCLE:   247 TIME:   0.547 TIME LEFT:  2.00D  GRAD.:    10.496 HEAT: -99.27461
 CYCLE:   248 TIME:   0.555 TIME LEFT:  2.00D  GRAD.:    20.645 HEAT: -99.27970
 CYCLE:   249 TIME:   0.539 TIME LEFT:  2.00D  GRAD.:     7.445 HEAT: -99.29113
 CYCLE:   250 TIME:   0.539 TIME LEFT:  2.00D  GRAD.:    10.533 HEAT: -99.29592
 CYCLE:   251 TIME:   0.539 TIME LEFT:  2.00D  GRAD.:    26.456 HEAT: -99.29826
 CYCLE:   252 TIME:   0.539 TIME LEFT:  2.00D  GRAD.:     9.713 HEAT: -99.30254
 CYCLE:   253 TIME:   0.539 TIME LEFT:  2.00D  GRAD.:     7.403 HEAT: -99.30547
 CYCLE:   254 TIME:   0.508 TIME LEFT:  2.00D  GRAD.:    14.854 HEAT: -99.30934
 CYCLE:   255 TIME:   0.562 TIME LEFT:  2.00D  GRAD.:    16.333 HEAT: -99.31526
 CYCLE:   256 TIME:   0.625 TIME LEFT:  2.00D  GRAD.:    80.608 HEAT: -99.29153
 CYCLE:   257 TIME:   0.531 TIME LEFT:  2.00D  GRAD.:    15.421 HEAT: -99.32382
 CYCLE:   258 TIME:   0.516 TIME LEFT:  2.00D  GRAD.:     9.230 HEAT: -99.32610
 CYCLE:   259 TIME:   0.523 TIME LEFT:  2.00D  GRAD.:    13.129 HEAT: -99.32906
 CYCLE:   260 TIME:   0.594 TIME LEFT:  2.00D  GRAD.:    11.455 HEAT: -99.33126
 CYCLE:   261 TIME:   0.586 TIME LEFT:  2.00D  GRAD.:     8.956 HEAT: -99.33898
 CYCLE:   262 TIME:   0.562 TIME LEFT:  2.00D  GRAD.:     8.062 HEAT: -99.34673
 CYCLE:   263 TIME:   0.539 TIME LEFT:  2.00D  GRAD.:    12.385 HEAT: -99.35488
 CYCLE:   264 TIME:   0.547 TIME LEFT:  2.00D  GRAD.:    10.050 HEAT: -99.36385
 CYCLE:   265 TIME:   0.547 TIME LEFT:  2.00D  GRAD.:     9.830 HEAT: -99.37247
 CYCLE:   266 TIME:   0.594 TIME LEFT:  2.00D  GRAD.:    11.564 HEAT: -99.37583
 CYCLE:   267 TIME:   0.555 TIME LEFT:  2.00D  GRAD.:    41.765 HEAT: -99.36574
 CYCLE:   268 TIME:   0.570 TIME LEFT:  2.00D  GRAD.:     6.090 HEAT: -99.38203
 CYCLE:   269 TIME:   0.602 TIME LEFT:  2.00D  GRAD.:     4.813 HEAT: -99.38393
 CYCLE:   270 TIME:   0.562 TIME LEFT:  2.00D  GRAD.:    12.942 HEAT: -99.38868
 CYCLE:   271 TIME:   0.586 TIME LEFT:  2.00D  GRAD.:     9.421 HEAT: -99.39125
 CYCLE:   272 TIME:   0.578 TIME LEFT:  2.00D  GRAD.:     6.626 HEAT: -99.39335
 CYCLE:   273 TIME:   0.594 TIME LEFT:  2.00D  GRAD.:    13.569 HEAT: -99.39687
 CYCLE:   274 TIME:   0.508 TIME LEFT:  2.00D  GRAD.:    10.983 HEAT: -99.40131
 CYCLE:   275 TIME:   0.539 TIME LEFT:  2.00D  GRAD.:     8.971 HEAT: -99.40750
 CYCLE:   276 TIME:   0.539 TIME LEFT:  2.00D  GRAD.:     8.331 HEAT: -99.41417
 CYCLE:   277 TIME:   0.633 TIME LEFT:  2.00D  GRAD.:     6.732 HEAT: -99.41992
 CYCLE:   278 TIME:   0.555 TIME LEFT:  2.00D  GRAD.:    10.092 HEAT: -99.42659
 CYCLE:   279 TIME:   0.531 TIME LEFT:  2.00D  GRAD.:    10.845 HEAT: -99.43063
 CYCLE:   280 TIME:   0.531 TIME LEFT:  2.00D  GRAD.:     5.635 HEAT: -99.43413
 CYCLE:   281 TIME:   0.617 TIME LEFT:  2.00D  GRAD.:     7.010 HEAT: -99.43810
 CYCLE:   282 TIME:   0.570 TIME LEFT:  2.00D  GRAD.:    22.094 HEAT: -99.44121
 CYCLE:   283 TIME:   0.516 TIME LEFT:  2.00D  GRAD.:    12.914 HEAT: -99.44560
 CYCLE:   284 TIME:   0.562 TIME LEFT:  2.00D  GRAD.:     8.629 HEAT: -99.45175
 CYCLE:   285 TIME:   0.562 TIME LEFT:  2.00D  GRAD.:     7.332 HEAT: -99.45446
 CYCLE:   286 TIME:   0.570 TIME LEFT:  2.00D  GRAD.:    16.136 HEAT: -99.45599
 CYCLE:   287 TIME:   0.594 TIME LEFT:  2.00D  GRAD.:     5.821 HEAT: -99.45863
 CYCLE:   288 TIME:   0.602 TIME LEFT:  2.00D  GRAD.:     6.076 HEAT: -99.46034
 CYCLE:   289 TIME:   0.523 TIME LEFT:  2.00D  GRAD.:     5.714 HEAT: -99.46177
 CYCLE:   290 TIME:   0.562 TIME LEFT:  2.00D  GRAD.:     5.122 HEAT: -99.46668
 CYCLE:   291 TIME:   0.641 TIME LEFT:  2.00D  GRAD.:     6.345 HEAT: -99.47206
 CYCLE:   292 TIME:   0.562 TIME LEFT:  2.00D  GRAD.:     9.741 HEAT: -99.47787
 CYCLE:   293 TIME:   0.664 TIME LEFT:  2.00D  GRAD.:    14.596 HEAT: -99.48124
 CYCLE:   294 TIME:   0.539 TIME LEFT:  2.00D  GRAD.:    15.770 HEAT: -99.48962
 CYCLE:   295 TIME:   0.602 TIME LEFT:  2.00D  GRAD.:     5.171 HEAT: -99.49371
 CYCLE:   296 TIME:   0.594 TIME LEFT:  2.00D  GRAD.:     5.809 HEAT: -99.49583
 CYCLE:   297 TIME:   0.617 TIME LEFT:  2.00D  GRAD.:    17.228 HEAT: -99.49832
 CYCLE:   298 TIME:   0.664 TIME LEFT:  2.00D  GRAD.:     8.040 HEAT: -99.50069
 CYCLE:   299 TIME:   0.648 TIME LEFT:  2.00D  GRAD.:     7.011 HEAT: -99.50219
 CYCLE:   300 TIME:   0.602 TIME LEFT:  2.00D  GRAD.:    52.588 HEAT: -99.49077
 CYCLE:   301 TIME:   0.555 TIME LEFT:  2.00D  GRAD.:     5.565 HEAT: -99.50547
 CYCLE:   302 TIME:   0.516 TIME LEFT:  2.00D  GRAD.:     6.938 HEAT: -99.50584
 CYCLE:   303 TIME:   0.516 TIME LEFT:  2.00D  GRAD.:     4.924 HEAT: -99.50933
 CYCLE:   304 TIME:   0.523 TIME LEFT:  2.00D  GRAD.:     5.516 HEAT: -99.51331
 CYCLE:   305 TIME:   0.516 TIME LEFT:  2.00D  GRAD.:     7.648 HEAT: -99.51863
 CYCLE:   306 TIME:   0.523 TIME LEFT:  2.00D  GRAD.:     5.203 HEAT: -99.52377
 CYCLE:   307 TIME:   0.570 TIME LEFT:  2.00D  GRAD.:     4.343 HEAT: -99.52839
 CYCLE:   308 TIME:   0.586 TIME LEFT:  2.00D  GRAD.:    10.491 HEAT: -99.53254
 CYCLE:   309 TIME:   0.562 TIME LEFT:  2.00D  GRAD.:    20.372 HEAT: -99.53088
 CYCLE:   310 TIME:   0.570 TIME LEFT:  2.00D  GRAD.:     5.137 HEAT: -99.53698
 CYCLE:   311 TIME:   0.539 TIME LEFT:  2.00D  GRAD.:     3.884 HEAT: -99.53854
 CYCLE:   312 TIME:   0.523 TIME LEFT:  2.00D  GRAD.:    24.727 HEAT: -99.53994
 CYCLE:   313 TIME:   0.641 TIME LEFT:  2.00D  GRAD.:     3.958 HEAT: -99.54310
 CYCLE:   314 TIME:   0.688 TIME LEFT:  2.00D  GRAD.:     3.828 HEAT: -99.54341
 CYCLE:   315 TIME:   0.602 TIME LEFT:  2.00D  GRAD.:     3.804 HEAT: -99.54409
 CYCLE:   316 TIME:   0.562 TIME LEFT:  2.00D  GRAD.:    26.556 HEAT: -99.54322
 CYCLE:   317 TIME:   0.562 TIME LEFT:  2.00D  GRAD.:     7.716 HEAT: -99.54700
 CYCLE:   318 TIME:   0.609 TIME LEFT:  2.00D  GRAD.:     3.768 HEAT: -99.54848
 CYCLE:   319 TIME:   0.641 TIME LEFT:  2.00D  GRAD.:     6.979 HEAT: -99.55062
 CYCLE:   320 TIME:   0.609 TIME LEFT:  2.00D  GRAD.:     5.975 HEAT: -99.55185
 CYCLE:   321 TIME:   0.531 TIME LEFT:  2.00D  GRAD.:     4.492 HEAT: -99.55474
 CYCLE:   322 TIME:   0.594 TIME LEFT:  2.00D  GRAD.:     6.120 HEAT: -99.55759
 CYCLE:   323 TIME:   0.609 TIME LEFT:  2.00D  GRAD.:     6.229 HEAT: -99.56009
 CYCLE:   324 TIME:   0.531 TIME LEFT:  2.00D  GRAD.:     5.687 HEAT: -99.56213
 CYCLE:   325 TIME:   0.523 TIME LEFT:  2.00D  GRAD.:     4.054 HEAT: -99.56416
 CYCLE:   326 TIME:   0.523 TIME LEFT:  2.00D  GRAD.:     4.936 HEAT: -99.56661
 CYCLE:   327 TIME:   0.539 TIME LEFT:  2.00D  GRAD.:    24.230 HEAT: -99.56642
 CYCLE:   328 TIME:   0.570 TIME LEFT:  2.00D  GRAD.:    11.562 HEAT: -99.56605
 CYCLE:   329 TIME:   0.531 TIME LEFT:  2.00D  GRAD.:    15.510 HEAT: -99.56903
 CYCLE:   330 TIME:   0.562 TIME LEFT:  2.00D  GRAD.:     5.074 HEAT: -99.57084
 CYCLE:   331 TIME:   0.516 TIME LEFT:  2.00D  GRAD.:     6.699 HEAT: -99.57195
 CYCLE:   332 TIME:   0.508 TIME LEFT:  2.00D  GRAD.:    22.663 HEAT: -99.56945
 CYCLE:   333 TIME:   0.531 TIME LEFT:  2.00D  GRAD.:     5.261 HEAT: -99.57396
 CYCLE:   334 TIME:   0.633 TIME LEFT:  2.00D  GRAD.:     4.912 HEAT: -99.57480
 CYCLE:   335 TIME:   0.578 TIME LEFT:  2.00D  GRAD.:     7.274 HEAT: -99.57818
 CYCLE:   336 TIME:   0.586 TIME LEFT:  2.00D  GRAD.:     5.716 HEAT: -99.58092
 CYCLE:   337 TIME:   0.531 TIME LEFT:  2.00D  GRAD.:     8.442 HEAT: -99.58308
 CYCLE:   338 TIME:   0.516 TIME LEFT:  2.00D  GRAD.:     4.235 HEAT: -99.58556
 CYCLE:   339 TIME:   0.516 TIME LEFT:  2.00D  GRAD.:     3.922 HEAT: -99.58710
 CYCLE:   340 TIME:   0.508 TIME LEFT:  2.00D  GRAD.:     3.861 HEAT: -99.58899
 CYCLE:   341 TIME:   0.516 TIME LEFT:  2.00D  GRAD.:     6.847 HEAT: -99.59100
 CYCLE:   342 TIME:   0.539 TIME LEFT:  2.00D  GRAD.:     4.306 HEAT: -99.59427
 CYCLE:   343 TIME:   0.594 TIME LEFT:  2.00D  GRAD.:     4.661 HEAT: -99.59781
 CYCLE:   344 TIME:   0.523 TIME LEFT:  2.00D  GRAD.:    29.854 HEAT: -99.59666
 CYCLE:   345 TIME:   0.523 TIME LEFT:  2.00D  GRAD.:    17.262 HEAT: -99.59859
 CYCLE:   346 TIME:   0.531 TIME LEFT:  2.00D  GRAD.:     3.927 HEAT: -99.60033
 CYCLE:   347 TIME:   0.523 TIME LEFT:  2.00D  GRAD.:     3.484 HEAT: -99.60065
 CYCLE:   348 TIME:   0.508 TIME LEFT:  2.00D  GRAD.:     5.523 HEAT: -99.60172
 CYCLE:   349 TIME:   0.586 TIME LEFT:  2.00D  GRAD.:     8.865 HEAT: -99.60285
 CYCLE:   350 TIME:   0.609 TIME LEFT:  2.00D  GRAD.:     8.468 HEAT: -99.60581
 CYCLE:   351 TIME:   0.602 TIME LEFT:  2.00D  GRAD.:    10.302 HEAT: -99.60793
 CYCLE:   352 TIME:   0.555 TIME LEFT:  2.00D  GRAD.:     4.688 HEAT: -99.61017
 CYCLE:   353 TIME:   0.523 TIME LEFT:  2.00D  GRAD.:     4.253 HEAT: -99.61154
 CYCLE:   354 TIME:   0.562 TIME LEFT:  2.00D  GRAD.:     3.789 HEAT: -99.61349
 CYCLE:   355 TIME:   0.641 TIME LEFT:  2.00D  GRAD.:     6.082 HEAT: -99.61622
 CYCLE:   356 TIME:   0.547 TIME LEFT:  2.00D  GRAD.:     7.124 HEAT: -99.61849
 CYCLE:   357 TIME:   0.516 TIME LEFT:  2.00D  GRAD.:     3.551 HEAT: -99.62052
 CYCLE:   358 TIME:   0.547 TIME LEFT:  2.00D  GRAD.:     3.479 HEAT: -99.62222
 CYCLE:   359 TIME:   0.562 TIME LEFT:  2.00D  GRAD.:     5.649 HEAT: -99.62388
 CYCLE:   360 TIME:   0.539 TIME LEFT:  2.00D  GRAD.:    23.482 HEAT: -99.62348
 CYCLE:   361 TIME:   0.562 TIME LEFT:  2.00D  GRAD.:     3.877 HEAT: -99.62559
 CYCLE:   362 TIME:   0.594 TIME LEFT:  2.00D  GRAD.:     3.912 HEAT: -99.62610
 CYCLE:   363 TIME:   0.555 TIME LEFT:  2.00D  GRAD.:     4.667 HEAT: -99.62680
 CYCLE:   364 TIME:   0.578 TIME LEFT:  2.00D  GRAD.:     5.433 HEAT: -99.62787
 CYCLE:   365 TIME:   0.633 TIME LEFT:  2.00D  GRAD.:     6.648 HEAT: -99.62869
 CYCLE:   366 TIME:   0.609 TIME LEFT:  2.00D  GRAD.:     3.515 HEAT: -99.62965
 CYCLE:   367 TIME:   0.570 TIME LEFT:  2.00D  GRAD.:     6.571 HEAT: -99.63076
 CYCLE:   368 TIME:   0.547 TIME LEFT:  2.00D  GRAD.:     7.368 HEAT: -99.63182
 CYCLE:   369 TIME:   0.547 TIME LEFT:  2.00D  GRAD.:     5.559 HEAT: -99.63385
 CYCLE:   370 TIME:   0.578 TIME LEFT:  2.00D  GRAD.:     3.566 HEAT: -99.63582
 CYCLE:   371 TIME:   0.617 TIME LEFT:  2.00D  GRAD.:     4.288 HEAT: -99.63763
 CYCLE:   372 TIME:   0.570 TIME LEFT:  2.00D  GRAD.:     6.852 HEAT: -99.63921
 CYCLE:   373 TIME:   0.562 TIME LEFT:  2.00D  GRAD.:     4.624 HEAT: -99.64084
 CYCLE:   374 TIME:   0.578 TIME LEFT:  2.00D  GRAD.:     3.883 HEAT: -99.64187
 CYCLE:   375 TIME:   0.562 TIME LEFT:  2.00D  GRAD.:     8.342 HEAT: -99.64251
 CYCLE:   376 TIME:   0.555 TIME LEFT:  2.00D  GRAD.:     5.727 HEAT: -99.64345
 CYCLE:   377 TIME:   0.570 TIME LEFT:  2.00D  GRAD.:     5.774 HEAT: -99.64410
 CYCLE:   378 TIME:   0.547 TIME LEFT:  2.00D  GRAD.:     3.895 HEAT: -99.64503
 CYCLE:   379 TIME:   0.523 TIME LEFT:  2.00D  GRAD.:     2.700 HEAT: -99.64582
 CYCLE:   380 TIME:   0.562 TIME LEFT:  2.00D  GRAD.:     5.364 HEAT: -99.64664
 CYCLE:   381 TIME:   0.602 TIME LEFT:  2.00D  GRAD.:     4.817 HEAT: -99.64728
 CYCLE:   382 TIME:   0.609 TIME LEFT:  2.00D  GRAD.:     4.218 HEAT: -99.64815
 CYCLE:   383 TIME:   0.547 TIME LEFT:  2.00D  GRAD.:     4.138 HEAT: -99.64928
 CYCLE:   384 TIME:   0.625 TIME LEFT:  2.00D  GRAD.:     4.030 HEAT: -99.64996
 CYCLE:   385 TIME:   0.602 TIME LEFT:  2.00D  GRAD.:     3.230 HEAT: -99.65079
 CYCLE:   386 TIME:   0.625 TIME LEFT:  2.00D  GRAD.:     3.198 HEAT: -99.65162
 CYCLE:   387 TIME:   0.656 TIME LEFT:  2.00D  GRAD.:     4.865 HEAT: -99.65231
 CYCLE:   388 TIME:   0.594 TIME LEFT:  2.00D  GRAD.:     2.145 HEAT: -99.65284
 CYCLE:   389 TIME:   0.531 TIME LEFT:  2.00D  GRAD.:     4.185 HEAT: -99.65315
 CYCLE:   390 TIME:   0.531 TIME LEFT:  2.00D  GRAD.:     9.032 HEAT: -99.65312
 CYCLE:   391 TIME:   0.547 TIME LEFT:  2.00D  GRAD.:     2.639 HEAT: -99.65348
 CYCLE:   392 TIME:   0.484 TIME LEFT:  2.00D  GRAD.:     1.925 HEAT: -99.65366
 CYCLE:   393 TIME:   0.547 TIME LEFT:  2.00D  GRAD.:     2.643 HEAT: -99.65408
 CYCLE:   394 TIME:   0.555 TIME LEFT:  2.00D  GRAD.:     2.628 HEAT: -99.65456
 CYCLE:   395 TIME:   0.578 TIME LEFT:  2.00D  GRAD.:     6.806 HEAT: -99.65545
 CYCLE:   396 TIME:   0.570 TIME LEFT:  2.00D  GRAD.:     4.114 HEAT: -99.65601
 CYCLE:   397 TIME:   0.594 TIME LEFT:  2.00D  GRAD.:     2.265 HEAT: -99.65640
 CYCLE:   398 TIME:   0.531 TIME LEFT:  2.00D  GRAD.:     2.325 HEAT: -99.65674
 CYCLE:   399 TIME:   0.602 TIME LEFT:  2.00D  GRAD.:     2.773 HEAT: -99.65726
 CYCLE:   400 TIME:   0.633 TIME LEFT:  2.00D  GRAD.:     3.811 HEAT: -99.65801
 CYCLE:   401 TIME:   0.625 TIME LEFT:  2.00D  GRAD.:     4.901 HEAT: -99.65823
 CYCLE:   402 TIME:   0.547 TIME LEFT:  2.00D  GRAD.:     1.700 HEAT: -99.65891
 CYCLE:   403 TIME:   0.609 TIME LEFT:  2.00D  GRAD.:     3.700 HEAT: -99.65892
 CYCLE:   404 TIME:   0.555 TIME LEFT:  2.00D  GRAD.:    13.370 HEAT: -99.65869
 CYCLE:   405 TIME:   0.609 TIME LEFT:  2.00D  GRAD.:     1.868 HEAT: -99.65927
 CYCLE:   406 TIME:   0.570 TIME LEFT:  2.00D  GRAD.:     1.577 HEAT: -99.65938
 CYCLE:   407 TIME:   0.570 TIME LEFT:  2.00D  GRAD.:     4.623 HEAT: -99.65958
 CYCLE:   408 TIME:   0.609 TIME LEFT:  2.00D  GRAD.:     2.987 HEAT: -99.65981
 CYCLE:   409 TIME:   0.625 TIME LEFT:  2.00D  GRAD.:     3.676 HEAT: -99.66028
 CYCLE:   410 TIME:   0.578 TIME LEFT:  2.00D  GRAD.:     9.330 HEAT: -99.66010
 CYCLE:   411 TIME:   0.508 TIME LEFT:  2.00D  GRAD.:     3.347 HEAT: -99.66133
 CYCLE:   412 TIME:   0.516 TIME LEFT:  2.00D  GRAD.:     2.475 HEAT: -99.66162
 CYCLE:   413 TIME:   0.523 TIME LEFT:  2.00D  GRAD.:     3.022 HEAT: -99.66183
 CYCLE:   414 TIME:   0.594 TIME LEFT:  2.00D  GRAD.:     2.757 HEAT: -99.66249
 CYCLE:   415 TIME:   0.562 TIME LEFT:  2.00D  GRAD.:     3.061 HEAT: -99.66318
 CYCLE:   416 TIME:   0.578 TIME LEFT:  2.00D  GRAD.:     2.482 HEAT: -99.66389
 CYCLE:   417 TIME:   0.555 TIME LEFT:  2.00D  GRAD.:     2.396 HEAT: -99.66435
 CYCLE:   418 TIME:   0.547 TIME LEFT:  2.00D  GRAD.:     6.198 HEAT: -99.66481
 CYCLE:   419 TIME:   0.562 TIME LEFT:  2.00D  GRAD.:     3.001 HEAT: -99.66525
 CYCLE:   420 TIME:   0.523 TIME LEFT:  2.00D  GRAD.:     2.249 HEAT: -99.66564
 CYCLE:   421 TIME:   0.586 TIME LEFT:  2.00D  GRAD.:     2.946 HEAT: -99.66612
 CYCLE:   422 TIME:   0.562 TIME LEFT:  2.00D  GRAD.:     2.780 HEAT: -99.66654
 CYCLE:   423 TIME:   0.562 TIME LEFT:  2.00D  GRAD.:     2.001 HEAT: -99.66696
 CYCLE:   424 TIME:   0.539 TIME LEFT:  2.00D  GRAD.:     1.778 HEAT: -99.66749
 CYCLE:   425 TIME:   0.547 TIME LEFT:  2.00D  GRAD.:     4.167 HEAT: -99.66801
 CYCLE:   426 TIME:   0.531 TIME LEFT:  2.00D  GRAD.:     4.093 HEAT: -99.66850
 CYCLE:   427 TIME:   0.500 TIME LEFT:  2.00D  GRAD.:     2.024 HEAT: -99.66882
 CYCLE:   428 TIME:   0.594 TIME LEFT:  2.00D  GRAD.:     2.692 HEAT: -99.66915
 CYCLE:   429 TIME:   0.594 TIME LEFT:  2.00D  GRAD.:     2.339 HEAT: -99.66946
 CYCLE:   430 TIME:   0.688 TIME LEFT:  2.00D  GRAD.:     2.879 HEAT: -99.67008
 CYCLE:   431 TIME:   0.648 TIME LEFT:  2.00D  GRAD.:    14.544 HEAT: -99.66973
 CYCLE:   432 TIME:   0.562 TIME LEFT:  2.00D  GRAD.:     4.118 HEAT: -99.67057
 CYCLE:   433 TIME:   0.578 TIME LEFT:  2.00D  GRAD.:     1.707 HEAT: -99.67086
 CYCLE:   434 TIME:   0.539 TIME LEFT:  2.00D  GRAD.:     2.132 HEAT: -99.67100
 CYCLE:   435 TIME:   0.578 TIME LEFT:  2.00D  GRAD.:     5.770 HEAT: -99.67138
 CYCLE:   436 TIME:   0.617 TIME LEFT:  2.00D  GRAD.:     2.813 HEAT: -99.67176
 CYCLE:   437 TIME:   0.648 TIME LEFT:  2.00D  GRAD.:     2.160 HEAT: -99.67200
 CYCLE:   438 TIME:   0.648 TIME LEFT:  2.00D  GRAD.:     1.441 HEAT: -99.67225
 CYCLE:   439 TIME:   0.703 TIME LEFT:  2.00D  GRAD.:     2.386 HEAT: -99.67252
 CYCLE:   440 TIME:   0.633 TIME LEFT:  2.00D  GRAD.:     2.295 HEAT: -99.67284
 CYCLE:   441 TIME:   0.578 TIME LEFT:  2.00D  GRAD.:     2.357 HEAT: -99.67319
 CYCLE:   442 TIME:   0.539 TIME LEFT:  2.00D  GRAD.:     4.282 HEAT: -99.67352
 CYCLE:   443 TIME:   0.500 TIME LEFT:  2.00D  GRAD.:     2.122 HEAT: -99.67380
 CYCLE:   444 TIME:   0.648 TIME LEFT:  2.00D  GRAD.:     2.007 HEAT: -99.67411
 CYCLE:   445 TIME:   0.695 TIME LEFT:  2.00D  GRAD.:     3.640 HEAT: -99.67444
 CYCLE:   446 TIME:   0.602 TIME LEFT:  2.00D  GRAD.:     2.436 HEAT: -99.67479
 CYCLE:   447 TIME:   0.633 TIME LEFT:  2.00D  GRAD.:     1.965 HEAT: -99.67524
 CYCLE:   448 TIME:   0.555 TIME LEFT:  2.00D  GRAD.:     2.840 HEAT: -99.67555
 CYCLE:   449 TIME:   0.617 TIME LEFT:  2.00D  GRAD.:     2.663 HEAT: -99.67582
 CYCLE:   450 TIME:   0.578 TIME LEFT:  2.00D  GRAD.:     3.398 HEAT: -99.67603
 CYCLE:   451 TIME:   0.547 TIME LEFT:  2.00D  GRAD.:     3.113 HEAT: -99.67618
 CYCLE:   452 TIME:   0.516 TIME LEFT:  2.00D  GRAD.:     1.716 HEAT: -99.67661
 CYCLE:   453 TIME:   0.539 TIME LEFT:  2.00D  GRAD.:     1.624 HEAT: -99.67691
 CYCLE:   454 TIME:   0.602 TIME LEFT:  2.00D  GRAD.:     2.314 HEAT: -99.67720
 CYCLE:   455 TIME:   0.555 TIME LEFT:  2.00D  GRAD.:     2.207 HEAT: -99.67741
 CYCLE:   456 TIME:   0.641 TIME LEFT:  2.00D  GRAD.:     1.727 HEAT: -99.67764
 CYCLE:   457 TIME:   0.625 TIME LEFT:  2.00D  GRAD.:     1.850 HEAT: -99.67791
 CYCLE:   458 TIME:   0.586 TIME LEFT:  2.00D  GRAD.:     1.534 HEAT: -99.67811
 CYCLE:   459 TIME:   0.633 TIME LEFT:  2.00D  GRAD.:     3.462 HEAT: -99.67836
 CYCLE:   460 TIME:   0.555 TIME LEFT:  2.00D  GRAD.:     1.796 HEAT: -99.67864
 CYCLE:   461 TIME:   0.508 TIME LEFT:  2.00D  GRAD.:     1.323 HEAT: -99.67875
 CYCLE:   462 TIME:   0.641 TIME LEFT:  2.00D  GRAD.:     1.376 HEAT: -99.67890
 CYCLE:   463 TIME:   0.617 TIME LEFT:  2.00D  GRAD.:    19.076 HEAT: -99.67767
 CYCLE:   464 TIME:   0.555 TIME LEFT:  2.00D  GRAD.:     2.596 HEAT: -99.67936
 CYCLE:   465 TIME:   0.609 TIME LEFT:  2.00D  GRAD.:     1.853 HEAT: -99.67934
 CYCLE:   466 TIME:   0.656 TIME LEFT:  2.00D  GRAD.:     6.860 HEAT: -99.67921
 CYCLE:   467 TIME:   0.609 TIME LEFT:  2.00D  GRAD.:     1.751 HEAT: -99.67977
 CYCLE:   468 TIME:   0.594 TIME LEFT:  2.00D  GRAD.:     1.253 HEAT: -99.67987
 CYCLE:   469 TIME:   0.586 TIME LEFT:  2.00D  GRAD.:     3.334 HEAT: -99.68005
 CYCLE:   470 TIME:   0.555 TIME LEFT:  2.00D  GRAD.:     1.493 HEAT: -99.68030
 CYCLE:   471 TIME:   0.625 TIME LEFT:  2.00D  GRAD.:     1.474 HEAT: -99.68054
 CYCLE:   472 TIME:   0.547 TIME LEFT:  2.00D  GRAD.:     1.953 HEAT: -99.68075
 CYCLE:   473 TIME:   0.688 TIME LEFT:  2.00D  GRAD.:     2.563 HEAT: -99.68108
 CYCLE:   474 TIME:   1.055 TIME LEFT:  2.00D  GRAD.:     7.253 HEAT: -99.68095
 CYCLE:   475 TIME:   0.547 TIME LEFT:  2.00D  GRAD.:     1.996 HEAT: -99.68144
 CYCLE:   476 TIME:   0.523 TIME LEFT:  2.00D  GRAD.:     1.338 HEAT: -99.68152
 CYCLE:   477 TIME:   0.609 TIME LEFT:  2.00D  GRAD.:     5.828 HEAT: -99.68124
 CYCLE:   478 TIME:   0.531 TIME LEFT:  2.00D  GRAD.:     1.636 HEAT: -99.68169
 CYCLE:   479 TIME:   0.570 TIME LEFT:  2.00D  GRAD.:     1.835 HEAT: -99.68182
 CYCLE:   480 TIME:   0.609 TIME LEFT:  2.00D  GRAD.:     1.317 HEAT: -99.68198
 CYCLE:   481 TIME:   0.578 TIME LEFT:  2.00D  GRAD.:     1.400 HEAT: -99.68213
 CYCLE:   482 TIME:   0.570 TIME LEFT:  2.00D  GRAD.:     2.769 HEAT: -99.68252
 CYCLE:   483 TIME:   0.539 TIME LEFT:  2.00D  GRAD.:     2.564 HEAT: -99.68291
 CYCLE:   484 TIME:   0.602 TIME LEFT:  2.00D  GRAD.:     1.169 HEAT: -99.68314
 CYCLE:   485 TIME:   0.711 TIME LEFT:  2.00D  GRAD.:     1.669 HEAT: -99.68326
 CYCLE:   486 TIME:   0.656 TIME LEFT:  2.00D  GRAD.:     3.254 HEAT: -99.68343
 CYCLE:   487 TIME:   0.578 TIME LEFT:  2.00D  GRAD.:     2.237 HEAT: -99.68363
 CYCLE:   488 TIME:   0.609 TIME LEFT:  2.00D  GRAD.:     1.100 HEAT: -99.68390
 CYCLE:   489 TIME:   0.594 TIME LEFT:  2.00D  GRAD.:     1.958 HEAT: -99.68401
 CYCLE:   490 TIME:   0.539 TIME LEFT:  2.00D  GRAD.:     2.575 HEAT: -99.68418
 CYCLE:   491 TIME:   0.539 TIME LEFT:  2.00D  GRAD.:     5.962 HEAT: -99.68408
 CYCLE:   492 TIME:   0.539 TIME LEFT:  2.00D  GRAD.:     1.399 HEAT: -99.68441
 CYCLE:   493 TIME:   0.648 TIME LEFT:  2.00D  GRAD.:     1.200 HEAT: -99.68447
 CYCLE:   494 TIME:   0.672 TIME LEFT:  2.00D  GRAD.:     1.083 HEAT: -99.68462
 CYCLE:   495 TIME:   0.578 TIME LEFT:  2.00D  GRAD.:     5.583 HEAT: -99.68452
 CYCLE:   496 TIME:   0.617 TIME LEFT:  2.00D  GRAD.:     1.826 HEAT: -99.68494
 CYCLE:   497 TIME:   0.625 TIME LEFT:  2.00D  GRAD.:     1.105 HEAT: -99.68505
 CYCLE:   498 TIME:   0.641 TIME LEFT:  2.00D  GRAD.:     1.827 HEAT: -99.68518
 CYCLE:   499 TIME:   0.875 TIME LEFT:  2.00D  GRAD.:     3.291 HEAT: -99.68537
 CYCLE:   500 TIME:   0.625 TIME LEFT:  2.00D  GRAD.:     1.764 HEAT: -99.68555
 CYCLE:   501 TIME:   0.547 TIME LEFT:  2.00D  GRAD.:     1.277 HEAT: -99.68559
 CYCLE:   502 TIME:   0.555 TIME LEFT:  2.00D  GRAD.:     2.428 HEAT: -99.68565
 CYCLE:   503 TIME:   0.523 TIME LEFT:  2.00D  GRAD.:     1.886 HEAT: -99.68577
 CYCLE:   504 TIME:   0.578 TIME LEFT:  2.00D  GRAD.:     1.021 HEAT: -99.68607
 CYCLE:   505 TIME:   0.602 TIME LEFT:  2.00D  GRAD.:     5.454 HEAT: -99.68595
 CYCLE:   506 TIME:   0.625 TIME LEFT:  2.00D  GRAD.:     1.137 HEAT: -99.68614
 CYCLE:   507 TIME:   0.602 TIME LEFT:  2.00D  GRAD.:     0.864 HEAT: -99.68618
 CYCLE:   508 TIME:   0.539 TIME LEFT:  2.00D  GRAD.:     1.044 HEAT: -99.68624
 CYCLE:   509 TIME:   0.578 TIME LEFT:  2.00D  GRAD.:     1.377 HEAT: -99.68634
 CYCLE:   510 TIME:   0.539 TIME LEFT:  2.00D  GRAD.:     3.037 HEAT: -99.68643
 CYCLE:   511 TIME:   0.523 TIME LEFT:  2.00D  GRAD.:     1.025 HEAT: -99.68664
 CYCLE:   512 TIME:   0.602 TIME LEFT:  2.00D  GRAD.:     0.955 HEAT: -99.68674
 CYCLE:   513 TIME:   0.633 TIME LEFT:  2.00D  GRAD.:     1.513 HEAT: -99.68682
 CYCLE:   514 TIME:   0.586 TIME LEFT:  2.00D  GRAD.:     5.039 HEAT: -99.68668
 CYCLE:   515 TIME:   0.531 TIME LEFT:  2.00D  GRAD.:     1.081 HEAT: -99.68691
 CYCLE:   516 TIME:   0.617 TIME LEFT:  2.00D  GRAD.:     1.798 HEAT: -99.68690
 CYCLE:   517 TIME:   0.531 TIME LEFT:  2.00D  GRAD.:     2.024 HEAT: -99.68702
 CYCLE:   518 TIME:   0.531 TIME LEFT:  2.00D  GRAD.:     1.499 HEAT: -99.68710
 CYCLE:   519 TIME:   0.547 TIME LEFT:  2.00D  GRAD.:     0.877 HEAT: -99.68719
 CYCLE:   520 TIME:   0.578 TIME LEFT:  2.00D  GRAD.:     2.357 HEAT: -99.68724
 CYCLE:   521 TIME:   0.555 TIME LEFT:  2.00D  GRAD.:    18.543 HEAT: -99.68466
 CYCLE:   522 TIME:   0.547 TIME LEFT:  2.00D  GRAD.:     1.940 HEAT: -99.68723
 CYCLE:   523 TIME:   0.594 TIME LEFT:  2.00D  GRAD.:     1.904 HEAT: -99.68728
 CYCLE:   524 TIME:   0.555 TIME LEFT:  2.00D  GRAD.:     4.412 HEAT: -99.68695
 CYCLE:   525 TIME:   0.523 TIME LEFT:  2.00D  GRAD.:     1.776 HEAT: -99.68750
 CYCLE:   526 TIME:   0.578 TIME LEFT:  2.00D  GRAD.:     3.272 HEAT: -99.68743
 CYCLE:   527 TIME:   0.555 TIME LEFT:  2.00D  GRAD.:     0.827 HEAT: -99.68760
 CYCLE:   528 TIME:   0.547 TIME LEFT:  2.00D  GRAD.:     0.751 HEAT: -99.68765
 CYCLE:   529 TIME:   0.617 TIME LEFT:  2.00D  GRAD.:     7.168 HEAT: -99.68680
 CYCLE:   530 TIME:   0.555 TIME LEFT:  2.00D  GRAD.:     0.757 HEAT: -99.68772
 CYCLE:   531 TIME:   0.562 TIME LEFT:  2.00D  GRAD.:     1.801 HEAT: -99.68776
 CYCLE:   532 TIME:   0.508 TIME LEFT:  2.00D  GRAD.:     2.047 HEAT: -99.68780
 CYCLE:   533 TIME:   0.523 TIME LEFT:  2.00D  GRAD.:     1.863 HEAT: -99.68790
 CYCLE:   534 TIME:   0.547 TIME LEFT:  2.00D  GRAD.:     1.234 HEAT: -99.68804
 CYCLE:   535 TIME:   0.586 TIME LEFT:  2.00D  GRAD.:     1.197 HEAT: -99.68811
 CYCLE:   536 TIME:   0.508 TIME LEFT:  2.00D  GRAD.:     4.637 HEAT: -99.68814
 CYCLE:   537 TIME:   0.477 TIME LEFT:  2.00D  GRAD.:     1.958 HEAT: -99.68821
 CYCLE:   538 TIME:   0.602 TIME LEFT:  2.00D  GRAD.:     1.115 HEAT: -99.68827
 CYCLE:   539 TIME:   0.641 TIME LEFT:  2.00D  GRAD.:     2.741 HEAT: -99.68833
 CYCLE:   540 TIME:   0.500 TIME LEFT:  2.00D  GRAD.:     2.847 HEAT: -99.68839
 CYCLE:   541 TIME:   0.648 TIME LEFT:  2.00D  GRAD.:     2.685 HEAT: -99.68853
 CYCLE:   542 TIME:   0.656 TIME LEFT:  2.00D  GRAD.:     1.447 HEAT: -99.68863
 CYCLE:   543 TIME:   0.594 TIME LEFT:  2.00D  GRAD.:     1.116 HEAT: -99.68875
 CYCLE:   544 TIME:   0.555 TIME LEFT:  2.00D  GRAD.:     1.590 HEAT: -99.68884
 CYCLE:   545 TIME:   0.617 TIME LEFT:  2.00D  GRAD.:     2.407 HEAT: -99.68890
 CYCLE:   546 TIME:   0.648 TIME LEFT:  2.00D  GRAD.:     3.367 HEAT: -99.68887
 CYCLE:   547 TIME:   0.656 TIME LEFT:  2.00D  GRAD.:     1.060 HEAT: -99.68905
 CYCLE:   548 TIME:   0.664 TIME LEFT:  2.00D  GRAD.:     0.747 HEAT: -99.68912
 CYCLE:   549 TIME:   0.633 TIME LEFT:  2.00D  GRAD.:     1.290 HEAT: -99.68918
 CYCLE:   550 TIME:   0.523 TIME LEFT:  2.00D  GRAD.:     1.175 HEAT: -99.68936
 CYCLE:   551 TIME:   0.500 TIME LEFT:  2.00D  GRAD.:     5.475 HEAT: -99.68941
 CYCLE:   552 TIME:   0.523 TIME LEFT:  2.00D  GRAD.:     2.411 HEAT: -99.68951
 CYCLE:   553 TIME:   0.547 TIME LEFT:  2.00D  GRAD.:     1.191 HEAT: -99.68953
 CYCLE:   554 TIME:   0.508 TIME LEFT:  2.00D  GRAD.:     0.890 HEAT: -99.68957
 CYCLE:   555 TIME:   0.516 TIME LEFT:  2.00D  GRAD.:     1.719 HEAT: -99.68963
 CYCLE:   556 TIME:   0.523 TIME LEFT:  2.00D  GRAD.:     1.518 HEAT: -99.68970
 CYCLE:   557 TIME:   0.562 TIME LEFT:  2.00D  GRAD.:     1.881 HEAT: -99.68982
 CYCLE:   558 TIME:   0.586 TIME LEFT:  2.00D  GRAD.:     1.304 HEAT: -99.68991
 CYCLE:   559 TIME:   0.562 TIME LEFT:  2.00D  GRAD.:     0.893 HEAT: -99.68999
 CYCLE:   560 TIME:   0.609 TIME LEFT:  2.00D  GRAD.:     0.740 HEAT: -99.69006
 CYCLE:   561 TIME:   0.672 TIME LEFT:  2.00D  GRAD.:     0.908 HEAT: -99.69013
 CYCLE:   562 TIME:   0.656 TIME LEFT:  2.00D  GRAD.:     1.234 HEAT: -99.69022
 CYCLE:   563 TIME:   0.641 TIME LEFT:  2.00D  GRAD.:     1.628 HEAT: -99.69035
 CYCLE:   564 TIME:   0.594 TIME LEFT:  2.00D  GRAD.:     1.649 HEAT: -99.69050
 CYCLE:   565 TIME:   0.633 TIME LEFT:  2.00D  GRAD.:     6.482 HEAT: -99.69042
 CYCLE:   566 TIME:   0.547 TIME LEFT:  2.00D  GRAD.:     1.250 HEAT: -99.69057
 CYCLE:   567 TIME:   0.664 TIME LEFT:  2.00D  GRAD.:     2.173 HEAT: -99.69052
 CYCLE:   568 TIME:   0.648 TIME LEFT:  2.00D  GRAD.:     0.646 HEAT: -99.69059
 CYCLE:   569 TIME:   0.641 TIME LEFT:  2.00D  GRAD.:     2.062 HEAT: -99.69056
 CYCLE:   570 TIME:   0.586 TIME LEFT:  2.00D  GRAD.:     1.155 HEAT: -99.69062
 CYCLE:   571 TIME:   0.664 TIME LEFT:  2.00D  GRAD.:     1.702 HEAT: -99.69056
 CYCLE:   572 TIME:   0.562 TIME LEFT:  2.00D  GRAD.:     1.075 HEAT: -99.69063
 CYCLE:   573 TIME:   0.609 TIME LEFT:  2.00D  GRAD.:     8.104 HEAT: -99.68990
 CYCLE:   574 TIME:   0.664 TIME LEFT:  2.00D  GRAD.:     1.508 HEAT: -99.69067
 CYCLE:   575 TIME:   0.680 TIME LEFT:  2.00D  GRAD.:     2.218 HEAT: -99.69058
 CYCLE:   576 TIME:   0.609 TIME LEFT:  2.00D  GRAD.:     1.522 HEAT: -99.69064
 CYCLE:   577 TIME:   0.586 TIME LEFT:  2.00D  GRAD.:     1.398 HEAT: -99.69080
 CYCLE:   578 TIME:   0.586 TIME LEFT:  2.00D  GRAD.:     2.001 HEAT: -99.69082
 CYCLE:   579 TIME:   0.586 TIME LEFT:  2.00D  GRAD.:     0.707 HEAT: -99.69089
 CYCLE:   580 TIME:   0.648 TIME LEFT:  2.00D  GRAD.:     1.745 HEAT: -99.69087
 CYCLE:   581 TIME:   0.633 TIME LEFT:  2.00D  GRAD.:     0.511 HEAT: -99.69094
 CYCLE:   582 TIME:   0.641 TIME LEFT:  2.00D  GRAD.:     5.568 HEAT: -99.69064
 CYCLE:   583 TIME:   0.617 TIME LEFT:  2.00D  GRAD.:     0.771 HEAT: -99.69099
 CYCLE:   584 TIME:   0.562 TIME LEFT:  2.00D  GRAD.:     0.911 HEAT: -99.69100
 CYCLE:   585 TIME:   0.570 TIME LEFT:  2.00D  GRAD.:     1.296 HEAT: -99.69089
 CYCLE:   586 TIME:   0.609 TIME LEFT:  2.00D  GRAD.:     1.244 HEAT: -99.69104
 CYCLE:   587 TIME:   0.680 TIME LEFT:  2.00D  GRAD.:     1.032 HEAT: -99.69106
 CYCLE:   588 TIME:   0.617 TIME LEFT:  2.00D  GRAD.:     2.149 HEAT: -99.69108
 CYCLE:   589 TIME:   0.562 TIME LEFT:  2.00D  GRAD.:     0.817 HEAT: -99.69112
 CYCLE:   590 TIME:   0.625 TIME LEFT:  2.00D  GRAD.:     6.732 HEAT: -99.69047
 CYCLE:   591 TIME:   0.578 TIME LEFT:  2.00D  GRAD.:     2.728 HEAT: -99.69109
 CYCLE:   592 TIME:   0.617 TIME LEFT:  2.00D  GRAD.:     1.833 HEAT: -99.69111
 CYCLE:   593 TIME:   0.570 TIME LEFT:  2.00D  GRAD.:     6.568 HEAT: -99.69093
 CYCLE:   594 TIME:   0.531 TIME LEFT:  2.00D  GRAD.:     0.797 HEAT: -99.69120
 CYCLE:   595 TIME:   0.578 TIME LEFT:  2.00D  GRAD.:     0.866 HEAT: -99.69121
 CYCLE:   596 TIME:   0.594 TIME LEFT:  2.00D  GRAD.:     0.856 HEAT: -99.69127
 CYCLE:   597 TIME:   0.570 TIME LEFT:  2.00D  GRAD.:     0.627 HEAT: -99.69130
 CYCLE:   598 TIME:   0.594 TIME LEFT:  2.00D  GRAD.:     2.308 HEAT: -99.69133
 CYCLE:   599 TIME:   0.547 TIME LEFT:  2.00D  GRAD.:     1.006 HEAT: -99.69136
 CYCLE:   600 TIME:   0.594 TIME LEFT:  2.00D  GRAD.:     0.969 HEAT: -99.69139
 CYCLE:   601 TIME:   0.617 TIME LEFT:  2.00D  GRAD.:     1.246 HEAT: -99.69145
 CYCLE:   602 TIME:   0.594 TIME LEFT:  2.00D  GRAD.:     1.043 HEAT: -99.69152
 CYCLE:   603 TIME:   0.523 TIME LEFT:  2.00D  GRAD.:     1.031 HEAT: -99.69158
 CYCLE:   604 TIME:   0.523 TIME LEFT:  2.00D  GRAD.:     1.201 HEAT: -99.69165
 CYCLE:   605 TIME:   0.562 TIME LEFT:  2.00D  GRAD.:     1.257 HEAT: -99.69170
 CYCLE:   606 TIME:   0.602 TIME LEFT:  2.00D  GRAD.:     0.954 HEAT: -99.69178
 CYCLE:   607 TIME:   0.609 TIME LEFT:  2.00D  GRAD.:     0.940 HEAT: -99.69183
 CYCLE:   608 TIME:   0.578 TIME LEFT:  2.00D  GRAD.:     2.395 HEAT: -99.69186
 CYCLE:   609 TIME:   0.578 TIME LEFT:  2.00D  GRAD.:     1.767 HEAT: -99.69188
 CYCLE:   610 TIME:   0.594 TIME LEFT:  2.00D  GRAD.:     1.519 HEAT: -99.69192
 CYCLE:   611 TIME:   0.578 TIME LEFT:  2.00D  GRAD.:     0.796 HEAT: -99.69195
 CYCLE:   612 TIME:   0.617 TIME LEFT:  2.00D  GRAD.:     0.647 HEAT: -99.69199
 CYCLE:   613 TIME:   0.609 TIME LEFT:  2.00D  GRAD.:     1.271 HEAT: -99.69207
 CYCLE:   614 TIME:   0.555 TIME LEFT:  2.00D  GRAD.:     1.852 HEAT: -99.69210
 CYCLE:   615 TIME:   0.492 TIME LEFT:  2.00D  GRAD.:     1.381 HEAT: -99.69214
 CYCLE:   616 TIME:   0.492 TIME LEFT:  2.00D  GRAD.:     0.568 HEAT: -99.69216
 CYCLE:   617 TIME:   0.594 TIME LEFT:  2.00D  GRAD.:     0.814 HEAT: -99.69217
 CYCLE:   618 TIME:   0.555 TIME LEFT:  2.00D  GRAD.:     1.642 HEAT: -99.69217
 CYCLE:   619 TIME:   0.523 TIME LEFT:  2.00D  GRAD.:     0.709 HEAT: -99.69221
 CYCLE:   620 TIME:   0.578 TIME LEFT:  2.00D  GRAD.:     1.923 HEAT: -99.69220
 CYCLE:   621 TIME:   0.555 TIME LEFT:  2.00D  GRAD.:     1.140 HEAT: -99.69222
 CYCLE:   622 TIME:   0.531 TIME LEFT:  2.00D  GRAD.:     0.695 HEAT: -99.69227
 CYCLE:   623 TIME:   0.602 TIME LEFT:  2.00D  GRAD.:     2.823 HEAT: -99.69224
 CYCLE:   624 TIME:   0.578 TIME LEFT:  2.00D  GRAD.:     2.415 HEAT: -99.69231
 CYCLE:   625 TIME:   0.562 TIME LEFT:  2.00D  GRAD.:     3.765 HEAT: -99.69222
 CYCLE:   626 TIME:   0.570 TIME LEFT:  2.00D  GRAD.:     2.548 HEAT: -99.69232
 CYCLE:   627 TIME:   0.602 TIME LEFT:  2.00D  GRAD.:     0.903 HEAT: -99.69235
 CYCLE:   628 TIME:   0.648 TIME LEFT:  2.00D  GRAD.:     1.429 HEAT: -99.69235
 CYCLE:   629 TIME:   0.617 TIME LEFT:  2.00D  GRAD.:     0.702 HEAT: -99.69237
 CYCLE:   630 TIME:   0.555 TIME LEFT:  2.00D  GRAD.:     0.617 HEAT: -99.69239
 CYCLE:   631 TIME:   0.586 TIME LEFT:  2.00D  GRAD.:     0.581 HEAT: -99.69242
 CYCLE:   632 TIME:   0.555 TIME LEFT:  2.00D  GRAD.:     1.879 HEAT: -99.69244
 CYCLE:   633 TIME:   0.500 TIME LEFT:  2.00D  GRAD.:     1.434 HEAT: -99.69248
 CYCLE:   634 TIME:   0.547 TIME LEFT:  2.00D  GRAD.:     1.918 HEAT: -99.69249
 CYCLE:   635 TIME:   0.477 TIME LEFT:  2.00D  GRAD.:     0.885 HEAT: -99.69254
 CYCLE:   636 TIME:   0.500 TIME LEFT:  2.00D  GRAD.:     0.505 HEAT: -99.69258
 CYCLE:   637 TIME:   0.547 TIME LEFT:  2.00D  GRAD.:     0.709 HEAT: -99.69261
 CYCLE:   638 TIME:   0.609 TIME LEFT:  2.00D  GRAD.:     1.855 HEAT: -99.69260
 CYCLE:   639 TIME:   0.625 TIME LEFT:  2.00D  GRAD.:     1.202 HEAT: -99.69265
 CYCLE:   640 TIME:   0.547 TIME LEFT:  2.00D  GRAD.:     0.825 HEAT: -99.69271
 CYCLE:   641 TIME:   0.648 TIME LEFT:  2.00D  GRAD.:     0.846 HEAT: -99.69276
 CYCLE:   642 TIME:   0.648 TIME LEFT:  2.00D  GRAD.:    19.411 HEAT: -99.69047
 CYCLE:   643 TIME:   0.656 TIME LEFT:  2.00D  GRAD.:    11.164 HEAT: -99.69186
 CYCLE:   644 TIME:   0.539 TIME LEFT:  2.00D  GRAD.:     1.926 HEAT: -99.69282
 CYCLE:   645 TIME:   0.562 TIME LEFT:  2.00D  GRAD.:     2.065 HEAT: -99.69282
 CYCLE:   646 TIME:   0.531 TIME LEFT:  2.00D  GRAD.:    10.338 HEAT: -99.69214
 CYCLE:   647 TIME:   0.555 TIME LEFT:  2.00D  GRAD.:     1.064 HEAT: -99.69292
 CYCLE:   648 TIME:   0.633 TIME LEFT:  2.00D  GRAD.:     0.528 HEAT: -99.69293
 CYCLE:   649 TIME:   0.578 TIME LEFT:  2.00D  GRAD.:     1.234 HEAT: -99.69290
 CYCLE:   650 TIME:   0.570 TIME LEFT:  2.00D  GRAD.:     0.555 HEAT: -99.69296
 CYCLE:   651 TIME:   0.555 TIME LEFT:  2.00D  GRAD.:     1.236 HEAT: -99.69285
 CYCLE:   652 TIME:   0.617 TIME LEFT:  2.00D  GRAD.:    12.238 HEAT: -99.69181
 CYCLE:   653 TIME:   0.555 TIME LEFT:  2.00D  GRAD.:     0.918 HEAT: -99.69299
 CYCLE:   654 TIME:   0.648 TIME LEFT:  2.00D  GRAD.:     1.537 HEAT: -99.69287
 CYCLE:   655 TIME:   0.641 TIME LEFT:  2.00D  GRAD.:     1.395 HEAT: -99.69307
 CYCLE:   656 TIME:   0.633 TIME LEFT:  2.00D  GRAD.:     3.904 HEAT: -99.69303
 CYCLE:   657 TIME:   0.594 TIME LEFT:  2.00D  GRAD.:     0.530 HEAT: -99.69315
 CYCLE:   658 TIME:   0.594 TIME LEFT:  2.00D  GRAD.:     0.515 HEAT: -99.69315
 CYCLE:   659 TIME:   0.562 TIME LEFT:  2.00D  GRAD.:     0.646 HEAT: -99.69318
 CYCLE:   660 TIME:   0.539 TIME LEFT:  2.00D  GRAD.:     0.787 HEAT: -99.69320
 CYCLE:   661 TIME:   0.555 TIME LEFT:  2.00D  GRAD.:     2.914 HEAT: -99.69320
 CYCLE:   662 TIME:   0.578 TIME LEFT:  2.00D  GRAD.:     0.578 HEAT: -99.69325
 CYCLE:   663 TIME:   0.578 TIME LEFT:  2.00D  GRAD.:     0.672 HEAT: -99.69326
 CYCLE:   664 TIME:   0.586 TIME LEFT:  2.00D  GRAD.:     1.105 HEAT: -99.69327
 CYCLE:   665 TIME:   0.508 TIME LEFT:  2.00D  GRAD.:     1.520 HEAT: -99.69326
 CYCLE:   666 TIME:   0.578 TIME LEFT:  2.00D  GRAD.:     0.486 HEAT: -99.69331
 CYCLE:   667 TIME:   0.609 TIME LEFT:  2.00D  GRAD.:     0.477 HEAT: -99.69333
 CYCLE:   668 TIME:   0.648 TIME LEFT:  2.00D  GRAD.:     1.255 HEAT: -99.69334
 CYCLE:   669 TIME:   0.672 TIME LEFT:  2.00D  GRAD.:     0.973 HEAT: -99.69337
[...]
   38  C   1.15661   0.95217   0.85210   0.91495
   39  C   1.16012   1.05097   0.93870   0.95931
   40  C   1.17274   0.94811   0.90873   0.98181
   41  C   1.14916   1.04837   0.91115   0.96661
   42  C   1.17642   0.96032   0.96782   0.93868
   43  C   1.17123   1.05510   0.92850   1.01625
   44  C   1.22051   0.99943   1.00211   1.02583
   45  C   1.18208   0.99401   0.96184   1.02026
   46  C   1.18463   0.93324   0.94513   0.94621
   47  C   1.21799   1.03302   1.04025   1.16844
   48  S   1.88247   1.05984   1.01571   1.47405
   49  C   1.17034   0.90519   0.89202   0.86496
   50  C   1.14040   0.97813   0.97424   1.08901
   51  C   1.17938   0.79202   0.84828   0.77122
   52  O   1.91043   1.58911   1.54833   1.33722
   53  O   1.84009   1.36976   1.40104   1.70232
   54  C   1.19485   0.91628   0.91945   0.91592
   55  N   1.84838   1.09056   1.10248   1.11146
   56  C   1.15715   0.96061   0.99478   0.96145
   57  C   1.17803   0.98233   0.95777   0.92957
   58  C   1.17833   0.97327   1.00072   1.01921
   59  C   1.17037   0.93543   0.88383   0.86700
   60  C   1.17758   1.02094   1.05256   0.97941
   61  C   1.17662   0.95419   0.93723   0.96948
   62  O   1.85949   1.34280   1.55989   1.47943
   63  C   1.18045   0.84214   0.95877   0.98467
   64  C   1.17361   0.98931   1.00949   0.96726
   65  C   1.16995   0.96832   0.99949   0.98488
   66  C   1.17071   0.98205   0.99964   0.97036
   67  C   1.17073   0.97430   0.99887   0.97984
   68  C   1.17074   0.97964   0.99916   0.97341
   69  C   1.16677   0.97490   0.99672   0.97381
   70  C   1.15573   1.02843   1.01305   0.98019
   71  C   1.15833   0.92358   1.01737   0.83751
   72  C   1.17915   0.95226   1.04842   0.98448
   73  C   1.16960   1.00064   0.99542   0.95271
   74  C   1.17141   0.99414   0.99461   0.96790
   75  C   1.17101   0.98829   1.00053   0.96376
   76  C   1.17111   0.99031   0.99853   0.96512
   77  C   1.16677   0.98464   0.99613   0.96462
   78  C   1.15603   1.02076   1.00118   1.00014
   79  H   0.87180
   80  H   0.94240
   81  H   0.94210
   82  H   0.94364
   83  H   0.94008
   84  H   0.93977
   85  H   0.93748
   86  H   0.93850
   87  H   0.93788
   88  H   0.93697
   89  H   0.93455
   90  H   0.93801
   91  H   0.93595
   92  H   0.93410
   93  H   0.92031
   94  H   0.92090
   95  H   0.94015
   96  H   0.93992
   97  H   0.87606
   98  H   0.88652
   99  H   0.88194
  100  H   0.86873
  101  H   0.88384
  102  H   0.89274
  103  H   0.90154
  104  H   0.88218
  105  H   0.92186
  106  H   0.90345
  107  H   0.92305
  108  H   0.92117
  109  H   0.93424
  110  H   0.94051
  111  H   0.93883
  112  H   0.93583
  113  H   0.93546
  114  H   0.93710
  115  H   0.93640
  116  H   0.93493
  117  H   0.94622
  118  H   0.93836
  119  H   0.94385
  120  H   0.93963
  121  H   0.94168
  122  H   0.87484
  123  H   0.89057
  124  H   0.87640
  125  H   0.86257
  126  H   0.87781
  127  H   0.75673
  128  H   0.88194
  129  H   0.86735
  130  H   0.87679
  131  H   0.88515
  132  H   0.94066
  133  H   0.94483
  134  H   0.91780
  135  H   0.91853
  136  H   0.93646
  137  H   0.93697
  138  H   0.93494
  139  H   0.93587
  140  H   0.93807
  141  H   0.93787
  142  H   0.93680
  143  H   0.93747
  144  H   0.94050
  145  H   0.94011
  146  H   0.94175
  147  H   0.94223
  148  H   0.94379
  149  H   0.90818
  150  H   0.92573
  151  H   0.92023
  152  H   0.92337
  153  H   0.93832
  154  H   0.93576
  155  H   0.93271
  156  H   0.93658
  157  H   0.93781
  158  H   0.93934
  159  H   0.93733
  160  H   0.93523
  161  H   0.93965
  162  H   0.94139
  163  H   0.94111
  164  H   0.94370
  165  H   0.94298
 ******************** TDHF POLARIZABILITIES ********************



          MOLECULAR WEIGHT = 1066.54



          ROTATIONAL CONSTANTS IN CM(-1)

          A =    0.00094894   B =    0.00031589   C =    0.00024663



           PRINCIPAL MOMENTS OF INERTIA IN UNITS OF 10**(-40)*GRAM-CM**2

          A =    29499.0800   B =    88614.9541   C =   113500.6531


 ROTATION MATRIX FOR ORIENTATION OF MOLECULE:

         0.328263   -0.641131   -0.693682
         0.743172    0.628588   -0.229285
         0.583042   -0.440259    0.682813


          CARTESIAN COORDINATES 

    NO.       ATOM         X         Y         Z

     1         C      -15.4216    0.0562    3.3658
     2         C      -14.9227   -0.9183    2.3114
     3         C      -13.6842   -0.3679    1.6087
     4         C      -13.1836   -1.3450    0.5474
     5         C      -11.9378   -0.7964   -0.1467
     6         C      -11.4231   -1.7843   -1.1895
     7         C      -10.2907   -1.2006   -2.0291
     8         C       -9.0435   -0.9451   -1.1751
     9         O       -8.0346   -0.6204   -2.1135
    10         C       -6.7455   -0.6597   -1.6728
    11         C       -6.3544   -0.5664   -0.3395
    12         C       -4.9971   -0.5853   -0.0347
    13         C       -4.0515   -0.6954   -1.0474
    14         C       -4.4546   -0.7734   -2.3821
    15         C       -5.8002   -0.7565   -2.7040
    16         C       -2.6323   -0.7737   -0.7220
    17         C       -2.0772   -1.9936   -0.3603
    18         C       -2.6742   -3.2984   -0.2164
    19         C       -3.9603   -3.7832   -0.4043
    20         C       -4.2018   -5.1301   -0.1825
    21         C       -3.1766   -5.9926    0.2188
    22         C       -1.8823   -5.5397    0.4094
    23         C       -1.6414   -4.1837    0.1903
    24         N       -0.4424   -3.4636    0.3383
    25         C       -0.6840   -2.1314   -0.0589
    26         C        0.1893   -1.0494   -0.1586
    27         C       -0.3702    0.1672   -0.5154
    28         C       -1.7681    0.3136   -0.7767
    29         N       -2.0271    1.6519   -1.1889
    30         C       -3.2999    2.3600   -1.0076
    31         C       -3.4619    2.9215    0.4143
    32         C       -4.3591    4.1541    0.4297
    33         C       -5.7990    3.8758    0.0100
    34         C       -6.5420    3.0181    1.0317
    35         C       -8.0454    3.0413    0.7598
    36         C       -8.7992    2.2002    1.7870
    37         C      -10.2971    2.2606    1.5358
    38         C       -0.8090    2.3577   -1.0689
    39         C        0.2350    1.4644   -0.7109
    40         C        1.5370    1.9220   -0.6113
    41         C        1.7862    3.2716   -0.8558
    42         C        0.7473    4.1493   -1.1993
    43         C       -0.5597    3.7081   -1.3091
    44         C        3.1394    3.7627   -0.7549
    45         C        4.2639    3.0923   -1.1691
    46         C        5.4449    3.8385   -0.9108
    47         C        5.1753    5.0540   -0.3148
    48         S        3.5048    5.2696   -0.0648
    49         C        6.2035    5.9801    0.0395
    50         C        6.0185    7.2346    0.5057
    51         C        7.1890    8.0588    0.8268
    52         O        8.3641    7.7356    0.7168
    53         O        6.8838    9.2897    1.2863
    54         C        4.7460    7.8216    0.7034
    55         N        3.7191    8.3267    0.8742
    56         C        1.6270   -1.1467    0.0635
    57         C        2.1587   -0.9038    1.3324
    58         C        3.5241   -0.9806    1.5397
    59         C        4.3625   -1.2964    0.4588
    60         C        3.8454   -1.5222   -0.8137
    61         C        2.4683   -1.4447   -1.0013
    62         O        5.6826   -1.3285    0.7934
    63         C        6.5907   -1.7968   -0.1839
    64         C        7.9288   -1.9009    0.5581
    65         C        9.0149   -2.3730   -0.4044
    66         C       10.3515   -2.5055    0.3221
    67         C       11.4446   -2.9687   -0.6383
    68         C       12.7805   -3.1034    0.0886
    69         C       13.8750   -3.5662   -0.8699
    70         C       15.2043   -3.7003   -0.1452
    71         C        0.8362   -4.1157    0.6070
    72         C        1.3868   -4.8313   -0.6354
    73         C        2.4545   -5.8545   -0.2592
    74         C        3.6250   -5.2256    0.4918
    75         C        4.7842   -6.2151    0.6033
    76         C        5.9085   -5.6386    1.4604
    77         C        7.0879   -6.6054    1.5316
    78         C        8.2042   -6.0304    2.3881
    79         H        7.2340    5.6084   -0.0934
    80         H      -14.6678    0.2536    4.1416
    81         H      -15.6972    1.0303    2.9365
    82         H      -16.3144   -0.3232    3.8838
    83         H      -14.7020   -1.9031    2.7750
    84         H      -15.7267   -1.1293    1.5749
    85         H      -13.9090    0.6185    1.1506
    86         H      -12.8845   -0.1563    2.3502
    87         H      -12.9660   -2.3339    1.0034
    88         H      -13.9839   -1.5481   -0.1953
    89         H      -12.1602    0.1843   -0.6183
    90         H      -11.1530   -0.5771    0.6078
    91         H      -11.1009   -2.7293   -0.7026
    92         H      -12.2509   -2.0922   -1.8648
    93         H      -10.0480   -1.8943   -2.8637
    94         H      -10.6107   -0.2647   -2.5332
    95         H       -9.1926   -0.0965   -0.4697
    96         H       -8.7819   -1.8390   -0.5648
    97         H       -7.0747   -0.4743    0.4761
    98         H       -4.6741   -0.5174    1.0093
    99         H       -3.7028   -0.8553   -3.1738
   100         H       -6.1258   -0.8185   -3.7465
   101         H       -4.7672   -3.1192   -0.7259
   102         H       -5.2095   -5.5293   -0.3259
   103         H       -3.4037   -7.0508    0.3824
   104         H       -1.0883   -6.2238    0.7139
   105         H       -3.3390    3.1687   -1.7751
   106         H       -4.1442    1.6846   -1.2704
   107         H       -3.8455    2.1349    1.0967
   108         H       -2.4744    3.1939    0.8488
   109         H       -4.3415    4.6109    1.4435
   110         H       -3.9250    4.9429   -0.2239
   111         H       -6.3237    4.8471   -0.1271
   112         H       -5.8405    3.4045   -0.9937
   113         H       -6.1668    1.9724    1.0079
   114         H       -6.3353    3.3711    2.0640
   115         H       -8.4277    4.0841    0.7722
   116         H       -8.2560    2.6763   -0.2678
   117         H       -8.4488    1.1465    1.7614
   118         H       -8.5711    2.5446    2.8179
   119         H      -10.8580    1.6283    2.2400
   120         H      -10.6960    3.2798    1.6412
   121         H      -10.5652    1.9199    0.5245
   122         H        2.3481    1.2424   -0.3341
   123         H        0.9706    5.2043   -1.3917
   124         H       -1.3594    4.4014   -1.5776
   125         H        4.2682    2.1158   -1.6470
   126         H        6.4400    3.4780   -1.1657
   127         H        7.6855    9.7950    1.4841
   128         H        1.4911   -0.6528    2.1630
   129         H        3.9494   -0.7941    2.5304
   130         H        4.4757   -1.7521   -1.6748
   131         H        2.0477   -1.6128   -1.9985
   132         H        6.2843   -2.7837   -0.6003
   133         H        6.6541   -1.0869   -1.0392
   134         H        8.1989   -0.9231    1.0100
   135         H        7.8366   -2.5944    1.4213
   136         H        8.7299   -3.3425   -0.8656
   137         H        9.1076   -1.6697   -1.2590
   138         H       10.6335   -1.5391    0.7910
   139         H       10.2588   -3.2145    1.1724
   140         H       11.1620   -3.9346   -1.1080
   141         H       11.5379   -2.2597   -1.4880
   142         H       13.0649   -2.1381    0.5584
   143         H       12.6894   -3.8129    0.9382
   144         H       13.5971   -4.5328   -1.3409
   145         H       13.9728   -2.8583   -1.7201
   146         H       15.5373   -2.7492    0.2949
   147         H       15.1603   -4.4309    0.6754
   148         H       16.0065   -4.0328   -0.8199
   149         H        1.5632   -3.3693    0.9972
   150         H        0.6883   -4.8348    1.4484
   151         H        0.5686   -5.3389   -1.1915
   152         H        1.7912   -4.0888   -1.3557
   153         H        2.0088   -6.6751    0.3431
   154         H        2.8140   -6.3569   -1.1833
   155         H        3.9588   -4.2931   -0.0125
   156         H        3.3085   -4.9004    1.5052
   157         H        4.4308   -7.1775    1.0303
   158         H        5.1642   -6.4789   -0.4064
   159         H        6.2399   -4.6577    1.0578
   160         H        5.5384   -5.4098    2.4823
   161         H        6.7622   -7.5873    1.9357
   162         H        7.4671   -6.8339    0.5130
   163         H        7.8806   -5.8385    3.4212
   164         H        9.0654   -6.7115    2.4494
   165         H        8.5845   -5.0766    1.9929


 ENERGY OF "REORIENTED" SYSTEM WITHOUT FIELD:      -99.6953982249


  NFREQ=  3  IWFLB=  0  IBET=  1  IGAM=  1
  ATOL= 0.10000D-02  BTOL= 0.10000D-02    MAXITU=  500    MAXITA=  150


 *****************************************************************
 CALCULATION OF STATIC FIELD QUANTITIES
 *****************************************************************

 +++++ ALPHA AT       0.00000 EV.

                           COMPONENTS OF ALPHA

                     *X           *Y           *Z
           *=X:     985.2964     106.9109      44.8204
           *=Y:     106.9350     787.7992      24.9553
           *=Z:      44.8394      24.9553     414.6476

  ISOTROPIC AVERAGE ALPHA =     729.24773 A.U. =    108.06336 ANG.**3

 +++++ BETA (SECOND HARMONIC GENERATION) AT       0.00000 EV.

                              COMPONENTS OF BETA
            *XX         *XY         *YY         *XZ         *YZ         *ZZ
   *=X -3768.24560 -3651.83143 -2959.20551  -695.43068  -655.63056  -129.95306
   *=Y -3652.22179 -2959.71958 -2354.10749  -655.73807  -482.10282   -93.91387
   *=Z  -695.57637  -655.81949  -482.09426  -129.96501   -93.94398     7.12801


 AVERAGE BETAX(SHG) VALUE AT   0.00000 EV =      -4114.6529 a.u. = -0.355482E-28 ESU
 AVERAGE BETAY(SHG) VALUE AT   0.00000 EV =      -3660.0018 a.u. = -0.316203E-28 ESU
 AVERAGE BETAZ(SHG) VALUE AT   0.00000 EV =       -702.2707 a.u. = -0.606721E-29 ESU



 AVERAGE BETA (SHG) VALUE AT   0.00000 EV =       5551.5012 a.u. =  0.479617E-28 ESU
   (1 a.u. = 8.639418X10-33 esu)



 +++++ ALPHA AT       0.00000 EV.

                           COMPONENTS OF ALPHA

                     *X           *Y           *Z
           *=X:     985.2964     106.9109      44.8204
           *=Y:     106.9350     787.7992      24.9553
           *=Z:      44.8394      24.9553     414.6476

  ISOTROPIC AVERAGE ALPHA =     729.24773 A.U. =    108.06336 ANG.**3


 GAMMA (THIRD HARMONIC GENERATION) AT    0.00000 EV.


 GAMMA(X,X,X,X) =        929489.83191
 GAMMA(Y,Y,Y,Y) =        768319.61961
 GAMMA(Z,Z,Z,Z) =          8050.39251
 GAMMA(X,X,Y,Y) =        596409.70578
 GAMMA(X,X,Z,Z) =         28358.93644
 GAMMA(Y,Y,X,X) =        596409.70538
 GAMMA(Y,Y,Z,Z) =         24641.73248
 GAMMA(Z,Z,X,X) =         28359.02496
 GAMMA(Z,Z,Y,Y) =         24641.80473


 AVERAGE GAMMA VALUE AT    0.00000 =        600936.15076 a.u. =       302673.66609 ESU (X10-39)




 **********************************************************************
 CALCULATION FOR A FREQUENCY OF    0.25000 EV  =       0.00919 A.U. 
                  WAVELENGTH OF    4959.37 NM  =    2016.38525 CM(-1)
 **********************************************************************

 +++++ ALPHA AT       0.25000 EV.

                           COMPONENTS OF ALPHA

                     *X           *Y           *Z
           *=X:     987.9125     107.9535      45.0867
           *=Y:     107.9694     790.1693      25.0891
           *=Z:      45.1086      25.0917     415.1073

  ISOTROPIC AVERAGE ALPHA =     731.06303 A.U. =    108.33236 ANG.**3

 +++++ BETA (SECOND HARMONIC GENERATION) AT       0.25000 EV.

                              COMPONENTS OF BETA
            *XX         *XY         *YY         *XZ         *YZ         *ZZ
   *=X -3943.17079 -3823.10720 -3099.11198  -723.95149  -684.86822  -134.11888
   *=Y -3828.64178 -3118.17629 -2486.18675  -687.48607  -511.36845   -99.59823
   *=Z  -723.74392  -685.15399  -507.50756  -135.09164  -100.15975     6.32406


 AVERAGE BETAX(SHG) VALUE AT   0.25000 EV =      -4313.8558 a.u. = -0.372692E-28 ESU
 AVERAGE BETAY(SHG) VALUE AT   0.25000 EV =      -3846.6668 a.u. = -0.332330E-28 ESU
 AVERAGE BETAZ(SHG) VALUE AT   0.25000 EV =       -736.5838 a.u. = -0.636366E-29 ESU



 AVERAGE BETA (SHG) VALUE AT   0.25000 EV =       5826.5559 a.u. =  0.503381E-28 ESU
   (1 a.u. = 8.639418X10-33 esu)



 +++++ ALPHA AT       0.75000 EV.

                           COMPONENTS OF ALPHA

                     *X           *Y           *Z
           *=X:    1009.9982     116.9346      47.4131
           *=Y:     116.9501     810.1422      26.2713
           *=Z:      47.4349      26.2750     418.8787

  ISOTROPIC AVERAGE ALPHA =     746.33967 A.U. =    110.59613 ANG.**3


 GAMMA (THIRD HARMONIC GENERATION) AT    0.25000 EV.


 GAMMA(X,X,X,X) =       1018973.65065
 GAMMA(Y,Y,Y,Y) =        846810.94089
 GAMMA(Z,Z,Z,Z) =          8272.06883
 GAMMA(X,X,Y,Y) =        665341.37947
 GAMMA(X,X,Z,Z) =         30342.38075
 GAMMA(Y,Y,X,X) =        671199.17823
 GAMMA(Y,Y,Z,Z) =         27064.31688
 GAMMA(Z,Z,X,X) =         30849.22239
 GAMMA(Z,Z,Y,Y) =         26955.80311


 AVERAGE GAMMA VALUE AT    0.25000 =        665161.78824 a.u. =       335022.20949 ESU (X10-39)




 **********************************************************************
 CALCULATION FOR A FREQUENCY OF    0.50000 EV  =       0.01837 A.U. 
                  WAVELENGTH OF    2479.68 NM  =    4032.77050 CM(-1)
 **********************************************************************

 +++++ ALPHA AT       0.50000 EV.

                           COMPONENTS OF ALPHA

                     *X           *Y           *Z
           *=X:     995.9431     111.1690      45.9240
           *=Y:     111.1843     797.4251      25.5103
           *=Z:      45.9432      25.5126     416.5031

  ISOTROPIC AVERAGE ALPHA =     736.62373 A.U. =    109.15637 ANG.**3

 +++++ BETA (SECOND HARMONIC GENERATION) AT       0.50000 EV.

                              COMPONENTS OF BETA
            *XX         *XY         *YY         *XZ         *YZ         *ZZ
   *=X -4559.68276 -4428.20023 -3593.22677  -824.17650  -788.34082  -148.65028
   *=Y -4453.84604 -3682.93026 -2956.03500  -800.09334  -615.94122  -119.61506
   *=Z  -823.73086  -789.28443  -597.48339  -153.16878  -122.10101     3.48152


 AVERAGE BETAX(SHG) VALUE AT   0.50000 EV =      -5018.6247 a.u. = -0.433580E-28 ESU
 AVERAGE BETAY(SHG) VALUE AT   0.50000 EV =      -4508.4337 a.u. = -0.389502E-28 ESU
 AVERAGE BETAZ(SHG) VALUE AT   0.50000 EV =       -858.2010 a.u. = -0.741436E-29 ESU



 AVERAGE BETA (SHG) VALUE AT   0.50000 EV =       6800.6674 a.u. =  0.587538E-28 ESU
   (1 a.u. = 8.639418X10-33 esu)



 +++++ ALPHA AT       1.50000 EV.

                           COMPONENTS OF ALPHA

                     *X           *Y           *Z
           *=X:    1106.6165     160.9954      58.7359
           *=Y:     161.0281     897.4951      32.4262
           *=Z:      58.7641      32.4303     433.1070

  ISOTROPIC AVERAGE ALPHA =     812.40619 A.U. =    120.38618 ANG.**3


 GAMMA (THIRD HARMONIC GENERATION) AT    0.50000 EV.


 GAMMA(X,X,X,X) =       1421790.79158
 GAMMA(Y,Y,Y,Y) =       1189219.71640
 GAMMA(Z,Z,Z,Z) =          9061.58218
 GAMMA(X,X,Y,Y) =        979009.97229
 GAMMA(X,X,Z,Z) =         39123.83710
 GAMMA(Y,Y,X,X) =       1017763.25661
 GAMMA(Y,Y,Z,Z) =         37792.42374
 GAMMA(Z,Z,X,X) =         42142.39714
 GAMMA(Z,Z,Y,Y) =         37270.66789


 AVERAGE GAMMA VALUE AT    0.50000 =        954634.92899 a.u. =       480821.22097 ESU (X10-39)



 **********************
 *                    *
 * JOB ENDED NORMALLY *
 *                    *
 **********************



 TOTAL JOB TIME:          1740.34 SECONDS

 == MOPAC DONE ==
