 *******************************************************************************
 ** Site#: 4824         For non-commercial use only    Version 21.013L 64BITS **
 *******************************************************************************
 ** Cite this program as: MOPAC2016, Version: 21.013L, James J. P. Stewart,   **
 ** Stewart Computational Chemistry, web: HTTP://OpenMOPAC.net. Days left:  87**
 *******************************************************************************
 **                                                                           **
 **                                MOPAC2016                                  **
 **                                                                           **
 *******************************************************************************

                              RM1 CALCULATION RESULTS

 *******************************************************************************
 *  CALCULATION DONE:                                Mon Oct 18 10:52:43 2021  *
 *  RM1        - The RM1 Hamiltonian to be used
 *  POLAR      - CALCULATE FIRST, SECOND AND THIRD-ORDER POLARIZABILITIES
 *  PRECISE    - TIGHTER CRITERIA TO BE USED
 *  XYZ        - CARTESIAN COORDINATE SYSTEM TO BE USED
 *  T=         - A TIME OF 172800.0 SECONDS REQUESTED
 *  DUMP=N     - RESTART FILE WRITTEN EVERY 7200.0 SECONDS REQUESTED
 *  GNORM      - EXIT WHEN GRADIENT NORM DROPS BELOW 0.100
 *******************************************************************************
RM1 PRECISE POLAR XYZ GNORM=0.1


   ATOM   CHEMICAL          X               Y               Z
  NUMBER   SYMBOL      (ANGSTROMS)     (ANGSTROMS)     (ANGSTROMS)
 
     1       N          0.00000000  *   0.00000000  *   0.00000000  *
     2       C          1.15638190  *   0.00000000  *   0.00000000  *
     3       C          2.57426031  *   0.00010950  *   0.00000000  *
     4       C          3.30270016  *  -1.12327596  *  -0.13932176  *
     5       C          2.71298153  *  -2.43092108  *  -0.36014956  *
     6       C          1.68878482  *  -2.59433488  *  -1.30535307  *
     7       C          1.10508735  *  -3.82888602  *  -1.53012272  *
     8       C          1.56707252  *  -4.90334186  *  -0.77196902  *
     9       C          2.62855361  *  -4.75221556  *   0.16641332  *
    10       C          3.20684739  *  -3.51386505  *   0.36608820  *
    11       C          2.87762220  *  -6.05149962  *   0.73831685  *
    12       C          3.77641213  *  -6.50387309  *   1.69096693  *
    13       C          3.74622791  *  -7.84605523  *   2.03887691  *
    14       C          2.82845900  *  -8.72518051  *   1.45413158  *
    15       C          1.91803329  *  -8.29983746  *   0.49897199  *
    16       C          1.96063885  *  -6.95630065  *   0.13941799  *
    17       N          1.16699118  *  -6.24742054  *  -0.78798895  *
    18       C          0.11565960  *  -6.79088792  *  -1.56775126  *
    19       C         -1.13775623  *  -6.17252599  *  -1.56136360  *
    20       C         -2.15677235  *  -6.70856511  *  -2.33437480  *
    21       C         -1.93983464  *  -7.85527980  *  -3.09619861  *
    22       C         -0.68856490  *  -8.46419414  *  -3.09013866  *
    23       C          0.34832550  *  -7.93518378  *  -2.33303004  *
    24       C         -3.04868197  *  -8.40540860  *  -3.91863831  *
    25       C          3.25322157  *   1.28780740  *   0.19559559  *
    26       O          4.46053476  *   1.47156424  *   0.26127954  *
    27       O          2.41545258  *   2.33842881  *   0.30523583  *
    28       H          4.40122369  *  -1.08647971  *  -0.07892899  *
    29       H          1.35634404  *  -1.73685158  *  -1.90069976  *
    30       H          0.31931879  *  -3.95422735  *  -2.27877240  *
    31       H          4.02186282  *  -3.39490032  *   1.08573260  *
    32       H          4.48568516  *  -5.81250989  *   2.15260765  *
    33       H          4.44783247  *  -8.22655276  *   2.78662783  *
    34       H          2.82795702  *  -9.77597312  *   1.76131216  *
    35       H          1.19274006  *  -8.98805101  *   0.06003984  *
    36       H         -1.32337213  *  -5.28403466  *  -0.94867829  *
    37       H         -3.14023771  *  -6.22767397  *  -2.33871582  *
    38       H         -0.50851945  *  -9.36289423  *  -3.68854308  *
    39       H          1.33558604  *  -8.40814268  *  -2.35013889  *
    40       H         -3.99295692  *  -8.45941263  *  -3.35562279  *
    41       H         -3.23779035  *  -7.77299657  *  -4.79994639  *
    42       H         -2.85201496  *  -9.42033102  *  -4.29397904  *
    43       H          2.90632261  *   3.16280788  *   0.43508670  *
 


          CARTESIAN COORDINATES 

    NO.       ATOM           X           Y           Z

     1         N          0.0000      0.0000      0.0000
     2         C          1.1564      0.0000      0.0000
     3         C          2.5743      0.0001      0.0000
     4         C          3.3027     -1.1233     -0.1393
     5         C          2.7130     -2.4309     -0.3601
     6         C          1.6888     -2.5943     -1.3054
     7         C          1.1051     -3.8289     -1.5301
     8         C          1.5671     -4.9033     -0.7720
     9         C          2.6286     -4.7522      0.1664
    10         C          3.2068     -3.5139      0.3661
    11         C          2.8776     -6.0515      0.7383
    12         C          3.7764     -6.5039      1.6910
    13         C          3.7462     -7.8461      2.0389
    14         C          2.8285     -8.7252      1.4541
    15         C          1.9180     -8.2998      0.4990
    16         C          1.9606     -6.9563      0.1394
    17         N          1.1670     -6.2474     -0.7880
    18         C          0.1157     -6.7909     -1.5678
    19         C         -1.1378     -6.1725     -1.5614
    20         C         -2.1568     -6.7086     -2.3344
    21         C         -1.9398     -7.8553     -3.0962
    22         C         -0.6886     -8.4642     -3.0901
    23         C          0.3483     -7.9352     -2.3330
    24         C         -3.0487     -8.4054     -3.9186
    25         C          3.2532      1.2878      0.1956
    26         O          4.4605      1.4716      0.2613
    27         O          2.4155      2.3384      0.3052
    28         H          4.4012     -1.0865     -0.0789
    29         H          1.3563     -1.7369     -1.9007
    30         H          0.3193     -3.9542     -2.2788
    31         H          4.0219     -3.3949      1.0857
    32         H          4.4857     -5.8125      2.1526
    33         H          4.4478     -8.2266      2.7866
    34         H          2.8280     -9.7760      1.7613
    35         H          1.1927     -8.9881      0.0600
    36         H         -1.3234     -5.2840     -0.9487
    37         H         -3.1402     -6.2277     -2.3387
    38         H         -0.5085     -9.3629     -3.6885
    39         H          1.3356     -8.4081     -2.3501
    40         H         -3.9930     -8.4594     -3.3556
    41         H         -3.2378     -7.7730     -4.7999
    42         H         -2.8520     -9.4203     -4.2940
    43         H          2.9063      3.1628      0.4351

  H: (RM1): G.B. ROCHA, R.O. FREIRE, A.M.SIMAS, J.J.P. STEWART, J. COMP. CHEM. 27, 1101 (2006)
  C: (RM1): G.B. ROCHA, R.O. FREIRE, A.M.SIMAS, J.J.P. STEWART, J. COMP. CHEM. 27, 1101 (2006)
  N: (RM1): G.B. ROCHA, R.O. FREIRE, A.M.SIMAS, J.J.P. STEWART, J. COMP. CHEM. 27, 1101 (2006)
  O: (RM1): G.B. ROCHA, R.O. FREIRE, A.M.SIMAS, J.J.P. STEWART, J. COMP. CHEM. 27, 1101 (2006)

           Empirical Formula: C23 H16 N2 O2  =    43 atoms



      MOLECULAR POINT GROUP   :   C1  


      RHF CALCULATION, NO. OF DOUBLY OCCUPIED LEVELS = 65


          Geometry optimization using L-BFGS
 CYCLE:     1 TIME:   0.086 TIME LEFT:  2.00D  GRAD.:     2.479 HEAT:  25.70007
 CYCLE:     2 TIME:   0.047 TIME LEFT:  2.00D  GRAD.:     2.462 HEAT:  25.70000
 CYCLE:     3 TIME:   0.062 TIME LEFT:  2.00D  GRAD.:     4.806 HEAT:  25.69667
 CYCLE:     4 TIME:   0.051 TIME LEFT:  2.00D  GRAD.:     2.539 HEAT:  25.70003
 CYCLE:     5 TIME:   0.043 TIME LEFT:  2.00D  GRAD.:     5.204 HEAT:  25.69745
 CYCLE:     6 TIME:   0.043 TIME LEFT:  2.00D  GRAD.:     3.385 HEAT:  25.69393
 CYCLE:     7 TIME:   0.043 TIME LEFT:  2.00D  GRAD.:     1.166 HEAT:  25.69280
 CYCLE:     8 TIME:   0.039 TIME LEFT:  2.00D  GRAD.:     0.868 HEAT:  25.69252
 CYCLE:     9 TIME:   0.062 TIME LEFT:  2.00D  GRAD.:     0.933 HEAT:  25.69207
 CYCLE:    10 TIME:   0.059 TIME LEFT:  2.00D  GRAD.:     0.575 HEAT:  25.69185
 CYCLE:    11 TIME:   0.062 TIME LEFT:  2.00D  GRAD.:     0.739 HEAT:  25.69140
 CYCLE:    12 TIME:   0.062 TIME LEFT:  2.00D  GRAD.:     0.779 HEAT:  25.69099
 CYCLE:    13 TIME:   0.062 TIME LEFT:  2.00D  GRAD.:     1.315 HEAT:  25.69075
 CYCLE:    14 TIME:   0.059 TIME LEFT:  2.00D  GRAD.:     0.494 HEAT:  25.69044
 CYCLE:    15 TIME:   0.055 TIME LEFT:  2.00D  GRAD.:     0.358 HEAT:  25.69031
 CYCLE:    16 TIME:   0.047 TIME LEFT:  2.00D  GRAD.:     0.385 HEAT:  25.69020
 CYCLE:    17 TIME:   0.043 TIME LEFT:  2.00D  GRAD.:     0.453 HEAT:  25.69007
 CYCLE:    18 TIME:   0.066 TIME LEFT:  2.00D  GRAD.:     0.420 HEAT:  25.68997
 CYCLE:    19 TIME:   0.051 TIME LEFT:  2.00D  GRAD.:     0.248 HEAT:  25.68990
 CYCLE:    20 TIME:   0.078 TIME LEFT:  2.00D  GRAD.:     0.230 HEAT:  25.68986
 CYCLE:    21 TIME:   0.113 TIME LEFT:  2.00D  GRAD.:     0.447 HEAT:  25.68981
 CYCLE:    22 TIME:   0.062 TIME LEFT:  2.00D  GRAD.:     0.455 HEAT:  25.68979
 CYCLE:    23 TIME:   0.059 TIME LEFT:  2.00D  GRAD.:     0.162 HEAT:  25.68977
 CYCLE:    24 TIME:   0.062 TIME LEFT:  2.00D  GRAD.:     0.140 HEAT:  25.68975
 CYCLE:    25 TIME:   0.059 TIME LEFT:  2.00D  GRAD.:     0.141 HEAT:  25.68974
 CYCLE:    26 TIME:   0.062 TIME LEFT:  2.00D  GRAD.:     0.237 HEAT:  25.68972
 CYCLE:    27 TIME:   0.043 TIME LEFT:  2.00D  GRAD.:     0.198 HEAT:  25.68971
 CYCLE:    28 TIME:   0.047 TIME LEFT:  2.00D  GRAD.:     0.080 HEAT:  25.68970

 -------------------------------------------------------------------------------
 RM1 PRECISE POLAR XYZ GNORM=0.1




     HERBERTS TEST WAS SATISFIED IN BFGS                      
     SCF FIELD WAS ACHIEVED                                   


                              RM1 CALCULATION
                                                       MOPAC2016 (Version: 21.013L)
                                                       Mon Oct 18 10:52:45 2021
                                                       No. of days remaining =  87




          FINAL HEAT OF FORMATION =         25.68970 KCAL/MOL =     107.48572 KJ/MOL


          TOTAL ENERGY            =      -4157.01866 EV
          ELECTRONIC ENERGY       =     -30972.31784 EV  POINT GROUP:     C1  
          CORE-CORE REPULSION     =      26815.29918 EV
          COSMO AREA              =        368.52 SQUARE ANGSTROMS
          COSMO VOLUME            =        410.24 CUBIC ANGSTROMS

          GRADIENT NORM           =          0.08044 = 0.01227 PER ATOM
          IONIZATION POTENTIAL    =          8.292083 EV
          HOMO LUMO ENERGIES (EV) =         -8.292 -0.828
          NO. OF FILLED LEVELS    =         65
          MOLECULAR WEIGHT        =        352.3916

          MOLECULAR DIMENSIONS (Angstroms)

            Atom       Atom       Distance
            H    43    H    42    14.62240
            H    41    H    33     9.53599
            H    28    H    37     3.39817


          SCF CALCULATIONS        =         29
 
          WALL-CLOCK TIME         =          1.730 SECONDS
          COMPUTATION TIME        =         19.783 SECONDS




   ATOM   CHEMICAL          X               Y               Z
  NUMBER   SYMBOL      (ANGSTROMS)     (ANGSTROMS)     (ANGSTROMS)
 
     1       N          0.00016445  *   0.00917844  *   0.00898929  *
     2       C          1.15642712  *  -0.00105185  *  -0.00469446  *
     3       C          2.57428969  *  -0.00074409  *  -0.00223040  *
     4       C          3.30361223  *  -1.12373961  *  -0.14007252  *
     5       C          2.71411250  *  -2.43139708  *  -0.36128240  *
     6       C          1.68987167  *  -2.59479691  *  -1.30645291  *
     7       C          1.10511968  *  -3.82901443  *  -1.53022178  *
     8       C          1.56709160  *  -4.90345515  *  -0.77202492  *
     9       C          2.62873949  *  -4.75240238  *   0.16617523  *
    10       C          3.20729758  *  -3.51417323  *   0.36565097  *
    11       C          2.87741940  *  -6.05154527  *   0.73854481  *
    12       C          3.77617801  *  -6.50386538  *   1.69126784  *
    13       C          3.74617498  *  -7.84610024  *   2.03898417  *
    14       C          2.82848229  *  -8.72526986  *   1.45416582  *
    15       C          1.91802555  *  -8.29993533  *   0.49902271  *
    16       C          1.96054406  *  -6.95637771  *   0.13954236  *
    17       N          1.16678322  *  -6.24745018  *  -0.78774638  *
    18       C          0.11570556  *  -6.79084900  *  -1.56787513  *
    19       C         -1.13774297  *  -6.17252982  *  -1.56144191  *
    20       C         -2.15675406  *  -6.70862652  *  -2.33440113  *
    21       C         -1.93972824  *  -7.85519932  *  -3.09641498  *
    22       C         -0.68848757  *  -8.46415731  *  -3.09023944  *
    23       C          0.34840609  *  -7.93516428  *  -2.33308590  *
    24       C         -3.04862617  *  -8.40538286  *  -3.91873795  *
    25       C          3.25230416  *   1.28719464  *   0.19486063  *
    26       O          4.45945427  *   1.47116009  *   0.26273627  *
    27       O          2.41396685  *   2.33742645  *   0.30356252  *
    28       H          4.40194463  *  -1.08691504  *  -0.07656138  *
    29       H          1.35783519  *  -1.73733212  *  -1.90204991  *
    30       H          0.31883710  *  -3.95420379  *  -2.27834688  *
    31       H          4.02208775  *  -3.39523163  *   1.08555957  *
    32       H          4.48554012  *  -5.81251023  *   2.15281177  *
    33       H          4.44789148  *  -8.22664991  *   2.78661795  *
    34       H          2.82803638  *  -9.77607008  *   1.76132225  *
    35       H          1.19267581  *  -8.98811282  *   0.06010226  *
    36       H         -1.32346148  *  -5.28422470  *  -0.94850233  *
    37       H         -3.14022673  *  -6.22774984  *  -2.33866647  *
    38       H         -0.50851526  *  -9.36307205  *  -3.68833486  *
    39       H          1.33566330  *  -8.40813754  *  -2.35018687  *
    40       H         -3.99281120  *  -8.45930789  *  -3.35556475  *
    41       H         -3.23781408  *  -7.77306335  *  -4.80008558  *
    42       H         -2.85207885  *  -9.42036941  *  -4.29393483  *
    43       H          2.90418364  *   3.16185207  *   0.43551535  *

                             CARTESIAN COORDINATES

   1    N        0.000164453     0.009178441     0.008989290
   2    C        1.156427123    -0.001051854    -0.004694460
   3    C        2.574289690    -0.000744087    -0.002230398
   4    C        3.303612235    -1.123739612    -0.140072520
   5    C        2.714112497    -2.431397076    -0.361282395
   6    C        1.689871672    -2.594796908    -1.306452907
   7    C        1.105119676    -3.829014434    -1.530221781
   8    C        1.567091596    -4.903455149    -0.772024923
   9    C        2.628739486    -4.752402382     0.166175228
  10    C        3.207297583    -3.514173231     0.365650975
  11    C        2.877419397    -6.051545268     0.738544805
  12    C        3.776178005    -6.503865382     1.691267837
  13    C        3.746174983    -7.846100242     2.038984168
  14    C        2.828482292    -8.725269861     1.454165818
  15    C        1.918025553    -8.299935326     0.499022707
  16    C        1.960544063    -6.956377711     0.139542357
  17    N        1.166783224    -6.247450184    -0.787746380
  18    C        0.115705555    -6.790848997    -1.567875126
  19    C       -1.137742974    -6.172529818    -1.561441910
  20    C       -2.156754055    -6.708626517    -2.334401135
  21    C       -1.939728239    -7.855199322    -3.096414976
  22    C       -0.688487569    -8.464157306    -3.090239439
  23    C        0.348406093    -7.935164277    -2.333085902
  24    C       -3.048626166    -8.405382859    -3.918737952
  25    C        3.252304157     1.287194642     0.194860633
  26    O        4.459454272     1.471160089     0.262736272
  27    O        2.413966853     2.337426454     0.303562521
  28    H        4.401944627    -1.086915040    -0.076561376
  29    H        1.357835186    -1.737332121    -1.902049910
  30    H        0.318837100    -3.954203785    -2.278346877
  31    H        4.022087752    -3.395231630     1.085559568
  32    H        4.485540118    -5.812510233     2.152811768
  33    H        4.447891483    -8.226649909     2.786617952
  34    H        2.828036376    -9.776070079     1.761322255
  35    H        1.192675811    -8.988112825     0.060102256
  36    H       -1.323461481    -5.284224702    -0.948502327
  37    H       -3.140226732    -6.227749841    -2.338666466
  38    H       -0.508515263    -9.363072050    -3.688334859
  39    H        1.335663300    -8.408137540    -2.350186871
  40    H       -3.992811205    -8.459307894    -3.355564753
  41    H       -3.237814084    -7.773063349    -4.800085583
  42    H       -2.852078848    -9.420369409    -4.293934835
  43    H        2.904183644     3.161852067     0.435515353


           Empirical Formula: C23 H16 N2 O2  =    43 atoms



      MOLECULAR POINT GROUP   :   C1  


                  EIGENVALUES  
 -40.12380 -39.12016 -37.46375 -37.04798 -36.29081 -35.51558 -35.25886 -33.28702
 -32.10617 -30.95697 -30.40510 -29.72392 -28.91990 -27.99945 -26.49446 -24.91570
 -23.74715 -22.89213 -22.61193 -22.20842 -21.87618 -20.97622 -20.86437 -19.15384
 -18.56066 -18.13844 -18.06099 -17.27131 -16.64655 -16.50236 -16.33303 -16.20608
 -15.86837 -15.55425 -15.36079 -15.26643 -14.91659 -14.77070 -14.70078 -14.65104
 -14.49055 -14.45765 -14.40682 -14.17424 -13.71154 -13.36957 -13.26503 -13.18039
 -13.03430 -12.92469 -12.83136 -12.67023 -12.39937 -12.34469 -12.28618 -12.09410
 -11.90566 -11.61920 -11.01770 -10.62192  -9.95049  -9.80201  -9.62623  -8.82571
  -8.29208  -0.82818  -0.27912   0.09645   0.22748   0.26275   0.90353   0.96282
   1.30004   1.38882   1.67966   2.26585   2.43951   2.54134   2.70411   2.98128
   3.08303   3.52483   3.71646   3.76013   3.81353   3.91752   3.92607   3.97670
   4.06774   4.11179   4.18880   4.20372   4.29225   4.36948   4.39349   4.41874
   4.46754   4.58365   4.63603   4.65369   4.68990   4.74169   4.80942   4.86256
   4.96597   5.05987   5.07764   5.11414   5.14637   5.23506   5.30353   5.34581
   5.46078   5.50109   5.66968   5.68326   5.77099   5.83467   5.84925   5.93919
   6.22853   6.32606   6.49257   6.61384


              NET ATOMIC CHARGES AND DIPOLE CONTRIBUTIONS

  ATOM NO.   TYPE          CHARGE      No. of ELECS.   s-Pop       p-Pop       
   26          O          -0.378452        6.3785     1.91034     4.46811
   25          C           0.402069        3.5979     1.18097     2.41696
   27          O          -0.311700        6.3117     1.83998     4.47172
   43          H           0.244241        0.7558     0.75576
    1          N          -0.150488        5.1505     1.84805     3.30244
    2          C           0.053115        3.9469     1.19504     2.75184
    3          C          -0.145999        4.1460     1.14240     3.00360
    4          C           0.104559        3.8954     1.18544     2.71000
    5          C          -0.175212        4.1752     1.16232     3.01290
    6          C          -0.009049        4.0090     1.17547     2.83358
    7          C          -0.181195        4.1812     1.17305     3.00814
    8          C           0.157174        3.8428     1.15220     2.69063
    9          C          -0.110399        4.1104     1.15903     2.95137
   10          C           0.011170        3.9888     1.16781     2.82102
   11          C          -0.087882        4.0879     1.15801     2.92987
   12          C          -0.037264        4.0373     1.16957     2.86770
   13          C          -0.151406        4.1514     1.17870     2.97271
   14          C          -0.053930        4.0539     1.17712     2.87681
   15          C          -0.162301        4.1623     1.17223     2.99007
   16          C           0.120971        3.8790     1.15165     2.72738
   17          N          -0.252535        5.2525     1.47957     3.77297
   18          C           0.108918        3.8911     1.14188     2.74921
   19          C          -0.127186        4.1272     1.18194     2.94524
   20          C          -0.094366        4.0944     1.17819     2.91618
   21          C          -0.036618        4.0366     1.17386     2.86276
   22          C          -0.094239        4.0942     1.17774     2.91650
   23          C          -0.127234        4.1272     1.18129     2.94594
   24          C          -0.157642        4.1576     1.14519     3.01245
   28          H           0.132148        0.8679     0.86785
   29          H           0.114957        0.8850     0.88504
   30          H           0.133636        0.8664     0.86636
   31          H           0.113582        0.8864     0.88642
   32          H           0.109090        0.8909     0.89091
   33          H           0.110612        0.8894     0.88939
   34          H           0.104183        0.8958     0.89582
   35          H           0.125624        0.8744     0.87438
   36          H           0.129668        0.8703     0.87033
   37          H           0.114938        0.8851     0.88506
   38          H           0.113349        0.8867     0.88665
   39          H           0.126626        0.8734     0.87337
   40          H           0.071912        0.9281     0.92809
   41          H           0.073540        0.9265     0.92646
   42          H           0.069016        0.9310     0.93098
   
 DIPOLE           X         Y         Z       TOTAL
 POINT-CHG.    -0.579    -4.554    -1.418     4.805
 HYBRID         0.608     0.433    -0.016     0.747
 SUM            0.029    -4.121    -1.434     4.363


          ATOMIC ORBITAL ELECTRON POPULATIONS

     Atom    s        px        py        pz   
    1  N   1.84805   1.11321   1.08826   1.10097
    2  C   1.19504   0.91166   0.91930   0.92088
    3  C   1.14240   0.88980   0.94036   1.17344
    4  C   1.18544   0.99591   0.90713   0.80697
    5  C   1.16232   1.02861   0.93613   1.04816
    6  C   1.17547   0.91914   0.96750   0.94694
    7  C   1.17305   1.04642   0.92888   1.03284
    8  C   1.15220   0.92833   0.81843   0.94387
    9  C   1.15903   1.00000   0.93868   1.01268
   10  C   1.16781   0.95995   0.90581   0.95526
   11  C   1.15801   0.99859   0.92052   1.01075
   12  C   1.16957   0.96338   0.95371   0.95061
   13  C   1.17870   1.00760   0.94478   1.02033
   14  C   1.17712   0.94289   0.98528   0.94865
   15  C   1.17223   1.02688   0.94062   1.02257
   16  C   1.15165   0.90815   0.92379   0.89544
   17  N   1.47957   1.31351   1.08365   1.37580
   18  C   1.14188   0.85587   0.95439   0.93895
   19  C   1.18194   0.92395   1.01447   1.00682
   20  C   1.17819   0.98704   0.96060   0.96854
   21  C   1.17386   0.94505   0.95053   0.96718
   22  C   1.17774   0.93199   0.99565   0.98886
   23  C   1.18129   0.99950   0.97456   0.97189
   24  C   1.14519   0.98287   1.02333   1.00625
   25  C   1.18097   0.84570   0.84693   0.72432
   26  O   1.91034   1.15614   1.85245   1.45952
   27  O   1.83998   1.42223   1.19632   1.85316
   28  H   0.86785
   29  H   0.88504
   30  H   0.86636
   31  H   0.88642
   32  H   0.89091
   33  H   0.88939
   34  H   0.89582
   35  H   0.87438
   36  H   0.87033
   37  H   0.88506
   38  H   0.88665
   39  H   0.87337
   40  H   0.92809
   41  H   0.92646
   42  H   0.93098
   43  H   0.75576
 ******************** TDHF POLARIZABILITIES ********************



          MOLECULAR WEIGHT =  352.39



          ROTATIONAL CONSTANTS IN CM(-1)

          A =    0.01003096   B =    0.00328545   C =    0.00257416



           PRINCIPAL MOMENTS OF INERTIA IN UNITS OF 10**(-40)*GRAM-CM**2

          A =     2790.6380   B =     8520.2257   C =    10874.5427


 ROTATION MATRIX FOR ORIENTATION OF MOLECULE:

         0.326647   -0.724295   -0.607205
         0.924613    0.378069    0.046423
         0.195941   -0.576594    0.793188


          CARTESIAN COORDINATES 

    NO.       ATOM         X         Y         Z

     1         N        3.6940    2.4052    1.5508
     2         C        4.0596    1.5718    0.8374
     3         C        4.5235    0.5435   -0.0215
     4         C        3.6964   -0.3298   -0.6259
     5         C        2.2514   -0.2697   -0.5041
     6         C        1.5806    0.9554   -0.6394
     7         C        0.2045    1.0413   -0.5192
     8         C       -0.4895   -0.1367   -0.2482
     9         C        0.1808   -1.3895   -0.1416
    10         C        1.5538   -1.4554   -0.2772
    11         C       -0.8270   -2.3908    0.1011
    12         C       -0.7650   -3.7621    0.2900
    13         C       -1.9477   -4.4483    0.5217
    14         C       -3.1749   -3.7788    0.5743
    15         C       -3.2662   -2.4079    0.3893
    16         C       -2.0805   -1.7234    0.1407
    17         N       -1.8660   -0.3458   -0.0799
    18         C       -2.8646    0.6599   -0.0857
    19         C       -2.7011    1.7978    0.7092
    20         C       -3.6811    2.7789    0.6899
    21         C       -4.8196    2.6275   -0.0995
    22         C       -4.9727    1.4875   -0.8826
    23         C       -3.9966    0.4999   -0.8871
    24         C       -5.8517    3.6969   -0.1040
    25         C        5.9744    0.4257   -0.2171
    26         O        6.5521   -0.4182   -0.8877
    27         O        6.6929    1.3673    0.4269
    28         H        4.1016   -1.1480   -1.2407
    29         H        2.1482    1.8635   -0.8704
    30         H       -0.3147    1.9948   -0.6409
    31         H        2.0710   -2.4157   -0.1954
    32         H        0.1964   -4.2806    0.2575
    33         H       -1.9238   -5.5315    0.6710
    34         H       -4.0865   -4.3529    0.7694
    35         H       -4.2254   -1.8896    0.4496
    36         H       -1.8203    1.9147    1.3494
    37         H       -3.5585    3.6754    1.3060
    38         H       -5.8623    1.3621   -1.5080
    39         H       -4.1147   -0.3841   -1.5221
    40         H       -6.0996    4.0356    0.9135
    41         H       -5.5015    4.5811   -0.6588
    42         H       -6.7994    3.3871   -0.5680
    43         H        7.6412    1.2478    0.2722


 ENERGY OF "REORIENTED" SYSTEM WITHOUT FIELD:       25.6897044673


  NFREQ=  3  IWFLB=  0  IBET=  1  IGAM=  1
  ATOL= 0.10000D-02  BTOL= 0.10000D-02    MAXITU=  500    MAXITA=  150


 *****************************************************************
 CALCULATION OF STATIC FIELD QUANTITIES
 *****************************************************************

 +++++ ALPHA AT       0.00000 EV.

                           COMPONENTS OF ALPHA

                     *X           *Y           *Z
           *=X:     365.9396       7.5065       5.6349
           *=Y:       7.5049     285.3642      19.3420
           *=Z:       5.6454      19.3427      92.7022

  ISOTROPIC AVERAGE ALPHA =     248.00199 A.U. =     36.75010 ANG.**3

 +++++ BETA (SECOND HARMONIC GENERATION) AT       0.00000 EV.

                              COMPONENTS OF BETA
            *XX         *XY         *YY         *XZ         *YZ         *ZZ
   *=X -3951.47144  -831.56008   439.26165   170.26465    23.54165    61.32024
   *=Y  -831.62352   439.11670   606.80993    23.57341   -61.36597    -3.11119
   *=Z   169.85163    23.50139   -61.16554    61.35977    -3.14636     2.72351


 AVERAGE BETAX(SHG) VALUE AT   0.00000 EV =      -2070.5759 a.u. = -0.178886E-28 ESU
 AVERAGE BETAY(SHG) VALUE AT   0.00000 EV =       -136.7436 a.u. = -0.118138E-29 ESU
 AVERAGE BETAZ(SHG) VALUE AT   0.00000 EV =         66.9308 a.u. =  0.578243E-30 ESU



 AVERAGE BETA (SHG) VALUE AT   0.00000 EV =       2076.1655 a.u. =  0.179369E-28 ESU
   (1 a.u. = 8.639418X10-33 esu)



 +++++ ALPHA AT       0.00000 EV.

                           COMPONENTS OF ALPHA

                     *X           *Y           *Z
           *=X:     365.9396       7.5065       5.6349
           *=Y:       7.5049     285.3642      19.3420
           *=Z:       5.6454      19.3427      92.7022

  ISOTROPIC AVERAGE ALPHA =     248.00199 A.U. =     36.75010 ANG.**3


 GAMMA (THIRD HARMONIC GENERATION) AT    0.00000 EV.


 GAMMA(X,X,X,X) =        659887.27878
 GAMMA(Y,Y,Y,Y) =         88860.28592
 GAMMA(Z,Z,Z,Z) =          2850.91798
 GAMMA(X,X,Y,Y) =         57934.44517
 GAMMA(X,X,Z,Z) =          2530.76481
 GAMMA(Y,Y,X,X) =         57934.21920
 GAMMA(Y,Y,Z,Z) =          4951.55103
 GAMMA(Z,Z,X,X) =          2530.51364
 GAMMA(Z,Z,Y,Y) =          4951.63373


 AVERAGE GAMMA VALUE AT    0.00000 =        176486.32205 a.u. =        88890.91136 ESU (X10-39)




 **********************************************************************
 CALCULATION FOR A FREQUENCY OF    0.25000 EV  =       0.00919 A.U. 
                  WAVELENGTH OF    4959.37 NM  =    2016.38525 CM(-1)
 **********************************************************************

 +++++ ALPHA AT       0.25000 EV.

                           COMPONENTS OF ALPHA

                     *X           *Y           *Z
           *=X:     367.0889       7.6233       5.6769
           *=Y:       7.6214     285.9444      19.3385
           *=Z:       5.6856      19.3390      92.8054

  ISOTROPIC AVERAGE ALPHA =     248.61292 A.U. =     36.84063 ANG.**3

 +++++ BETA (SECOND HARMONIC GENERATION) AT       0.25000 EV.

                              COMPONENTS OF BETA
            *XX         *XY         *YY         *XZ         *YZ         *ZZ
   *=X -4089.22519  -864.09912   454.84947   174.16590    21.95016    62.74757
   *=Y  -869.79308   446.84908   619.08453    22.91817   -62.84711    -3.15075
   *=Z   167.40902    22.00293   -61.99717    62.26430    -3.36665     2.89791


 AVERAGE BETAX(SHG) VALUE AT   0.25000 EV =      -2146.3704 a.u. = -0.185434E-28 ESU
 AVERAGE BETAY(SHG) VALUE AT   0.25000 EV =       -150.1244 a.u. = -0.129699E-29 ESU
 AVERAGE BETAZ(SHG) VALUE AT   0.25000 EV =         67.3486 a.u. =  0.581853E-30 ESU



 AVERAGE BETA (SHG) VALUE AT   0.25000 EV =       2152.6678 a.u. =  0.185978E-28 ESU
   (1 a.u. = 8.639418X10-33 esu)



 +++++ ALPHA AT       0.75000 EV.

                           COMPONENTS OF ALPHA

                     *X           *Y           *Z
           *=X:     376.7139       8.6067       6.0160
           *=Y:       8.6057     290.7400      19.3046
           *=Z:       6.0268      19.3053      93.6450

  ISOTROPIC AVERAGE ALPHA =     253.69964 A.U. =     37.59441 ANG.**3


 GAMMA (THIRD HARMONIC GENERATION) AT    0.25000 EV.


 GAMMA(X,X,X,X) =        720984.33867
 GAMMA(Y,Y,Y,Y) =         93835.40495
 GAMMA(Z,Z,Z,Z) =          2922.80997
 GAMMA(X,X,Y,Y) =         61648.24228
 GAMMA(X,X,Z,Z) =          2598.85206
 GAMMA(Y,Y,X,X) =         62201.57633
 GAMMA(Y,Y,Z,Z) =          5138.02026
 GAMMA(Z,Z,X,X) =          2588.21231
 GAMMA(Z,Z,Y,Y) =          5142.03647


 AVERAGE GAMMA VALUE AT    0.25000 =        191411.89866 a.u. =        96408.48038 ESU (X10-39)




 **********************************************************************
 CALCULATION FOR A FREQUENCY OF    0.50000 EV  =       0.01837 A.U. 
                  WAVELENGTH OF    2479.68 NM  =    4032.77050 CM(-1)
 **********************************************************************

 +++++ ALPHA AT       0.50000 EV.

                           COMPONENTS OF ALPHA

                     *X           *Y           *Z
           *=X:     370.6047       7.9806       5.8002
           *=Y:       7.9794     287.7129      19.3268
           *=Z:       5.8092      19.3274      93.1169

  ISOTROPIC AVERAGE ALPHA =     250.47815 A.U. =     37.11703 ANG.**3

 +++++ BETA (SECOND HARMONIC GENERATION) AT       0.50000 EV.

                              COMPONENTS OF BETA
            *XX         *XY         *YY         *XZ         *YZ         *ZZ
   *=X -4555.28564  -975.04106   508.42490   187.30534    16.14168    67.49715
   *=Y  -999.48946   471.35371   659.21866    20.68495   -67.82698    -3.25804
   *=Z   157.37439    16.64353   -64.39792    65.16705    -4.13932     3.47453


 AVERAGE BETAX(SHG) VALUE AT   0.50000 EV =      -2403.3787 a.u. = -0.207638E-28 ESU
 AVERAGE BETAY(SHG) VALUE AT   0.50000 EV =       -196.6905 a.u. = -0.169929E-29 ESU
 AVERAGE BETAZ(SHG) VALUE AT   0.50000 EV =         68.4714 a.u. =  0.591553E-30 ESU



 AVERAGE BETA (SHG) VALUE AT   0.50000 EV =       2412.3856 a.u. =  0.208416E-28 ESU
   (1 a.u. = 8.639418X10-33 esu)



 +++++ ALPHA AT       1.50000 EV.

                           COMPONENTS OF ALPHA

                     *X           *Y           *Z
           *=X:     416.7343      12.7744       7.5379
           *=Y:      12.7762     309.2344      19.1277
           *=Z:       7.5512      19.1287      96.7256

  ISOTROPIC AVERAGE ALPHA =     274.23140 A.U. =     40.63690 ANG.**3


 GAMMA (THIRD HARMONIC GENERATION) AT    0.50000 EV.


 GAMMA(X,X,X,X) =        971060.86806
 GAMMA(Y,Y,Y,Y) =        111899.03084
 GAMMA(Z,Z,Z,Z) =          3166.91569
 GAMMA(X,X,Y,Y) =         75687.78194
 GAMMA(X,X,Z,Z) =          2771.57638
 GAMMA(Y,Y,X,X) =         78777.83479
 GAMMA(Y,Y,Z,Z) =          5767.75282
 GAMMA(Z,Z,X,X) =          2761.89016
 GAMMA(Z,Z,Y,Y) =          5818.40525


 AVERAGE GAMMA VALUE AT    0.50000 =        251542.41119 a.u. =       126694.43114 ESU (X10-39)



 **********************
 *                    *
 * JOB ENDED NORMALLY *
 *                    *
 **********************



 TOTAL JOB TIME:            22.66 SECONDS

 == MOPAC DONE ==
