 *******************************************************************************
 ** Site#: 4824         For non-commercial use only    Version 21.013L 64BITS **
 *******************************************************************************
 ** Cite this program as: MOPAC2016, Version: 21.013L, James J. P. Stewart,   **
 ** Stewart Computational Chemistry, web: HTTP://OpenMOPAC.net. Days left:  88**
 *******************************************************************************
 **                                                                           **
 **                                MOPAC2016                                  **
 **                                                                           **
 *******************************************************************************

                              RM1 CALCULATION RESULTS

 *******************************************************************************
 *  CALCULATION DONE:                                Sun Oct 17 21:23:38 2021  *
 *  RM1        - The RM1 Hamiltonian to be used
 *  POLAR      - CALCULATE FIRST, SECOND AND THIRD-ORDER POLARIZABILITIES
 *  PRECISE    - TIGHTER CRITERIA TO BE USED
 *  T=         - A TIME OF 172800.0 SECONDS REQUESTED
 *  DUMP=N     - RESTART FILE WRITTEN EVERY 7200.0 SECONDS REQUESTED
 *  GNORM      - EXIT WHEN GRADIENT NORM DROPS BELOW 0.100
 *******************************************************************************
RM1 PRECISE POLAR GNORM=0.1


  ATOM    CHEMICAL      BOND LENGTH      BOND ANGLE     TWIST ANGLE 
 NUMBER    SYMBOL       (ANGSTROMS)      (DEGREES)       (DEGREES) 
   (I)                     NA:I           NB:NA:I       NC:NB:NA:I       NA    NB    NC 
     1       N          0.00000000       0.0000000       0.0000000        0     0     0
     2       C          1.15830000  *    0.0000000       0.0000000        1     0     0
     3       C          1.42940000  *  179.1573000  *    0.0000000        2     1     0
     4       C          1.34950000  *  122.4582000  *  179.1645000  *     3     2     1
     5       C          1.46870000  *  125.9421000  *    1.1022000  *     4     3     2
     6       C          1.34890000  *  124.4917000  * -163.2510000  *     5     4     3
     7       C          1.48620000  *  116.2972000  * -178.5493000  *     6     5     4
     8       C          1.34940000  *  116.0085000  *    0.9291000  *     7     6     5
     9       S          1.82150000  *  128.9019000  *   20.0561000  *     5     4     3
    10       C          1.47140000  *  127.3777000  * -179.3121000  *     8     7     6
    11       C          1.48800000  *  120.5255000  *  -17.9254000  *    10     8     7
    12       C          1.34760000  *  121.3602000  *  178.6015000  *    11    10     8
    13       C          1.46180000  *  118.4041000  *    0.0000000  *    12    11    10
    14       C          1.34220000  *  120.3707000  *    1.1871000  *    13    12    11
    15       C          1.35150000  *  120.1427000  *  161.6796000  *    10     8     7
    16       C          1.45830000  *  107.5713000  * -179.5834000  *    14    13    12
    17       C          1.46110000  *  130.5555000  *  177.8310000  *    16    14    13
    18       C          1.34760000  *  117.9764000  * -177.5969000  *    17    16    14
    19       C          1.47980000  *  120.6806000  *    0.1667000  *    18    17    16
    20       C          1.34770000  *  120.7368000  *   -0.1856000  *    19    18    17
    21       C          1.34370000  *  107.7125000  *   -0.1894000  *    16    14    13
    22       N          1.42060000  *  130.2708000  * -179.2786000  *    13    12    11
    23       C          1.41260000  *  126.4541000  * -165.1849000  *    22    13    14
    24       C          1.35110000  *  120.9537000  *   46.6695000  *    23    22    13
    25       C          1.47290000  *  120.7996000  *  178.9888000  *    24    23    22
    26       C          1.34110000  *  118.0722000  *   -0.4028000  *    25    24    23
    27       C          1.46530000  *  121.9191000  *    0.2892000  *    26    25    24
    28       C          1.34380000  *  119.9929000  *    0.2281000  *    27    26    25
    29       C          1.52540000  *  112.3004000  * -179.7603000  *    27    26    25
    30       C          1.55290000  *  110.9780000  *   62.8551000  *    29    27    28
    31       C          1.55350000  *  110.9446000  *  -62.3964000  *    29    27    28
    32       C          1.52580000  *  100.2097000  * -179.8734000  *    29    27    28
    33       C          1.45380000  *  130.4253000  * -179.4600000  *    26    25    24
    34       C          1.34190000  *  130.3875000  *   -0.1983000  *    33    26    25
    35       C          1.47340000  *  117.9792000  *  179.7256000  *    34    33    26
    36       C          1.34850000  *  120.4721000  *   -0.0566000  *    35    34    33
    37       C          1.34440000  *  127.8150000  *  179.7405000  *    32    29    27
    38       C          1.47620000  *  117.0224000  * -178.3830000  *     3     2     4
    39       O          1.23230000  *  121.2383000  *    1.5917000  *    38     3     4
    40       O          1.35550000  *  119.8895000  * -178.4246000  *    38     3     4
    41       H          1.05380000  *  117.8018000  * -177.6030000  *     4     3     2
    42       H          1.04930000  *  122.3071000  *    1.3594000  *     6     5     4
    43       H          1.04890000  *  121.1444000  * -178.4585000  *     7     6     5
    44       H          1.05090000  *  119.9270000  *  178.3776000  *    11    10    15
    45       H          1.05000000  *  120.6253000  *  179.6788000  *    12    11    10
    46       H          1.05030000  *  121.4458000  *   -0.1049000  *    15    10     8
    47       H          1.05030000  *  121.1037000  * -179.8064000  *    17    16    21
    48       H          1.05100000  *  119.8207000  * -179.9718000  *    18    17    16
    49       H          1.05150000  *  119.5375000  *  179.5805000  *    19    18    17
    50       H          1.04950000  *  120.5664000  *  179.6338000  *    20    19    18
    51       H          1.05130000  *  120.1986000  *   -0.1384000  *    24    23    22
    52       H          1.05000000  *  120.5413000  * -179.9319000  *    25    24    23
    53       H          1.05040000  *  120.6364000  *  179.4989000  *    28    27    26
    54       H          1.09140000  *  110.1166000  *   55.4752000  *    30    29    27
    55       H          1.09110000  *  110.1596000  *  175.5014000  *    30    29    27
    56       H          1.09130000  *  110.2110000  *  -64.6097000  *    30    29    27
    57       H          1.09110000  *  110.1836000  * -175.0641000  *    31    29    27
    58       H          1.09160000  *  110.1562000  *  -54.9992000  *    31    29    27
    59       H          1.09140000  *  110.1905000  *   65.0595000  *    31    29    27
    60       H          1.05000000  *  121.4504000  *   -0.1307000  *    34    33    26
    61       H          1.05130000  *  119.6157000  *  179.9652000  *    35    34    33
    62       H          1.05120000  *  119.7947000  * -179.9586000  *    36    35    34
    63       H          1.05010000  *  120.9954000  *  179.9764000  *    37    32    33
    64       H          0.94080000  *  121.1249000  *    0.0399000  *    40    38    39
 


          CARTESIAN COORDINATES 

    NO.       ATOM           X           Y           Z

     1         N          0.0000      0.0000      0.0000
     2         C          1.1583      0.0000      0.0000
     3         C          2.5875      0.0210      0.0000
     4         C          3.3285     -1.1068      0.0166
     5         C          2.8081     -2.4802      0.0136
     6         C          3.5277     -3.5704      0.3502
     7         C          2.8278     -4.8777      0.2507
     8         C          1.5515     -4.8340     -0.1850
     9         S          1.1658     -3.0801     -0.4969
    10         C          0.6291     -5.9664     -0.3631
    11         C          1.1482     -7.3586     -0.4432
    12         C          0.3167     -8.4105     -0.5781
    13         C         -1.1212     -8.1561     -0.6452
    14         C         -1.5910     -6.8997     -0.5972
    15         C         -0.7023     -5.7505     -0.4476
    16         C         -3.0455     -6.9703     -0.6744
    17         C         -4.0521     -5.9125     -0.6226
    18         C         -5.3500     -6.2721     -0.6696
    19         C         -5.7356     -7.6974     -0.7670
    20         C         -4.7969     -8.6633     -0.8142
    21         C         -3.3874     -8.2663     -0.7699
    22         N         -2.2090     -9.0611     -0.7703
    23         C         -2.1671    -10.4577     -0.5625
    24         C         -1.5615    -10.9804      0.5263
    25         C         -1.5389    -12.4359      0.7508
    26         C         -2.1431    -13.2231     -0.1513
    27         C         -2.8072    -12.6747     -1.3368
    28         C         -2.8185    -11.3475     -1.5468
    29         C         -3.4253    -13.7626     -2.2093
    30         C         -2.7617    -13.7935     -3.6129
    31         C         -4.9672    -13.5950     -2.2969
    32         C         -3.0514    -15.0020     -1.4016
    33         C         -2.2917    -14.6687     -0.1918
    34         C         -1.8616    -15.6113      0.6610
    35         C         -2.1747    -17.0175      0.3525
    36         C         -2.8741    -17.3351     -0.7559
    37         C         -3.3377    -16.2854     -1.6813
    38         C          3.2388      1.3457      0.0179
    39         O          4.4663      1.4543      0.0190
    40         O          2.4822      2.4702      0.0333
    41         H          4.3767     -1.0057      0.0543
    42         H          4.5269     -3.5078      0.6643
    43         H          3.3078     -5.7716      0.5167
    44         H          2.1835     -7.5352     -0.4042
    45         H          0.6959     -9.3878     -0.6385
    46         H         -1.1053     -4.7824     -0.3874
    47         H         -3.7742     -4.9022     -0.5510
    48         H         -6.0982     -5.5347     -0.6348
    49         H         -6.7539     -7.9581     -0.7958
    50         H         -5.0735     -9.6737     -0.8775
    51         H         -1.1097    -10.3484      1.2346
    52         H         -1.0680    -12.8377      1.5990
    53         H         -3.2847    -10.9441     -2.3972
    54         H         -1.6814    -13.9139     -3.5148
    55         H         -3.1569    -14.6257     -4.1975
    56         H         -2.9655    -12.8638     -4.1468
    57         H         -5.4056    -14.4271     -2.8500
    58         H         -5.4005    -13.5710     -1.2952
    59         H         -5.2164    -12.6647     -2.8104
    60         H         -1.3198    -15.3620      1.5253
    61         H         -1.8497    -17.7769      1.0028
    62         H         -3.0921    -18.3419     -0.9654
    63         H         -3.8807    -16.5431     -2.5424
    64         H          2.8790      3.3232      0.0440

  H: (RM1): G.B. ROCHA, R.O. FREIRE, A.M.SIMAS, J.J.P. STEWART, J. COMP. CHEM. 27, 1101 (2006)
  C: (RM1): G.B. ROCHA, R.O. FREIRE, A.M.SIMAS, J.J.P. STEWART, J. COMP. CHEM. 27, 1101 (2006)
  N: (RM1): G.B. ROCHA, R.O. FREIRE, A.M.SIMAS, J.J.P. STEWART, J. COMP. CHEM. 27, 1101 (2006)
  O: (RM1): G.B. ROCHA, R.O. FREIRE, A.M.SIMAS, J.J.P. STEWART, J. COMP. CHEM. 27, 1101 (2006)
  S: (RM1): G.B. ROCHA, R.O. FREIRE, A.M.SIMAS, J.J.P. STEWART, J. COMP. CHEM. 27, 1101 (2006)

           Empirical Formula: C35 H24 N2 O2 S  =    64 atoms



      MOLECULAR POINT GROUP   :   C1  


      RHF CALCULATION, NO. OF DOUBLY OCCUPIED LEVELS = 96


          Geometry optimization using L-BFGS
 CYCLE:     1 TIME:   0.328 TIME LEFT:  2.00D  GRAD.:   636.986 HEAT:  137.7762
 CYCLE:     2 TIME:   0.148 TIME LEFT:  2.00D  GRAD.:   477.407 HEAT:  134.2958
 CYCLE:     3 TIME:   0.172 TIME LEFT:  2.00D  GRAD.:   433.702 HEAT:  126.4293
 CYCLE:     4 TIME:   0.188 TIME LEFT:  2.00D  GRAD.:   480.409 HEAT:  134.2957
 CYCLE:     5 TIME:   0.164 TIME LEFT:  2.00D  GRAD.:   436.819 HEAT:  126.4212
 CYCLE:     6 TIME:   0.164 TIME LEFT:  2.00D  GRAD.:   363.221 HEAT:  122.2490
 CYCLE:     7 TIME:   0.148 TIME LEFT:  2.00D  GRAD.:   410.110 HEAT:  113.5066
 CYCLE:     8 TIME:   0.148 TIME LEFT:  2.00D  GRAD.:   418.703 HEAT:  99.98978
 CYCLE:     9 TIME:   0.156 TIME LEFT:  2.00D  GRAD.:   619.238 HEAT:  92.31366
 CYCLE:    10 TIME:   0.156 TIME LEFT:  2.00D  GRAD.:   229.245 HEAT:  85.53299
 CYCLE:    11 TIME:   0.141 TIME LEFT:  2.00D  GRAD.:    93.228 HEAT:  84.24668
 CYCLE:    12 TIME:   0.164 TIME LEFT:  2.00D  GRAD.:    80.698 HEAT:  83.75416
 CYCLE:    13 TIME:   0.141 TIME LEFT:  2.00D  GRAD.:   115.002 HEAT:  82.55251
 CYCLE:    14 TIME:   0.141 TIME LEFT:  2.00D  GRAD.:   108.863 HEAT:  81.51462
 CYCLE:    15 TIME:   0.141 TIME LEFT:  2.00D  GRAD.:   275.114 HEAT:  82.17092
 CYCLE:    16 TIME:   0.148 TIME LEFT:  2.00D  GRAD.:    50.426 HEAT:  80.69171
 CYCLE:    17 TIME:   0.133 TIME LEFT:  2.00D  GRAD.:    42.131 HEAT:  80.54182
 CYCLE:    18 TIME:   0.133 TIME LEFT:  2.00D  GRAD.:    93.671 HEAT:  80.09598
 CYCLE:    19 TIME:   0.156 TIME LEFT:  2.00D  GRAD.:   156.384 HEAT:  79.82856
 CYCLE:    20 TIME:   0.133 TIME LEFT:  2.00D  GRAD.:    94.395 HEAT:  79.42869
 CYCLE:    21 TIME:   0.141 TIME LEFT:  2.00D  GRAD.:    57.506 HEAT:  79.13847
 CYCLE:    22 TIME:   0.125 TIME LEFT:  2.00D  GRAD.:    36.634 HEAT:  79.00861
 CYCLE:    23 TIME:   0.141 TIME LEFT:  2.00D  GRAD.:    47.371 HEAT:  78.87001
 CYCLE:    24 TIME:   0.125 TIME LEFT:  2.00D  GRAD.:    67.548 HEAT:  78.68807
 CYCLE:    25 TIME:   0.133 TIME LEFT:  2.00D  GRAD.:    56.079 HEAT:  78.47406
 CYCLE:    26 TIME:   0.133 TIME LEFT:  2.00D  GRAD.:    45.591 HEAT:  78.22988
 CYCLE:    27 TIME:   0.141 TIME LEFT:  2.00D  GRAD.:   108.077 HEAT:  78.35738
 CYCLE:    28 TIME:   0.125 TIME LEFT:  2.00D  GRAD.:    18.085 HEAT:  78.04822
 CYCLE:    29 TIME:   0.133 TIME LEFT:  2.00D  GRAD.:    15.938 HEAT:  78.02652
 CYCLE:    30 TIME:   0.125 TIME LEFT:  2.00D  GRAD.:    20.127 HEAT:  77.95073
 CYCLE:    31 TIME:   0.133 TIME LEFT:  2.00D  GRAD.:    59.650 HEAT:  77.96228
 CYCLE:    32 TIME:   0.125 TIME LEFT:  2.00D  GRAD.:    12.946 HEAT:  77.87126
 CYCLE:    33 TIME:   0.133 TIME LEFT:  2.00D  GRAD.:    10.300 HEAT:  77.85635
 CYCLE:    34 TIME:   0.125 TIME LEFT:  2.00D  GRAD.:    36.272 HEAT:  77.85162
 CYCLE:    35 TIME:   0.125 TIME LEFT:  2.00D  GRAD.:     9.462 HEAT:  77.83893
 CYCLE:    36 TIME:   0.125 TIME LEFT:  2.00D  GRAD.:     8.472 HEAT:  77.83479
 CYCLE:    37 TIME:   0.133 TIME LEFT:  2.00D  GRAD.:    21.863 HEAT:  77.82067
 CYCLE:    38 TIME:   0.133 TIME LEFT:  2.00D  GRAD.:    11.155 HEAT:  77.81210
 CYCLE:    39 TIME:   0.133 TIME LEFT:  2.00D  GRAD.:     8.136 HEAT:  77.80789
 CYCLE:    40 TIME:   0.133 TIME LEFT:  2.00D  GRAD.:    10.488 HEAT:  77.80227
 CYCLE:    41 TIME:   0.125 TIME LEFT:  2.00D  GRAD.:    11.685 HEAT:  77.79555
 CYCLE:    42 TIME:   0.133 TIME LEFT:  2.00D  GRAD.:    12.222 HEAT:  77.78071
 CYCLE:    43 TIME:   0.133 TIME LEFT:  2.00D  GRAD.:    26.273 HEAT:  77.78352
 CYCLE:    44 TIME:   0.125 TIME LEFT:  2.00D  GRAD.:     6.877 HEAT:  77.76550
 CYCLE:    45 TIME:   0.133 TIME LEFT:  2.00D  GRAD.:     6.509 HEAT:  77.75968
 CYCLE:    46 TIME:   0.133 TIME LEFT:  2.00D  GRAD.:    11.954 HEAT:  77.74257
 CYCLE:    47 TIME:   0.133 TIME LEFT:  2.00D  GRAD.:    17.209 HEAT:  77.72841
 CYCLE:    48 TIME:   0.133 TIME LEFT:  2.00D  GRAD.:    24.040 HEAT:  77.71964
 CYCLE:    49 TIME:   0.125 TIME LEFT:  2.00D  GRAD.:     9.205 HEAT:  77.71011
 CYCLE:    50 TIME:   0.133 TIME LEFT:  2.00D  GRAD.:     8.463 HEAT:  77.70491
 CYCLE:    51 TIME:   0.133 TIME LEFT:  2.00D  GRAD.:    11.690 HEAT:  77.69823
 CYCLE:    52 TIME:   0.133 TIME LEFT:  2.00D  GRAD.:    14.198 HEAT:  77.68268
 CYCLE:    53 TIME:   0.141 TIME LEFT:  2.00D  GRAD.:    41.964 HEAT:  77.67837
 CYCLE:    54 TIME:   0.125 TIME LEFT:  2.00D  GRAD.:    11.812 HEAT:  77.65970
 CYCLE:    55 TIME:   0.133 TIME LEFT:  2.00D  GRAD.:     6.516 HEAT:  77.65415
 CYCLE:    56 TIME:   0.125 TIME LEFT:  2.00D  GRAD.:     9.959 HEAT:  77.64779
 CYCLE:    57 TIME:   0.133 TIME LEFT:  2.00D  GRAD.:    12.260 HEAT:  77.63947
 CYCLE:    58 TIME:   0.133 TIME LEFT:  2.00D  GRAD.:    16.059 HEAT:  77.61797
 CYCLE:    59 TIME:   0.141 TIME LEFT:  2.00D  GRAD.:    16.889 HEAT:  77.60648
 CYCLE:    60 TIME:   0.133 TIME LEFT:  2.00D  GRAD.:     7.368 HEAT:  77.59210
 CYCLE:    61 TIME:   0.133 TIME LEFT:  2.00D  GRAD.:     8.069 HEAT:  77.58209
 CYCLE:    62 TIME:   0.133 TIME LEFT:  2.00D  GRAD.:    10.939 HEAT:  77.57130
 CYCLE:    63 TIME:   0.133 TIME LEFT:  2.00D  GRAD.:    45.502 HEAT:  77.58757
 CYCLE:    64 TIME:   0.133 TIME LEFT:  2.00D  GRAD.:     9.097 HEAT:  77.56046
 CYCLE:    65 TIME:   0.125 TIME LEFT:  2.00D  GRAD.:     7.048 HEAT:  77.55830
 CYCLE:    66 TIME:   0.133 TIME LEFT:  2.00D  GRAD.:     5.787 HEAT:  77.55249
 CYCLE:    67 TIME:   0.133 TIME LEFT:  2.00D  GRAD.:    20.689 HEAT:  77.54542
 CYCLE:    68 TIME:   0.125 TIME LEFT:  2.00D  GRAD.:     6.623 HEAT:  77.53980
 CYCLE:    69 TIME:   0.125 TIME LEFT:  2.00D  GRAD.:     5.467 HEAT:  77.53822
 CYCLE:    70 TIME:   0.133 TIME LEFT:  2.00D  GRAD.:     5.913 HEAT:  77.53292
 CYCLE:    71 TIME:   0.125 TIME LEFT:  2.00D  GRAD.:    11.546 HEAT:  77.52798
 CYCLE:    72 TIME:   0.133 TIME LEFT:  2.00D  GRAD.:     7.148 HEAT:  77.52073
 CYCLE:    73 TIME:   0.148 TIME LEFT:  2.00D  GRAD.:     5.676 HEAT:  77.51199
 CYCLE:    74 TIME:   0.133 TIME LEFT:  2.00D  GRAD.:     6.099 HEAT:  77.50402
 CYCLE:    75 TIME:   0.133 TIME LEFT:  2.00D  GRAD.:     7.817 HEAT:  77.49322
 CYCLE:    76 TIME:   0.133 TIME LEFT:  2.00D  GRAD.:     8.480 HEAT:  77.48081
 CYCLE:    77 TIME:   0.133 TIME LEFT:  2.00D  GRAD.:    31.872 HEAT:  77.47593
 CYCLE:    78 TIME:   0.133 TIME LEFT:  2.00D  GRAD.:    15.527 HEAT:  77.46408
 CYCLE:    79 TIME:   0.133 TIME LEFT:  2.00D  GRAD.:    19.393 HEAT:  77.45759
 CYCLE:    80 TIME:   0.133 TIME LEFT:  2.00D  GRAD.:    21.495 HEAT:  77.44412
 CYCLE:    81 TIME:   0.141 TIME LEFT:  2.00D  GRAD.:   256.687 HEAT:  78.43370
 CYCLE:    82 TIME:   0.141 TIME LEFT:  2.00D  GRAD.:   105.204 HEAT:  77.52356
 CYCLE:    83 TIME:   0.141 TIME LEFT:  2.00D  GRAD.:   211.358 HEAT:  77.80582
 CYCLE:    84 TIME:   0.148 TIME LEFT:  2.00D  GRAD.:    67.872 HEAT:  77.53472
 CYCLE:    85 TIME:   0.133 TIME LEFT:  2.00D  GRAD.:    96.172 HEAT:  77.53132
 CYCLE:    86 TIME:   0.133 TIME LEFT:  2.00D  GRAD.:    10.132 HEAT:  77.41892
 CYCLE:    87 TIME:   0.133 TIME LEFT:  2.00D  GRAD.:     5.541 HEAT:  77.41772
 CYCLE:    88 TIME:   0.133 TIME LEFT:  2.00D  GRAD.:     9.910 HEAT:  77.41706
 CYCLE:    89 TIME:   0.125 TIME LEFT:  2.00D  GRAD.:     7.407 HEAT:  77.41456
 CYCLE:    90 TIME:   0.133 TIME LEFT:  2.00D  GRAD.:     7.321 HEAT:  77.40391
 CYCLE:    91 TIME:   0.141 TIME LEFT:  2.00D  GRAD.:    14.884 HEAT:  77.38887
 CYCLE:    92 TIME:   0.133 TIME LEFT:  2.00D  GRAD.:    15.603 HEAT:  77.37480
 CYCLE:    93 TIME:   0.141 TIME LEFT:  2.00D  GRAD.:    13.343 HEAT:  77.36094
 CYCLE:    94 TIME:   0.133 TIME LEFT:  2.00D  GRAD.:    10.726 HEAT:  77.35153
 CYCLE:    95 TIME:   0.125 TIME LEFT:  2.00D  GRAD.:    11.818 HEAT:  77.34338
 CYCLE:    96 TIME:   0.141 TIME LEFT:  2.00D  GRAD.:    18.179 HEAT:  77.32547
 CYCLE:    97 TIME:   0.125 TIME LEFT:  2.00D  GRAD.:    15.757 HEAT:  77.31104
 CYCLE:    98 TIME:   0.141 TIME LEFT:  2.00D  GRAD.:    17.586 HEAT:  77.28890
 CYCLE:    99 TIME:   0.133 TIME LEFT:  2.00D  GRAD.:    15.392 HEAT:  77.27526
 CYCLE:   100 TIME:   0.125 TIME LEFT:  2.00D  GRAD.:    10.695 HEAT:  77.26937
 CYCLE:   101 TIME:   0.141 TIME LEFT:  2.00D  GRAD.:    16.969 HEAT:  77.26265
 CYCLE:   102 TIME:   0.133 TIME LEFT:  2.00D  GRAD.:     9.834 HEAT:  77.25283
 CYCLE:   103 TIME:   0.133 TIME LEFT:  2.00D  GRAD.:    11.339 HEAT:  77.24406
 CYCLE:   104 TIME:   0.141 TIME LEFT:  2.00D  GRAD.:     9.686 HEAT:  77.23196
 CYCLE:   105 TIME:   0.133 TIME LEFT:  2.00D  GRAD.:     7.844 HEAT:  77.21967
 CYCLE:   106 TIME:   0.133 TIME LEFT:  2.00D  GRAD.:    11.442 HEAT:  77.21123
 CYCLE:   107 TIME:   0.141 TIME LEFT:  2.00D  GRAD.:     6.683 HEAT:  77.20408
 CYCLE:   108 TIME:   0.211 TIME LEFT:  2.00D  GRAD.:     8.230 HEAT:  77.19742
 CYCLE:   109 TIME:   0.211 TIME LEFT:  2.00D  GRAD.:     7.369 HEAT:  77.19171
 CYCLE:   110 TIME:   0.172 TIME LEFT:  2.00D  GRAD.:    16.919 HEAT:  77.18270
 CYCLE:   111 TIME:   0.148 TIME LEFT:  2.00D  GRAD.:    11.346 HEAT:  77.17404
 CYCLE:   112 TIME:   0.141 TIME LEFT:  2.00D  GRAD.:     6.951 HEAT:  77.16883
 CYCLE:   113 TIME:   0.148 TIME LEFT:  2.00D  GRAD.:     8.081 HEAT:  77.16397
 CYCLE:   114 TIME:   0.164 TIME LEFT:  2.00D  GRAD.:    42.579 HEAT:  77.16742
 CYCLE:   115 TIME:   0.164 TIME LEFT:  2.00D  GRAD.:    12.570 HEAT:  77.15453
 CYCLE:   116 TIME:   0.180 TIME LEFT:  2.00D  GRAD.:     7.055 HEAT:  77.15003
 CYCLE:   117 TIME:   0.133 TIME LEFT:  2.00D  GRAD.:     7.932 HEAT:  77.14489
 CYCLE:   118 TIME:   0.125 TIME LEFT:  2.00D  GRAD.:     8.630 HEAT:  77.14051
 CYCLE:   119 TIME:   0.133 TIME LEFT:  2.00D  GRAD.:     7.258 HEAT:  77.13273
 CYCLE:   120 TIME:   0.148 TIME LEFT:  2.00D  GRAD.:    27.319 HEAT:  77.13871
 CYCLE:   121 TIME:   0.141 TIME LEFT:  2.00D  GRAD.:     7.838 HEAT:  77.11970
 CYCLE:   122 TIME:   0.125 TIME LEFT:  2.00D  GRAD.:     4.754 HEAT:  77.11808
 CYCLE:   123 TIME:   0.125 TIME LEFT:  2.00D  GRAD.:     3.906 HEAT:  77.11669
 CYCLE:   124 TIME:   0.125 TIME LEFT:  2.00D  GRAD.:     4.994 HEAT:  77.11250
 CYCLE:   125 TIME:   0.133 TIME LEFT:  2.00D  GRAD.:    19.951 HEAT:  77.11703
 CYCLE:   126 TIME:   0.125 TIME LEFT:  2.00D  GRAD.:     4.546 HEAT:  77.10947
 CYCLE:   127 TIME:   0.133 TIME LEFT:  2.00D  GRAD.:     3.207 HEAT:  77.10803
 CYCLE:   128 TIME:   0.133 TIME LEFT:  2.00D  GRAD.:     4.121 HEAT:  77.10462
 CYCLE:   129 TIME:   0.125 TIME LEFT:  2.00D  GRAD.:     8.340 HEAT:  77.10233
 CYCLE:   130 TIME:   0.133 TIME LEFT:  2.00D  GRAD.:     4.479 HEAT:  77.09936
 CYCLE:   131 TIME:   0.125 TIME LEFT:  2.00D  GRAD.:     3.877 HEAT:  77.09697
 CYCLE:   132 TIME:   0.125 TIME LEFT:  2.00D  GRAD.:     3.737 HEAT:  77.09358
 CYCLE:   133 TIME:   0.133 TIME LEFT:  2.00D  GRAD.:     9.674 HEAT:  77.09248
 CYCLE:   134 TIME:   0.117 TIME LEFT:  2.00D  GRAD.:     4.425 HEAT:  77.08925
 CYCLE:   135 TIME:   0.133 TIME LEFT:  2.00D  GRAD.:     2.918 HEAT:  77.08641
 CYCLE:   136 TIME:   0.141 TIME LEFT:  2.00D  GRAD.:     4.493 HEAT:  77.08371
 CYCLE:   137 TIME:   0.125 TIME LEFT:  2.00D  GRAD.:     8.697 HEAT:  77.08228
 CYCLE:   138 TIME:   0.133 TIME LEFT:  2.00D  GRAD.:     4.001 HEAT:  77.07973
 CYCLE:   139 TIME:   0.125 TIME LEFT:  2.00D  GRAD.:     2.800 HEAT:  77.07821
 CYCLE:   140 TIME:   0.148 TIME LEFT:  2.00D  GRAD.:     4.602 HEAT:  77.07585
 CYCLE:   141 TIME:   0.125 TIME LEFT:  2.00D  GRAD.:    15.594 HEAT:  77.07685
 CYCLE:   142 TIME:   0.125 TIME LEFT:  2.00D  GRAD.:     3.681 HEAT:  77.07371
 CYCLE:   143 TIME:   0.133 TIME LEFT:  2.00D  GRAD.:     2.637 HEAT:  77.07308
 CYCLE:   144 TIME:   0.133 TIME LEFT:  2.00D  GRAD.:     9.633 HEAT:  77.07227
 CYCLE:   145 TIME:   0.117 TIME LEFT:  2.00D  GRAD.:     3.272 HEAT:  77.07136
 CYCLE:   146 TIME:   0.125 TIME LEFT:  2.00D  GRAD.:     2.429 HEAT:  77.07080
 CYCLE:   147 TIME:   0.125 TIME LEFT:  2.00D  GRAD.:     4.794 HEAT:  77.06978
 CYCLE:   148 TIME:   0.133 TIME LEFT:  2.00D  GRAD.:     4.089 HEAT:  77.06875
 CYCLE:   149 TIME:   0.125 TIME LEFT:  2.00D  GRAD.:     2.977 HEAT:  77.06729
 CYCLE:   150 TIME:   0.133 TIME LEFT:  2.00D  GRAD.:     2.380 HEAT:  77.06654
 CYCLE:   151 TIME:   0.133 TIME LEFT:  2.00D  GRAD.:     2.408 HEAT:  77.06610
 CYCLE:   152 TIME:   0.133 TIME LEFT:  2.00D  GRAD.:     2.522 HEAT:  77.06540
 CYCLE:   153 TIME:   0.133 TIME LEFT:  2.00D  GRAD.:     4.915 HEAT:  77.06476
 CYCLE:   154 TIME:   0.125 TIME LEFT:  2.00D  GRAD.:     2.592 HEAT:  77.06394
 CYCLE:   155 TIME:   0.133 TIME LEFT:  2.00D  GRAD.:     2.991 HEAT:  77.06333
 CYCLE:   156 TIME:   0.125 TIME LEFT:  2.00D  GRAD.:     2.439 HEAT:  77.06279
 CYCLE:   157 TIME:   0.133 TIME LEFT:  2.00D  GRAD.:     1.561 HEAT:  77.06201
 CYCLE:   158 TIME:   0.133 TIME LEFT:  2.00D  GRAD.:     2.314 HEAT:  77.06109
 CYCLE:   159 TIME:   0.133 TIME LEFT:  2.00D  GRAD.:     2.759 HEAT:  77.06072
 CYCLE:   160 TIME:   0.133 TIME LEFT:  2.00D  GRAD.:     2.251 HEAT:  77.06041
 CYCLE:   161 TIME:   0.125 TIME LEFT:  2.00D  GRAD.:     9.191 HEAT:  77.06062
 CYCLE:   162 TIME:   0.125 TIME LEFT:  2.00D  GRAD.:     1.684 HEAT:  77.06006
 CYCLE:   163 TIME:   0.133 TIME LEFT:  2.00D  GRAD.:     2.066 HEAT:  77.06009
 CYCLE:   164 TIME:   0.125 TIME LEFT:  2.00D  GRAD.:     1.293 HEAT:  77.05979
 CYCLE:   165 TIME:   0.125 TIME LEFT:  2.00D  GRAD.:     1.948 HEAT:  77.05936
 CYCLE:   166 TIME:   0.141 TIME LEFT:  2.00D  GRAD.:     1.716 HEAT:  77.05911
 CYCLE:   167 TIME:   0.133 TIME LEFT:  2.00D  GRAD.:     1.602 HEAT:  77.05882
 CYCLE:   168 TIME:   0.141 TIME LEFT:  2.00D  GRAD.:     1.095 HEAT:  77.05860
 CYCLE:   169 TIME:   0.141 TIME LEFT:  2.00D  GRAD.:     2.152 HEAT:  77.05845
 CYCLE:   170 TIME:   0.133 TIME LEFT:  2.00D  GRAD.:     1.120 HEAT:  77.05831
 CYCLE:   171 TIME:   0.133 TIME LEFT:  2.00D  GRAD.:     0.895 HEAT:  77.05820
 CYCLE:   172 TIME:   0.133 TIME LEFT:  2.00D  GRAD.:     1.755 HEAT:  77.05805
 CYCLE:   173 TIME:   0.141 TIME LEFT:  2.00D  GRAD.:     1.975 HEAT:  77.05792
 CYCLE:   174 TIME:   0.125 TIME LEFT:  2.00D  GRAD.:     1.040 HEAT:  77.05769
 CYCLE:   175 TIME:   0.141 TIME LEFT:  2.00D  GRAD.:     1.376 HEAT:  77.05760
 CYCLE:   176 TIME:   0.141 TIME LEFT:  2.00D  GRAD.:     3.027 HEAT:  77.05751
 CYCLE:   177 TIME:   0.133 TIME LEFT:  2.00D  GRAD.:     1.116 HEAT:  77.05739
 CYCLE:   178 TIME:   0.133 TIME LEFT:  2.00D  GRAD.:     0.644 HEAT:  77.05736
 CYCLE:   179 TIME:   0.133 TIME LEFT:  2.00D  GRAD.:     1.791 HEAT:  77.05729
 CYCLE:   180 TIME:   0.133 TIME LEFT:  2.00D  GRAD.:     1.093 HEAT:  77.05723
 CYCLE:   181 TIME:   0.133 TIME LEFT:  2.00D  GRAD.:     0.912 HEAT:  77.05711
 CYCLE:   182 TIME:   0.133 TIME LEFT:  2.00D  GRAD.:     0.790 HEAT:  77.05704
 CYCLE:   183 TIME:   0.133 TIME LEFT:  2.00D  GRAD.:     1.064 HEAT:  77.05681
 CYCLE:   184 TIME:   0.141 TIME LEFT:  2.00D  GRAD.:     1.462 HEAT:  77.05672
 CYCLE:   185 TIME:   0.133 TIME LEFT:  2.00D  GRAD.:     0.922 HEAT:  77.05662
 CYCLE:   186 TIME:   0.133 TIME LEFT:  2.00D  GRAD.:     0.750 HEAT:  77.05656
 CYCLE:   187 TIME:   0.141 TIME LEFT:  2.00D  GRAD.:     0.857 HEAT:  77.05645
 CYCLE:   188 TIME:   0.133 TIME LEFT:  2.00D  GRAD.:     1.687 HEAT:  77.05642
 CYCLE:   189 TIME:   0.133 TIME LEFT:  2.00D  GRAD.:     0.863 HEAT:  77.05634
 CYCLE:   190 TIME:   0.133 TIME LEFT:  2.00D  GRAD.:     0.791 HEAT:  77.05624
 CYCLE:   191 TIME:   0.141 TIME LEFT:  2.00D  GRAD.:     1.101 HEAT:  77.05615
 CYCLE:   192 TIME:   0.133 TIME LEFT:  2.00D  GRAD.:     2.690 HEAT:  77.05611
 CYCLE:   193 TIME:   0.125 TIME LEFT:  2.00D  GRAD.:     0.865 HEAT:  77.05602
 CYCLE:   194 TIME:   0.141 TIME LEFT:  2.00D  GRAD.:     0.689 HEAT:  77.05598
 CYCLE:   195 TIME:   0.133 TIME LEFT:  2.00D  GRAD.:     1.072 HEAT:  77.05591
 CYCLE:   196 TIME:   0.133 TIME LEFT:  2.00D  GRAD.:     1.013 HEAT:  77.05585
 CYCLE:   197 TIME:   0.141 TIME LEFT:  2.00D  GRAD.:     3.858 HEAT:  77.05597
 CYCLE:   198 TIME:   0.125 TIME LEFT:  2.00D  GRAD.:     0.711 HEAT:  77.05573
 CYCLE:   199 TIME:   0.133 TIME LEFT:  2.00D  GRAD.:     0.508 HEAT:  77.05571
 CYCLE:   200 TIME:   0.133 TIME LEFT:  2.00D  GRAD.:     0.646 HEAT:  77.05568
 CYCLE:   201 TIME:   0.133 TIME LEFT:  2.00D  GRAD.:     0.716 HEAT:  77.05563
 CYCLE:   202 TIME:   0.133 TIME LEFT:  2.00D  GRAD.:     4.224 HEAT:  77.05583
 CYCLE:   203 TIME:   0.133 TIME LEFT:  2.00D  GRAD.:     0.612 HEAT:  77.05557
 CYCLE:   204 TIME:   0.125 TIME LEFT:  2.00D  GRAD.:     0.462 HEAT:  77.05555
 CYCLE:   205 TIME:   0.141 TIME LEFT:  2.00D  GRAD.:     1.234 HEAT:  77.05551
 CYCLE:   206 TIME:   0.125 TIME LEFT:  2.00D  GRAD.:     0.658 HEAT:  77.05548
 CYCLE:   207 TIME:   0.133 TIME LEFT:  2.00D  GRAD.:     0.542 HEAT:  77.05545
 CYCLE:   208 TIME:   0.125 TIME LEFT:  2.00D  GRAD.:     0.848 HEAT:  77.05541
 CYCLE:   209 TIME:   0.133 TIME LEFT:  2.00D  GRAD.:     1.046 HEAT:  77.05538
 CYCLE:   210 TIME:   0.117 TIME LEFT:  2.00D  GRAD.:     1.235 HEAT:  77.05531
 CYCLE:   211 TIME:   0.109 TIME LEFT:  2.00D  GRAD.:     0.787 HEAT:  77.05528
 CYCLE:   212 TIME:   0.125 TIME LEFT:  2.00D  GRAD.:     0.636 HEAT:  77.05526
 CYCLE:   213 TIME:   0.125 TIME LEFT:  2.00D  GRAD.:     0.983 HEAT:  77.05522
 CYCLE:   214 TIME:   0.125 TIME LEFT:  2.00D  GRAD.:     0.725 HEAT:  77.05519
 CYCLE:   215 TIME:   0.125 TIME LEFT:  2.00D  GRAD.:     0.469 HEAT:  77.05515
 CYCLE:   216 TIME:   0.125 TIME LEFT:  2.00D  GRAD.:     0.507 HEAT:  77.05512
 CYCLE:   217 TIME:   0.109 TIME LEFT:  2.00D  GRAD.:     0.530 HEAT:  77.05511
 CYCLE:   218 TIME:   0.117 TIME LEFT:  2.00D  GRAD.:     0.511 HEAT:  77.05509
 CYCLE:   219 TIME:   0.117 TIME LEFT:  2.00D  GRAD.:     0.716 HEAT:  77.05505
 CYCLE:   220 TIME:   0.133 TIME LEFT:  2.00D  GRAD.:     1.875 HEAT:  77.05506
 CYCLE:   221 TIME:   0.133 TIME LEFT:  2.00D  GRAD.:     0.489 HEAT:  77.05502
 CYCLE:   222 TIME:   0.117 TIME LEFT:  2.00D  GRAD.:     0.402 HEAT:  77.05501
 CYCLE:   223 TIME:   0.117 TIME LEFT:  2.00D  GRAD.:     0.589 HEAT:  77.05499
 CYCLE:   224 TIME:   0.180 TIME LEFT:  2.00D  GRAD.:     0.494 HEAT:  77.05495
 CYCLE:   225 TIME:   0.188 TIME LEFT:  2.00D  GRAD.:     0.909 HEAT:  77.05492
 CYCLE:   226 TIME:   0.219 TIME LEFT:  2.00D  GRAD.:     1.596 HEAT:  77.05492
 CYCLE:   227 TIME:   0.125 TIME LEFT:  2.00D  GRAD.:     1.211 HEAT:  77.05490
 CYCLE:   228 TIME:   0.211 TIME LEFT:  2.00D  GRAD.:     0.401 HEAT:  77.05487
 CYCLE:   229 TIME:   0.172 TIME LEFT:  2.00D  GRAD.:     0.452 HEAT:  77.05486
 CYCLE:   230 TIME:   0.164 TIME LEFT:  2.00D  GRAD.:     1.437 HEAT:  77.05482
 CYCLE:   231 TIME:   0.211 TIME LEFT:  2.00D  GRAD.:     0.660 HEAT:  77.05479
 CYCLE:   232 TIME:   0.148 TIME LEFT:  2.00D  GRAD.:     0.684 HEAT:  77.05476
 CYCLE:   233 TIME:   0.148 TIME LEFT:  2.00D  GRAD.:     0.845 HEAT:  77.05475
 CYCLE:   234 TIME:   0.180 TIME LEFT:  2.00D  GRAD.:     0.462 HEAT:  77.05472
 CYCLE:   235 TIME:   0.289 TIME LEFT:  2.00D  GRAD.:     0.497 HEAT:  77.05470
 CYCLE:   236 TIME:   0.195 TIME LEFT:  2.00D  GRAD.:     0.697 HEAT:  77.05469
 CYCLE:   237 TIME:   0.234 TIME LEFT:  2.00D  GRAD.:     0.525 HEAT:  77.05466
 CYCLE:   238 TIME:   0.172 TIME LEFT:  2.00D  GRAD.:     0.369 HEAT:  77.05465
 CYCLE:   239 TIME:   0.180 TIME LEFT:  2.00D  GRAD.:     0.426 HEAT:  77.05462
 CYCLE:   240 TIME:   0.164 TIME LEFT:  2.00D  GRAD.:     0.540 HEAT:  77.05459
 CYCLE:   241 TIME:   0.195 TIME LEFT:  2.00D  GRAD.:     1.007 HEAT:  77.05457
 CYCLE:   242 TIME:   0.234 TIME LEFT:  2.00D  GRAD.:     0.404 HEAT:  77.05454
 CYCLE:   243 TIME:   0.188 TIME LEFT:  2.00D  GRAD.:     0.368 HEAT:  77.05453
 CYCLE:   244 TIME:   0.156 TIME LEFT:  2.00D  GRAD.:     0.485 HEAT:  77.05451
 CYCLE:   245 TIME:   0.188 TIME LEFT:  2.00D  GRAD.:     0.762 HEAT:  77.05448
 CYCLE:   246 TIME:   0.180 TIME LEFT:  2.00D  GRAD.:     1.031 HEAT:  77.05447
 CYCLE:   247 TIME:   0.156 TIME LEFT:  2.00D  GRAD.:     0.456 HEAT:  77.05445
 CYCLE:   248 TIME:   0.180 TIME LEFT:  2.00D  GRAD.:     1.068 HEAT:  77.05445
 CYCLE:   249 TIME:   0.188 TIME LEFT:  2.00D  GRAD.:     0.518 HEAT:  77.05442
 CYCLE:   250 TIME:   0.203 TIME LEFT:  2.00D  GRAD.:     1.107 HEAT:  77.05440
 CYCLE:   251 TIME:   0.156 TIME LEFT:  2.00D  GRAD.:     0.762 HEAT:  77.05438
 CYCLE:   252 TIME:   0.195 TIME LEFT:  2.00D  GRAD.:     0.460 HEAT:  77.05435
 CYCLE:   253 TIME:   0.266 TIME LEFT:  2.00D  GRAD.:     0.413 HEAT:  77.05434
 CYCLE:   254 TIME:   0.289 TIME LEFT:  2.00D  GRAD.:     0.445 HEAT:  77.05432
 CYCLE:   255 TIME:   0.195 TIME LEFT:  2.00D  GRAD.:     0.534 HEAT:  77.05428
 CYCLE:   256 TIME:   0.188 TIME LEFT:  2.00D  GRAD.:     1.017 HEAT:  77.05427
 CYCLE:   257 TIME:   0.164 TIME LEFT:  2.00D  GRAD.:     0.431 HEAT:  77.05424
 CYCLE:   258 TIME:   0.211 TIME LEFT:  2.00D  GRAD.:     0.409 HEAT:  77.05422
 CYCLE:   259 TIME:   0.188 TIME LEFT:  2.00D  GRAD.:     0.574 HEAT:  77.05420
 CYCLE:   260 TIME:   0.141 TIME LEFT:  2.00D  GRAD.:     0.634 HEAT:  77.05417
 CYCLE:   261 TIME:   0.203 TIME LEFT:  2.00D  GRAD.:     0.702 HEAT:  77.05414
 CYCLE:   262 TIME:   0.125 TIME LEFT:  2.00D  GRAD.:     1.127 HEAT:  77.05411
 CYCLE:   263 TIME:   0.188 TIME LEFT:  2.00D  GRAD.:     1.562 HEAT:  77.05410
 CYCLE:   264 TIME:   0.258 TIME LEFT:  2.00D  GRAD.:     0.542 HEAT:  77.05406
 CYCLE:   265 TIME:   0.219 TIME LEFT:  2.00D  GRAD.:     0.480 HEAT:  77.05405
 CYCLE:   266 TIME:   0.266 TIME LEFT:  2.00D  GRAD.:     0.985 HEAT:  77.05403
 CYCLE:   267 TIME:   0.219 TIME LEFT:  2.00D  GRAD.:     0.455 HEAT:  77.05400
 CYCLE:   268 TIME:   0.219 TIME LEFT:  2.00D  GRAD.:     0.487 HEAT:  77.05397
 CYCLE:   269 TIME:   0.188 TIME LEFT:  2.00D  GRAD.:     0.737 HEAT:  77.05394
 CYCLE:   270 TIME:   0.211 TIME LEFT:  2.00D  GRAD.:     2.059 HEAT:  77.05395
 CYCLE:   271 TIME:   0.172 TIME LEFT:  2.00D  GRAD.:     0.572 HEAT:  77.05387
 CYCLE:   272 TIME:   0.203 TIME LEFT:  2.00D  GRAD.:     0.336 HEAT:  77.05384
 CYCLE:   273 TIME:   0.227 TIME LEFT:  2.00D  GRAD.:     0.427 HEAT:  77.05381
 CYCLE:   274 TIME:   0.250 TIME LEFT:  2.00D  GRAD.:     0.731 HEAT:  77.05377
 CYCLE:   275 TIME:   0.328 TIME LEFT:  2.00D  GRAD.:     0.705 HEAT:  77.05373
 CYCLE:   276 TIME:   0.156 TIME LEFT:  2.00D  GRAD.:     0.428 HEAT:  77.05370
 CYCLE:   277 TIME:   0.250 TIME LEFT:  2.00D  GRAD.:     0.789 HEAT:  77.05367
 CYCLE:   278 TIME:   0.188 TIME LEFT:  2.00D  GRAD.:     5.671 HEAT:  77.05394
 CYCLE:   279 TIME:   0.164 TIME LEFT:  2.00D  GRAD.:     0.420 HEAT:  77.05363
 CYCLE:   280 TIME:   0.273 TIME LEFT:  2.00D  GRAD.:     0.992 HEAT:  77.05364
 CYCLE:   281 TIME:   0.250 TIME LEFT:  2.00D  GRAD.:     7.764 HEAT:  77.05423
 CYCLE:   282 TIME:   0.281 TIME LEFT:  2.00D  GRAD.:     4.165 HEAT:  77.05383
 CYCLE:   283 TIME:   0.227 TIME LEFT:  2.00D  GRAD.:     1.348 HEAT:  77.05360
 CYCLE:   284 TIME:   0.188 TIME LEFT:  2.00D  GRAD.:     1.796 HEAT:  77.05362
 CYCLE:   285 TIME:   0.180 TIME LEFT:  2.00D  GRAD.:     0.378 HEAT:  77.05353
 CYCLE:   286 TIME:   0.164 TIME LEFT:  2.00D  GRAD.:     0.381 HEAT:  77.05352
 CYCLE:   287 TIME:   0.305 TIME LEFT:  2.00D  GRAD.:     2.709 HEAT:  77.05362
 CYCLE:   288 TIME:   0.305 TIME LEFT:  2.00D  GRAD.:     0.610 HEAT:  77.05349
 CYCLE:   289 TIME:   0.172 TIME LEFT:  2.00D  GRAD.:     0.342 HEAT:  77.05348
 CYCLE:   290 TIME:   0.180 TIME LEFT:  2.00D  GRAD.:     0.335 HEAT:  77.05347
 CYCLE:   291 TIME:   0.266 TIME LEFT:  2.00D  GRAD.:     1.403 HEAT:  77.05343
 CYCLE:   292 TIME:   0.203 TIME LEFT:  2.00D  GRAD.:     0.600 HEAT:  77.05338
 CYCLE:   293 TIME:   0.195 TIME LEFT:  2.00D  GRAD.:     0.710 HEAT:  77.05335
 CYCLE:   294 TIME:   0.227 TIME LEFT:  2.00D  GRAD.:     0.700 HEAT:  77.05331
 CYCLE:   295 TIME:   0.211 TIME LEFT:  2.00D  GRAD.:     0.508 HEAT:  77.05328
 CYCLE:   296 TIME:   0.219 TIME LEFT:  2.00D  GRAD.:     0.633 HEAT:  77.05326
 CYCLE:   297 TIME:   0.211 TIME LEFT:  2.00D  GRAD.:     2.348 HEAT:  77.05328
 CYCLE:   298 TIME:   0.141 TIME LEFT:  2.00D  GRAD.:     0.517 HEAT:  77.05319
 CYCLE:   299 TIME:   0.180 TIME LEFT:  2.00D  GRAD.:     0.401 HEAT:  77.05317
 CYCLE:   300 TIME:   0.250 TIME LEFT:  2.00D  GRAD.:     0.411 HEAT:  77.05315
 CYCLE:   301 TIME:   0.234 TIME LEFT:  2.00D  GRAD.:     0.369 HEAT:  77.05314
 CYCLE:   302 TIME:   0.242 TIME LEFT:  2.00D  GRAD.:     0.711 HEAT:  77.05312
 CYCLE:   303 TIME:   0.250 TIME LEFT:  2.00D  GRAD.:     0.754 HEAT:  77.05309
 CYCLE:   304 TIME:   0.266 TIME LEFT:  2.00D  GRAD.:     0.558 HEAT:  77.05305
 CYCLE:   305 TIME:   0.281 TIME LEFT:  2.00D  GRAD.:     0.405 HEAT:  77.05301
 CYCLE:   306 TIME:   0.266 TIME LEFT:  2.00D  GRAD.:     0.413 HEAT:  77.05297
 CYCLE:   307 TIME:   0.227 TIME LEFT:  2.00D  GRAD.:     1.097 HEAT:  77.05294
 CYCLE:   308 TIME:   0.297 TIME LEFT:  2.00D  GRAD.:     0.522 HEAT:  77.05292
 CYCLE:   309 TIME:   0.258 TIME LEFT:  2.00D  GRAD.:     0.474 HEAT:  77.05291
 CYCLE:   310 TIME:   0.281 TIME LEFT:  2.00D  GRAD.:     3.380 HEAT:  77.05317
 CYCLE:   311 TIME:   0.227 TIME LEFT:  2.00D  GRAD.:     0.342 HEAT:  77.05288
 CYCLE:   312 TIME:   0.234 TIME LEFT:  2.00D  GRAD.:     0.391 HEAT:  77.05287
 CYCLE:   313 TIME:   0.258 TIME LEFT:  2.00D  GRAD.:     0.505 HEAT:  77.05285
 CYCLE:   314 TIME:   0.250 TIME LEFT:  2.00D  GRAD.:     1.295 HEAT:  77.05283
 CYCLE:   315 TIME:   0.211 TIME LEFT:  2.00D  GRAD.:     0.672 HEAT:  77.05278
 CYCLE:   316 TIME:   0.195 TIME LEFT:  2.00D  GRAD.:     0.349 HEAT:  77.05277
 CYCLE:   317 TIME:   0.266 TIME LEFT:  2.00D  GRAD.:     0.297 HEAT:  77.05275
 CYCLE:   318 TIME:   0.180 TIME LEFT:  2.00D  GRAD.:     0.856 HEAT:  77.05277
 CYCLE:   319 TIME:   0.242 TIME LEFT:  2.00D  GRAD.:     3.874 HEAT:  77.05302
 CYCLE:   320 TIME:   0.219 TIME LEFT:  2.00D  GRAD.:     9.721 HEAT:  77.05485
 CYCLE:   321 TIME:   0.281 TIME LEFT:  2.00D  GRAD.:     1.267 HEAT:  77.05288
 CYCLE:   322 TIME:   0.297 TIME LEFT:  2.00D  GRAD.:     0.463 HEAT:  77.05271
 CYCLE:   323 TIME:   0.258 TIME LEFT:  2.00D  GRAD.:     8.892 HEAT:  77.05342
 CYCLE:   324 TIME:   0.227 TIME LEFT:  2.00D  GRAD.:     0.954 HEAT:  77.05272
 CYCLE:   325 TIME:   0.281 TIME LEFT:  2.00D  GRAD.:     1.362 HEAT:  77.05293
 CYCLE:   326 TIME:   0.242 TIME LEFT:  2.00D  GRAD.:     1.664 HEAT:  77.05283
 CYCLE:   327 TIME:   0.281 TIME LEFT:  2.00D  GRAD.:     2.105 HEAT:  77.05274
 CYCLE:   328 TIME:   0.188 TIME LEFT:  2.00D  GRAD.:     0.587 HEAT:  77.05264
 CYCLE:   329 TIME:   0.164 TIME LEFT:  2.00D  GRAD.:     0.306 HEAT:  77.05262
 CYCLE:   330 TIME:   0.188 TIME LEFT:  2.00D  GRAD.:     0.835 HEAT:  77.05264
 CYCLE:   331 TIME:   0.266 TIME LEFT:  2.00D  GRAD.:     0.516 HEAT:  77.05260
 CYCLE:   332 TIME:   0.266 TIME LEFT:  2.00D  GRAD.:     0.792 HEAT:  77.05260
 CYCLE:   333 TIME:   0.281 TIME LEFT:  2.00D  GRAD.:     0.220 HEAT:  77.05258
 CYCLE:   334 TIME:   0.289 TIME LEFT:  2.00D  GRAD.:     1.392 HEAT:  77.05260
 CYCLE:   335 TIME:   0.297 TIME LEFT:  2.00D  GRAD.:     0.660 HEAT:  77.05254
 CYCLE:   336 TIME:   0.195 TIME LEFT:  2.00D  GRAD.:     0.230 HEAT:  77.05253
 CYCLE:   337 TIME:   0.211 TIME LEFT:  2.00D  GRAD.:     0.524 HEAT:  77.05251
 CYCLE:   338 TIME:   0.156 TIME LEFT:  2.00D  GRAD.:     0.592 HEAT:  77.05246
 CYCLE:   339 TIME:   0.234 TIME LEFT:  2.00D  GRAD.:     0.381 HEAT:  77.05243
 CYCLE:   340 TIME:   0.203 TIME LEFT:  2.00D  GRAD.:     0.337 HEAT:  77.05242
 CYCLE:   341 TIME:   0.281 TIME LEFT:  2.00D  GRAD.:     0.420 HEAT:  77.05242
 CYCLE:   342 TIME:   0.273 TIME LEFT:  2.00D  GRAD.:     2.403 HEAT:  77.05249
 CYCLE:   343 TIME:   0.320 TIME LEFT:  2.00D  GRAD.:     0.356 HEAT:  77.05235
 CYCLE:   344 TIME:   0.242 TIME LEFT:  2.00D  GRAD.:     0.278 HEAT:  77.05234
 CYCLE:   345 TIME:   0.203 TIME LEFT:  2.00D  GRAD.:     5.229 HEAT:  77.05321
 CYCLE:   346 TIME:   0.227 TIME LEFT:  2.00D  GRAD.:     1.577 HEAT:  77.05241
 CYCLE:   347 TIME:   0.234 TIME LEFT:  2.00D  GRAD.:     0.318 HEAT:  77.05232
 CYCLE:   348 TIME:   0.203 TIME LEFT:  2.00D  GRAD.:     0.213 HEAT:  77.05232
 CYCLE:   349 TIME:   0.172 TIME LEFT:  2.00D  GRAD.:     0.262 HEAT:  77.05232
 CYCLE:   350 TIME:   0.219 TIME LEFT:  2.00D  GRAD.:     0.280 HEAT:  77.05231
 CYCLE:   351 TIME:   0.242 TIME LEFT:  2.00D  GRAD.:     1.336 HEAT:  77.05232
 CYCLE:   352 TIME:   0.266 TIME LEFT:  2.00D  GRAD.:     0.386 HEAT:  77.05230
 CYCLE:   353 TIME:   0.211 TIME LEFT:  2.00D  GRAD.:     0.330 HEAT:  77.05229
 CYCLE:   354 TIME:   0.266 TIME LEFT:  2.00D  GRAD.:     0.383 HEAT:  77.05229
 CYCLE:   355 TIME:   0.219 TIME LEFT:  2.00D  GRAD.:     0.294 HEAT:  77.05227
 CYCLE:   356 TIME:   0.195 TIME LEFT:  2.00D  GRAD.:     0.279 HEAT:  77.05226
 CYCLE:   357 TIME:   0.250 TIME LEFT:  2.00D  GRAD.:     0.254 HEAT:  77.05225
 CYCLE:   358 TIME:   0.188 TIME LEFT:  2.00D  GRAD.:     0.367 HEAT:  77.05225
 CYCLE:   359 TIME:   0.227 TIME LEFT:  2.00D  GRAD.:     0.219 HEAT:  77.05224
 CYCLE:   360 TIME:   0.203 TIME LEFT:  2.00D  GRAD.:     0.198 HEAT:  77.05223
 CYCLE:   361 TIME:   0.273 TIME LEFT:  2.00D  GRAD.:     0.332 HEAT:  77.05222
 CYCLE:   362 TIME:   0.148 TIME LEFT:  2.00D  GRAD.:     0.269 HEAT:  77.05221
 CYCLE:   363 TIME:   0.156 TIME LEFT:  2.00D  GRAD.:     0.324 HEAT:  77.05220
 CYCLE:   364 TIME:   0.156 TIME LEFT:  2.00D  GRAD.:     0.345 HEAT:  77.05219
 CYCLE:   365 TIME:   0.172 TIME LEFT:  2.00D  GRAD.:     0.472 HEAT:  77.05217
 CYCLE:   366 TIME:   0.219 TIME LEFT:  2.00D  GRAD.:     2.146 HEAT:  77.05219
 CYCLE:   367 TIME:   0.156 TIME LEFT:  2.00D  GRAD.:     0.418 HEAT:  77.05216
 CYCLE:   368 TIME:   0.156 TIME LEFT:  2.00D  GRAD.:     0.220 HEAT:  77.05215
 CYCLE:   369 TIME:   0.141 TIME LEFT:  2.00D  GRAD.:     0.293 HEAT:  77.05215
 CYCLE:   370 TIME:   0.211 TIME LEFT:  2.00D  GRAD.:     0.436 HEAT:  77.05215
 CYCLE:   371 TIME:   0.172 TIME LEFT:  2.00D  GRAD.:     0.374 HEAT:  77.05214
 CYCLE:   372 TIME:   0.219 TIME LEFT:  2.00D  GRAD.:     0.397 HEAT:  77.05214
 CYCLE:   373 TIME:   0.234 TIME LEFT:  2.00D  GRAD.:     0.264 HEAT:  77.05213
 CYCLE:   374 TIME:   0.281 TIME LEFT:  2.00D  GRAD.:     0.199 HEAT:  77.05213
 CYCLE:   375 TIME:   0.219 TIME LEFT:  2.00D  GRAD.:     0.130 HEAT:  77.05213
 CYCLE:   376 TIME:   0.289 TIME LEFT:  2.00D  GRAD.:     0.193 HEAT:  77.05213
 CYCLE:   377 TIME:   0.250 TIME LEFT:  2.00D  GRAD.:     0.201 HEAT:  77.05213
 CYCLE:   378 TIME:   0.180 TIME LEFT:  2.00D  GRAD.:     0.159 HEAT:  77.05212
 CYCLE:   379 TIME:   0.234 TIME LEFT:  2.00D  GRAD.:     0.117 HEAT:  77.05212
 CYCLE:   380 TIME:   0.266 TIME LEFT:  2.00D  GRAD.:     0.145 HEAT:  77.05212
 CYCLE:   381 TIME:   0.203 TIME LEFT:  2.00D  GRAD.:     0.745 HEAT:  77.05212
 CYCLE:   382 TIME:   0.227 TIME LEFT:  2.00D  GRAD.:     0.343 HEAT:  77.05211
 CYCLE:   383 TIME:   0.281 TIME LEFT:  2.00D  GRAD.:     0.214 HEAT:  77.05211
 CYCLE:   384 TIME:   0.273 TIME LEFT:  2.00D  GRAD.:     0.427 HEAT:  77.05211
 CYCLE:   385 TIME:   0.281 TIME LEFT:  2.00D  GRAD.:     0.185 HEAT:  77.05210
 CYCLE:   386 TIME:   0.211 TIME LEFT:  2.00D  GRAD.:     0.138 HEAT:  77.05210
 CYCLE:   387 TIME:   0.141 TIME LEFT:  2.00D  GRAD.:     0.133 HEAT:  77.05210
 CYCLE:   388 TIME:   0.227 TIME LEFT:  2.00D  GRAD.:     0.152 HEAT:  77.05209
 CYCLE:   389 TIME:   0.164 TIME LEFT:  2.00D  GRAD.:     0.385 HEAT:  77.05209
 CYCLE:   390 TIME:   0.195 TIME LEFT:  2.00D  GRAD.:     0.184 HEAT:  77.05208
 CYCLE:   391 TIME:   0.180 TIME LEFT:  2.00D  GRAD.:     0.132 HEAT:  77.05208
 CYCLE:   392 TIME:   0.273 TIME LEFT:  2.00D  GRAD.:     0.262 HEAT:  77.05208
 CYCLE:   393 TIME:   0.266 TIME LEFT:  2.00D  GRAD.:     0.370 HEAT:  77.05207
 CYCLE:   394 TIME:   0.250 TIME LEFT:  2.00D  GRAD.:     0.265 HEAT:  77.05207
 CYCLE:   395 TIME:   0.266 TIME LEFT:  2.00D  GRAD.:     0.263 HEAT:  77.05206
 CYCLE:   396 TIME:   0.141 TIME LEFT:  2.00D  GRAD.:     0.256 HEAT:  77.05206
 CYCLE:   397 TIME:   0.156 TIME LEFT:  2.00D  GRAD.:     0.195 HEAT:  77.05205
 CYCLE:   398 TIME:   0.203 TIME LEFT:  2.00D  GRAD.:     0.218 HEAT:  77.05205
 CYCLE:   399 TIME:   0.180 TIME LEFT:  2.00D  GRAD.:     0.467 HEAT:  77.05204
 CYCLE:   400 TIME:   0.188 TIME LEFT:  2.00D  GRAD.:     0.170 HEAT:  77.05204
 CYCLE:   401 TIME:   0.156 TIME LEFT:  2.00D  GRAD.:     0.868 HEAT:  77.05204
 CYCLE:   402 TIME:   0.164 TIME LEFT:  2.00D  GRAD.:     0.259 HEAT:  77.05204
 CYCLE:   403 TIME:   0.211 TIME LEFT:  2.00D  GRAD.:     0.157 HEAT:  77.05203
 CYCLE:   404 TIME:   0.234 TIME LEFT:  2.00D  GRAD.:     0.145 HEAT:  77.05203
 CYCLE:   405 TIME:   0.195 TIME LEFT:  2.00D  GRAD.:     0.463 HEAT:  77.05202
 CYCLE:   406 TIME:   0.141 TIME LEFT:  2.00D  GRAD.:     0.289 HEAT:  77.05202
 CYCLE:   407 TIME:   0.133 TIME LEFT:  2.00D  GRAD.:     0.192 HEAT:  77.05201
 CYCLE:   408 TIME:   0.195 TIME LEFT:  2.00D  GRAD.:     0.165 HEAT:  77.05201
 CYCLE:   409 TIME:   0.211 TIME LEFT:  2.00D  GRAD.:     0.390 HEAT:  77.05201
 CYCLE:   410 TIME:   0.164 TIME LEFT:  2.00D  GRAD.:     0.180 HEAT:  77.05201
 CYCLE:   411 TIME:   0.133 TIME LEFT:  2.00D  GRAD.:     0.137 HEAT:  77.05200
 CYCLE:   412 TIME:   0.148 TIME LEFT:  2.00D  GRAD.:     0.127 HEAT:  77.05200
 CYCLE:   413 TIME:   0.133 TIME LEFT:  2.00D  GRAD.:     0.171 HEAT:  77.05200
 CYCLE:   414 TIME:   0.156 TIME LEFT:  2.00D  GRAD.:     0.514 HEAT:  77.05200
 CYCLE:   415 TIME:   0.180 TIME LEFT:  2.00D  GRAD.:     0.302 HEAT:  77.05199
 CYCLE:   416 TIME:   0.164 TIME LEFT:  2.00D  GRAD.:     0.106 HEAT:  77.05199
 CYCLE:   417 TIME:   0.180 TIME LEFT:  2.00D  GRAD.:     0.092 HEAT:  77.05199

 -------------------------------------------------------------------------------
 RM1 PRECISE POLAR GNORM=0.1




     HERBERTS TEST WAS SATISFIED IN BFGS                      
     SCF FIELD WAS ACHIEVED                                   


                              RM1 CALCULATION
                                                       MOPAC2016 (Version: 21.013L)
                                                       Sun Oct 17 21:24:50 2021
                                                       No. of days remaining =  88




          FINAL HEAT OF FORMATION =         77.05199 KCAL/MOL =     322.38552 KJ/MOL


          TOTAL ENERGY            =      -5960.15128 EV
          ELECTRONIC ENERGY       =     -54165.36659 EV  POINT GROUP:     C1  
          CORE-CORE REPULSION     =      48205.21531 EV
          COSMO AREA              =        525.62 SQUARE ANGSTROMS
          COSMO VOLUME            =        617.69 CUBIC ANGSTROMS

          GRADIENT NORM           =          0.09164 = 0.01146 PER ATOM
          IONIZATION POTENTIAL    =          8.070370 EV
          HOMO LUMO ENERGIES (EV) =         -8.070 -1.274
          NO. OF FILLED LEVELS    =         96
          MOLECULAR WEIGHT        =        536.6468

          MOLECULAR DIMENSIONS (Angstroms)

            Atom       Atom       Distance
            H    64    H    62    21.44095
            H    42    H    48     9.67051
            H    51    H    55     5.58645


          SCF CALCULATIONS        =        418
 
          WALL-CLOCK TIME         =  1 MINUTE AND 11.891 SECONDS
          COMPUTATION TIME        = 11 MINUTES AND 13.409 SECONDS




  ATOM    CHEMICAL      BOND LENGTH      BOND ANGLE     TWIST ANGLE 
 NUMBER    SYMBOL       (ANGSTROMS)      (DEGREES)       (DEGREES) 
   (I)                     NA:I           NB:NA:I       NC:NB:NA:I       NA    NB    NC 
     1       N          0.00000000       0.0000000       0.0000000        0     0     0
     2       C          1.15692765  *    0.0000000       0.0000000        1     0     0
     3       C          1.41554881  *  178.5379178  *    0.0000000        2     1     0
     4       C          1.35052305  *  123.7562927  *  177.9164014  *     3     2     1
     5       C          1.42957848  *  125.9339056  *    0.7882088  *     4     3     2
     6       C          1.37973650  *  122.5345416  * -168.1683794  *     5     4     3
     7       C          1.42132039  *  112.1853210  * -179.9190896  *     6     5     4
     8       C          1.37282385  *  111.6638818  *    0.4203737  *     7     6     5
     9       S          1.70211742  *  125.8851512  *   12.5871400  *     5     4     3
    10       C          1.44355281  *  125.4558774  *  179.2379389  *     8     7     6
    11       C          1.40411669  *  118.7333435  *  -40.2659116  *    10     8     7
    12       C          1.38451502  *  121.5326997  *  179.3373115  *    11    10     8
    13       C          1.39283001  *  117.3171388  *   -0.4252526  *    12    11    10
    14       C          1.42305451  *  121.5317797  *    1.2877954  *    13    12    11
    15       C          1.39333346  *  120.1262391  *  139.5739565  *    10     8     7
    16       C          1.44133744  *  107.1727882  *  178.4958967  *    14    13    12
    17       C          1.38562478  *  132.7387439  *  179.7928168  *    16    14    13
    18       C          1.38694413  *  118.3088331  * -179.3064696  *    17    16    14
    19       C          1.39883829  *  121.1628010  *    0.4618058  *    18    17    16
    20       C          1.38641657  *  121.7490525  *   -0.4672782  *    19    18    17
    21       C          1.42071352  *  107.2006798  *    0.1043299  *    16    14    13
    22       N          1.40574169  *  129.7119654  *  179.5848751  *    13    12    11
    23       C          1.41616912  *  125.9550511  *  179.6148213  *    22    13    14
    24       C          1.39496563  *  119.3378548  *   50.8172378  *    23    22    13
    25       C          1.39623726  *  119.9103114  * -179.6462292  *    24    23    22
    26       C          1.37824588  *  118.5905853  *   -0.6422426  *    25    24    23
    27       C          1.41044882  *  121.0275093  *    0.3262797  *    26    25    24
    28       C          1.37344846  *  121.3120475  *    0.3001680  *    27    26    25
    29       C          1.50958222  *  110.5825208  *  179.8935683  *    27    26    25
    30       C          1.52139258  *  110.8201910  *   61.5416331  *    29    27    28
    31       C          1.52142233  *  110.7634431  *  -62.3380564  *    29    27    28
    32       C          1.50850381  *  101.9440646  *  179.6082832  *    29    27    28
    33       C          1.45385701  *  130.5595371  * -179.7389839  *    26    25    24
    34       C          1.37825079  *  130.5688301  *    0.0943570  *    33    26    25
    35       C          1.39761896  *  118.0635702  * -179.9828874  *    34    33    26
    36       C          1.38721003  *  120.9186982  *   -0.0020095  *    35    34    33
    37       C          1.37491363  *  128.5106081  *  179.9991928  *    32    29    27
    38       C          1.46762261  *  117.0174860  * -179.4887167  *     3     2     4
    39       O          1.22347843  *  126.6872050  *    0.2023612  *    38     3     4
    40       O          1.34866070  *  113.9735183  * -179.8121551  *    38     3     4
    41       H          1.10344615  *  118.9695697  * -178.8595220  *     4     3     2
    42       H          1.08858657  *  124.8684762  *    0.5541065  *     6     5     4
    43       H          1.08710485  *  123.2385595  * -178.7775318  *     7     6     5
    44       H          1.09503884  *  119.4542236  *  178.6964380  *    11    10    15
    45       H          1.09221840  *  121.1330315  *  178.6896354  *    12    11    10
    46       H          1.09360526  *  121.7581990  *    0.3202369  *    15    10     8
    47       H          1.09297875  *  120.3138730  * -179.6988047  *    17    16    21
    48       H          1.09365341  *  119.6095372  * -179.7920088  *    18    17    16
    49       H          1.09473154  *  119.0806516  *  179.3745150  *    19    18    17
    50       H          1.09185869  *  121.2853714  *  178.8128637  *    20    19    18
    51       H          1.09486263  *  120.6744079  *    1.2060552  *    24    23    22
    52       H          1.09299088  *  120.4434119  *  179.7783188  *    25    24    23
    53       H          1.09378966  *  121.2093170  *  178.5761820  *    28    27    26
    54       H          1.09939810  *  111.9937719  *   56.1046871  *    30    29    27
    55       H          1.09940794  *  111.7338636  *  175.9773808  *    30    29    27
    56       H          1.09938481  *  111.8665629  *  -63.9096851  *    30    29    27
    57       H          1.09940652  *  111.7290522  * -176.2286088  *    31    29    27
    58       H          1.09938670  *  112.0081195  *  -56.3599294  *    31    29    27
    59       H          1.09941453  *  111.8277204  *   63.6826659  *    31    29    27
    60       H          1.09233760  *  121.1033408  *    0.0251524  *    34    33    26
    61       H          1.09406258  *  119.3146593  * -179.9980479  *    35    34    33
    62       H          1.09408665  *  119.7578976  *  179.9971526  *    36    35    34
    63       H          1.09278569  *  121.1014447  * -179.9852519  *    37    32    33
    64       H          0.96813522  *  111.0216835  *   -0.0247846  *    40    38    39

                             CARTESIAN COORDINATES

   1    N        0.000000000     0.000000000     0.000000000
   2    C        1.156927651     0.000000000     0.000000000
   3    C        2.572015596     0.036118264     0.000000000
   4    C        3.350835661    -1.066462909     0.040823686
   5    C        2.889086233    -2.419017643     0.073653387
   6    C        3.723895357    -3.481531828     0.352633944
   7    C        3.036805849    -4.725444945     0.325434352
   8    C        1.708591539    -4.564141790     0.018069141
   9    S        1.296828158    -2.937380601    -0.231662473
  10    C        0.742043696    -5.629348437    -0.104261529
  11    C        1.129139685    -6.823000864    -0.734256978
  12    C        0.253411902    -7.886633686    -0.870887554
  13    C       -1.028594935    -7.730123227    -0.349410447
  14    C       -1.435307669    -6.517543019     0.274543177
  15    C       -0.546467324    -5.465813172     0.400093213
  16    C       -2.813539705    -6.680575169     0.663581213
  17    C       -3.715356312    -5.845066903     1.302806353
  18    C       -4.994459113    -6.322151220     1.547552369
  19    C       -5.368885426    -7.616106194     1.170413104
  20    C       -4.487269360    -8.473179041     0.529842935
  21    C       -3.209617930    -7.986823151     0.269544224
  22    N       -2.113466627    -8.624082447    -0.349224534
  23    C       -2.111369220    -9.934271468    -0.886751576
  24    C       -1.095829643   -10.819692829    -0.525313486
  25    C       -1.077994323   -12.111892261    -1.053878532
  26    C       -2.084521287   -12.484818219    -1.918396558
  27    C       -3.110341626   -11.583635055    -2.271847269
  28    C       -3.139447514   -10.304143528    -1.773434842
  29    C       -4.081021074   -12.233089561    -3.228314071
  30    C       -4.098943353   -11.500049848    -4.561343311
  31    C       -5.473808433   -12.301200999    -2.619848694
  32    C       -3.492265740   -13.613513093    -3.381225102
  33    C       -2.321961411   -13.743545727    -2.606093762
  34    C       -1.609248277   -14.923077505    -2.588204802
  35    C       -2.080213699   -15.987664514    -3.361628897
  36    C       -3.231635225   -15.859700611    -4.124652731
  37    C       -3.954068186   -14.661773224    -4.141670164
  38    C        3.205136595     1.359669140    -0.035874861
  39    O        4.405583718     1.595943555    -0.036640160
  40    O        2.329799060     2.385062555    -0.071063154
  41    H        4.447553291    -0.945829752     0.056681771
  42    H        4.785545229    -3.396436249     0.577753918
  43    H        3.517930367    -5.676712839     0.538520108
  44    H        2.142293348    -6.913860788    -1.139687854
  45    H        0.554741367    -8.804293482    -1.380830773
  46    H       -0.859477608    -4.539694279     0.890298096
  47    H       -3.416556187    -4.837598726     1.603354015
  48    H       -5.724406456    -5.679417090     2.047699847
  49    H       -6.384394397    -7.961323637     1.389510302
  50    H       -4.781519174    -9.488340252     0.255944856
  51    H       -0.316511150   -10.517221425     0.181721110
  52    H       -0.284423486   -12.811582432    -0.779455393
  53    H       -3.922876798    -9.599388752    -2.066581710
  54    H       -3.097651915   -11.439116954    -5.011208640
  55    H       -4.747709815   -12.002064973    -5.293313735
  56    H       -4.465916878   -10.469011979    -4.456756973
  57    H       -6.179109771   -12.831152110    -3.275894829
  58    H       -5.476749747   -12.829197333    -1.655554994
  59    H       -5.890002815   -11.299931544    -2.438316266
  60    H       -0.702499440   -15.025432371    -1.987762089
  61    H       -1.530318729   -16.933490929    -3.362552514
  62    H       -3.583244686   -16.705391451    -4.723153679
  63    H       -4.860589283   -14.565632537    -4.744295278
  64    H        2.791867022     3.235515091    -0.093635143


           Empirical Formula: C35 H24 N2 O2 S  =    64 atoms



      MOLECULAR POINT GROUP   :   C1  


                  EIGENVALUES  
 -40.02345 -39.05450 -38.92795 -36.92304 -36.76989 -36.37340 -35.76890 -35.29603
 -35.06932 -34.26833 -33.17465 -32.03140 -30.84701 -30.55575 -29.60949 -29.30669
 -29.06025 -28.45510 -27.58289 -27.28176 -26.98811 -25.22022 -24.40872 -23.87843
 -23.60658 -22.98651 -22.49923 -22.07284 -21.86587 -21.30703 -20.98255 -20.77382
 -19.95672 -19.88607 -19.19340 -18.13154 -18.06880 -17.93039 -17.69772 -17.58297
 -17.07615 -16.72164 -16.44056 -16.24031 -16.15794 -15.90675 -15.85101 -15.58903
 -15.30286 -15.09548 -15.07836 -15.01060 -14.94802 -14.83512 -14.75981 -14.66026
 -14.59985 -14.58291 -14.44854 -14.36890 -14.33625 -14.20140 -13.75945 -13.66001
 -13.49639 -13.46189 -13.31322 -13.25304 -13.23245 -13.21969 -13.01778 -12.81871
 -12.73291 -12.71054 -12.51427 -12.34735 -12.31526 -12.22820 -12.18566 -12.07691
 -11.98821 -11.69851 -11.66062 -11.60898 -11.47515 -11.32684 -10.55710 -10.41210
  -9.93639  -9.84821  -9.57921  -9.55217  -9.31533  -8.91386  -8.66755  -8.07037
  -1.27358  -0.41989  -0.08773  -0.04490   0.28081   0.46496   0.50715   0.73110
   0.88449   1.09478   1.13386   1.32220   1.38204   1.47803   1.57537   1.69299
   2.30310   2.47968   2.53655   2.80587   3.10541   3.11227   3.12758   3.45509
   3.51814   3.66004   3.82779   3.88285   3.92532   3.95886   3.97787   4.01915
   4.08606   4.13481   4.18487   4.19660   4.21570   4.21921   4.24002   4.26103
   4.29904   4.38536   4.42121   4.44983   4.47975   4.54117   4.55987   4.58282
   4.63148   4.65081   4.66901   4.71231   4.78987   4.81629   4.82649   4.84564
   4.88678   4.93670   4.98395   5.04750   5.05618   5.13115   5.14532   5.19848
   5.20915   5.24097   5.27311   5.30341   5.33086   5.38723   5.39397   5.47394
   5.57229   5.62319   5.69199   5.72407   5.77351   5.80892   5.88147   5.89279
   5.96515   6.01531   6.05856   6.24571   6.29727   6.34447   6.58937   6.66033


              NET ATOMIC CHARGES AND DIPOLE CONTRIBUTIONS

  ATOM NO.   TYPE          CHARGE      No. of ELECS.   s-Pop       p-Pop
   39          O          -0.382968        6.3830     1.91042     4.47255
   38          C           0.407988        3.5920     1.17938     2.41263
   40          O          -0.312642        6.3126     1.84004     4.47260
   64          H           0.243941        0.7561     0.75606
    2          C           0.051591        3.9484     1.19499     2.75342
    1          N          -0.150469        5.1505     1.84835     3.30212
    3          C          -0.175956        4.1760     1.14079     3.03517
    4          C           0.162992        3.8370     1.17065     2.66636
    5          C          -0.456192        4.4562     1.21840     3.23779
    6          C          -0.013790        4.0138     1.18464     2.82915
    7          C          -0.154543        4.1545     1.18196     2.97259
    8          C          -0.257947        4.2579     1.22043     3.03752
    9          S           0.573610        5.4264     1.88238     3.54401
   10          C          -0.063776        4.0638     1.14882     2.91495
   11          C          -0.039529        4.0395     1.17633     2.86320
   12          C          -0.173584        4.1736     1.17222     3.00137
   13          C           0.136408        3.8636     1.15144     2.71215
   14          C          -0.092242        4.0922     1.15849     2.93375
   15          C          -0.025942        4.0259     1.16979     2.85616
   16          C          -0.092585        4.0926     1.15860     2.93398
   17          C          -0.033010        4.0330     1.17001     2.86300
   18          C          -0.154806        4.1548     1.17871     2.97609
   19          C          -0.052595        4.0526     1.17688     2.87572
   20          C          -0.167738        4.1677     1.17212     2.99562
   21          C           0.123686        3.8763     1.15137     2.72494
   22          N          -0.257688        5.2577     1.47972     3.77797
   23          C           0.128922        3.8711     1.14328     2.72780
   24          C          -0.145503        4.1455     1.18175     2.96375
   25          C          -0.066298        4.0663     1.17188     2.89442
   26          C          -0.037472        4.0375     1.16377     2.87371
   27          C          -0.040900        4.0409     1.18467     2.85623
   28          C          -0.129710        4.1297     1.17611     2.95360
   29          C           0.069901        3.9301     1.15981     2.77029
   30          C          -0.178016        4.1780     1.15714     3.02088
   31          C          -0.177741        4.1777     1.15716     3.02058
   32          C          -0.064422        4.0644     1.18442     2.88001
   33          C          -0.029285        4.0293     1.16185     2.86743
   34          C          -0.085557        4.0856     1.17305     2.91251
   35          C          -0.106337        4.1063     1.17927     2.92707
   36          C          -0.098785        4.0988     1.17987     2.91892
   37          C          -0.093169        4.0932     1.17315     2.92002

   
   41          H           0.129626        0.8704     0.87037
   42          H           0.123854        0.8761     0.87615
   43          H           0.136232        0.8638     0.86377
   44          H           0.109402        0.8906     0.89060
   45          H           0.128125        0.8719     0.87187
   46          H           0.118322        0.8817     0.88168
   47          H           0.111371        0.8886     0.88863
   48          H           0.110746        0.8893     0.88925
   49          H           0.102778        0.8972     0.89722
   50          H           0.124666        0.8753     0.87533
   51          H           0.127245        0.8728     0.87276
   52          H           0.115038        0.8850     0.88496
   53          H           0.133748        0.8663     0.86625
   54          H           0.072436        0.9276     0.92756
   55          H           0.066115        0.9339     0.93388
   56          H           0.065928        0.9341     0.93407
   57          H           0.066516        0.9335     0.93348
   58          H           0.071632        0.9284     0.92837
   59          H           0.064518        0.9355     0.93548
   60          H           0.110464        0.8895     0.88954
   61          H           0.106256        0.8937     0.89374
   62          H           0.105558        0.8944     0.89444
   63          H           0.111580        0.8884     0.88842
   
 DIPOLE           X         Y         Z       TOTAL
 POINT-CHG.    -2.213    -4.843    -1.228     5.465
 HYBRID         2.331    -0.485     0.377     2.411
 SUM            0.118    -5.328    -0.850     5.397


          ATOMIC ORBITAL ELECTRON POPULATIONS

     Atom    s        px        py        pz   
    1  N   1.84835   1.11223   1.08329   1.10660
    2  C   1.19499   0.91213   0.92236   0.91893
    3  C   1.14079   0.89025   0.93651   1.20841
    4  C   1.17065   0.99131   0.88135   0.79369
    5  C   1.21840   1.03779   0.98816   1.21184
    6  C   1.18464   0.98230   0.91038   0.93647
    7  C   1.18196   0.93281   0.98782   1.05196
    8  C   1.22043   0.98505   1.00673   1.04574
    9  S   1.88238   0.98476   0.91425   1.64499
   10  C   1.14882   0.92993   0.93589   1.04913
   11  C   1.17633   0.98267   0.91834   0.96219
   12  C   1.17222   0.93360   1.01087   1.05689
   13  C   1.15144   0.87316   0.87552   0.96347
   14  C   1.15849   0.94084   0.94557   1.04735
   15  C   1.16979   0.91803   0.97348   0.96465
   16  C   1.15860   0.93577   0.94625   1.05196
   17  C   1.17001   0.92900   0.97784   0.95616
   18  C   1.17871   0.97140   0.96859   1.03610
   19  C   1.17688   0.97964   0.93763   0.95844
   20  C   1.17212   0.93244   1.00785   1.05533
   21  C   1.15137   0.87209   0.90729   0.94556
   22  N   1.47972   1.11745   1.12521   1.53531
   23  C   1.14328   0.96739   0.81193   0.94848
   24  C   1.18175   1.00409   0.94251   1.01715
   25  C   1.17188   0.97616   0.95480   0.96347
   26  C   1.16377   0.95528   0.94058   0.97785
   27  C   1.18467   0.95667   0.93525   0.96431
   28  C   1.17611   1.00228   0.97252   0.97880
   29  C   1.15981   0.92851   0.91031   0.93146
   30  C   1.15714   1.04279   1.01337   0.96471
   31  C   1.15716   0.95681   1.03604   1.02773
   32  C   1.18442   0.95783   0.94960   0.97258
   33  C   1.16185   0.95988   0.93059   0.97696
   34  C   1.17305   0.98958   0.93313   0.98981
   35  C   1.17927   0.96944   0.98256   0.97507
   36  C   1.17987   0.95791   0.97290   0.98811
   37  C   1.17315   0.99386   0.93570   0.99046
   38  C   1.17938   0.84207   0.85021   0.72036
   39  O   1.91042   1.16622   1.84735   1.45897
   40  O   1.84004   1.41782   1.18889   1.86589
   41  H   0.87037
   42  H   0.87615
   43  H   0.86377
   44  H   0.89060
   45  H   0.87187
   46  H   0.88168
   47  H   0.88863
   48  H   0.88925
   49  H   0.89722
   50  H   0.87533
   51  H   0.87276
   52  H   0.88496
   53  H   0.86625
   54  H   0.92756
   55  H   0.93388
   56  H   0.93407
   57  H   0.93348
   58  H   0.92837
   59  H   0.93548
   60  H   0.88954
   61  H   0.89374
   62  H   0.89444
   63  H   0.88842
   64  H   0.75606
 ******************** TDHF POLARIZABILITIES ********************



          MOLECULAR WEIGHT =  536.65



          ROTATIONAL CONSTANTS IN CM(-1)

          A =    0.00718886   B =    0.00092890   C =    0.00086653



           PRINCIPAL MOMENTS OF INERTIA IN UNITS OF 10**(-40)*GRAM-CM**2

          A =     3893.9098   B =    30135.3756   C =    32304.2897


 ROTATION MATRIX FOR ORIENTATION OF MOLECULE:

         0.402451   -0.876978    0.262571
         0.894069    0.314923   -0.318534
         0.196657    0.362951    0.910820


          CARTESIAN COORDINATES 

    NO.       ATOM         X         Y         Z

     1         N        6.9623    1.7724   -1.2693
     2         C        7.4279    0.7578   -0.9655
     3         C        8.0297   -0.4718   -0.6055
     4         C        7.3654   -1.4872   -0.0126
     5         C        5.9768   -1.4963    0.3269
     6         C        5.4176   -2.4618    1.1387
     7         C        4.0236   -2.2608    1.3297
     8         C        3.5729   -1.1568    0.6496
     9         S        4.8125   -0.3740   -0.2041
    10         C        2.2074   -0.6890    0.6237
    11         C        1.1721   -1.6330    0.5318
    12         C       -0.1581   -1.2496    0.5162
    13         C       -0.4316    0.1133    0.6047
    14         C        0.6116    1.0783    0.6799
    15         C        1.9343    0.6756    0.6927
    16         C       -0.0124    2.3768    0.7243
    17         C        0.4974    3.6628    0.8036
    18         C       -0.3958    4.7232    0.8427
    19         C       -1.7775    4.5071    0.8130
    20         C       -2.3150    3.2316    0.7341
    21         C       -1.4171    2.1698    0.6775
    22         N       -1.6674    0.7832    0.6047
    23         C       -2.9437    0.1737    0.5330
    24         C       -3.2555   -0.8646    1.4109
    25         C       -4.5076   -1.4790    1.3458
    26         C       -5.4161   -1.0275    0.4129
    27         C       -5.0928    0.0276   -0.4655
    28         C       -3.8625    0.6370   -0.4267
    29         C       -6.2522    0.3272   -1.3846
    30         C       -5.8661    0.0899   -2.8370
    31         C       -6.7539    1.7480   -1.1744
    32         C       -7.2795   -0.6794   -0.9296
    33         C       -6.7723   -1.4653    0.1251
    34         C       -7.5366   -2.4553    0.7043
    35         C       -8.8300   -2.6583    0.2153
    36         C       -9.3290   -1.8851   -0.8228
    37         C       -8.5521   -0.8805   -1.4096
    38         C        9.4608   -0.6232   -0.8935
    39         O       10.1550   -1.6019   -0.6543
    40         O       10.0184    0.4546   -1.4820
    41         H        7.9178   -2.4053    0.2514
    42         H        5.9653   -3.2843    1.5954
    43         H        3.4087   -2.9050    1.9531
    44         H        1.4189   -2.6973    0.4574
    45         H       -0.9576   -1.9879    0.4231
    46         H        2.7327    1.4197    0.7620
    47         H        1.5775    3.8271    0.8349
    48         H       -0.0166    5.7472    0.9018
    49         H       -2.4518    5.3685    0.8559
    50         H       -3.3949    3.0705    0.7307
    51         H       -2.5324   -1.1962    2.1632
    52         H       -4.7599   -2.2957    2.0270
    53         H       -3.6054    1.4396   -1.1239
    54         H       -5.4972   -0.9323   -3.0032
    55         H       -6.7200    0.2351   -3.5141
    56         H       -5.0714    0.7744   -3.1665
    57         H       -7.6406    1.9616   -1.7884
    58         H       -7.0376    1.9343   -0.1287
    59         H       -5.9905    2.4942   -1.4373
    60         H       -7.1451   -3.0648    1.5219
    61         H       -9.4545   -3.4387    0.6601
    62         H      -10.3444   -2.0603   -1.1909
    63         H       -8.9495   -0.2739   -2.2271
    64         H       10.9603    0.3090   -1.6521


 ENERGY OF "REORIENTED" SYSTEM WITHOUT FIELD:       77.0519893237


  NFREQ=  3  IWFLB=  0  IBET=  1  IGAM=  1
  ATOL= 0.10000D-02  BTOL= 0.10000D-02    MAXITU=  500    MAXITA=  150


 *****************************************************************
 CALCULATION OF STATIC FIELD QUANTITIES
 *****************************************************************

 +++++ ALPHA AT       0.00000 EV.

                           COMPONENTS OF ALPHA

                     *X           *Y           *Z
           *=X:     653.7247      23.6311       0.1265
           *=Y:      23.6419     384.1105     -70.9883
           *=Z:       0.1069     -70.9862     172.3155

  ISOTROPIC AVERAGE ALPHA =     403.38353 A.U. =     59.77527 ANG.**3

 +++++ BETA (SECOND HARMONIC GENERATION) AT       0.00000 EV.

                              COMPONENTS OF BETA
            *XX         *XY         *YY         *XZ         *YZ         *ZZ
   *=X -7223.62187  2117.47043   -16.85577  1195.94541  -121.21123  -138.45042
   *=Y  2117.19794   -16.92596  -428.86594  -121.18393   -80.85178    21.49308
   *=Z  1196.61806  -121.39039   -81.03794  -138.58010    21.48925   -78.12538


 AVERAGE BETAX(SHG) VALUE AT   0.00000 EV =      -4427.4368 a.u. = -0.382505E-28 ESU
 AVERAGE BETAY(SHG) VALUE AT   0.00000 EV =       1026.0025 a.u. =  0.886406E-29 ESU
 AVERAGE BETAZ(SHG) VALUE AT   0.00000 EV =        622.2782 a.u. =  0.537612E-29 ESU



 AVERAGE BETA (SHG) VALUE AT   0.00000 EV =       4587.1677 a.u. =  0.396305E-28 ESU
   (1 a.u. = 8.639418X10-33 esu)



 +++++ ALPHA AT       0.00000 EV.

                           COMPONENTS OF ALPHA

                     *X           *Y           *Z
           *=X:     653.7247      23.6311       0.1265
           *=Y:      23.6419     384.1105     -70.9883
           *=Z:       0.1069     -70.9862     172.3155

  ISOTROPIC AVERAGE ALPHA =     403.38353 A.U. =     59.77527 ANG.**3


 GAMMA (THIRD HARMONIC GENERATION) AT    0.00000 EV.


 GAMMA(X,X,X,X) =       2425041.65697
 GAMMA(Y,Y,Y,Y) =         89891.31144
 GAMMA(Z,Z,Z,Z) =          6134.92142
 GAMMA(X,X,Y,Y) =        120474.80765
 GAMMA(X,X,Z,Z) =         36288.53212
 GAMMA(Y,Y,X,X) =        120474.44394
 GAMMA(Y,Y,Z,Z) =          4777.38795
 GAMMA(Z,Z,X,X) =         36288.91447
 GAMMA(Z,Z,Y,Y) =          4777.35700


 AVERAGE GAMMA VALUE AT    0.00000 =        568829.86659 a.u. =       286502.68566 ESU (X10-39)




 **********************************************************************
 CALCULATION FOR A FREQUENCY OF    0.25000 EV  =       0.00919 A.U. 
                  WAVELENGTH OF    4959.37 NM  =    2016.38525 CM(-1)
 **********************************************************************

 +++++ ALPHA AT       0.25000 EV.

                           COMPONENTS OF ALPHA

                     *X           *Y           *Z
           *=X:     656.5360      23.7411      -0.0252
           *=Y:      23.7512     384.8422     -71.0685
           *=Z:      -0.0425     -71.0667     172.5831

  ISOTROPIC AVERAGE ALPHA =     404.65377 A.U. =     59.96350 ANG.**3

 +++++ BETA (SECOND HARMONIC GENERATION) AT       0.25000 EV.

                              COMPONENTS OF BETA
            *XX         *XY         *YY         *XZ         *YZ         *ZZ
   *=X -7560.12284  2207.89660   -11.06578  1254.29611  -126.14324  -145.16288
   *=Y  2187.82354   -18.96286  -439.34411  -123.30376   -81.76510    20.99241
   *=Z  1250.59977  -125.45233   -83.02448  -145.99239    21.30865   -77.54496


 AVERAGE BETAX(SHG) VALUE AT   0.25000 EV =      -4633.3015 a.u. = -0.400290E-28 ESU
 AVERAGE BETAY(SHG) VALUE AT   0.25000 EV =       1069.8388 a.u. =  0.924278E-29 ESU
 AVERAGE BETAZ(SHG) VALUE AT   0.25000 EV =        656.0005 a.u. =  0.566746E-29 ESU



 AVERAGE BETA (SHG) VALUE AT   0.25000 EV =       4800.2474 a.u. =  0.414713E-28 ESU
   (1 a.u. = 8.639418X10-33 esu)



 +++++ ALPHA AT       0.75000 EV.

                           COMPONENTS OF ALPHA

                     *X           *Y           *Z
           *=X:     680.4865      24.6552      -1.3440
           *=Y:      24.6660     390.8697     -71.7165
           *=Z:      -1.3611     -71.7156     174.7868

  ISOTROPIC AVERAGE ALPHA =     415.38100 A.U. =     61.55311 ANG.**3


 GAMMA (THIRD HARMONIC GENERATION) AT    0.25000 EV.


 GAMMA(X,X,X,X) =       2698453.03127
 GAMMA(Y,Y,Y,Y) =         94602.93507
 GAMMA(Z,Z,Z,Z) =          6288.78728
 GAMMA(X,X,Y,Y) =        131341.26618
 GAMMA(X,X,Z,Z) =         39682.31076
 GAMMA(Y,Y,X,X) =        130971.01458
 GAMMA(Y,Y,Z,Z) =          5007.82395
 GAMMA(Z,Z,X,X) =         40648.07271
 GAMMA(Z,Z,Y,Y) =          5007.15935


 AVERAGE GAMMA VALUE AT    0.25000 =        630400.48023 a.u. =       317513.97251 ESU (X10-39)




 **********************************************************************
 CALCULATION FOR A FREQUENCY OF    0.50000 EV  =       0.01837 A.U. 
                  WAVELENGTH OF    2479.68 NM  =    4032.77050 CM(-1)
 **********************************************************************

 +++++ ALPHA AT       0.50000 EV.

                           COMPONENTS OF ALPHA

                     *X           *Y           *Z
           *=X:     665.1729      24.0725      -0.4941
           *=Y:      24.0828     387.0642     -71.3107
           *=Z:      -0.5087     -71.3097     173.3952

  ISOTROPIC AVERAGE ALPHA =     408.54413 A.U. =     60.53999 ANG.**3

 +++++ BETA (SECOND HARMONIC GENERATION) AT       0.50000 EV.

                              COMPONENTS OF BETA
            *XX         *XY         *YY         *XZ         *YZ         *ZZ
   *=X -8746.45831  2524.76653    11.66421  1460.19627  -143.42911  -168.72910
   *=Y  2424.09625   -25.51751  -473.45718  -130.27616   -84.54080    19.31269
   *=Z  1439.71054  -140.47029   -89.94641  -172.07081    20.76427   -75.30057


 AVERAGE BETAX(SHG) VALUE AT   0.50000 EV =      -5358.3233 a.u. = -0.462928E-28 ESU
 AVERAGE BETAY(SHG) VALUE AT   0.50000 EV =       1222.8198 a.u. =  0.105645E-28 ESU
 AVERAGE BETAZ(SHG) VALUE AT   0.50000 EV =        775.0347 a.u. =  0.669585E-29 ESU



 AVERAGE BETA (SHG) VALUE AT   0.50000 EV =       5550.4590 a.u. =  0.479527E-28 ESU
   (1 a.u. = 8.639418X10-33 esu)



 +++++ ALPHA AT       1.50000 EV.

                           COMPONENTS OF ALPHA

                     *X           *Y           *Z
           *=X:     791.3580      28.6749      -8.3541
           *=Y:      28.6915     414.0291     -73.8852
           *=Z:      -8.3896     -73.8847     183.3875

  ISOTROPIC AVERAGE ALPHA =     462.92486 A.U. =     68.59839 ANG.**3


 GAMMA (THIRD HARMONIC GENERATION) AT    0.50000 EV.


 GAMMA(X,X,X,X) =       3930297.76109
 GAMMA(Y,Y,Y,Y) =        111497.14884
 GAMMA(Z,Z,Z,Z) =          6830.99675
 GAMMA(X,X,Y,Y) =        177407.03897
 GAMMA(X,X,Z,Z) =         54640.89116
 GAMMA(Y,Y,X,X) =        172680.48955
 GAMMA(Y,Y,Z,Z) =          5837.86037
 GAMMA(Z,Z,X,X) =         60053.81478
 GAMMA(Z,Z,Y,Y) =          5880.45387


 AVERAGE GAMMA VALUE AT    0.50000 =        905025.29108 a.u. =       455834.32184 ESU (X10-39)



 **********************
 *                    *
 * JOB ENDED NORMALLY *
 *                    *
 **********************



 TOTAL JOB TIME:           137.96 SECONDS

 == MOPAC DONE ==
