 *******************************************************************************
 ** Site#: 4824         For non-commercial use only    Version 21.013L 64BITS **
 *******************************************************************************
 ** Cite this program as: MOPAC2016, Version: 21.013L, James J. P. Stewart,   **
 ** Stewart Computational Chemistry, web: HTTP://OpenMOPAC.net. Days left:  88**
 *******************************************************************************
 **                                                                           **
 **                                MOPAC2016                                  **
 **                                                                           **
 *******************************************************************************

                              RM1 CALCULATION RESULTS

 *******************************************************************************
 *  CALCULATION DONE:                                Sun Oct 17 19:51:53 2021  *
 *  RM1        - The RM1 Hamiltonian to be used
 *  POLAR      - CALCULATE FIRST, SECOND AND THIRD-ORDER POLARIZABILITIES
 *  PRECISE    - TIGHTER CRITERIA TO BE USED
 *  T=         - A TIME OF 172800.0 SECONDS REQUESTED
 *  DUMP=N     - RESTART FILE WRITTEN EVERY 7200.0 SECONDS REQUESTED
 *  GNORM      - EXIT WHEN GRADIENT NORM DROPS BELOW 0.100
 *******************************************************************************
RM1 PRECISE POLAR GNORM=0.1


  ATOM    CHEMICAL      BOND LENGTH      BOND ANGLE     TWIST ANGLE 
 NUMBER    SYMBOL       (ANGSTROMS)      (DEGREES)       (DEGREES) 
   (I)                     NA:I           NB:NA:I       NC:NB:NA:I       NA    NB    NC 
     1       C          0.00000000       0.0000000       0.0000000        0     0     0
     2       C          1.54730000  *    0.0000000       0.0000000        1     0     0
     3       C          1.55080000  *  111.4811000  *    0.0000000        2     1     0
     4       C          1.55240000  *  111.2664000  *  179.7150000  *     3     2     1
     5       C          1.55000000  *  110.8789000  * -175.2474000  *     4     3     2
     6       C          1.55090000  *  111.9836000  * -177.9226000  *     5     4     3
     7       C          1.55300000  *  112.6425000  * -173.6912000  *     6     5     4
     8       C          1.55190000  *  113.0070000  *  -67.1694000  *     7     6     5
     9       N          1.45860000  *  110.6141000  * -173.3181000  *     8     7     6
    10       C          1.42060000  *  120.8252000  *   95.6033000  *     9     8     7
    11       C          1.34250000  *  130.8661000  *  -26.6391000  *    10     9     8
    12       C          1.47500000  *  118.4354000  *  178.0146000  *    11    10     9
    13       C          1.35200000  *  121.0253000  *   -0.4147000  *    12    11    10
    14       C          1.47860000  *  119.3917000  *    0.0271000  *    13    12    11
    15       C          1.34150000  *  118.9958000  *    0.7697000  *    14    13    12
    16       C          1.46410000  *  132.6748000  * -179.7366000  *    15    14    13
    17       C          1.35410000  *  108.2878000  *  178.0088000  *    16    15    14
    18       C          1.48320000  *  120.0413000  *  177.8128000  *    17    16    15
    19       C          1.46780000  *  122.0679000  * -175.6649000  *    18    17    16
    20       C          1.34720000  *  120.9165000  *  -99.7238000  *    19    18    17
    21       C          1.46930000  *  120.1566000  * -177.3483000  *    20    19    18
    22       C          1.34680000  *  120.6695000  *    0.9729000  *    21    20    19
    23       C          1.47660000  *  119.0122000  *   -0.6172000  *    22    21    20
    24       C          1.34460000  *  120.3878000  *   -0.0365000  *    23    22    21
    25       O          1.36160000  *  117.7142000  * -178.8417000  *    22    21    20
    26       C          1.39730000  *  127.3816000  * -178.1910000  *    25    22    21
    27       C          1.54630000  *  110.9723000  *  -86.7909000  *    26    25    22
    28       C          1.34910000  *  116.7599000  *    1.0422000  *    18    17    16
    29       C          1.47400000  *  122.7082000  *  176.7458000  *    28    18    19
    30       C          1.34790000  *  121.0250000  *   -0.7817000  *    29    28    18
    31       C          1.46740000  *  123.4446000  * -178.6728000  *    30    29    28
    32       C          1.34660000  *  120.8300000  *  -88.1256000  *    31    30    29
    33       C          1.46920000  *  120.0721000  * -175.2201000  *    32    31    30
    34       C          1.34650000  *  120.5622000  *    1.2116000  *    33    32    31
    35       C          1.47530000  *  119.2876000  *   -1.7689000  *    34    33    32
    36       C          1.34410000  *  120.2137000  *    1.0548000  *    35    34    33
    37       O          1.35940000  *  118.0963000  *  177.8651000  *    34    33    32
    38       C          1.39580000  *  125.7995000  * -167.3481000  *    37    34    33
    39       C          1.54430000  *  109.3186000  *  171.3682000  *    38    37    34
    40       N          1.42840000  *  107.2444000  *  179.9041000  *    29    28    18
    41       C          1.42360000  *  107.1327000  * -178.3906000  *    40    29    30
    42       C          1.34620000  *  111.6178000  *   -0.0840000  *    41    40    29
    43       C          1.46800000  *  120.4011000  *  178.3601000  *    42    41    40
    44       C          1.34660000  *  118.9371000  *    0.9204000  *    43    42    41
    45       C          1.47370000  *  120.6012000  *   -0.0489000  *    44    43    42
    46       C          1.34570000  *  120.3763000  *   -0.5308000  *    45    44    43
    47       C          1.45620000  *  127.5332000  *  -15.5314000  *    40    29    30
    48       C          1.55020000  *  110.4237000  *  -94.4443000  *    47    40    41
    49       C          1.55350000  *  114.0494000  * -162.8463000  *    48    47    40
    50       C          1.55520000  *  114.8982000  *  -62.6840000  *    49    48    47
    51       C          1.55610000  *  115.2264000  *   92.0854000  *    50    49    48
    52       C          1.55500000  *  115.4012000  *   63.8709000  *    51    50    49
    53       C          1.55190000  *  113.1959000  *   64.9011000  *    52    51    50
    54       C          1.54750000  *  111.4773000  *  174.9088000  *    53    52    51
    55       C          1.46960000  *  121.0678000  * -179.1629000  *    13    12    11
    56       C          1.34970000  *  127.2366000  * -158.4207000  *    55    13    12
    57       C          1.48600000  *  115.9913000  * -178.6156000  *    56    55    13
    58       C          1.34910000  *  116.2270000  *   -0.5987000  *    57    56    55
    59       S          1.82090000  *  126.0109000  *   23.0710000  *    55    13    12
    60       C          1.46890000  *  124.3558000  *  178.2586000  *    58    57    56
    61       C          1.34960000  *  126.2247000  *  168.5276000  *    60    58    57
    62       C          1.47630000  *  120.4040000  *  179.9312000  *    61    60    58
    63       O          1.23220000  *  121.2446000  *    1.1415000  *    62    61    60
    64       O          1.35570000  *  119.8930000  * -178.5041000  *    62    61    60
    65       C          1.42900000  *  122.6716000  *   -1.0447000  *    61    60    58
    66       N          1.15830000  *  179.1029000  * -179.2655000  *    65    61    60
    67       H          1.05410000  *  116.0937000  *  -10.9890000  *    60    58    57
    68       H          1.09090000  *  110.0156000  *   60.2528000  *     1     2     3
    69       H          1.09100000  *  109.4950000  * -179.9958000  *     1     2     3
    70       H          1.09110000  *  110.0118000  *  -60.2554000  *     1     2     3
    71       H          1.09250000  *  108.7660000  * -179.0172000  *     2     1    68
    72       H          1.09240000  *  108.9132000  *  -60.6046000  *     2     1    68
    73       H          1.09250000  *  109.3230000  *  179.9885000  *     3     2    71
    74       H          1.09180000  *  109.0314000  *  179.5697000  *     3     2    72
    75       H          1.09230000  *  109.3441000  * -175.6700000  *     4     3    73
    76       H          1.09230000  *  109.1865000  * -175.3431000  *     4     3    74
    77       H          1.09150000  *  108.9251000  * -177.0664000  *     5     4    75
    78       H          1.09020000  *  108.5459000  * -177.4213000  *     5     4    76
    79       H          1.09310000  *  108.7800000  * -174.9206000  *     6     5    77
    80       H          1.09240000  *  109.5537000  * -175.7987000  *     6     5    78
    81       H          1.09060000  *  109.4298000  *  -64.7582000  *     7     6    79
    82       H          1.09290000  *  107.9518000  *  -65.2621000  *     7     6    80
    83       H          1.09260000  *  108.9454000  * -175.6874000  *     8     7    81
    84       H          1.08680000  *  110.3817000  *  -58.0732000  *     8     7    81
    85       H          1.04990000  *  121.3632000  *   -1.3014000  *    11    10     9
    86       H          1.05140000  *  118.6076000  *  179.5464000  *    12    11    10
    87       H          1.04490000  *  119.8016000  * -178.2870000  *    14    13    12
    88       H          1.05160000  *  120.3802000  *    1.8124000  *    20    19    18
    89       H          1.05160000  *  119.3733000  * -178.8068000  *    21    20    19
    90       H          1.05020000  *  120.5372000  * -179.4588000  *    23    22    21
    91       H          1.05140000  *  119.7630000  * -179.8735000  *    24    23    22
    92       H          1.09080000  *  110.7795000  *   35.6306000  *    26    25    22
    93       H          1.09250000  *  108.1927000  *  153.9771000  *    26    25    22
    94       H          1.09060000  *  109.8471000  *  176.4742000  *    27    26    92
    95       H          1.09050000  *  110.1644000  *  -63.1625000  *    27    26    92
    96       H          1.09090000  *  109.5511000  *   56.7924000  *    27    26    92
    97       H          1.05140000  *  120.3754000  *    2.3745000  *    32    31    30
    98       H          1.05150000  *  119.3863000  *  179.2726000  *    33    32    31
    99       H          1.05080000  *  120.4652000  * -178.7727000  *    35    34    33
   100       H          1.05130000  *  119.8162000  *  179.8370000  *    36    35    34
   101       H          1.09120000  *  109.8657000  *  -68.6510000  *    38    37    34
   102       H          1.09200000  *  109.9417000  *   51.7163000  *    38    37    34
   103       H          1.09090000  *  109.7895000  *  179.5305000  *    39    38   101
   104       H          1.09090000  *  109.8496000  *  -60.3498000  *    39    38   101
   105       H          1.09080000  *  109.6689000  *   59.6262000  *    39    38   101
   106       H          1.04670000  *  121.6619000  * -178.3751000  *    43    42    41
   107       H          1.05120000  *  119.8389000  * -179.7627000  *    44    43    42
   108       H          1.05120000  *  119.7107000  *  179.5897000  *    45    44    43
   109       H          1.05000000  *  120.1668000  *  179.8763000  *    46    45    44
   110       H          1.09200000  *  109.3468000  *   25.6853000  *    47    40    41
   111       H          1.08620000  *  110.2991000  *  143.5731000  *    47    40    41
   112       H          1.09280000  *  108.6720000  * -162.9061000  *    48    47   110
   113       H          1.09240000  *  109.1696000  * -163.2970000  *    48    47   111
   114       H          1.08950000  *  109.3608000  *  -58.4667000  *    49    48   112
   115       H          1.09450000  *  106.9463000  *  -59.3529000  *    49    48   113
   116       H          1.09260000  *  108.3098000  *   89.3650000  *    50    49   114
   117       H          1.09320000  *  108.9073000  * -154.4111000  *    50    49   114
   118       H          1.09360000  *  107.9985000  *   63.5531000  *    51    50   116
   119       H          1.09060000  *  109.3768000  * -179.8880000  *    51    50   116
   120       H          1.09370000  *  107.6713000  *   63.6937000  *    52    51   118
   121       H          1.09030000  *  110.0704000  *   64.9187000  *    52    51   119
   122       H          1.09150000  *  109.7839000  *  175.6866000  *    53    52   120
   123       H          1.09210000  *  109.4461000  *  177.7234000  *    53    52   121
   124       H          1.09030000  *  109.9460000  *  -59.1158000  *    54    53   122
   125       H          1.09110000  *  109.5073000  *   60.5034000  *    54    53   122
   126       H          1.09100000  *  110.1434000  * -179.6892000  *    54    53   122
   127       H          1.04870000  *  122.8653000  *    1.4067000  *    56    55    13
   128       H          1.04950000  *  121.3962000  *  178.9025000  *    57    56    55
   129       H          0.94080000  *  121.0434000  *    0.0827000  *    64    62    63
 


          CARTESIAN COORDINATES 

    NO.       ATOM           X           Y           Z

     1         C          0.0000      0.0000      0.0000
     2         C          1.5473      0.0000      0.0000
     3         C          2.1152      1.4431      0.0000
     4         C          3.6676      1.4373      0.0072
     5         C          4.2248      2.8786      0.1271
     6         C          5.7749      2.9072      0.0848
     7         C          6.3545      4.3215      0.3598
     8         C          6.0269      5.3403     -0.7640
     9         N          6.7237      6.6008     -0.5336
    10         C          7.9695      6.8692     -1.1613
    11         C          8.9281      6.0389     -1.6018
    12         C         10.1121      6.6204     -2.2619
    13         C         10.2304      7.9567     -2.4297
    14         C          9.1553      8.8472     -1.9425
    15         C          8.0913      8.3071     -1.3295
    16         C          6.8802      8.8885     -0.7474
    17         C          6.1018      7.8792     -0.2902
    18         C          4.8231      8.1811      0.3982
    19         C          3.9910      7.1285      0.9932
    20         C          2.9111      6.6505      0.3450
    21         C          2.0566      5.6384      0.9809
    22         C          2.3285      5.1912      2.2218
    23         C          3.5086      5.7231      2.9322
    24         C          4.2991      6.6397      2.3465
    25         O          1.5111      4.2354      2.7437
    26         C          1.5843      3.6579      4.0140
    27         C          2.5478      2.4485      4.0174
    28         C          4.4883      9.4828      0.5143
    29         C          5.3328     10.5721     -0.0081
    30         C          6.5041     10.3099     -0.6215
    31         C          7.3990     11.3530     -1.1357
    32         C          7.2532     11.8327     -2.3855
    33         C          8.2212     12.8000     -2.9203
    34         C          9.2731     13.1970     -2.1794
    35         C          9.4245     12.6802     -0.8059
    36         C          8.5320     11.8061     -0.3098
    37         O         10.1617     14.0598     -2.7397
    38         C         11.4204     14.3813     -2.2293
    39         C         12.1934     15.2224     -3.2685
    40         N          4.6700     11.8018      0.2898
    41         C          3.4728     11.4747      0.9872
    42         C          3.3381     10.1445      1.1444
    43         C          2.1868      9.5952      1.8709
    44         C          1.2607     10.4416      2.3599
    45         C          1.3996     11.8965      2.1705
    46         C          2.4616     12.3990      1.5143
    47         C          5.2389     13.1422      0.2760
    48         C          4.7596     13.9204     -0.9761
    49         C          5.6148     15.1741     -1.3082
    50         C          5.6060     16.2808     -0.2155
    51         C          6.7487     16.1834      0.8362
    52         C          8.1882     16.3613      0.2756
    53         C          8.4498     17.7794     -0.2981
    54         C          9.9262     17.9532     -0.7280
    55         C         11.4011      8.5357     -3.1035
    56         C         11.8607      9.8005     -2.9993
    57         C         13.0543     10.1293     -3.8212
    58         C         13.5560      9.1268     -4.5716
    59         S         12.4933      7.6760     -4.2797
    60         C         14.7056      9.2635     -5.4758
    61         C         15.3732      8.2553     -6.0751
    62         C         16.5156      8.5409     -6.9654
    63         O         16.8975      9.6953     -7.1649
    64         O         17.1598      7.5221     -7.5860
    65         C         15.0375      6.8809     -5.8740
    66         N         14.7790      5.7621     -5.7221
    67         H         15.0356     10.2474     -5.6607
    68         H         -0.3734      0.5086     -0.8899
    69         H         -0.3641     -1.0285      0.0001
    70         H         -0.3734      0.5086      0.8901
    71         H          1.8988     -0.5286      0.8892
    72         H          1.9014     -0.5300     -0.8871
    73         H          1.7630      1.9702     -0.8898
    74         H          1.7512      1.9689      0.8849
    75         H          4.0232      0.8455      0.8536
    76         H          4.0291      0.9845     -0.9187
    77         H          3.8260      3.4816     -0.6907
    78         H          3.8937      3.3006      1.0763
    79         H          6.1604      2.2289      0.8504
    80         H          6.1205      2.5568     -0.8904
    81         H          5.9744      4.6903      1.3132
    82         H          7.4404      4.2301      0.4431
    83         H          6.3440      4.9245     -1.7233
    84         H          4.9547      5.5078     -0.8223
    85         H          8.8416      4.9982     -1.4936
    86         H         10.8678      5.9731     -2.6015
    87         H          9.2275      9.8788     -2.0926
    88         H          2.6650      7.0070     -0.6132
    89         H          1.2275      5.2600      0.4563
    90         H          3.7478      5.3849      3.8973
    91         H          5.1380      7.0103      2.8605
    92         H          1.9053      4.3914      4.7547
    93         H          0.5853      3.3118      4.2894
    94         H          2.1907      1.6886      3.3213
    95         H          3.5487      2.7645      3.7216
    96         H          2.5916      2.0194      5.0194
    97         H          6.4701     11.4910     -2.9982
    98         H          8.1036     13.1588     -3.9017
    99         H         10.2277     12.9926     -0.2046
   100         H          8.6473     11.4399      0.6688
   101         H         11.3113     14.9561     -1.3083
   102         H         11.9822     13.4683     -2.0213
   103         H         12.3140     14.6512     -4.1900
   104         H         11.6448     16.1403     -3.4842
   105         H         13.1781     15.4780     -2.8748
   106         H          2.0754      8.5661      2.0264
   107         H          0.4325     10.0639      2.8856
   108         H          0.6649     12.5441      2.5524
   109         H          2.5562     13.4360      1.3795
   110         H          4.9236     13.6783      1.1736
   111         H          6.3238     13.0914      0.2923
   112         H          4.7995     13.2521     -1.8399
   113         H          3.7189     14.2211     -0.8350
   114         H          6.6357     14.8661     -1.5314
   115         H          5.1988     15.6113     -2.2213
   116         H          5.6740     17.2524     -0.7105
   117         H          4.6476     16.2526      0.3095
   118         H          6.5785     16.9547      1.5926
   119         H          6.6964     15.2170      1.3390
   120         H          8.8885     16.1852      1.0970
   121         H          8.3842     15.6159     -0.4955
   122         H          7.8140     17.9487     -1.1690
   123         H          8.2146     18.5280      0.4615
   124         H         10.1687     17.2447     -1.5205
   125         H         10.0802     18.9670     -1.1008
   126         H         10.5877     17.7841      0.1230
   127         H         11.4139     10.5192     -2.3799
   128         H         13.4718     11.0922     -3.8180
   129         H         17.8873      7.6859     -8.1596

  H: (RM1): G.B. ROCHA, R.O. FREIRE, A.M.SIMAS, J.J.P. STEWART, J. COMP. CHEM. 27, 1101 (2006)
  C: (RM1): G.B. ROCHA, R.O. FREIRE, A.M.SIMAS, J.J.P. STEWART, J. COMP. CHEM. 27, 1101 (2006)
  N: (RM1): G.B. ROCHA, R.O. FREIRE, A.M.SIMAS, J.J.P. STEWART, J. COMP. CHEM. 27, 1101 (2006)
  O: (RM1): G.B. ROCHA, R.O. FREIRE, A.M.SIMAS, J.J.P. STEWART, J. COMP. CHEM. 27, 1101 (2006)
  S: (RM1): G.B. ROCHA, R.O. FREIRE, A.M.SIMAS, J.J.P. STEWART, J. COMP. CHEM. 27, 1101 (2006)

           Empirical Formula: C58 H63 N3 O4 S  =   129 atoms



      MOLECULAR POINT GROUP   :   C1  


      RHF CALCULATION, NO. OF DOUBLY OCCUPIED LEVELS = 170


          Geometry optimization using L-BFGS
 CYCLE:     1 TIME:   0.977 TIME LEFT:  2.00D  GRAD.:   628.562 HEAT:  56.56877
 CYCLE:     2 TIME:   0.523 TIME LEFT:  2.00D  GRAD.:   533.843 HEAT:  52.96653
 CYCLE:     3 TIME:   0.531 TIME LEFT:  2.00D  GRAD.:   486.216 HEAT:  39.97668
 CYCLE:     4 TIME:   0.594 TIME LEFT:  2.00D  GRAD.:   534.962 HEAT:  52.96620
 CYCLE:     5 TIME:   0.562 TIME LEFT:  2.00D  GRAD.:   488.301 HEAT:  39.98995
 CYCLE:     6 TIME:   0.516 TIME LEFT:  2.00D  GRAD.:   455.190 HEAT:  32.49250
 CYCLE:     7 TIME:   0.547 TIME LEFT:  2.00D  GRAD.:   519.471 HEAT:  12.60388
 CYCLE:     8 TIME:   0.570 TIME LEFT:  2.00D  GRAD.:   446.605 HEAT: -5.875181
 CYCLE:     9 TIME:   0.609 TIME LEFT:  2.00D  GRAD.:   401.802 HEAT: -17.17737
 CYCLE:    10 TIME:   0.539 TIME LEFT:  2.00D  GRAD.:   335.674 HEAT: -20.71698
 CYCLE:    11 TIME:   0.531 TIME LEFT:  2.00D  GRAD.:   131.406 HEAT: -23.08834
 CYCLE:    12 TIME:   0.586 TIME LEFT:  2.00D  GRAD.:   104.643 HEAT: -23.80624
 CYCLE:    13 TIME:   0.562 TIME LEFT:  2.00D  GRAD.:   140.047 HEAT: -25.47839
 CYCLE:    14 TIME:   0.602 TIME LEFT:  2.00D  GRAD.:   124.571 HEAT: -27.28286
 CYCLE:    15 TIME:   0.547 TIME LEFT:  2.00D  GRAD.:   148.349 HEAT: -28.65201
 CYCLE:    16 TIME:   0.539 TIME LEFT:  2.00D  GRAD.:    84.619 HEAT: -29.80104
 CYCLE:    17 TIME:   0.477 TIME LEFT:  2.00D  GRAD.:   110.961 HEAT: -30.73848
 CYCLE:    18 TIME:   0.500 TIME LEFT:  2.00D  GRAD.:   152.795 HEAT: -32.07991
 CYCLE:    19 TIME:   0.539 TIME LEFT:  2.00D  GRAD.:   332.486 HEAT: -31.86732
 CYCLE:    20 TIME:   0.508 TIME LEFT:  2.00D  GRAD.:    66.404 HEAT: -32.80150
 CYCLE:    21 TIME:   0.562 TIME LEFT:  2.00D  GRAD.:    49.013 HEAT: -32.94796
 CYCLE:    22 TIME:   0.547 TIME LEFT:  2.00D  GRAD.:    65.170 HEAT: -33.18173
 CYCLE:    23 TIME:   0.453 TIME LEFT:  2.00D  GRAD.:    77.949 HEAT: -33.49617
 CYCLE:    24 TIME:   0.508 TIME LEFT:  2.00D  GRAD.:   104.668 HEAT: -33.82728
 CYCLE:    25 TIME:   0.562 TIME LEFT:  2.00D  GRAD.:    51.358 HEAT: -34.09060
 CYCLE:    26 TIME:   0.523 TIME LEFT:  2.00D  GRAD.:    30.533 HEAT: -34.19659
 CYCLE:    27 TIME:   0.617 TIME LEFT:  2.00D  GRAD.:    44.591 HEAT: -34.32627
 CYCLE:    28 TIME:   0.461 TIME LEFT:  2.00D  GRAD.:    49.878 HEAT: -34.43865
 CYCLE:    29 TIME:   0.508 TIME LEFT:  2.00D  GRAD.:    45.384 HEAT: -34.63761
 CYCLE:    30 TIME:   0.516 TIME LEFT:  2.00D  GRAD.:    67.676 HEAT: -34.66382
 CYCLE:    31 TIME:   0.469 TIME LEFT:  2.00D  GRAD.:    23.501 HEAT: -34.81054
 CYCLE:    32 TIME:   0.469 TIME LEFT:  2.00D  GRAD.:    23.775 HEAT: -34.84970
 CYCLE:    33 TIME:   0.516 TIME LEFT:  2.00D  GRAD.:    29.523 HEAT: -34.95118
 CYCLE:    34 TIME:   0.539 TIME LEFT:  2.00D  GRAD.:   193.433 HEAT: -34.72377
 CYCLE:    35 TIME:   0.594 TIME LEFT:  2.00D  GRAD.:    18.599 HEAT: -35.01282
 CYCLE:    36 TIME:   0.508 TIME LEFT:  2.00D  GRAD.:    14.986 HEAT: -35.02399
 CYCLE:    37 TIME:   0.500 TIME LEFT:  2.00D  GRAD.:    14.676 HEAT: -35.05955
 CYCLE:    38 TIME:   0.555 TIME LEFT:  2.00D  GRAD.:    27.416 HEAT: -35.10958
 CYCLE:    39 TIME:   0.656 TIME LEFT:  2.00D  GRAD.:    35.732 HEAT: -35.13597
 CYCLE:    40 TIME:   0.633 TIME LEFT:  2.00D  GRAD.:    14.883 HEAT: -35.17604
 CYCLE:    41 TIME:   0.586 TIME LEFT:  2.00D  GRAD.:    12.909 HEAT: -35.19248
 CYCLE:    42 TIME:   0.516 TIME LEFT:  2.00D  GRAD.:    13.451 HEAT: -35.22675
 CYCLE:    43 TIME:   0.578 TIME LEFT:  2.00D  GRAD.:    54.163 HEAT: -35.22769
 CYCLE:    44 TIME:   0.469 TIME LEFT:  2.00D  GRAD.:    14.678 HEAT: -35.29579
 CYCLE:    45 TIME:   0.430 TIME LEFT:  2.00D  GRAD.:    10.266 HEAT: -35.30953
 CYCLE:    46 TIME:   0.500 TIME LEFT:  2.00D  GRAD.:    14.396 HEAT: -35.33434
 CYCLE:    47 TIME:   0.625 TIME LEFT:  2.00D  GRAD.:    27.504 HEAT: -35.36128
 CYCLE:    48 TIME:   0.516 TIME LEFT:  2.00D  GRAD.:    47.195 HEAT: -35.38270
 CYCLE:    49 TIME:   0.453 TIME LEFT:  2.00D  GRAD.:    18.679 HEAT: -35.41069
 CYCLE:    50 TIME:   0.453 TIME LEFT:  2.00D  GRAD.:    12.219 HEAT: -35.42218
 CYCLE:    51 TIME:   0.531 TIME LEFT:  2.00D  GRAD.:    12.713 HEAT: -35.42962
 CYCLE:    52 TIME:   0.531 TIME LEFT:  2.00D  GRAD.:    19.463 HEAT: -35.45729
 CYCLE:    53 TIME:   0.492 TIME LEFT:  2.00D  GRAD.:    22.810 HEAT: -35.49154
 CYCLE:    54 TIME:   0.555 TIME LEFT:  2.00D  GRAD.:    39.366 HEAT: -35.50589
 CYCLE:    55 TIME:   0.609 TIME LEFT:  2.00D  GRAD.:    18.680 HEAT: -35.54978
 CYCLE:    56 TIME:   0.633 TIME LEFT:  2.00D  GRAD.:    16.012 HEAT: -35.57520
 CYCLE:    57 TIME:   0.625 TIME LEFT:  2.00D  GRAD.:    18.749 HEAT: -35.60972
 CYCLE:    58 TIME:   0.531 TIME LEFT:  2.00D  GRAD.:    21.080 HEAT: -35.66306
 CYCLE:    59 TIME:   0.445 TIME LEFT:  2.00D  GRAD.:    35.400 HEAT: -35.70975
 CYCLE:    60 TIME:   0.477 TIME LEFT:  2.00D  GRAD.:    29.892 HEAT: -35.77365
 CYCLE:    61 TIME:   0.578 TIME LEFT:  2.00D  GRAD.:    27.075 HEAT: -35.82019
 CYCLE:    62 TIME:   0.578 TIME LEFT:  2.00D  GRAD.:    33.805 HEAT: -35.85408
 CYCLE:    63 TIME:   0.555 TIME LEFT:  2.00D  GRAD.:    76.444 HEAT: -35.86863
 CYCLE:    64 TIME:   0.586 TIME LEFT:  2.00D  GRAD.:    38.492 HEAT: -35.89424
 CYCLE:    65 TIME:   0.562 TIME LEFT:  2.00D  GRAD.:    12.674 HEAT: -35.92343
 CYCLE:    66 TIME:   0.523 TIME LEFT:  2.00D  GRAD.:    15.235 HEAT: -35.92988
 CYCLE:    67 TIME:   0.648 TIME LEFT:  2.00D  GRAD.:    30.438 HEAT: -35.95704
 CYCLE:    68 TIME:   0.477 TIME LEFT:  2.00D  GRAD.:    29.112 HEAT: -35.99207
 CYCLE:    69 TIME:   0.508 TIME LEFT:  2.00D  GRAD.:    17.061 HEAT: -36.03648
 CYCLE:    70 TIME:   0.484 TIME LEFT:  2.00D  GRAD.:    15.425 HEAT: -36.06174
 CYCLE:    71 TIME:   0.500 TIME LEFT:  2.00D  GRAD.:    19.840 HEAT: -36.09809
 CYCLE:    72 TIME:   0.500 TIME LEFT:  2.00D  GRAD.:    35.962 HEAT: -36.13182
 CYCLE:    73 TIME:   0.516 TIME LEFT:  2.00D  GRAD.:    21.352 HEAT: -36.17682
 CYCLE:    74 TIME:   0.547 TIME LEFT:  2.00D  GRAD.:    15.749 HEAT: -36.20091
 CYCLE:    75 TIME:   0.562 TIME LEFT:  2.00D  GRAD.:    18.517 HEAT: -36.24038
 CYCLE:    76 TIME:   0.453 TIME LEFT:  2.00D  GRAD.:    21.099 HEAT: -36.27946
 CYCLE:    77 TIME:   0.547 TIME LEFT:  2.00D  GRAD.:    71.603 HEAT: -36.29258
 CYCLE:    78 TIME:   0.625 TIME LEFT:  2.00D  GRAD.:    20.911 HEAT: -36.34650
 CYCLE:    79 TIME:   0.594 TIME LEFT:  2.00D  GRAD.:    19.795 HEAT: -36.37568
 CYCLE:    80 TIME:   0.664 TIME LEFT:  2.00D  GRAD.:    69.106 HEAT: -36.35083
 CYCLE:    81 TIME:   0.516 TIME LEFT:  2.00D  GRAD.:    15.608 HEAT: -36.40844
 CYCLE:    82 TIME:   0.539 TIME LEFT:  2.00D  GRAD.:    11.919 HEAT: -36.41612
 CYCLE:    83 TIME:   0.602 TIME LEFT:  2.00D  GRAD.:    23.432 HEAT: -36.43827
 CYCLE:    84 TIME:   0.625 TIME LEFT:  2.00D  GRAD.:    33.309 HEAT: -36.47073
 CYCLE:    85 TIME:   0.484 TIME LEFT:  2.00D  GRAD.:    37.729 HEAT: -36.50998
 CYCLE:    86 TIME:   0.555 TIME LEFT:  2.00D  GRAD.:    24.566 HEAT: -36.54197
 CYCLE:    87 TIME:   0.453 TIME LEFT:  2.00D  GRAD.:    17.767 HEAT: -36.56607
 CYCLE:    88 TIME:   0.594 TIME LEFT:  2.00D  GRAD.:    29.442 HEAT: -36.59076
 CYCLE:    89 TIME:   0.500 TIME LEFT:  2.00D  GRAD.:    28.304 HEAT: -36.60943
 CYCLE:    90 TIME:   0.547 TIME LEFT:  2.00D  GRAD.:    37.773 HEAT: -36.65263
 CYCLE:    91 TIME:   0.680 TIME LEFT:  2.00D  GRAD.:    25.176 HEAT: -36.67840
 CYCLE:    92 TIME:   0.539 TIME LEFT:  2.00D  GRAD.:    19.687 HEAT: -36.69770
 CYCLE:    93 TIME:   0.555 TIME LEFT:  2.00D  GRAD.:    11.962 HEAT: -36.71393
 CYCLE:    94 TIME:   0.461 TIME LEFT:  2.00D  GRAD.:    13.307 HEAT: -36.72659
 CYCLE:    95 TIME:   0.531 TIME LEFT:  2.00D  GRAD.:    14.266 HEAT: -36.75948
 CYCLE:    96 TIME:   0.562 TIME LEFT:  2.00D  GRAD.:    84.270 HEAT: -36.73775
 CYCLE:    97 TIME:   0.562 TIME LEFT:  2.00D  GRAD.:    36.293 HEAT: -36.76679
 CYCLE:    98 TIME:   0.508 TIME LEFT:  2.00D  GRAD.:    10.724 HEAT: -36.80001
 CYCLE:    99 TIME:   0.555 TIME LEFT:  2.00D  GRAD.:     9.912 HEAT: -36.80607
 CYCLE:   100 TIME:   0.453 TIME LEFT:  2.00D  GRAD.:    21.831 HEAT: -36.82320
 CYCLE:   101 TIME:   0.445 TIME LEFT:  2.00D  GRAD.:    17.088 HEAT: -36.84588
 CYCLE:   102 TIME:   0.484 TIME LEFT:  2.00D  GRAD.:    17.027 HEAT: -36.86898
 CYCLE:   103 TIME:   0.570 TIME LEFT:  2.00D  GRAD.:    17.492 HEAT: -36.89793
 CYCLE:   104 TIME:   0.484 TIME LEFT:  2.00D  GRAD.:    51.488 HEAT: -36.88447
 CYCLE:   105 TIME:   0.484 TIME LEFT:  2.00D  GRAD.:    15.233 HEAT: -36.92540
 CYCLE:   106 TIME:   0.508 TIME LEFT:  2.00D  GRAD.:    10.135 HEAT: -36.93689
 CYCLE:   107 TIME:   0.641 TIME LEFT:  2.00D  GRAD.:    15.012 HEAT: -36.96665
 CYCLE:   108 TIME:   0.508 TIME LEFT:  2.00D  GRAD.:    14.881 HEAT: -36.98651
 CYCLE:   109 TIME:   0.531 TIME LEFT:  2.00D  GRAD.:    34.534 HEAT: -36.99688
 CYCLE:   110 TIME:   0.453 TIME LEFT:  2.00D  GRAD.:    11.683 HEAT: -37.01737
 CYCLE:   111 TIME:   0.469 TIME LEFT:  2.00D  GRAD.:    14.064 HEAT: -37.02618
 CYCLE:   112 TIME:   0.438 TIME LEFT:  2.00D  GRAD.:    20.260 HEAT: -37.03534
 CYCLE:   113 TIME:   0.453 TIME LEFT:  2.00D  GRAD.:    11.337 HEAT: -37.04899
 CYCLE:   114 TIME:   0.641 TIME LEFT:  2.00D  GRAD.:     7.959 HEAT: -37.05907
 CYCLE:   115 TIME:   0.562 TIME LEFT:  2.00D  GRAD.:    13.062 HEAT: -37.07576
 CYCLE:   116 TIME:   0.578 TIME LEFT:  2.00D  GRAD.:    20.016 HEAT: -37.09324
 CYCLE:   117 TIME:   0.523 TIME LEFT:  2.00D  GRAD.:    15.448 HEAT: -37.10879
 CYCLE:   118 TIME:   0.461 TIME LEFT:  2.00D  GRAD.:     9.377 HEAT: -37.11970
 CYCLE:   119 TIME:   0.484 TIME LEFT:  2.00D  GRAD.:    10.081 HEAT: -37.13297
 CYCLE:   120 TIME:   0.688 TIME LEFT:  2.00D  GRAD.:    11.148 HEAT: -37.14932
 CYCLE:   121 TIME:   0.539 TIME LEFT:  2.00D  GRAD.:    44.903 HEAT: -37.14719
 CYCLE:   122 TIME:   0.562 TIME LEFT:  2.00D  GRAD.:    13.538 HEAT: -37.18263
 CYCLE:   123 TIME:   0.484 TIME LEFT:  2.00D  GRAD.:     9.302 HEAT: -37.19353
 CYCLE:   124 TIME:   0.461 TIME LEFT:  2.00D  GRAD.:    13.376 HEAT: -37.21467
 CYCLE:   125 TIME:   0.484 TIME LEFT:  2.00D  GRAD.:    17.484 HEAT: -37.23616
 CYCLE:   126 TIME:   0.469 TIME LEFT:  2.00D  GRAD.:    79.410 HEAT: -37.19503
 CYCLE:   127 TIME:   0.523 TIME LEFT:  2.00D  GRAD.:     9.894 HEAT: -37.24934
 CYCLE:   128 TIME:   0.500 TIME LEFT:  2.00D  GRAD.:     7.382 HEAT: -37.25195
 CYCLE:   129 TIME:   0.523 TIME LEFT:  2.00D  GRAD.:     8.902 HEAT: -37.25847
 CYCLE:   130 TIME:   0.570 TIME LEFT:  2.00D  GRAD.:    12.531 HEAT: -37.27067
 CYCLE:   131 TIME:   0.570 TIME LEFT:  2.00D  GRAD.:    28.466 HEAT: -37.28122
 CYCLE:   132 TIME:   0.547 TIME LEFT:  2.00D  GRAD.:    11.908 HEAT: -37.29733
 CYCLE:   133 TIME:   0.570 TIME LEFT:  2.00D  GRAD.:     8.186 HEAT: -37.30608
 CYCLE:   134 TIME:   0.562 TIME LEFT:  2.00D  GRAD.:     9.660 HEAT: -37.31224
 CYCLE:   135 TIME:   0.523 TIME LEFT:  2.00D  GRAD.:    10.439 HEAT: -37.32362
 CYCLE:   136 TIME:   0.453 TIME LEFT:  2.00D  GRAD.:    18.167 HEAT: -37.34204
 CYCLE:   137 TIME:   0.484 TIME LEFT:  2.00D  GRAD.:    20.356 HEAT: -37.35040
 CYCLE:   138 TIME:   0.508 TIME LEFT:  2.00D  GRAD.:     7.541 HEAT: -37.36601
 CYCLE:   139 TIME:   0.656 TIME LEFT:  2.00D  GRAD.:     9.242 HEAT: -37.37408
 CYCLE:   140 TIME:   0.602 TIME LEFT:  2.00D  GRAD.:    30.418 HEAT: -37.37708
 CYCLE:   141 TIME:   0.547 TIME LEFT:  2.00D  GRAD.:    13.266 HEAT: -37.38532
 CYCLE:   142 TIME:   0.477 TIME LEFT:  2.00D  GRAD.:     6.255 HEAT: -37.39125
 CYCLE:   143 TIME:   0.625 TIME LEFT:  2.00D  GRAD.:     7.990 HEAT: -37.39425
 CYCLE:   144 TIME:   0.523 TIME LEFT:  2.00D  GRAD.:    11.171 HEAT: -37.40113
 CYCLE:   145 TIME:   0.570 TIME LEFT:  2.00D  GRAD.:    18.038 HEAT: -37.41230
 CYCLE:   146 TIME:   0.531 TIME LEFT:  2.00D  GRAD.:    12.689 HEAT: -37.42427
 CYCLE:   147 TIME:   0.555 TIME LEFT:  2.00D  GRAD.:     7.390 HEAT: -37.43161
 CYCLE:   148 TIME:   0.570 TIME LEFT:  2.00D  GRAD.:     7.219 HEAT: -37.43611
 CYCLE:   149 TIME:   0.477 TIME LEFT:  2.00D  GRAD.:     7.745 HEAT: -37.44251
 CYCLE:   150 TIME:   0.516 TIME LEFT:  2.00D  GRAD.:     9.239 HEAT: -37.45415
 CYCLE:   151 TIME:   0.461 TIME LEFT:  2.00D  GRAD.:    25.955 HEAT: -37.44629
 CYCLE:   152 TIME:   0.445 TIME LEFT:  2.00D  GRAD.:     5.837 HEAT: -37.46183
 CYCLE:   153 TIME:   0.562 TIME LEFT:  2.00D  GRAD.:     4.704 HEAT: -37.46420
 CYCLE:   154 TIME:   0.469 TIME LEFT:  2.00D  GRAD.:     7.868 HEAT: -37.47273
 CYCLE:   155 TIME:   0.453 TIME LEFT:  2.00D  GRAD.:    18.295 HEAT: -37.47846
 CYCLE:   156 TIME:   0.516 TIME LEFT:  2.00D  GRAD.:     9.853 HEAT: -37.48568
 CYCLE:   157 TIME:   0.578 TIME LEFT:  2.00D  GRAD.:     6.989 HEAT: -37.48974
 CYCLE:   158 TIME:   0.477 TIME LEFT:  2.00D  GRAD.:     6.097 HEAT: -37.49569
 CYCLE:   159 TIME:   0.484 TIME LEFT:  2.00D  GRAD.:     7.956 HEAT: -37.50311
 CYCLE:   160 TIME:   0.570 TIME LEFT:  2.00D  GRAD.:    17.829 HEAT: -37.50649
 CYCLE:   161 TIME:   0.578 TIME LEFT:  2.00D  GRAD.:     7.682 HEAT: -37.51439
 CYCLE:   162 TIME:   0.461 TIME LEFT:  2.00D  GRAD.:     4.988 HEAT: -37.51736
 CYCLE:   163 TIME:   0.594 TIME LEFT:  2.00D  GRAD.:     7.156 HEAT: -37.52094
 CYCLE:   164 TIME:   0.602 TIME LEFT:  2.00D  GRAD.:     8.859 HEAT: -37.52593
 CYCLE:   165 TIME:   0.570 TIME LEFT:  2.00D  GRAD.:     7.343 HEAT: -37.53560
 CYCLE:   166 TIME:   0.547 TIME LEFT:  2.00D  GRAD.:    15.213 HEAT: -37.54261
 CYCLE:   167 TIME:   0.625 TIME LEFT:  2.00D  GRAD.:    12.844 HEAT: -37.55101
 CYCLE:   168 TIME:   0.516 TIME LEFT:  2.00D  GRAD.:     6.460 HEAT: -37.55975
 CYCLE:   169 TIME:   0.633 TIME LEFT:  2.00D  GRAD.:    10.322 HEAT: -37.56662
 CYCLE:   170 TIME:   0.617 TIME LEFT:  2.00D  GRAD.:    53.342 HEAT: -37.55784
 CYCLE:   171 TIME:   0.516 TIME LEFT:  2.00D  GRAD.:    13.972 HEAT: -37.57436
 CYCLE:   172 TIME:   0.469 TIME LEFT:  2.00D  GRAD.:     8.452 HEAT: -37.57792
 CYCLE:   173 TIME:   0.453 TIME LEFT:  2.00D  GRAD.:    11.929 HEAT: -37.58603
 CYCLE:   174 TIME:   0.445 TIME LEFT:  2.00D  GRAD.:     9.228 HEAT: -37.59075
 CYCLE:   175 TIME:   0.461 TIME LEFT:  2.00D  GRAD.:     6.921 HEAT: -37.59880
 CYCLE:   176 TIME:   0.508 TIME LEFT:  2.00D  GRAD.:    10.011 HEAT: -37.60955
 CYCLE:   177 TIME:   0.523 TIME LEFT:  2.00D  GRAD.:    12.129 HEAT: -37.61740
 CYCLE:   178 TIME:   0.508 TIME LEFT:  2.00D  GRAD.:     8.893 HEAT: -37.62450
 CYCLE:   179 TIME:   0.453 TIME LEFT:  2.00D  GRAD.:     6.628 HEAT: -37.62950
 CYCLE:   180 TIME:   0.508 TIME LEFT:  2.00D  GRAD.:    11.395 HEAT: -37.63753
 CYCLE:   181 TIME:   0.477 TIME LEFT:  2.00D  GRAD.:    12.500 HEAT: -37.64420
 CYCLE:   182 TIME:   0.492 TIME LEFT:  2.00D  GRAD.:    11.725 HEAT: -37.65511
 CYCLE:   183 TIME:   0.609 TIME LEFT:  2.00D  GRAD.:    11.813 HEAT: -37.66369
 CYCLE:   184 TIME:   0.609 TIME LEFT:  2.00D  GRAD.:     9.435 HEAT: -37.67090
 CYCLE:   185 TIME:   0.461 TIME LEFT:  2.00D  GRAD.:     8.419 HEAT: -37.67649
 CYCLE:   186 TIME:   0.555 TIME LEFT:  2.00D  GRAD.:    42.733 HEAT: -37.67257
 CYCLE:   187 TIME:   0.578 TIME LEFT:  2.00D  GRAD.:     9.979 HEAT: -37.68337
 CYCLE:   188 TIME:   0.500 TIME LEFT:  2.00D  GRAD.:     6.898 HEAT: -37.68534
 CYCLE:   189 TIME:   0.594 TIME LEFT:  2.00D  GRAD.:     9.498 HEAT: -37.68920
 CYCLE:   190 TIME:   0.594 TIME LEFT:  2.00D  GRAD.:     8.714 HEAT: -37.69256
 CYCLE:   191 TIME:   0.555 TIME LEFT:  2.00D  GRAD.:     8.880 HEAT: -37.70480
 CYCLE:   192 TIME:   0.516 TIME LEFT:  2.00D  GRAD.:    21.767 HEAT: -37.70825
 CYCLE:   193 TIME:   0.492 TIME LEFT:  2.00D  GRAD.:     7.570 HEAT: -37.72124
 CYCLE:   194 TIME:   0.516 TIME LEFT:  2.00D  GRAD.:     5.746 HEAT: -37.72549
 CYCLE:   195 TIME:   0.516 TIME LEFT:  2.00D  GRAD.:     6.716 HEAT: -37.73168
 CYCLE:   196 TIME:   0.609 TIME LEFT:  2.00D  GRAD.:     9.798 HEAT: -37.74332
 CYCLE:   197 TIME:   0.531 TIME LEFT:  2.00D  GRAD.:    15.720 HEAT: -37.75093
 CYCLE:   198 TIME:   0.508 TIME LEFT:  2.00D  GRAD.:     8.908 HEAT: -37.76332
 CYCLE:   199 TIME:   0.516 TIME LEFT:  2.00D  GRAD.:     8.066 HEAT: -37.77232
 CYCLE:   200 TIME:   0.523 TIME LEFT:  2.00D  GRAD.:     9.869 HEAT: -37.78133
 CYCLE:   201 TIME:   0.531 TIME LEFT:  2.00D  GRAD.:    23.552 HEAT: -37.78733
 CYCLE:   202 TIME:   0.508 TIME LEFT:  2.00D  GRAD.:    18.181 HEAT: -37.79261
 CYCLE:   203 TIME:   0.477 TIME LEFT:  2.00D  GRAD.:     8.534 HEAT: -37.79644
 CYCLE:   204 TIME:   0.516 TIME LEFT:  2.00D  GRAD.:     6.510 HEAT: -37.79920
 CYCLE:   205 TIME:   0.562 TIME LEFT:  2.00D  GRAD.:     8.479 HEAT: -37.80266
 CYCLE:   206 TIME:   0.648 TIME LEFT:  2.00D  GRAD.:    13.416 HEAT: -37.81305
 CYCLE:   207 TIME:   0.516 TIME LEFT:  2.00D  GRAD.:    13.413 HEAT: -37.82585
 CYCLE:   208 TIME:   0.602 TIME LEFT:  2.00D  GRAD.:    38.431 HEAT: -37.82934
 CYCLE:   209 TIME:   0.453 TIME LEFT:  2.00D  GRAD.:     9.353 HEAT: -37.84976
 CYCLE:   210 TIME:   0.469 TIME LEFT:  2.00D  GRAD.:     5.365 HEAT: -37.85640
 CYCLE:   211 TIME:   0.492 TIME LEFT:  2.00D  GRAD.:    13.764 HEAT: -37.86451
 CYCLE:   212 TIME:   0.469 TIME LEFT:  2.00D  GRAD.:    11.881 HEAT: -37.87426
 CYCLE:   213 TIME:   0.594 TIME LEFT:  2.00D  GRAD.:     5.725 HEAT: -37.88535
 CYCLE:   214 TIME:   0.555 TIME LEFT:  2.00D  GRAD.:    10.995 HEAT: -37.89301
 CYCLE:   215 TIME:   0.680 TIME LEFT:  2.00D  GRAD.:    33.511 HEAT: -37.89358
 CYCLE:   216 TIME:   0.562 TIME LEFT:  2.00D  GRAD.:    11.677 HEAT: -37.90109
 CYCLE:   217 TIME:   0.508 TIME LEFT:  2.00D  GRAD.:     6.412 HEAT: -37.90460
 CYCLE:   218 TIME:   0.484 TIME LEFT:  2.00D  GRAD.:    12.256 HEAT: -37.91029
 CYCLE:   219 TIME:   0.523 TIME LEFT:  2.00D  GRAD.:    15.058 HEAT: -37.91583
 CYCLE:   220 TIME:   0.555 TIME LEFT:  2.00D  GRAD.:    17.149 HEAT: -37.92577
 CYCLE:   221 TIME:   0.539 TIME LEFT:  2.00D  GRAD.:    11.392 HEAT: -37.93308
 CYCLE:   222 TIME:   0.469 TIME LEFT:  2.00D  GRAD.:     7.944 HEAT: -37.94424
 CYCLE:   223 TIME:   0.484 TIME LEFT:  2.00D  GRAD.:    16.229 HEAT: -37.94960
 CYCLE:   224 TIME:   0.438 TIME LEFT:  2.00D  GRAD.:    10.169 HEAT: -37.95900
 CYCLE:   225 TIME:   0.461 TIME LEFT:  2.00D  GRAD.:    11.925 HEAT: -37.96631
 CYCLE:   226 TIME:   0.453 TIME LEFT:  2.00D  GRAD.:     9.800 HEAT: -37.97850
 CYCLE:   227 TIME:   0.570 TIME LEFT:  2.00D  GRAD.:    11.086 HEAT: -37.98940
 CYCLE:   228 TIME:   0.492 TIME LEFT:  2.00D  GRAD.:    25.763 HEAT: -37.99933
 CYCLE:   229 TIME:   0.562 TIME LEFT:  2.00D  GRAD.:    21.510 HEAT: -38.01365
 CYCLE:   230 TIME:   0.508 TIME LEFT:  2.00D  GRAD.:    17.037 HEAT: -38.03136
 CYCLE:   231 TIME:   0.492 TIME LEFT:  2.00D  GRAD.:    10.737 HEAT: -38.04049
 CYCLE:   232 TIME:   0.477 TIME LEFT:  2.00D  GRAD.:    13.183 HEAT: -38.04664
 CYCLE:   233 TIME:   0.492 TIME LEFT:  2.00D  GRAD.:    13.690 HEAT: -38.05882
 CYCLE:   234 TIME:   0.445 TIME LEFT:  2.00D  GRAD.:    15.621 HEAT: -38.07020
 CYCLE:   235 TIME:   0.633 TIME LEFT:  2.00D  GRAD.:    11.093 HEAT: -38.08318
 CYCLE:   236 TIME:   0.523 TIME LEFT:  2.00D  GRAD.:    13.620 HEAT: -38.09420
 CYCLE:   237 TIME:   0.484 TIME LEFT:  2.00D  GRAD.:    15.454 HEAT: -38.10463
 CYCLE:   238 TIME:   0.508 TIME LEFT:  2.00D  GRAD.:    11.768 HEAT: -38.11474
 CYCLE:   239 TIME:   0.656 TIME LEFT:  2.00D  GRAD.:     9.944 HEAT: -38.12834
 CYCLE:   240 TIME:   0.516 TIME LEFT:  2.00D  GRAD.:     8.351 HEAT: -38.13749
 CYCLE:   241 TIME:   0.492 TIME LEFT:  2.00D  GRAD.:     9.014 HEAT: -38.15486
 CYCLE:   242 TIME:   0.492 TIME LEFT:  2.00D  GRAD.:    19.249 HEAT: -38.16375
 CYCLE:   243 TIME:   0.445 TIME LEFT:  2.00D  GRAD.:     7.254 HEAT: -38.17469
 CYCLE:   244 TIME:   0.453 TIME LEFT:  2.00D  GRAD.:     7.566 HEAT: -38.18009
 CYCLE:   245 TIME:   0.633 TIME LEFT:  2.00D  GRAD.:    18.715 HEAT: -38.18828
 CYCLE:   246 TIME:   0.578 TIME LEFT:  2.00D  GRAD.:    10.518 HEAT: -38.19556
 CYCLE:   247 TIME:   0.648 TIME LEFT:  2.00D  GRAD.:    11.303 HEAT: -38.20498
 CYCLE:   248 TIME:   0.516 TIME LEFT:  2.00D  GRAD.:     9.350 HEAT: -38.21032
 CYCLE:   249 TIME:   0.461 TIME LEFT:  2.00D  GRAD.:     8.149 HEAT: -38.21556
 CYCLE:   250 TIME:   0.609 TIME LEFT:  2.00D  GRAD.:    15.421 HEAT: -38.22581
 CYCLE:   251 TIME:   0.516 TIME LEFT:  2.00D  GRAD.:     7.357 HEAT: -38.23430
 CYCLE:   252 TIME:   0.500 TIME LEFT:  2.00D  GRAD.:     6.694 HEAT: -38.24011
 CYCLE:   253 TIME:   0.602 TIME LEFT:  2.00D  GRAD.:     6.899 HEAT: -38.24620
 CYCLE:   254 TIME:   0.586 TIME LEFT:  2.00D  GRAD.:    10.005 HEAT: -38.25341
 CYCLE:   255 TIME:   0.500 TIME LEFT:  2.00D  GRAD.:     9.801 HEAT: -38.25886
 CYCLE:   256 TIME:   0.469 TIME LEFT:  2.00D  GRAD.:     6.231 HEAT: -38.26290
 CYCLE:   257 TIME:   0.492 TIME LEFT:  2.00D  GRAD.:     6.649 HEAT: -38.26761
 CYCLE:   258 TIME:   0.516 TIME LEFT:  2.00D  GRAD.:     5.593 HEAT: -38.27240
 CYCLE:   259 TIME:   0.594 TIME LEFT:  2.00D  GRAD.:    32.800 HEAT: -38.26898
 CYCLE:   260 TIME:   0.562 TIME LEFT:  2.00D  GRAD.:     5.419 HEAT: -38.27820
 CYCLE:   261 TIME:   0.500 TIME LEFT:  2.00D  GRAD.:     4.919 HEAT: -38.27914
 CYCLE:   262 TIME:   0.570 TIME LEFT:  2.00D  GRAD.:     5.341 HEAT: -38.28391
 CYCLE:   263 TIME:   0.484 TIME LEFT:  2.00D  GRAD.:    12.572 HEAT: -38.28920
 CYCLE:   264 TIME:   0.578 TIME LEFT:  2.00D  GRAD.:     9.076 HEAT: -38.29256
 CYCLE:   265 TIME:   0.453 TIME LEFT:  2.00D  GRAD.:     5.179 HEAT: -38.29484
 CYCLE:   266 TIME:   0.516 TIME LEFT:  2.00D  GRAD.:     4.037 HEAT: -38.29729
 CYCLE:   267 TIME:   0.508 TIME LEFT:  2.00D  GRAD.:     4.133 HEAT: -38.29957
 CYCLE:   268 TIME:   0.531 TIME LEFT:  2.00D  GRAD.:    12.810 HEAT: -38.30137
 CYCLE:   269 TIME:   0.539 TIME LEFT:  2.00D  GRAD.:     4.589 HEAT: -38.30695
 CYCLE:   270 TIME:   0.477 TIME LEFT:  2.00D  GRAD.:     3.425 HEAT: -38.30924
 CYCLE:   271 TIME:   0.500 TIME LEFT:  2.00D  GRAD.:     5.257 HEAT: -38.31215
 CYCLE:   272 TIME:   0.469 TIME LEFT:  2.00D  GRAD.:     9.132 HEAT: -38.31443
 CYCLE:   273 TIME:   0.531 TIME LEFT:  2.00D  GRAD.:     6.209 HEAT: -38.31719
 CYCLE:   274 TIME:   0.438 TIME LEFT:  2.00D  GRAD.:     5.625 HEAT: -38.31874
 CYCLE:   275 TIME:   0.453 TIME LEFT:  2.00D  GRAD.:     3.868 HEAT: -38.31960
 CYCLE:   276 TIME:   0.477 TIME LEFT:  2.00D  GRAD.:     3.862 HEAT: -38.32054
 CYCLE:   277 TIME:   0.492 TIME LEFT:  2.00D  GRAD.:     4.252 HEAT: -38.32333
 CYCLE:   278 TIME:   0.602 TIME LEFT:  2.00D  GRAD.:    10.211 HEAT: -38.32470
 CYCLE:   279 TIME:   0.586 TIME LEFT:  2.00D  GRAD.:     3.608 HEAT: -38.32691
 CYCLE:   280 TIME:   0.570 TIME LEFT:  2.00D  GRAD.:     3.161 HEAT: -38.32776
 CYCLE:   281 TIME:   0.539 TIME LEFT:  2.00D  GRAD.:     2.981 HEAT: -38.32947
 CYCLE:   282 TIME:   0.602 TIME LEFT:  2.00D  GRAD.:     5.035 HEAT: -38.33249
 CYCLE:   283 TIME:   0.492 TIME LEFT:  2.00D  GRAD.:     9.551 HEAT: -38.33351
 CYCLE:   284 TIME:   0.531 TIME LEFT:  2.00D  GRAD.:     3.120 HEAT: -38.33611
 CYCLE:   285 TIME:   0.445 TIME LEFT:  2.00D  GRAD.:     2.909 HEAT: -38.33734
 CYCLE:   286 TIME:   0.500 TIME LEFT:  2.00D  GRAD.:     4.559 HEAT: -38.33899
 CYCLE:   287 TIME:   0.477 TIME LEFT:  2.00D  GRAD.:    11.983 HEAT: -38.34036
 CYCLE:   288 TIME:   0.547 TIME LEFT:  2.00D  GRAD.:     3.307 HEAT: -38.34250
 CYCLE:   289 TIME:   0.516 TIME LEFT:  2.00D  GRAD.:     3.560 HEAT: -38.34344
 CYCLE:   290 TIME:   0.500 TIME LEFT:  2.00D  GRAD.:     3.884 HEAT: -38.34468
 CYCLE:   291 TIME:   0.578 TIME LEFT:  2.00D  GRAD.:     5.539 HEAT: -38.34644
 CYCLE:   292 TIME:   0.531 TIME LEFT:  2.00D  GRAD.:    11.709 HEAT: -38.34798
 CYCLE:   293 TIME:   0.469 TIME LEFT:  2.00D  GRAD.:     3.537 HEAT: -38.35021
 CYCLE:   294 TIME:   0.461 TIME LEFT:  2.00D  GRAD.:     3.321 HEAT: -38.35091
 CYCLE:   295 TIME:   0.539 TIME LEFT:  2.00D  GRAD.:     3.445 HEAT: -38.35222
 CYCLE:   296 TIME:   0.539 TIME LEFT:  2.00D  GRAD.:     6.939 HEAT: -38.35366
 CYCLE:   297 TIME:   0.461 TIME LEFT:  2.00D  GRAD.:     4.052 HEAT: -38.35599
 CYCLE:   298 TIME:   0.508 TIME LEFT:  2.00D  GRAD.:     3.301 HEAT: -38.35809
 CYCLE:   299 TIME:   0.508 TIME LEFT:  2.00D  GRAD.:     3.983 HEAT: -38.35969
 CYCLE:   300 TIME:   0.531 TIME LEFT:  2.00D  GRAD.:     6.968 HEAT: -38.36188
 CYCLE:   301 TIME:   0.570 TIME LEFT:  2.00D  GRAD.:    11.987 HEAT: -38.36316
 CYCLE:   302 TIME:   0.461 TIME LEFT:  2.00D  GRAD.:     4.130 HEAT: -38.36528
 CYCLE:   303 TIME:   0.539 TIME LEFT:  2.00D  GRAD.:     3.574 HEAT: -38.36633
 CYCLE:   304 TIME:   0.523 TIME LEFT:  2.00D  GRAD.:     3.075 HEAT: -38.36707
 CYCLE:   305 TIME:   0.461 TIME LEFT:  2.00D  GRAD.:     2.885 HEAT: -38.36858
 CYCLE:   306 TIME:   0.484 TIME LEFT:  2.00D  GRAD.:     7.789 HEAT: -38.36982
 CYCLE:   307 TIME:   0.469 TIME LEFT:  2.00D  GRAD.:    11.030 HEAT: -38.37067
 CYCLE:   308 TIME:   0.461 TIME LEFT:  2.00D  GRAD.:     3.789 HEAT: -38.37242
 CYCLE:   309 TIME:   0.453 TIME LEFT:  2.00D  GRAD.:     2.527 HEAT: -38.37308
 CYCLE:   310 TIME:   0.500 TIME LEFT:  2.00D  GRAD.:     4.805 HEAT: -38.37387
 CYCLE:   311 TIME:   0.531 TIME LEFT:  2.00D  GRAD.:     3.586 HEAT: -38.37529
 CYCLE:   312 TIME:   0.641 TIME LEFT:  2.00D  GRAD.:     3.105 HEAT: -38.37844
 CYCLE:   313 TIME:   0.555 TIME LEFT:  2.00D  GRAD.:    11.034 HEAT: -38.37845
 CYCLE:   314 TIME:   0.430 TIME LEFT:  2.00D  GRAD.:     3.450 HEAT: -38.38127
 CYCLE:   315 TIME:   0.453 TIME LEFT:  2.00D  GRAD.:     2.947 HEAT: -38.38215
 CYCLE:   316 TIME:   0.477 TIME LEFT:  2.00D  GRAD.:     4.758 HEAT: -38.38328
 CYCLE:   317 TIME:   0.461 TIME LEFT:  2.00D  GRAD.:    15.440 HEAT: -38.38332
 CYCLE:   318 TIME:   0.539 TIME LEFT:  2.00D  GRAD.:     4.952 HEAT: -38.38547
 CYCLE:   319 TIME:   0.562 TIME LEFT:  2.00D  GRAD.:     3.138 HEAT: -38.38640
 CYCLE:   320 TIME:   0.531 TIME LEFT:  2.00D  GRAD.:     3.959 HEAT: -38.38721
 CYCLE:   321 TIME:   0.594 TIME LEFT:  2.00D  GRAD.:     3.278 HEAT: -38.38851
 CYCLE:   322 TIME:   0.469 TIME LEFT:  2.00D  GRAD.:     9.397 HEAT: -38.38973
 CYCLE:   323 TIME:   0.516 TIME LEFT:  2.00D  GRAD.:     5.730 HEAT: -38.39137
 CYCLE:   324 TIME:   0.484 TIME LEFT:  2.00D  GRAD.:     3.400 HEAT: -38.39215
 CYCLE:   325 TIME:   0.445 TIME LEFT:  2.00D  GRAD.:     2.437 HEAT: -38.39312
 CYCLE:   326 TIME:   0.492 TIME LEFT:  2.00D  GRAD.:     4.104 HEAT: -38.39504
 CYCLE:   327 TIME:   0.492 TIME LEFT:  2.00D  GRAD.:     3.608 HEAT: -38.39696
 CYCLE:   328 TIME:   0.547 TIME LEFT:  2.00D  GRAD.:     6.536 HEAT: -38.39827
 CYCLE:   329 TIME:   0.492 TIME LEFT:  2.00D  GRAD.:     4.800 HEAT: -38.39988
 CYCLE:   330 TIME:   0.539 TIME LEFT:  2.00D  GRAD.:     3.294 HEAT: -38.40082
 CYCLE:   331 TIME:   0.609 TIME LEFT:  2.00D  GRAD.:     3.574 HEAT: -38.40233
 CYCLE:   332 TIME:   0.562 TIME LEFT:  2.00D  GRAD.:     4.178 HEAT: -38.40364
 CYCLE:   333 TIME:   0.469 TIME LEFT:  2.00D  GRAD.:    16.772 HEAT: -38.40250
 CYCLE:   334 TIME:   0.586 TIME LEFT:  2.00D  GRAD.:     4.568 HEAT: -38.40448
 CYCLE:   335 TIME:   0.570 TIME LEFT:  2.00D  GRAD.:     2.341 HEAT: -38.40491
 CYCLE:   336 TIME:   0.422 TIME LEFT:  2.00D  GRAD.:     2.482 HEAT: -38.40522
 CYCLE:   337 TIME:   0.523 TIME LEFT:  2.00D  GRAD.:     7.478 HEAT: -38.40640
 CYCLE:   338 TIME:   0.492 TIME LEFT:  2.00D  GRAD.:     6.610 HEAT: -38.40772
 CYCLE:   339 TIME:   0.547 TIME LEFT:  2.00D  GRAD.:     4.614 HEAT: -38.40936
 CYCLE:   340 TIME:   0.453 TIME LEFT:  2.00D  GRAD.:     3.279 HEAT: -38.40993
 CYCLE:   341 TIME:   0.484 TIME LEFT:  2.00D  GRAD.:     2.563 HEAT: -38.41079
 CYCLE:   342 TIME:   0.516 TIME LEFT:  2.00D  GRAD.:     2.654 HEAT: -38.41210
 CYCLE:   343 TIME:   0.492 TIME LEFT:  2.00D  GRAD.:    12.270 HEAT: -38.41114
 CYCLE:   344 TIME:   0.562 TIME LEFT:  2.00D  GRAD.:     3.515 HEAT: -38.41332
 CYCLE:   345 TIME:   0.617 TIME LEFT:  2.00D  GRAD.:     2.922 HEAT: -38.41396
 CYCLE:   346 TIME:   0.523 TIME LEFT:  2.00D  GRAD.:     3.588 HEAT: -38.41472
 CYCLE:   347 TIME:   0.500 TIME LEFT:  2.00D  GRAD.:     2.307 HEAT: -38.41574
 CYCLE:   348 TIME:   0.508 TIME LEFT:  2.00D  GRAD.:     4.694 HEAT: -38.41726
 CYCLE:   349 TIME:   0.453 TIME LEFT:  2.00D  GRAD.:     3.859 HEAT: -38.41766
 CYCLE:   350 TIME:   0.508 TIME LEFT:  2.00D  GRAD.:     3.166 HEAT: -38.41805
 CYCLE:   351 TIME:   0.469 TIME LEFT:  2.00D  GRAD.:     3.408 HEAT: -38.41893
 CYCLE:   352 TIME:   0.469 TIME LEFT:  2.00D  GRAD.:     2.687 HEAT: -38.41935
 CYCLE:   353 TIME:   0.539 TIME LEFT:  2.00D  GRAD.:     3.496 HEAT: -38.41959
 CYCLE:   354 TIME:   0.539 TIME LEFT:  2.00D  GRAD.:     1.881 HEAT: -38.42009
 CYCLE:   355 TIME:   0.523 TIME LEFT:  2.00D  GRAD.:     3.101 HEAT: -38.42040
 CYCLE:   356 TIME:   0.516 TIME LEFT:  2.00D  GRAD.:     2.672 HEAT: -38.42076
 CYCLE:   357 TIME:   0.492 TIME LEFT:  2.00D  GRAD.:     1.882 HEAT: -38.42149
 CYCLE:   358 TIME:   0.602 TIME LEFT:  2.00D  GRAD.:     2.355 HEAT: -38.42185
 CYCLE:   359 TIME:   0.617 TIME LEFT:  2.00D  GRAD.:     3.563 HEAT: -38.42268
 CYCLE:   360 TIME:   0.461 TIME LEFT:  2.00D  GRAD.:     5.718 HEAT: -38.42317
 CYCLE:   361 TIME:   0.500 TIME LEFT:  2.00D  GRAD.:     4.670 HEAT: -38.42400
 CYCLE:   362 TIME:   0.461 TIME LEFT:  2.00D  GRAD.:     2.247 HEAT: -38.42461
 CYCLE:   363 TIME:   0.461 TIME LEFT:  2.00D  GRAD.:     1.451 HEAT: -38.42479
 CYCLE:   364 TIME:   0.633 TIME LEFT:  2.00D  GRAD.:     2.967 HEAT: -38.42506
 CYCLE:   365 TIME:   0.531 TIME LEFT:  2.00D  GRAD.:     2.022 HEAT: -38.42553
 CYCLE:   366 TIME:   0.508 TIME LEFT:  2.00D  GRAD.:     2.136 HEAT: -38.42607
 CYCLE:   367 TIME:   0.461 TIME LEFT:  2.00D  GRAD.:     8.365 HEAT: -38.42573
 CYCLE:   368 TIME:   0.469 TIME LEFT:  2.00D  GRAD.:     1.592 HEAT: -38.42622
 CYCLE:   369 TIME:   0.500 TIME LEFT:  2.00D  GRAD.:     2.358 HEAT: -38.42598
 CYCLE:   370 TIME:   0.633 TIME LEFT:  2.00D  GRAD.:     1.281 HEAT: -38.42637
 CYCLE:   371 TIME:   0.570 TIME LEFT:  2.00D  GRAD.:     2.611 HEAT: -38.42660
 CYCLE:   372 TIME:   0.453 TIME LEFT:  2.00D  GRAD.:     2.002 HEAT: -38.42680
 CYCLE:   373 TIME:   0.586 TIME LEFT:  2.00D  GRAD.:     3.493 HEAT: -38.42727
 CYCLE:   374 TIME:   0.508 TIME LEFT:  2.00D  GRAD.:     2.721 HEAT: -38.42774
 CYCLE:   375 TIME:   0.602 TIME LEFT:  2.00D  GRAD.:     3.152 HEAT: -38.42798
 CYCLE:   376 TIME:   0.531 TIME LEFT:  2.00D  GRAD.:     3.892 HEAT: -38.42810
 CYCLE:   377 TIME:   0.477 TIME LEFT:  2.00D  GRAD.:     2.056 HEAT: -38.42848
 CYCLE:   378 TIME:   0.477 TIME LEFT:  2.00D  GRAD.:     1.428 HEAT: -38.42892
 CYCLE:   379 TIME:   0.438 TIME LEFT:  2.00D  GRAD.:     3.086 HEAT: -38.42933
 CYCLE:   380 TIME:   0.445 TIME LEFT:  2.00D  GRAD.:     1.904 HEAT: -38.42986
 CYCLE:   381 TIME:   0.508 TIME LEFT:  2.00D  GRAD.:     4.264 HEAT: -38.43001
 CYCLE:   382 TIME:   0.477 TIME LEFT:  2.00D  GRAD.:     1.449 HEAT: -38.43021
 CYCLE:   383 TIME:   0.516 TIME LEFT:  2.00D  GRAD.:     3.245 HEAT: -38.43016
 CYCLE:   384 TIME:   0.477 TIME LEFT:  2.00D  GRAD.:     1.831 HEAT: -38.43039
 CYCLE:   385 TIME:   0.492 TIME LEFT:  2.00D  GRAD.:     2.307 HEAT: -38.43041
 CYCLE:   386 TIME:   0.508 TIME LEFT:  2.00D  GRAD.:     0.958 HEAT: -38.43071
 CYCLE:   387 TIME:   0.492 TIME LEFT:  2.00D  GRAD.:     2.241 HEAT: -38.43085
 CYCLE:   388 TIME:   0.539 TIME LEFT:  2.00D  GRAD.:     1.415 HEAT: -38.43104
 CYCLE:   389 TIME:   0.516 TIME LEFT:  2.00D  GRAD.:     3.692 HEAT: -38.43106
 CYCLE:   390 TIME:   0.469 TIME LEFT:  2.00D  GRAD.:     1.604 HEAT: -38.43150
 CYCLE:   391 TIME:   0.508 TIME LEFT:  2.00D  GRAD.:     3.047 HEAT: -38.43130
 CYCLE:   392 TIME:   0.477 TIME LEFT:  2.00D  GRAD.:     1.819 HEAT: -38.43162
 CYCLE:   393 TIME:   0.547 TIME LEFT:  2.00D  GRAD.:     1.968 HEAT: -38.43171
 CYCLE:   394 TIME:   0.609 TIME LEFT:  2.00D  GRAD.:     0.975 HEAT: -38.43185
 CYCLE:   395 TIME:   0.531 TIME LEFT:  2.00D  GRAD.:     1.282 HEAT: -38.43195
 CYCLE:   396 TIME:   0.586 TIME LEFT:  2.00D  GRAD.:     1.347 HEAT: -38.43210
 CYCLE:   397 TIME:   0.500 TIME LEFT:  2.00D  GRAD.:     7.764 HEAT: -38.43185
 CYCLE:   398 TIME:   0.461 TIME LEFT:  2.00D  GRAD.:     1.607 HEAT: -38.43244
 CYCLE:   399 TIME:   0.469 TIME LEFT:  2.00D  GRAD.:     0.875 HEAT: -38.43249
 CYCLE:   400 TIME:   0.461 TIME LEFT:  2.00D  GRAD.:     0.844 HEAT: -38.43260
 CYCLE:   401 TIME:   0.523 TIME LEFT:  2.00D  GRAD.:     3.490 HEAT: -38.43270
 CYCLE:   402 TIME:   0.500 TIME LEFT:  2.00D  GRAD.:     1.180 HEAT: -38.43305
 CYCLE:   403 TIME:   0.523 TIME LEFT:  2.00D  GRAD.:     1.146 HEAT: -38.43316
 CYCLE:   404 TIME:   0.539 TIME LEFT:  2.00D  GRAD.:     1.472 HEAT: -38.43346
 CYCLE:   405 TIME:   0.469 TIME LEFT:  2.00D  GRAD.:     1.689 HEAT: -38.43377
 CYCLE:   406 TIME:   0.484 TIME LEFT:  2.00D  GRAD.:     1.625 HEAT: -38.43400
 CYCLE:   407 TIME:   0.523 TIME LEFT:  2.00D  GRAD.:     3.302 HEAT: -38.43408
 CYCLE:   408 TIME:   0.492 TIME LEFT:  2.00D  GRAD.:     1.311 HEAT: -38.43422
 CYCLE:   409 TIME:   0.516 TIME LEFT:  2.00D  GRAD.:     1.039 HEAT: -38.43432
 CYCLE:   410 TIME:   0.516 TIME LEFT:  2.00D  GRAD.:     2.454 HEAT: -38.43435
 CYCLE:   411 TIME:   0.602 TIME LEFT:  2.00D  GRAD.:     2.509 HEAT: -38.43451
 CYCLE:   412 TIME:   0.555 TIME LEFT:  2.00D  GRAD.:     3.616 HEAT: -38.43460
 CYCLE:   413 TIME:   0.445 TIME LEFT:  2.00D  GRAD.:     0.887 HEAT: -38.43475
 CYCLE:   414 TIME:   0.516 TIME LEFT:  2.00D  GRAD.:     1.134 HEAT: -38.43479
 CYCLE:   415 TIME:   0.477 TIME LEFT:  2.00D  GRAD.:     1.126 HEAT: -38.43495
 CYCLE:   416 TIME:   0.586 TIME LEFT:  2.00D  GRAD.:     1.444 HEAT: -38.43516
 CYCLE:   417 TIME:   0.461 TIME LEFT:  2.00D  GRAD.:     1.853 HEAT: -38.43528
 CYCLE:   418 TIME:   0.445 TIME LEFT:  2.00D  GRAD.:     1.072 HEAT: -38.43538
 CYCLE:   419 TIME:   0.461 TIME LEFT:  2.00D  GRAD.:     1.351 HEAT: -38.43554
 CYCLE:   420 TIME:   0.484 TIME LEFT:  2.00D  GRAD.:     1.646 HEAT: -38.43566
 CYCLE:   421 TIME:   0.453 TIME LEFT:  2.00D  GRAD.:     1.130 HEAT: -38.43590
 CYCLE:   422 TIME:   0.531 TIME LEFT:  2.00D  GRAD.:     1.279 HEAT: -38.43611
 CYCLE:   423 TIME:   0.547 TIME LEFT:  2.00D  GRAD.:     2.891 HEAT: -38.43623
 CYCLE:   424 TIME:   0.500 TIME LEFT:  2.00D  GRAD.:     2.105 HEAT: -38.43638
 CYCLE:   425 TIME:   0.453 TIME LEFT:  2.00D  GRAD.:     1.261 HEAT: -38.43661
 CYCLE:   426 TIME:   0.422 TIME LEFT:  2.00D  GRAD.:     0.992 HEAT: -38.43672
 CYCLE:   427 TIME:   0.469 TIME LEFT:  2.00D  GRAD.:     1.734 HEAT: -38.43686
 CYCLE:   428 TIME:   0.477 TIME LEFT:  2.00D  GRAD.:     3.596 HEAT: -38.43689
 CYCLE:   429 TIME:   0.539 TIME LEFT:  2.00D  GRAD.:     1.156 HEAT: -38.43703
 CYCLE:   430 TIME:   0.477 TIME LEFT:  2.00D  GRAD.:     0.785 HEAT: -38.43710
 CYCLE:   431 TIME:   0.562 TIME LEFT:  2.00D  GRAD.:     1.250 HEAT: -38.43717
 CYCLE:   432 TIME:   0.617 TIME LEFT:  2.00D  GRAD.:     1.017 HEAT: -38.43724
 CYCLE:   433 TIME:   0.531 TIME LEFT:  2.00D  GRAD.:     0.920 HEAT: -38.43735
 CYCLE:   434 TIME:   0.539 TIME LEFT:  2.00D  GRAD.:     2.749 HEAT: -38.43736
 CYCLE:   435 TIME:   0.469 TIME LEFT:  2.00D  GRAD.:     1.034 HEAT: -38.43756
 CYCLE:   436 TIME:   0.469 TIME LEFT:  2.00D  GRAD.:     0.678 HEAT: -38.43762
 CYCLE:   437 TIME:   0.492 TIME LEFT:  2.00D  GRAD.:     1.530 HEAT: -38.43771
 CYCLE:   438 TIME:   0.531 TIME LEFT:  2.00D  GRAD.:     1.221 HEAT: -38.43781
 CYCLE:   439 TIME:   0.492 TIME LEFT:  2.00D  GRAD.:     1.102 HEAT: -38.43791
 CYCLE:   440 TIME:   0.453 TIME LEFT:  2.00D  GRAD.:     3.622 HEAT: -38.43793
 CYCLE:   441 TIME:   0.469 TIME LEFT:  2.00D  GRAD.:     0.815 HEAT: -38.43809
 CYCLE:   442 TIME:   0.508 TIME LEFT:  2.00D  GRAD.:     0.759 HEAT: -38.43814
 CYCLE:   443 TIME:   0.453 TIME LEFT:  2.00D  GRAD.:     0.761 HEAT: -38.43820
 CYCLE:   444 TIME:   0.523 TIME LEFT:  2.00D  GRAD.:     4.271 HEAT: -38.43814
 CYCLE:   445 TIME:   0.453 TIME LEFT:  2.00D  GRAD.:     1.077 HEAT: -38.43833
 CYCLE:   446 TIME:   0.484 TIME LEFT:  2.00D  GRAD.:     0.900 HEAT: -38.43837
 CYCLE:   447 TIME:   0.523 TIME LEFT:  2.00D  GRAD.:     0.987 HEAT: -38.43846
 CYCLE:   448 TIME:   0.609 TIME LEFT:  2.00D  GRAD.:     1.226 HEAT: -38.43859
 CYCLE:   449 TIME:   0.500 TIME LEFT:  2.00D  GRAD.:     2.139 HEAT: -38.43866
 CYCLE:   450 TIME:   0.461 TIME LEFT:  2.00D  GRAD.:     0.984 HEAT: -38.43878
 CYCLE:   451 TIME:   0.469 TIME LEFT:  2.00D  GRAD.:     0.978 HEAT: -38.43889
 CYCLE:   452 TIME:   0.570 TIME LEFT:  2.00D  GRAD.:     1.139 HEAT: -38.43896
 CYCLE:   453 TIME:   0.523 TIME LEFT:  2.00D  GRAD.:     1.249 HEAT: -38.43906
 CYCLE:   454 TIME:   0.461 TIME LEFT:  2.00D  GRAD.:     4.704 HEAT: -38.43896
 CYCLE:   455 TIME:   0.469 TIME LEFT:  2.00D  GRAD.:     1.119 HEAT: -38.43917
 CYCLE:   456 TIME:   0.438 TIME LEFT:  2.00D  GRAD.:     0.739 HEAT: -38.43921
 CYCLE:   457 TIME:   0.516 TIME LEFT:  2.00D  GRAD.:     0.996 HEAT: -38.43927
 CYCLE:   458 TIME:   0.508 TIME LEFT:  2.00D  GRAD.:     0.974 HEAT: -38.43934
 CYCLE:   459 TIME:   0.523 TIME LEFT:  2.00D  GRAD.:     4.773 HEAT: -38.43929
 CYCLE:   460 TIME:   0.438 TIME LEFT:  2.00D  GRAD.:     1.016 HEAT: -38.43950
 CYCLE:   461 TIME:   0.477 TIME LEFT:  2.00D  GRAD.:     0.801 HEAT: -38.43957
 CYCLE:   462 TIME:   0.461 TIME LEFT:  2.00D  GRAD.:     0.820 HEAT: -38.43973
 CYCLE:   463 TIME:   0.516 TIME LEFT:  2.00D  GRAD.:     1.423 HEAT: -38.43988
 CYCLE:   464 TIME:   0.492 TIME LEFT:  2.00D  GRAD.:     1.431 HEAT: -38.43999
 CYCLE:   465 TIME:   0.523 TIME LEFT:  2.00D  GRAD.:     2.420 HEAT: -38.44013
 CYCLE:   466 TIME:   0.531 TIME LEFT:  2.00D  GRAD.:     1.849 HEAT: -38.44028
 CYCLE:   467 TIME:   0.555 TIME LEFT:  2.00D  GRAD.:     2.768 HEAT: -38.44027
 CYCLE:   468 TIME:   0.477 TIME LEFT:  2.00D  GRAD.:     1.040 HEAT: -38.44042
 CYCLE:   469 TIME:   0.516 TIME LEFT:  2.00D  GRAD.:     2.185 HEAT: -38.44038
 CYCLE:   470 TIME:   0.453 TIME LEFT:  2.00D  GRAD.:     0.598 HEAT: -38.44049
 CYCLE:   471 TIME:   0.445 TIME LEFT:  2.00D  GRAD.:     0.567 HEAT: -38.44053
 CYCLE:   472 TIME:   0.492 TIME LEFT:  2.00D  GRAD.:     2.300 HEAT: -38.44065
 CYCLE:   473 TIME:   0.508 TIME LEFT:  2.00D  GRAD.:     2.850 HEAT: -38.44067
 CYCLE:   474 TIME:   0.578 TIME LEFT:  2.00D  GRAD.:     1.008 HEAT: -38.44077
 CYCLE:   475 TIME:   0.445 TIME LEFT:  2.00D  GRAD.:     0.853 HEAT: -38.44080
 CYCLE:   476 TIME:   0.500 TIME LEFT:  2.00D  GRAD.:     1.076 HEAT: -38.44088
 CYCLE:   477 TIME:   0.508 TIME LEFT:  2.00D  GRAD.:     2.108 HEAT: -38.44105
 CYCLE:   478 TIME:   0.547 TIME LEFT:  2.00D  GRAD.:     3.725 HEAT: -38.44103
 CYCLE:   479 TIME:   0.555 TIME LEFT:  2.00D  GRAD.:     1.402 HEAT: -38.44134
 CYCLE:   480 TIME:   0.492 TIME LEFT:  2.00D  GRAD.:     0.941 HEAT: -38.44143
 CYCLE:   481 TIME:   0.523 TIME LEFT:  2.00D  GRAD.:     1.136 HEAT: -38.44155
 CYCLE:   482 TIME:   0.508 TIME LEFT:  2.00D  GRAD.:     1.272 HEAT: -38.44165
 CYCLE:   483 TIME:   0.461 TIME LEFT:  2.00D  GRAD.:     2.190 HEAT: -38.44176
 CYCLE:   484 TIME:   0.461 TIME LEFT:  2.00D  GRAD.:     1.282 HEAT: -38.44191
 CYCLE:   485 TIME:   0.492 TIME LEFT:  2.00D  GRAD.:     0.881 HEAT: -38.44205
 CYCLE:   486 TIME:   0.445 TIME LEFT:  2.00D  GRAD.:     2.727 HEAT: -38.44211
 CYCLE:   487 TIME:   0.484 TIME LEFT:  2.00D  GRAD.:     1.631 HEAT: -38.44220
 CYCLE:   488 TIME:   0.609 TIME LEFT:  2.00D  GRAD.:     0.968 HEAT: -38.44231
 CYCLE:   489 TIME:   0.609 TIME LEFT:  2.00D  GRAD.:     1.561 HEAT: -38.44237
 CYCLE:   490 TIME:   0.547 TIME LEFT:  2.00D  GRAD.:     1.311 HEAT: -38.44253
 CYCLE:   491 TIME:   0.523 TIME LEFT:  2.00D  GRAD.:     0.937 HEAT: -38.44274
 CYCLE:   492 TIME:   0.547 TIME LEFT:  2.00D  GRAD.:     0.983 HEAT: -38.44285
 CYCLE:   493 TIME:   0.523 TIME LEFT:  2.00D  GRAD.:     0.986 HEAT: -38.44294
 CYCLE:   494 TIME:   0.500 TIME LEFT:  2.00D  GRAD.:     1.275 HEAT: -38.44306
 CYCLE:   495 TIME:   0.641 TIME LEFT:  2.00D  GRAD.:     1.094 HEAT: -38.44321
 CYCLE:   496 TIME:   0.477 TIME LEFT:  2.00D  GRAD.:     1.526 HEAT: -38.44331
 CYCLE:   497 TIME:   0.523 TIME LEFT:  2.00D  GRAD.:     0.895 HEAT: -38.44342
 CYCLE:   498 TIME:   0.484 TIME LEFT:  2.00D  GRAD.:     0.927 HEAT: -38.44354
 CYCLE:   499 TIME:   0.469 TIME LEFT:  2.00D  GRAD.:     1.353 HEAT: -38.44369
 CYCLE:   500 TIME:   0.508 TIME LEFT:  2.00D  GRAD.:     1.832 HEAT: -38.44389
 CYCLE:   501 TIME:   0.445 TIME LEFT:  2.00D  GRAD.:     4.673 HEAT: -38.44392
 CYCLE:   502 TIME:   0.469 TIME LEFT:  2.00D  GRAD.:     1.113 HEAT: -38.44412
 CYCLE:   503 TIME:   0.555 TIME LEFT:  2.00D  GRAD.:     1.374 HEAT: -38.44415
 CYCLE:   504 TIME:   0.484 TIME LEFT:  2.00D  GRAD.:     0.746 HEAT: -38.44424
 CYCLE:   505 TIME:   0.461 TIME LEFT:  2.00D  GRAD.:     1.048 HEAT: -38.44431
 CYCLE:   506 TIME:   0.477 TIME LEFT:  2.00D  GRAD.:     0.830 HEAT: -38.44439
 CYCLE:   507 TIME:   0.508 TIME LEFT:  2.00D  GRAD.:     0.904 HEAT: -38.44457
 CYCLE:   508 TIME:   0.500 TIME LEFT:  2.00D  GRAD.:     1.672 HEAT: -38.44469
 CYCLE:   509 TIME:   0.469 TIME LEFT:  2.00D  GRAD.:     0.960 HEAT: -38.44480
 CYCLE:   510 TIME:   0.492 TIME LEFT:  2.00D  GRAD.:     1.228 HEAT: -38.44493
 CYCLE:   511 TIME:   0.492 TIME LEFT:  2.00D  GRAD.:     1.130 HEAT: -38.44505
 CYCLE:   512 TIME:   0.516 TIME LEFT:  2.00D  GRAD.:     2.337 HEAT: -38.44516
 CYCLE:   513 TIME:   0.469 TIME LEFT:  2.00D  GRAD.:     0.893 HEAT: -38.44532
 CYCLE:   514 TIME:   0.656 TIME LEFT:  2.00D  GRAD.:     0.914 HEAT: -38.44541
 CYCLE:   515 TIME:   0.547 TIME LEFT:  2.00D  GRAD.:     1.293 HEAT: -38.44552
 CYCLE:   516 TIME:   0.578 TIME LEFT:  2.00D  GRAD.:    11.023 HEAT: -38.44497
 CYCLE:   517 TIME:   0.516 TIME LEFT:  2.00D  GRAD.:     4.989 HEAT: -38.44533
 CYCLE:   518 TIME:   0.523 TIME LEFT:  2.00D  GRAD.:     1.528 HEAT: -38.44567
 CYCLE:   519 TIME:   0.555 TIME LEFT:  2.00D  GRAD.:     1.496 HEAT: -38.44571
 CYCLE:   520 TIME:   0.523 TIME LEFT:  2.00D  GRAD.:     1.403 HEAT: -38.44586
 CYCLE:   521 TIME:   0.461 TIME LEFT:  2.00D  GRAD.:     1.939 HEAT: -38.44595
 CYCLE:   522 TIME:   0.531 TIME LEFT:  2.00D  GRAD.:     1.306 HEAT: -38.44606
 CYCLE:   523 TIME:   0.516 TIME LEFT:  2.00D  GRAD.:     1.422 HEAT: -38.44619
 CYCLE:   524 TIME:   0.477 TIME LEFT:  2.00D  GRAD.:     1.203 HEAT: -38.44630
 CYCLE:   525 TIME:   0.461 TIME LEFT:  2.00D  GRAD.:     0.922 HEAT: -38.44650
 CYCLE:   526 TIME:   0.484 TIME LEFT:  2.00D  GRAD.:     1.546 HEAT: -38.44662
 CYCLE:   527 TIME:   0.555 TIME LEFT:  2.00D  GRAD.:     0.869 HEAT: -38.44674
 CYCLE:   528 TIME:   0.531 TIME LEFT:  2.00D  GRAD.:     1.053 HEAT: -38.44685
 CYCLE:   529 TIME:   0.469 TIME LEFT:  2.00D  GRAD.:     0.940 HEAT: -38.44699
 CYCLE:   530 TIME:   0.570 TIME LEFT:  2.00D  GRAD.:     1.308 HEAT: -38.44722
 CYCLE:   531 TIME:   0.508 TIME LEFT:  2.00D  GRAD.:     4.635 HEAT: -38.44724
 CYCLE:   532 TIME:   0.453 TIME LEFT:  2.00D  GRAD.:     7.060 HEAT: -38.44715
 CYCLE:   533 TIME:   0.500 TIME LEFT:  2.00D  GRAD.:     4.903 HEAT: -38.44741
 CYCLE:   534 TIME:   0.461 TIME LEFT:  2.00D  GRAD.:     8.738 HEAT: -38.44721
 CYCLE:   535 TIME:   0.453 TIME LEFT:  2.00D  GRAD.:     1.075 HEAT: -38.44769
 CYCLE:   536 TIME:   0.539 TIME LEFT:  2.00D  GRAD.:     0.796 HEAT: -38.44765
 CYCLE:   537 TIME:   0.484 TIME LEFT:  2.00D  GRAD.:     0.933 HEAT: -38.44779
 CYCLE:   538 TIME:   0.492 TIME LEFT:  2.00D  GRAD.:     1.518 HEAT: -38.44802
 CYCLE:   539 TIME:   0.492 TIME LEFT:  2.00D  GRAD.:     1.079 HEAT: -38.44824
 CYCLE:   540 TIME:   0.500 TIME LEFT:  2.00D  GRAD.:     2.344 HEAT: -38.44837
 CYCLE:   541 TIME:   0.445 TIME LEFT:  2.00D  GRAD.:     0.937 HEAT: -38.44854
 CYCLE:   542 TIME:   0.516 TIME LEFT:  2.00D  GRAD.:     1.413 HEAT: -38.44871
 CYCLE:   543 TIME:   0.523 TIME LEFT:  2.00D  GRAD.:     1.082 HEAT: -38.44882
 CYCLE:   544 TIME:   0.516 TIME LEFT:  2.00D  GRAD.:     1.366 HEAT: -38.44899
 CYCLE:   545 TIME:   0.516 TIME LEFT:  2.00D  GRAD.:     3.596 HEAT: -38.44899
 CYCLE:   546 TIME:   0.453 TIME LEFT:  2.00D  GRAD.:     1.345 HEAT: -38.44926
 CYCLE:   547 TIME:   0.516 TIME LEFT:  2.00D  GRAD.:     0.985 HEAT: -38.44934
 CYCLE:   548 TIME:   0.758 TIME LEFT:  2.00D  GRAD.:     1.524 HEAT: -38.44957
 CYCLE:   549 TIME:   0.562 TIME LEFT:  2.00D  GRAD.:    20.230 HEAT: -38.44746
 CYCLE:   550 TIME:   0.500 TIME LEFT:  2.00D  GRAD.:     1.563 HEAT: -38.44984
 CYCLE:   551 TIME:   0.680 TIME LEFT:  2.00D  GRAD.:     1.295 HEAT: -38.44997
 CYCLE:   552 TIME:   0.562 TIME LEFT:  2.00D  GRAD.:     1.394 HEAT: -38.45041
 CYCLE:   553 TIME:   0.555 TIME LEFT:  2.00D  GRAD.:     1.414 HEAT: -38.45094
 CYCLE:   554 TIME:   0.586 TIME LEFT:  2.00D  GRAD.:     1.791 HEAT: -38.45152
 CYCLE:   555 TIME:   0.516 TIME LEFT:  2.00D  GRAD.:     2.199 HEAT: -38.45203
 CYCLE:   556 TIME:   0.562 TIME LEFT:  2.00D  GRAD.:     4.890 HEAT: -38.45251
 CYCLE:   557 TIME:   0.492 TIME LEFT:  2.00D  GRAD.:     2.865 HEAT: -38.45349
 CYCLE:   558 TIME:   0.500 TIME LEFT:  2.00D  GRAD.:     3.949 HEAT: -38.45317
 CYCLE:   559 TIME:   0.516 TIME LEFT:  2.00D  GRAD.:     6.672 HEAT: -38.45534
 CYCLE:   560 TIME:   0.531 TIME LEFT:  2.00D  GRAD.:     6.484 HEAT: -38.45739
 CYCLE:   561 TIME:   0.523 TIME LEFT:  2.00D  GRAD.:     5.427 HEAT: -38.46017
 CYCLE:   562 TIME:   0.500 TIME LEFT:  2.00D  GRAD.:     4.082 HEAT: -38.46274
 CYCLE:   563 TIME:   0.516 TIME LEFT:  2.00D  GRAD.:    29.196 HEAT: -38.46180
 CYCLE:   564 TIME:   0.516 TIME LEFT:  2.00D  GRAD.:   118.639 HEAT: -38.37579
 CYCLE:   565 TIME:   0.547 TIME LEFT:  2.00D  GRAD.:    89.855 HEAT: -38.41286
 CYCLE:   566 TIME:   0.586 TIME LEFT:  2.00D  GRAD.:    52.889 HEAT: -38.44754
 CYCLE:   567 TIME:   0.531 TIME LEFT:  2.00D  GRAD.:    33.790 HEAT: -38.44608
 CYCLE:   568 TIME:   0.531 TIME LEFT:  2.00D  GRAD.:    15.469 HEAT: -38.46792
 CYCLE:   569 TIME:   0.523 TIME LEFT:  2.00D  GRAD.:    32.833 HEAT: -38.46829
 CYCLE:   570 TIME:   0.539 TIME LEFT:  2.00D  GRAD.:    21.835 HEAT: -38.46908
 CYCLE:   571 TIME:   0.469 TIME LEFT:  2.00D  GRAD.:    13.306 HEAT: -38.47206
 CYCLE:   572 TIME:   0.555 TIME LEFT:  2.00D  GRAD.:    58.968 HEAT: -38.43058
 CYCLE:   573 TIME:   0.586 TIME LEFT:  2.00D  GRAD.:    10.438 HEAT: -38.47425
 CYCLE:   574 TIME:   0.531 TIME LEFT:  2.00D  GRAD.:    19.328 HEAT: -38.47234
 CYCLE:   575 TIME:   0.547 TIME LEFT:  2.00D  GRAD.:     3.790 HEAT: -38.47810
 CYCLE:   576 TIME:   0.516 TIME LEFT:  2.00D  GRAD.:     5.107 HEAT: -38.47875
 CYCLE:   577 TIME:   0.539 TIME LEFT:  2.00D  GRAD.:    10.378 HEAT: -38.48089
 CYCLE:   578 TIME:   0.477 TIME LEFT:  2.00D  GRAD.:    12.673 HEAT: -38.48425
 CYCLE:   579 TIME:   0.531 TIME LEFT:  2.00D  GRAD.:     5.582 HEAT: -38.48886
 CYCLE:   580 TIME:   0.484 TIME LEFT:  2.00D  GRAD.:     6.287 HEAT: -38.49134
 CYCLE:   581 TIME:   0.461 TIME LEFT:  2.00D  GRAD.:     7.191 HEAT: -38.49264
 CYCLE:   582 TIME:   0.516 TIME LEFT:  2.00D  GRAD.:    10.061 HEAT: -38.49651
 CYCLE:   583 TIME:   0.469 TIME LEFT:  2.00D  GRAD.:    17.568 HEAT: -38.49936
 CYCLE:   584 TIME:   0.445 TIME LEFT:  2.00D  GRAD.:     5.505 HEAT: -38.50321
 CYCLE:   585 TIME:   0.484 TIME LEFT:  2.00D  GRAD.:     4.068 HEAT: -38.50437
 CYCLE:   586 TIME:   0.484 TIME LEFT:  2.00D  GRAD.:     4.185 HEAT: -38.50553
 CYCLE:   587 TIME:   0.844 TIME LEFT:  2.00D  GRAD.:     6.629 HEAT: -38.50789
 CYCLE:   588 TIME:   0.578 TIME LEFT:  2.00D  GRAD.:     9.953 HEAT: -38.51019
 CYCLE:   589 TIME:   0.508 TIME LEFT:  2.00D  GRAD.:     5.519 HEAT: -38.51259
 CYCLE:   590 TIME:   0.461 TIME LEFT:  2.00D  GRAD.:     3.972 HEAT: -38.51458
 CYCLE:   591 TIME:   0.469 TIME LEFT:  2.00D  GRAD.:     3.958 HEAT: -38.51594
 CYCLE:   592 TIME:   0.477 TIME LEFT:  2.00D  GRAD.:     3.858 HEAT: -38.51834
 CYCLE:   593 TIME:   0.523 TIME LEFT:  2.00D  GRAD.:    33.087 HEAT: -38.50498
 CYCLE:   594 TIME:   0.484 TIME LEFT:  2.00D  GRAD.:     5.124 HEAT: -38.52220
 CYCLE:   595 TIME:   0.477 TIME LEFT:  2.00D  GRAD.:     3.385 HEAT: -38.52305
 CYCLE:   596 TIME:   0.531 TIME LEFT:  2.00D  GRAD.:     3.935 HEAT: -38.52473
 CYCLE:   597 TIME:   0.469 TIME LEFT:  2.00D  GRAD.:     3.639 HEAT: -38.52594
 CYCLE:   598 TIME:   0.523 TIME LEFT:  2.00D  GRAD.:    19.078 HEAT: -38.52652
 CYCLE:   599 TIME:   0.461 TIME LEFT:  2.00D  GRAD.:     5.700 HEAT: -38.53038
 CYCLE:   600 TIME:   0.555 TIME LEFT:  2.00D  GRAD.:     3.007 HEAT: -38.53255
 CYCLE:   601 TIME:   0.430 TIME LEFT:  2.00D  GRAD.:     3.411 HEAT: -38.53431
 CYCLE:   602 TIME:   0.523 TIME LEFT:  2.00D  GRAD.:    13.665 HEAT: -38.53492
 CYCLE:   603 TIME:   0.492 TIME LEFT:  2.00D  GRAD.:     9.095 HEAT: -38.53720
 CYCLE:   604 TIME:   0.523 TIME LEFT:  2.00D  GRAD.:     5.077 HEAT: -38.53935
 CYCLE:   605 TIME:   0.609 TIME LEFT:  2.00D  GRAD.:     5.276 HEAT: -38.54132
 CYCLE:   606 TIME:   0.461 TIME LEFT:  2.00D  GRAD.:     4.538 HEAT: -38.54288
 CYCLE:   607 TIME:   0.508 TIME LEFT:  2.00D  GRAD.:     5.993 HEAT: -38.54607
 CYCLE:   608 TIME:   0.461 TIME LEFT:  2.00D  GRAD.:     4.264 HEAT: -38.54895
 CYCLE:   609 TIME:   0.461 TIME LEFT:  2.00D  GRAD.:     5.717 HEAT: -38.55079
 CYCLE:   610 TIME:   0.484 TIME LEFT:  2.00D  GRAD.:     4.554 HEAT: -38.55245
 CYCLE:   611 TIME:   0.477 TIME LEFT:  2.00D  GRAD.:     6.010 HEAT: -38.55461
 CYCLE:   612 TIME:   0.523 TIME LEFT:  2.00D  GRAD.:     7.738 HEAT: -38.55720
 CYCLE:   613 TIME:   0.484 TIME LEFT:  2.00D  GRAD.:     4.549 HEAT: -38.55899
 CYCLE:   614 TIME:   0.469 TIME LEFT:  2.00D  GRAD.:     4.146 HEAT: -38.56074
 CYCLE:   615 TIME:   0.430 TIME LEFT:  2.00D  GRAD.:     5.711 HEAT: -38.56467
 CYCLE:   616 TIME:   0.453 TIME LEFT:  2.00D  GRAD.:     6.132 HEAT: -38.56766
 CYCLE:   617 TIME:   0.703 TIME LEFT:  2.00D  GRAD.:     4.146 HEAT: -38.56922
 CYCLE:   618 TIME:   0.453 TIME LEFT:  2.00D  GRAD.:     3.202 HEAT: -38.57019
 CYCLE:   619 TIME:   0.469 TIME LEFT:  2.00D  GRAD.:     4.164 HEAT: -38.57244
 CYCLE:   620 TIME:   0.469 TIME LEFT:  2.00D  GRAD.:     7.794 HEAT: -38.57498
 CYCLE:   621 TIME:   0.477 TIME LEFT:  2.00D  GRAD.:     3.800 HEAT: -38.57742
 CYCLE:   622 TIME:   0.484 TIME LEFT:  2.00D  GRAD.:     2.884 HEAT: -38.57901
 CYCLE:   623 TIME:   0.469 TIME LEFT:  2.00D  GRAD.:     4.066 HEAT: -38.58067
 CYCLE:   624 TIME:   0.500 TIME LEFT:  2.00D  GRAD.:     4.147 HEAT: -38.58322
 CYCLE:   625 TIME:   0.500 TIME LEFT:  2.00D  GRAD.:    12.210 HEAT: -38.58437
 CYCLE:   626 TIME:   0.531 TIME LEFT:  2.00D  GRAD.:     4.222 HEAT: -38.58592
 CYCLE:   627 TIME:   0.477 TIME LEFT:  2.00D  GRAD.:     5.119 HEAT: -38.58669
 CYCLE:   628 TIME:   0.453 TIME LEFT:  2.00D  GRAD.:     4.432 HEAT: -38.58758
 CYCLE:   629 TIME:   0.500 TIME LEFT:  2.00D  GRAD.:    12.143 HEAT: -38.59001
 CYCLE:   630 TIME:   0.453 TIME LEFT:  2.00D  GRAD.:     9.108 HEAT: -38.59190
 CYCLE:   631 TIME:   0.445 TIME LEFT:  2.00D  GRAD.:     3.228 HEAT: -38.59342
 CYCLE:   632 TIME:   0.586 TIME LEFT:  2.00D  GRAD.:     2.476 HEAT: -38.59406
 CYCLE:   633 TIME:   0.508 TIME LEFT:  2.00D  GRAD.:     2.715 HEAT: -38.59495
 CYCLE:   634 TIME:   0.477 TIME LEFT:  2.00D  GRAD.:     6.087 HEAT: -38.59659
 CYCLE:   635 TIME:   0.477 TIME LEFT:  2.00D  GRAD.:     4.974 HEAT: -38.59844
 CYCLE:   636 TIME:   0.453 TIME LEFT:  2.00D  GRAD.:     3.108 HEAT: -38.59969
 CYCLE:   637 TIME:   0.500 TIME LEFT:  2.00D  GRAD.:     2.504 HEAT: -38.60121
 CYCLE:   638 TIME:   0.477 TIME LEFT:  2.00D  GRAD.:     4.331 HEAT: -38.60254
 CYCLE:   639 TIME:   0.562 TIME LEFT:  2.00D  GRAD.:     5.146 HEAT: -38.60429
 CYCLE:   640 TIME:   0.516 TIME LEFT:  2.00D  GRAD.:    12.499 HEAT: -38.60413
 CYCLE:   641 TIME:   0.461 TIME LEFT:  2.00D  GRAD.:     2.827 HEAT: -38.60595
 CYCLE:   642 TIME:   0.469 TIME LEFT:  2.00D  GRAD.:     2.732 HEAT: -38.60626
 CYCLE:   643 TIME:   0.484 TIME LEFT:  2.00D  GRAD.:     3.522 HEAT: -38.60697
 CYCLE:   644 TIME:   0.477 TIME LEFT:  2.00D  GRAD.:     3.070 HEAT: -38.60806
 CYCLE:   645 TIME:   0.461 TIME LEFT:  2.00D  GRAD.:    13.969 HEAT: -38.60757
 CYCLE:   646 TIME:   0.461 TIME LEFT:  2.00D  GRAD.:     2.817 HEAT: -38.60952
 CYCLE:   647 TIME:   0.508 TIME LEFT:  2.00D  GRAD.:     2.383 HEAT: -38.60984
 CYCLE:   648 TIME:   0.523 TIME LEFT:  2.00D  GRAD.:     3.923 HEAT: -38.61061
 CYCLE:   649 TIME:   0.453 TIME LEFT:  2.00D  GRAD.:     4.128 HEAT: -38.61145
 CYCLE:   650 TIME:   0.617 TIME LEFT:  2.00D  GRAD.:     3.438 HEAT: -38.61313
 CYCLE:   651 TIME:   0.477 TIME LEFT:  2.00D  GRAD.:     5.937 HEAT: -38.61364
 CYCLE:   652 TIME:   0.461 TIME LEFT:  2.00D  GRAD.:     2.275 HEAT: -38.61473
 CYCLE:   653 TIME:   0.711 TIME LEFT:  2.00D  GRAD.:     2.749 HEAT: -38.61532
 CYCLE:   654 TIME:   0.586 TIME LEFT:  2.00D  GRAD.:     3.268 HEAT: -38.61670
 CYCLE:   655 TIME:   0.578 TIME LEFT:  2.00D  GRAD.:    12.165 HEAT: -38.61571
 CYCLE:   656 TIME:   0.547 TIME LEFT:  2.00D  GRAD.:     4.968 HEAT: -38.61864
 CYCLE:   657 TIME:   0.469 TIME LEFT:  2.00D  GRAD.:     2.419 HEAT: -38.61873
 CYCLE:   658 TIME:   0.484 TIME LEFT:  2.00D  GRAD.:     1.952 HEAT: -38.61934
 CYCLE:   659 TIME:   0.562 TIME LEFT:  2.00D  GRAD.:     2.460 HEAT: -38.62033
 CYCLE:   660 TIME:   0.492 TIME LEFT:  2.00D  GRAD.:    36.537 HEAT: -38.61162
 CYCLE:   661 TIME:   0.500 TIME LEFT:  2.00D  GRAD.:     2.652 HEAT: -38.62106
 CYCLE:   662 TIME:   0.523 TIME LEFT:  2.00D  GRAD.:     2.180 HEAT: -38.62132
 CYCLE:   663 TIME:   0.492 TIME LEFT:  2.00D  GRAD.:     2.703 HEAT: -38.62221
 CYCLE:   664 TIME:   0.531 TIME LEFT:  2.00D  GRAD.:     4.696 HEAT: -38.62269
 CYCLE:   665 TIME:   0.688 TIME LEFT:  2.00D  GRAD.:     2.087 HEAT: -38.62343
 CYCLE:   666 TIME:   0.555 TIME LEFT:  2.00D  GRAD.:     1.589 HEAT: -38.62385
 CYCLE:   667 TIME:   0.461 TIME LEFT:  2.00D  GRAD.:     2.433 HEAT: -38.62438
 CYCLE:   668 TIME:   0.484 TIME LEFT:  2.00D  GRAD.:     2.678 HEAT: -38.62519
 CYCLE:   669 TIME:   0.500 TIME LEFT:  2.00D  GRAD.:     7.897 HEAT: -38.62531
 CYCLE:   670 TIME:   0.586 TIME LEFT:  2.00D  GRAD.:     2.268 HEAT: -38.62668
 CYCLE:   671 TIME:   0.578 TIME LEFT:  2.00D  GRAD.:     1.689 HEAT: -38.62714
 CYCLE:   672 TIME:   0.531 TIME LEFT:  2.00D  GRAD.:     1.811 HEAT: -38.62766
 CYCLE:   673 TIME:   0.508 TIME LEFT:  2.00D  GRAD.:     4.302 HEAT: -38.62853
 CYCLE:   674 TIME:   0.531 TIME LEFT:  2.00D  GRAD.:    20.666 HEAT: -38.62630
 CYCLE:   675 TIME:   0.492 TIME LEFT:  2.00D  GRAD.:     2.936 HEAT: -38.62913
 CYCLE:   676 TIME:   0.531 TIME LEFT:  2.00D  GRAD.:     1.961 HEAT: -38.62930
 CYCLE:   677 TIME:   0.539 TIME LEFT:  2.00D  GRAD.:     8.262 HEAT: -38.62904
 CYCLE:   678 TIME:   0.508 TIME LEFT:  2.00D  GRAD.:     2.357 HEAT: -38.62996
 CYCLE:   679 TIME:   0.477 TIME LEFT:  2.00D  GRAD.:     1.396 HEAT: -38.63018
 CYCLE:   680 TIME:   0.531 TIME LEFT:  2.00D  GRAD.:     1.626 HEAT: -38.63045
 CYCLE:   681 TIME:   0.461 TIME LEFT:  2.00D  GRAD.:     1.600 HEAT: -38.63085
 CYCLE:   682 TIME:   0.484 TIME LEFT:  2.00D  GRAD.:     8.725 HEAT: -38.62934
 CYCLE:   683 TIME:   0.500 TIME LEFT:  2.00D  GRAD.:     1.963 HEAT: -38.63155
 CYCLE:   684 TIME:   0.500 TIME LEFT:  2.00D  GRAD.:     1.560 HEAT: -38.63182
 CYCLE:   685 TIME:   0.602 TIME LEFT:  2.00D  GRAD.:     2.584 HEAT: -38.63250
 CYCLE:   686 TIME:   0.469 TIME LEFT:  2.00D  GRAD.:     3.880 HEAT: -38.63306
 CYCLE:   687 TIME:   0.539 TIME LEFT:  2.00D  GRAD.:     2.589 HEAT: -38.63353
 CYCLE:   688 TIME:   0.500 TIME LEFT:  2.00D  GRAD.:     2.123 HEAT: -38.63437
 CYCLE:   689 TIME:   0.477 TIME LEFT:  2.00D  GRAD.:     8.423 HEAT: -38.63421
 CYCLE:   690 TIME:   0.539 TIME LEFT:  2.00D  GRAD.:     2.416 HEAT: -38.63483
 CYCLE:   691 TIME:   0.578 TIME LEFT:  2.00D  GRAD.:     2.273 HEAT: -38.63499
 CYCLE:   692 TIME:   0.508 TIME LEFT:  2.00D  GRAD.:     3.891 HEAT: -38.63532
 CYCLE:   693 TIME:   0.461 TIME LEFT:  2.00D  GRAD.:     2.468 HEAT: -38.63595
 CYCLE:   694 TIME:   0.469 TIME LEFT:  2.00D  GRAD.:     2.141 HEAT: -38.63646
 CYCLE:   695 TIME:   0.484 TIME LEFT:  2.00D  GRAD.:     2.876 HEAT: -38.63710
 CYCLE:   696 TIME:   0.461 TIME LEFT:  2.00D  GRAD.:     2.262 HEAT: -38.63759
 CYCLE:   697 TIME:   0.477 TIME LEFT:  2.00D  GRAD.:     2.311 HEAT: -38.63821
 CYCLE:   698 TIME:   0.461 TIME LEFT:  2.00D  GRAD.:     3.066 HEAT: -38.63882
 CYCLE:   699 TIME:   0.500 TIME LEFT:  2.00D  GRAD.:     3.384 HEAT: -38.63935
 CYCLE:   700 TIME:   0.594 TIME LEFT:  2.00D  GRAD.:     3.620 HEAT: -38.63996
 CYCLE:   701 TIME:   0.492 TIME LEFT:  2.00D  GRAD.:     5.000 HEAT: -38.64038
 CYCLE:   702 TIME:   0.469 TIME LEFT:  2.00D  GRAD.:     2.597 HEAT: -38.64129
 CYCLE:   703 TIME:   0.484 TIME LEFT:  2.00D  GRAD.:     2.554 HEAT: -38.64214
 CYCLE:   704 TIME:   0.562 TIME LEFT:  2.00D  GRAD.:     6.067 HEAT: -38.64226
 CYCLE:   705 TIME:   0.602 TIME LEFT:  2.00D  GRAD.:     2.948 HEAT: -38.64276
 CYCLE:   706 TIME:   0.492 TIME LEFT:  2.00D  GRAD.:     1.772 HEAT: -38.64296
 CYCLE:   707 TIME:   0.492 TIME LEFT:  2.00D  GRAD.:     2.415 HEAT: -38.64342
 CYCLE:   708 TIME:   0.445 TIME LEFT:  2.00D  GRAD.:     2.985 HEAT: -38.64380
 CYCLE:   709 TIME:   0.492 TIME LEFT:  2.00D  GRAD.:     3.422 HEAT: -38.64433
 CYCLE:   710 TIME:   0.484 TIME LEFT:  2.00D  GRAD.:    16.886 HEAT: -38.64019
 CYCLE:   711 TIME:   0.477 TIME LEFT:  2.00D  GRAD.:     2.753 HEAT: -38.64544
 CYCLE:   712 TIME:   0.562 TIME LEFT:  2.00D  GRAD.:     1.634 HEAT: -38.64575
 CYCLE:   713 TIME:   0.477 TIME LEFT:  2.00D  GRAD.:     2.444 HEAT: -38.64655
 CYCLE:   714 TIME:   0.461 TIME LEFT:  2.00D  GRAD.:     3.357 HEAT: -38.64699
 CYCLE:   715 TIME:   0.469 TIME LEFT:  2.00D  GRAD.:     1.859 HEAT: -38.64748
 CYCLE:   716 TIME:   0.586 TIME LEFT:  2.00D  GRAD.:     1.914 HEAT: -38.64776
 CYCLE:   717 TIME:   0.500 TIME LEFT:  2.00D  GRAD.:     2.392 HEAT: -38.64859
 CYCLE:   718 TIME:   0.516 TIME LEFT:  2.00D  GRAD.:    12.349 HEAT: -38.64856
 CYCLE:   719 TIME:   0.539 TIME LEFT:  2.00D  GRAD.:     2.168 HEAT: -38.64961
 CYCLE:   720 TIME:   0.547 TIME LEFT:  2.00D  GRAD.:     3.829 HEAT: -38.64945
 CYCLE:   721 TIME:   0.555 TIME LEFT:  2.00D  GRAD.:     1.501 HEAT: -38.64980
 CYCLE:   722 TIME:   0.672 TIME LEFT:  2.00D  GRAD.:     3.584 HEAT: -38.64999
 CYCLE:   723 TIME:   0.516 TIME LEFT:  2.00D  GRAD.:     2.240 HEAT: -38.65017
 CYCLE:   724 TIME:   0.703 TIME LEFT:  2.00D  GRAD.:     6.671 HEAT: -38.64974
 CYCLE:   725 TIME:   0.516 TIME LEFT:  2.00D  GRAD.:     2.776 HEAT: -38.65021
 CYCLE:   726 TIME:   0.516 TIME LEFT:  2.00D  GRAD.:     8.118 HEAT: -38.64959
 CYCLE:   727 TIME:   0.492 TIME LEFT:  2.00D  GRAD.:     3.923 HEAT: -38.65034
 CYCLE:   728 TIME:   0.500 TIME LEFT:  2.00D  GRAD.:     2.029 HEAT: -38.65107
 CYCLE:   729 TIME:   0.469 TIME LEFT:  2.00D  GRAD.:     2.573 HEAT: -38.65130
 CYCLE:   730 TIME:   0.492 TIME LEFT:  2.00D  GRAD.:    11.148 HEAT: -38.65105
 CYCLE:   731 TIME:   0.594 TIME LEFT:  2.00D  GRAD.:     3.228 HEAT: -38.65216
 CYCLE:   732 TIME:   0.516 TIME LEFT:  2.00D  GRAD.:     2.640 HEAT: -38.65239
 CYCLE:   733 TIME:   0.500 TIME LEFT:  2.00D  GRAD.:     3.264 HEAT: -38.65304
 CYCLE:   734 TIME:   0.484 TIME LEFT:  2.00D  GRAD.:     8.056 HEAT: -38.65269
[...]
  116          H           0.064062        0.9359     0.93594
  117          H           0.060488        0.9395     0.93951
  118          H           0.059943        0.9401     0.94006
  119          H           0.058445        0.9416     0.94155
  120          H           0.057517        0.9425     0.94248
  121          H           0.067137        0.9329     0.93286
  122          H           0.061067        0.9389     0.93893
  123          H           0.058584        0.9414     0.94142
  124          H           0.058242        0.9418     0.94176
  125          H           0.055873        0.9441     0.94413
  126          H           0.056722        0.9433     0.94328
  127          H           0.137695        0.8623     0.86231
  128          H           0.122302        0.8777     0.87770
  
 DIPOLE           X         Y         Z       TOTAL
 POINT-CHG.    -3.072     1.010     3.959     5.112
 HYBRID         2.056     0.614     1.598     2.675
 SUM           -1.016     1.624     5.556     5.877


          ATOMIC ORBITAL ELECTRON POPULATIONS

     Atom    s        px        py        pz   
    1  C   1.15574   0.96464   1.02871   1.02819
    2  C   1.16681   0.95269   0.96611   1.02715
    3  C   1.17112   0.95304   0.97112   1.02861
    4  C   1.17106   0.95749   0.96596   1.03022
    5  C   1.17087   0.95171   0.97292   1.03024
    6  C   1.16975   0.95811   0.95907   1.03196
    7  C   1.17968   1.02869   0.96126   0.99638
    8  C   1.16058   0.91491   0.88389   0.98626
    9  N   1.52434   1.15602   1.11873   1.47947
   10  C   1.15477   0.82999   0.94211   0.94515
   11  C   1.17101   0.97975   0.98094   1.04392
   12  C   1.17624   0.93152   0.96687   0.96675
   13  C   1.14911   0.91493   0.96648   1.04707
   14  C   1.17269   0.94261   0.96399   0.92955
   15  C   1.15928   0.94794   0.95246   1.04993
   16  C   1.15650   0.92705   0.93985   1.01851
   17  C   1.15120   0.93764   0.85997   0.97063
   18  C   1.14165   0.92614   0.93681   1.01719
   19  C   1.15725   0.93009   1.02901   0.96068
   20  C   1.17790   0.92223   0.96144   0.98383
   21  C   1.17855   0.97902   1.04520   0.96859
   22  C   1.17098   0.82500   0.93382   0.92906
   23  C   1.17771   0.94790   1.09449   1.00411
   24  C   1.17619   0.95506   0.95298   0.95472
   25  O   1.86020   1.21807   1.65623   1.50458
   26  C   1.17404   0.99951   0.89006   0.89028
   27  C   1.16365   1.04594   0.97333   1.04933
   28  C   1.15834   0.92648   0.93756   1.00929
   29  C   1.15381   0.93476   0.87487   0.96603
   30  C   1.14125   0.92488   0.93461   1.01639
   31  C   1.15739   0.93222   1.02851   0.95819
   32  C   1.17787   0.96032   0.95057   0.95883
   33  C   1.17822   0.93344   1.05574   1.00456
   34  C   1.17039   0.83955   0.92044   0.92791
   35  C   1.17770   0.99437   1.06967   0.98764
   36  C   1.17658   0.91845   0.95877   0.97961
   37  O   1.85994   1.19259   1.81067   1.37821
   38  C   1.17573   0.87483   0.99514   0.90714
   39  C   1.15789   0.97860   1.02985   1.02698
   40  N   1.54946   1.17165   1.09906   1.45635
   41  C   1.15654   0.82928   0.94463   0.95868
   42  C   1.15996   0.94797   0.94918   1.04535
   43  C   1.17280   0.94080   0.97109   0.94592
   44  C   1.17847   0.99758   0.95486   1.03435
   45  C   1.17641   0.93381   0.97292   0.96742
   46  C   1.17108   0.97960   0.97884   1.04253
   47  C   1.16107   0.93286   0.88886   0.97070
   48  C   1.17973   1.00177   0.99544   0.98834
   49  C   1.17005   1.00275   0.96035   0.98592
   50  C   1.17083   0.97195   0.98811   0.99184
   51  C   1.17108   0.94949   1.01783   0.98328
   52  C   1.17048   0.98359   0.95749   1.00970
   53  C   1.16699   0.98833   0.95546   1.00059
   54  C   1.15598   0.99450   1.01992   1.00757
   55  C   1.22037   0.98112   1.03626   1.00969
   56  C   1.18214   0.91512   1.04693   1.01420
   57  C   1.18457   0.98483   0.92595   0.91382
   58  C   1.21799   1.02857   1.17504   1.03840
   59  S   1.88248   0.91375   1.54035   1.09616
   60  C   1.17039   0.96480   0.83945   0.85792
   61  C   1.14044   0.91348   1.10797   1.01954
   62  C   1.17941   0.86423   0.75057   0.79677
   63  O   1.91042   1.20889   1.51053   1.75523
   64  O   1.84009   1.44657   1.65528   1.37124
   65  C   1.19483   0.91447   0.91769   0.91958
   66  N   1.84836   1.11666   1.10002   1.08772
   67  H   0.87174
   68  H   0.94144
   69  H   0.94305
   70  H   0.94402
   71  H   0.94010
   72  H   0.93868
   73  H   0.93648
   74  H   0.93995
   75  H   0.93753
   76  H   0.93660
   77  H   0.93648
   78  H   0.93624
   79  H   0.93487
   80  H   0.93666
   81  H   0.92427
   82  H   0.91922
   83  H   0.92153
   84  H   0.90521
   85  H   0.87675
   86  H   0.89067
   87  H   0.87465
   88  H   0.88237
   89  H   0.86839
   90  H   0.87612
   91  H   0.88671
   92  H   0.94049
   93  H   0.91570
   94  H   0.91887
   95  H   0.92424
   96  H   0.92757
   97  H   0.88301
   98  H   0.86783
   99  H   0.87737
  100  H   0.88399
  101  H   0.94349
  102  H   0.94689
  103  H   0.92223
  104  H   0.92290
  105  H   0.93160
  106  H   0.88174
  107  H   0.89195
  108  H   0.90058
  109  H   0.88265
  110  H   0.92135
  111  H   0.90757
  112  H   0.92495
  113  H   0.92169
  114  H   0.92833
  115  H   0.93935
  116  H   0.93594
  117  H   0.93951
  118  H   0.94006
  119  H   0.94155
  120  H   0.94248
  121  H   0.93286
  122  H   0.93893
  123  H   0.94142
  124  H   0.94176
  125  H   0.94413
  126  H   0.94328
  127  H   0.86231
  128  H   0.87770
  129  H   0.75677
 ******************** TDHF POLARIZABILITIES ********************



          MOLECULAR WEIGHT =  898.21



          ROTATIONAL CONSTANTS IN CM(-1)

          A =    0.00095714   B =    0.00070325   C =    0.00042271



           PRINCIPAL MOMENTS OF INERTIA IN UNITS OF 10**(-40)*GRAM-CM**2

          A =    29246.1173   B =    39805.0001   C =    66222.4888


 ROTATION MATRIX FOR ORIENTATION OF MOLECULE:

         0.893887   -0.046933    0.445829
         0.207948    0.924447   -0.319616
        -0.397145    0.378410    0.836111


          CARTESIAN COORDINATES 

    NO.       ATOM         X         Y         Z

     1         C       -9.8240   -6.4140   -0.1890
     2         C       -8.4653   -6.4853    0.4887
     3         C       -7.6847   -5.1911    0.2737
     4         C       -6.3177   -5.2636    0.9495
     5         C       -5.5408   -3.9633    0.7468
     6         C       -4.1560   -4.0660    1.3782
     7         C       -3.3921   -2.7467    1.3153
     8         C       -3.1505   -2.3052   -0.1374
     9         N       -1.9440   -1.4880   -0.2731
    10         C       -0.6664   -2.0399   -0.0615
    11         C       -0.2784   -3.3800   -0.0786
    12         C        1.0654   -3.6596    0.0888
    13         C        2.0065   -2.6348    0.2765
    14         C        1.6176   -1.2973    0.3060
    15         C        0.2765   -0.9968    0.1393
    16         C       -0.4609    0.2435    0.1225
    17         C       -1.8361   -0.0862   -0.0883
    18         C       -2.8165    0.9006   -0.1567
    19         C       -4.2337    0.6360   -0.3767
    20         C       -4.7234    0.5365   -1.6807
    21         C       -6.0791    0.3728   -1.9035
    22         C       -6.9505    0.3222   -0.8050
    23         C       -6.4706    0.4003    0.4995
    24         C       -5.1028    0.5521    0.7049
    25         O       -8.2647    0.2551   -1.1611
    26         C       -9.2051   -0.0789   -0.1699
    27         C       -9.0793   -1.5407    0.2328
    28         C       -2.3875    2.2116   -0.0130
    29         C       -1.0125    2.5412    0.2018
    30         C       -0.0342    1.5553    0.2743
    31         C        1.3768    1.8388    0.5096
    32         C        2.2567    1.9413   -0.5703
    33         C        3.5977    2.2016   -0.3519
    34         C        4.0575    2.3532    0.9653
    35         C        3.1917    2.2416    2.0497
    36         C        1.8454    1.9830    1.8098
    37         O        5.3985    2.5804    1.0458
    38         C        5.9149    2.9844    2.2983
    39         C        7.3689    3.3467    2.0126
    40         N       -0.8971    3.9433    0.4115
    41         C       -2.1798    4.4968    0.1698
    42         C       -3.1214    3.4559   -0.0372
    43         C       -4.4601    3.7636   -0.2211
    44         C       -4.8441    5.0972   -0.2019
    45         C       -3.9085    6.1148   -0.0032
    46         C       -2.5634    5.8350    0.1837
    47         C        0.3054    4.7284    0.1121
    48         C        0.4789    4.9674   -1.3930
    49         C        1.7727    5.7232   -1.6854
    50         C        1.7594    7.1561   -1.1467
    51         C        2.6829    7.3421    0.0566
    52         C        4.1543    7.4369   -0.3443
    53         C        4.5239    8.8370   -0.8285
    54         C        5.9873    8.8950   -1.2376
    55         C        3.4008   -2.9631    0.4507
    56         C        4.2683   -2.3331    1.3087
    57         C        5.5774   -2.8789    1.2264
    58         C        5.6563   -3.9120    0.3147
    59         S        4.1560   -4.1961   -0.4386
    60         C        6.8712   -4.6183    0.0574
    61         C        6.9953   -5.7448   -0.6780
    62         C        8.3229   -6.3449   -0.8499
    63         O        9.3774   -5.9345   -0.3841
    64         O        8.3266   -7.4612   -1.6072
    65         C        5.9072   -6.4033   -1.2990
    66         N        5.0365   -6.9634   -1.8155
    67         H        7.7733   -4.1810    0.5186
    68         H       -9.7412   -6.2614   -1.2748
    69         H      -10.4022   -7.3381   -0.0444
    70         H      -10.4420   -5.5921    0.2005
    71         H       -8.5893   -6.6900    1.5732
    72         H       -7.8913   -7.3546    0.1035
    73         H       -7.5703   -4.9880   -0.8122
    74         H       -8.2628   -4.3250    0.6613
    75         H       -6.4347   -5.4787    2.0328
    76         H       -5.7383   -6.1244    0.5534
    77         H       -5.4649   -3.7316   -0.3361
    78         H       -6.0987   -3.1069    1.1807
    79         H       -4.2425   -4.3863    2.4393
    80         H       -3.5678   -4.8758    0.8951
    81         H       -3.9326   -1.9502    1.8698
    82         H       -2.4314   -2.8584    1.8642
    83         H       -3.0366   -3.1826   -0.8178
    84         H       -4.0276   -1.7503   -0.5388
    85         H       -1.0017   -4.1861   -0.2168
    86         H        1.3964   -4.7038    0.0837
    87         H        2.3534   -0.5005    0.4482
    88         H       -4.0323    0.5968   -2.5278
    89         H       -6.4715    0.3000   -2.9222
    90         H       -7.1322    0.3631    1.3677
    91         H       -4.7126    0.6240    1.7254
    92         H       -9.1743    0.6051    0.7073
    93         H      -10.1673    0.1256   -0.6892
    94         H       -9.1330   -2.2125   -0.6366
    95         H       -8.1311   -1.7619    0.7426
    96         H       -9.8875   -1.8353    0.9171
    97         H        1.8827    1.8138   -1.5915
    98         H        4.2941    2.2840   -1.1917
    99         H        3.5269    2.3441    3.0836
   100         H        1.1520    1.8931    2.6525
   101         H        5.3593    3.8533    2.7186
   102         H        5.8460    2.1609    3.0446
   103         H        7.9364    2.4989    1.6027
   104         H        7.4578    4.1675    1.2865
   105         H        7.8789    3.6668    2.9320
   106         H       -5.2017    2.9765   -0.3827
   107         H       -5.8960    5.3580   -0.3471
   108         H       -4.2447    7.1565    0.0027
   109         H       -1.8431    6.6408    0.3358
   110         H        0.2272    5.6897    0.6712
   111         H        1.1979    4.2253    0.5467
   112         H        0.4825    3.9945   -1.9314
   113         H       -0.3981    5.5094   -1.8066
   114         H        2.6400    5.1460   -1.2998
   115         H        1.9360    5.7382   -2.7850
   116         H        2.0389    7.8658   -1.9540
   117         H        0.7276    7.4717   -0.8806
   118         H        2.3831    8.2460    0.6290
   119         H        2.5411    6.5104    0.7797
   120         H        4.7968    7.1608    0.5195
   121         H        4.4018    6.6840   -1.1213
   122         H        3.8805    9.1462   -1.6784
   123         H        4.3204    9.5895   -0.0371
   124         H        6.2192    8.2009   -2.0582
   125         H        6.2760    9.8982   -1.5833
   126         H        6.6631    8.6417   -0.4080
   127         H        4.0025   -1.5220    1.9821
   128         H        6.4091   -2.5144    1.8267
   129         H        9.2217   -7.8198   -1.6924


 ENERGY OF "REORIENTED" SYSTEM WITHOUT FIELD:      -38.6788026544


  NFREQ=  3  IWFLB=  0  IBET=  1  IGAM=  1
  ATOL= 0.10000D-02  BTOL= 0.10000D-02    MAXITU=  500    MAXITA=  150


 *****************************************************************
 CALCULATION OF STATIC FIELD QUANTITIES
 *****************************************************************

 +++++ ALPHA AT       0.00000 EV.

                           COMPONENTS OF ALPHA

                     *X           *Y           *Z
           *=X:     876.4579     -89.6447      39.0013
           *=Y:     -89.6584     663.6823      65.6349
           *=Z:      39.0054      65.6465     348.9979

  ISOTROPIC AVERAGE ALPHA =     629.71272 A.U. =     93.31380 ANG.**3

 +++++ BETA (SECOND HARMONIC GENERATION) AT       0.00000 EV.

                              COMPONENTS OF BETA
            *XX         *XY         *YY         *XZ         *YZ         *ZZ
   *=X -5694.77630  3866.74327 -2168.40126   650.13121  -299.87181   -23.63487
   *=Y  3867.17358 -2168.77469  1020.36848  -299.97078   103.42039    -2.96692
   *=Z   650.43227  -300.03709   103.34531   -23.66621    -2.94494   -58.94475


 AVERAGE BETAX(SHG) VALUE AT   0.00000 EV =      -4732.2494 a.u. = -0.408839E-28 ESU
 AVERAGE BETAY(SHG) VALUE AT   0.00000 EV =       2930.5818 a.u. =  0.253185E-28 ESU
 AVERAGE BETAZ(SHG) VALUE AT   0.00000 EV =        416.8093 a.u. =  0.360099E-29 ESU



 AVERAGE BETA (SHG) VALUE AT   0.00000 EV =       5581.7760 a.u. =  0.482233E-28 ESU
   (1 a.u. = 8.639418X10-33 esu)



 +++++ ALPHA AT       0.00000 EV.

                           COMPONENTS OF ALPHA

                     *X           *Y           *Z
           *=X:     876.4579     -89.6447      39.0013
           *=Y:     -89.6584     663.6823      65.6349
           *=Z:      39.0054      65.6465     348.9979

  ISOTROPIC AVERAGE ALPHA =     629.71272 A.U. =     93.31380 ANG.**3


 GAMMA (THIRD HARMONIC GENERATION) AT    0.00000 EV.


 GAMMA(X,X,X,X) =       1312879.57086
 GAMMA(Y,Y,Y,Y) =        539342.71391
 GAMMA(Z,Z,Z,Z) =          4614.19462
 GAMMA(X,X,Y,Y) =        548587.44636
 GAMMA(X,X,Z,Z) =         12764.25336
 GAMMA(Y,Y,X,X) =        548587.60556
 GAMMA(Y,Y,Z,Z) =          5849.12812
 GAMMA(Z,Z,X,X) =         12764.08845
 GAMMA(Z,Z,Y,Y) =          5849.12265


 AVERAGE GAMMA VALUE AT    0.00000 =        598247.62478 a.u. =       301319.53551 ESU (X10-39)




 **********************************************************************
 CALCULATION FOR A FREQUENCY OF    0.25000 EV  =       0.00919 A.U. 
                  WAVELENGTH OF    4959.37 NM  =    2016.38525 CM(-1)
 **********************************************************************

 +++++ ALPHA AT       0.25000 EV.

                           COMPONENTS OF ALPHA

                     *X           *Y           *Z
           *=X:     879.1719     -90.6393      38.9835
           *=Y:     -90.6517     665.6710      65.8584
           *=Z:      38.9869      65.8683     349.4105

  ISOTROPIC AVERAGE ALPHA =     631.41780 A.U. =     93.56646 ANG.**3

 +++++ BETA (SECOND HARMONIC GENERATION) AT       0.25000 EV.

                              COMPONENTS OF BETA
            *XX         *XY         *YY         *XZ         *YZ         *ZZ
   *=X -5961.16115  4050.34012 -2272.80820   680.20880  -314.55590   -24.56011
   *=Y  4061.98423 -2291.56459  1086.10079  -319.59891   113.85480    -1.50319
   *=Z   681.61462  -318.39314   113.80610   -26.89144    -0.17225   -57.98151


 AVERAGE BETAX(SHG) VALUE AT   0.25000 EV =      -4963.5528 a.u. = -0.428822E-28 ESU
 AVERAGE BETAY(SHG) VALUE AT   0.25000 EV =       3083.8238 a.u. =  0.266424E-28 ESU
 AVERAGE BETAZ(SHG) VALUE AT   0.25000 EV =        441.9207 a.u. =  0.381794E-29 ESU



 AVERAGE BETA (SHG) VALUE AT   0.25000 EV =       5860.2150 a.u. =  0.506288E-28 ESU
   (1 a.u. = 8.639418X10-33 esu)



 +++++ ALPHA AT       0.75000 EV.

                           COMPONENTS OF ALPHA

                     *X           *Y           *Z
           *=X:     902.2089     -99.2684      38.7756
           *=Y:     -99.2817     682.4390      67.7435
           *=Z:      38.7752      67.7570     352.7836

  ISOTROPIC AVERAGE ALPHA =     645.81048 A.U. =     95.69924 ANG.**3


 GAMMA (THIRD HARMONIC GENERATION) AT    0.25000 EV.


 GAMMA(X,X,X,X) =       1458115.99752
 GAMMA(Y,Y,Y,Y) =        588240.67509
 GAMMA(Z,Z,Z,Z) =          4687.26467
 GAMMA(X,X,Y,Y) =        610736.82261
 GAMMA(X,X,Z,Z) =         13319.20503
 GAMMA(Y,Y,X,X) =        616984.68628
 GAMMA(Y,Y,Z,Z) =          6162.17341
 GAMMA(Z,Z,X,X) =         14351.79549
 GAMMA(Z,Z,Y,Y) =          6329.56598


 AVERAGE GAMMA VALUE AT    0.25000 =        663785.63721 a.u. =       334329.08315 ESU (X10-39)




 **********************************************************************
 CALCULATION FOR A FREQUENCY OF    0.50000 EV  =       0.01837 A.U. 
                  WAVELENGTH OF    2479.68 NM  =    4032.77050 CM(-1)
 **********************************************************************

 +++++ ALPHA AT       0.50000 EV.

                           COMPONENTS OF ALPHA

                     *X           *Y           *Z
           *=X:     887.5229     -93.7277      38.9195
           *=Y:     -93.7402     671.7712      66.5392
           *=Z:      38.9214      66.5512     350.6578

  ISOTROPIC AVERAGE ALPHA =     636.65065 A.U. =     94.34189 ANG.**3

 +++++ BETA (SECOND HARMONIC GENERATION) AT       0.50000 EV.

                              COMPONENTS OF BETA
            *XX         *XY         *YY         *XZ         *YZ         *ZZ
   *=X -6902.21522  4700.70617 -2642.21905   786.27247  -366.57616   -27.86199
   *=Y  4754.42193 -2730.82875  1321.40688  -389.92839   151.42806     3.64455
   *=Z   792.66681  -384.55759   151.35281   -38.56879     9.63598   -54.63907


 AVERAGE BETAX(SHG) VALUE AT   0.50000 EV =      -5783.1044 a.u. = -0.499627E-28 ESU
 AVERAGE BETAY(SHG) VALUE AT   0.50000 EV =       3628.5943 a.u. =  0.313489E-28 ESU
 AVERAGE BETAZ(SHG) VALUE AT   0.50000 EV =        531.1007 a.u. =  0.458840E-29 ESU



 AVERAGE BETA (SHG) VALUE AT   0.50000 EV =       6847.8508 a.u. =  0.591614E-28 ESU
   (1 a.u. = 8.639418X10-33 esu)



 +++++ ALPHA AT       1.50000 EV.

                           COMPONENTS OF ALPHA

                     *X           *Y           *Z
           *=X:    1005.3809    -141.6014      36.7256
           *=Y:    -141.6334     754.8633      76.3451
           *=Z:      36.7126      76.3711     365.4892

  ISOTROPIC AVERAGE ALPHA =     708.57783 A.U. =    105.00040 ANG.**3


 GAMMA (THIRD HARMONIC GENERATION) AT    0.50000 EV.


 GAMMA(X,X,X,X) =       2122518.25105
 GAMMA(Y,Y,Y,Y) =        794351.38440
 GAMMA(Z,Z,Z,Z) =          4890.86961
 GAMMA(X,X,Y,Y) =        891835.31269
 GAMMA(X,X,Z,Z) =         15674.85552
 GAMMA(Y,Y,X,X) =        933207.52266
 GAMMA(Y,Y,Z,Z) =          7437.41401
 GAMMA(Z,Z,X,X) =         21719.23804
 GAMMA(Z,Z,Y,Y) =          8524.41031


 AVERAGE GAMMA VALUE AT    0.50000 =        960031.85166 a.u. =       483539.49040 ESU (X10-39)



 **********************
 *                    *
 * JOB ENDED NORMALLY *
 *                    *
 **********************



 TOTAL JOB TIME:          1106.59 SECONDS

 == MOPAC DONE ==
