 *******************************************************************************
 ** Site#: 4824         For non-commercial use only    Version 21.013L 64BITS **
 *******************************************************************************
 ** Cite this program as: MOPAC2016, Version: 21.013L, James J. P. Stewart,   **
 ** Stewart Computational Chemistry, web: HTTP://OpenMOPAC.net. Days left:  88**
 *******************************************************************************
 **                                                                           **
 **                                MOPAC2016                                  **
 **                                                                           **
 *******************************************************************************

                              RM1 CALCULATION RESULTS

 *******************************************************************************
 *  CALCULATION DONE:                                Sun Oct 17 20:21:53 2021  *
 *  RM1        - The RM1 Hamiltonian to be used
 *  POLAR      - CALCULATE FIRST, SECOND AND THIRD-ORDER POLARIZABILITIES
 *  PRECISE    - TIGHTER CRITERIA TO BE USED
 *  T=         - A TIME OF 172800.0 SECONDS REQUESTED
 *  DUMP=N     - RESTART FILE WRITTEN EVERY 7200.0 SECONDS REQUESTED
 *  GNORM      - EXIT WHEN GRADIENT NORM DROPS BELOW 0.100
 *******************************************************************************
RM1 PRECISE POLAR GNORM=0.1


  ATOM    CHEMICAL      BOND LENGTH      BOND ANGLE     TWIST ANGLE 
 NUMBER    SYMBOL       (ANGSTROMS)      (DEGREES)       (DEGREES) 
   (I)                     NA:I           NB:NA:I       NC:NB:NA:I       NA    NB    NC 
     1       C          0.00000000       0.0000000       0.0000000        0     0     0
     2       C          1.54790000  *    0.0000000       0.0000000        1     0     0
     3       C          1.55170000  *  111.4259000  *    0.0000000        2     1     0
     4       C          1.55250000  *  111.5670000  * -179.7524000  *     3     2     1
     5       C          1.55230000  *  111.0993000  *  176.1751000  *     4     3     2
     6       C          1.55270000  *  111.7488000  *  179.7985000  *     5     4     3
     7       C          1.55320000  *  111.0991000  *  172.9057000  *     6     5     4
     8       C          1.55250000  *  111.7575000  *  178.4166000  *     7     6     5
     9       C          1.55380000  *  111.3474000  *  171.3225000  *     8     7     6
    10       C          1.55200000  *  111.2152000  *  179.0945000  *     9     8     7
    11       C          1.55510000  *  112.0471000  *  176.1949000  *    10     9     8
    12       C          1.55250000  *  112.9517000  *  178.0777000  *    11    10     9
    13       C          1.57700000  *  121.6491000  *  -90.5742000  *    12    11    10
    14       C          1.57370000  *  118.3952000  *   50.7234000  *    13    12    11
    15       C          1.56180000  *  120.8258000  * -102.1255000  *    14    13    12
    16       C          1.54820000  *  115.1391000  *   61.8312000  *    15    14    13
    17       C          1.55210000  *  114.4078000  * -173.0799000  *    16    15    14
    18       C          1.55510000  *  109.3119000  *  179.4916000  *    17    16    15
    19       C          1.55120000  *  112.8652000  * -166.1112000  *    18    17    16
    20       C          1.55360000  *  110.5905000  * -175.4411000  *    19    18    17
    21       C          1.55170000  *  111.7583000  * -171.7285000  *    20    19    18
    22       C          1.55260000  *  111.2376000  * -172.4380000  *    21    20    19
    23       C          1.55210000  *  111.3578000  * -175.7202000  *    22    21    20
    24       C          1.55180000  *  111.3113000  * -174.3605000  *    23    22    21
    25       C          1.54770000  *  111.5476000  * -177.9740000  *    24    23    22
    26       C          1.55390000  *  113.1109000  *  -91.8976000  *    13    12    11
    27       C          1.49350000  *  131.8123000  *  -35.2560000  *    26    13    14
    28       C          1.35300000  *  116.0579000  *  151.9768000  *    27    26    13
    29       S          1.82400000  *  108.2632000  *    1.9249000  *    28    27    26
    30       C          1.34950000  *  111.9130000  *  121.3733000  *    26    13    14
    31       C          1.42810000  *  108.9513000  *  155.9009000  *    30    26    27
    32       C          1.33790000  *  109.2485000  *   -1.4513000  *    31    30    26
    33       C          1.48610000  *  114.6906000  * -166.4543000  *    32    31    30
    34       C          1.35500000  *  114.3646000  *    3.5381000  *    33    32    31
    35       S          1.80230000  *  136.3296000  * -155.1404000  *    31    30    26
    36       C          1.46610000  *  128.0121000  * -177.4777000  *    34    33    32
    37       C          1.48550000  *  118.5264000  * -157.4786000  *    36    34    33
    38       C          1.34540000  *  121.2021000  * -173.6818000  *    37    36    34
    39       C          1.46180000  *  118.3200000  *   -0.7571000  *    38    37    36
    40       C          1.34100000  *  120.5140000  *   -0.8862000  *    39    38    37
    41       C          1.35070000  *  121.4605000  *   26.9379000  *    36    34    33
    42       C          1.45580000  *  107.1770000  *  176.7703000  *    40    39    38
    43       C          1.46270000  *  129.6854000  *  178.9417000  *    42    40    39
    44       C          1.34660000  *  118.0764000  * -178.7256000  *    43    42    40
    45       C          1.47710000  *  120.3202000  *    0.6914000  *    44    43    42
    46       C          1.34760000  *  120.9437000  *   -0.5843000  *    45    44    43
    47       C          1.34640000  *  107.9786000  *   -0.4152000  *    42    40    39
    48       N          1.42360000  *  129.0306000  *  174.9820000  *    39    38    37
    49       C          1.45970000  *  119.7585000  *  155.4015000  *    48    39    40
    50       C          1.54700000  *  116.7482000  * -177.8442000  *    49    48    39
    51       C          1.55150000  *  110.6649000  * -173.8536000  *    50    49    48
    52       C          1.54670000  *  111.5637000  * -177.7337000  *    51    50    49
    53       C          1.46600000  *  125.1999000  * -166.8667000  *    28    27    26
    54       C          1.34890000  *  124.5339000  * -157.1567000  *    53    28    27
    55       C          1.47450000  *  119.8519000  * -172.4083000  *    54    53    28
    56       O          1.23220000  *  120.4241000  * -172.5387000  *    55    54    53
    57       O          1.35550000  *  119.8602000  *   19.1451000  *    55    54    53
    58       C          1.43120000  *  122.0026000  *    6.9444000  *    54    53    28
    59       N          1.15760000  *  179.9929000  * -178.9716000  *    58    54    53
    60       H          1.05400000  *  116.7152000  *   26.6044000  *    53    28    27
    61       H          1.09120000  *  110.1436000  *   59.4894000  *     1     2     3
    62       H          1.09120000  *  109.5018000  *  179.2397000  *     1     2     3
    63       H          1.09090000  *  109.9864000  *  -60.9531000  *     1     2     3
    64       H          1.09270000  *  108.9777000  * -179.4552000  *     2     1    61
    65       H          1.09210000  *  108.6918000  *  178.4919000  *     2     1    63
    66       H          1.09300000  *  109.0599000  * -179.7181000  *     3     2    64
    67       H          1.09220000  *  109.1578000  *  179.8347000  *     3     2    65
    68       H          1.09260000  *  109.3501000  *  176.3926000  *     4     3    66
    69       H          1.09250000  *  109.0674000  *  176.6262000  *     4     3    67
    70       H          1.09280000  *  108.8226000  *  179.5016000  *     5     4    68
    71       H          1.09270000  *  109.2893000  *  179.2133000  *     5     4    69
    72       H          1.09250000  *  109.1907000  *  173.4592000  *     6     5    70
    73       H          1.09290000  *  109.2196000  *  173.6860000  *     6     5    71
    74       H          1.09290000  *  108.7106000  *  178.1808000  *     7     6    72
    75       H          1.09280000  *  109.3779000  *  -63.1352000  *     7     6    72
    76       H          1.09290000  *  109.0505000  *  171.9437000  *     8     7    74
    77       H          1.09280000  *  109.2279000  *  172.0053000  *     8     7    75
    78       H          1.09250000  *  109.0132000  *  178.8627000  *     9     8    76
    79       H          1.09220000  *  109.3147000  *  178.8983000  *     9     8    77
    80       H          1.08870000  *  108.6386000  *  177.9728000  *    10     9    78
    81       H          1.09350000  *  108.7871000  *  176.9288000  *    10     9    79
    82       H          1.09510000  *  106.8500000  *  174.4768000  *    11    10    80
    83       H          1.08270000  *  111.6735000  *  -69.1339000  *    11    10    80
    84       H          1.09560000  *  106.4685000  *  -83.1311000  *    12    11    82
    85       H          1.09660000  *  106.1062000  *  -86.3582000  *    12    11    83
    86       H          1.09110000  *  108.8261000  *  -87.9765000  *    14    13    32
    87       H          1.09670000  *  107.2627000  *   26.5331000  *    14    13    32
    88       H          1.09460000  *  107.4204000  *   54.8382000  *    15    14    86
    89       H          1.09020000  *  109.3061000  *  170.5897000  *    15    14    86
    90       H          1.08540000  *  108.3190000  * -174.3165000  *    16    15    88
    91       H          1.09100000  *  109.0813000  * -171.3967000  *    16    15    89
    92       H          1.09140000  *  110.1305000  * -179.4915000  *    17    16    90
    93       H          1.09230000  *  109.1828000  *  -59.7578000  *    17    16    90
    94       H          1.09360000  *  109.1486000  * -166.7730000  *    18    17    92
    95       H          1.09290000  *  108.7809000  *  -48.5443000  *    18    17    92
    96       H          1.09220000  *  109.6450000  * -175.7214000  *    19    18    94
    97       H          1.09270000  *  109.0175000  * -174.4540000  *    19    18    95
    98       H          1.09310000  *  109.4266000  * -172.0417000  *    20    19    96
    99       H          1.09280000  *  108.8212000  *  -53.4022000  *    20    19    96
   100       H          1.09260000  *  109.3652000  * -172.8784000  *    21    20    98
   101       H          1.09290000  *  108.9649000  * -172.4814000  *    21    20    99
   102       H          1.09280000  *  109.4372000  * -175.7503000  *    22    21   100
   103       H          1.09290000  *  108.9074000  *  -56.9298000  *    22    21   100
   104       H          1.09270000  *  109.2776000  * -174.7378000  *    23    22   102
   105       H          1.09290000  *  109.0113000  *  -55.8710000  *    23    22   102
   106       H          1.09250000  *  109.5345000  * -178.0214000  *    24    23   104
   107       H          1.09270000  *  109.2923000  *  -58.9488000  *    24    23   104
   108       H          1.09110000  *  110.0091000  *  -59.0565000  *    25    24   106
   109       H          1.09130000  *  109.4481000  *   60.6692000  *    25    24   106
   110       H          1.09110000  *  110.0927000  * -179.5565000  *    25    24   106
   111       H          1.04400000  *  122.6561000  * -179.0092000  *    27    26    30
   112       H          1.04870000  *  122.3045000  * -176.3118000  *    33    32    31
   113       H          1.05160000  *  120.0250000  * -178.2564000  *    37    36    41
   114       H          1.05020000  *  120.5667000  *  179.4040000  *    38    37    36
   115       H          1.05050000  *  121.5118000  *   -1.8374000  *    41    36    34
   116       H          1.05040000  *  121.0599000  * -179.4865000  *    43    42    47
   117       H          1.05160000  *  120.0299000  *  179.9393000  *    44    43    42
   118       H          1.05140000  *  119.4220000  *  178.3879000  *    45    44    43
   119       H          1.04780000  *  119.4930000  *  177.8544000  *    46    45    44
   120       H          1.09390000  *  108.3413000  *  -55.2655000  *    49    48    39
   121       H          1.09430000  *  107.2008000  *   61.2852000  *    49    48    39
   122       H          1.09130000  *  109.2723000  * -176.3445000  *    50    49   120
   123       H          1.09180000  *  109.2955000  *  -56.2369000  *    50    49   120
   124       H          1.09220000  *  109.2998000  * -177.6868000  *    51    50   122
   125       H          1.09300000  *  109.4796000  *  -58.6509000  *    51    50   122
   126       H          1.09110000  *  110.1022000  *  -59.7101000  *    52    51   124
   127       H          1.09120000  *  109.3468000  *   59.9887000  *    52    51   124
   128       H          1.09080000  *  110.0065000  *  179.8115000  *    52    51   124
   129       H          0.94030000  *  121.3241000  *    0.5381000  *    57    55    56
 


          CARTESIAN COORDINATES 

    NO.       ATOM           X           Y           Z

     1         C          0.0000      0.0000      0.0000
     2         C          1.5479      0.0000      0.0000
     3         C          2.1147      1.4445      0.0000
     4         C          3.6672      1.4483     -0.0062
     5         C          4.2221      2.8948     -0.1028
     6         C          5.7746      2.9165     -0.1051
     7         C          6.3134      4.3472     -0.3800
     8         C          7.8648      4.3941     -0.3466
     9         C          8.3996      5.7694     -0.8332
    10         C          9.9498      5.8209     -0.7771
    11         C         10.5106      7.1539     -1.3489
    12         C         12.0577      7.2477     -1.2594
    13         C         12.7774      7.8743     -0.0039
    14         C         12.3714      7.3585      1.4263
    15         C         11.4231      8.1979      2.3404
    16         C         10.0041      8.4394      1.7702
    17         C          9.1331      9.4127      2.6088
    18         C          7.7456      9.5791      1.9264
    19         C          6.9377     10.7782      2.4880
    20         C          5.5203     10.8271      1.8536
    21         C          4.7633     12.1263      2.2365
    22         C          3.2874     12.0794      1.7568
    23         C          2.5571     13.4187      2.0431
    24         C          1.0482     13.3243      1.6933
    25         C          0.3246     14.6720      1.9291
    26         C         13.0557      9.3954     -0.1565
    27         C         12.4346     10.5909      0.4883
    28         C         13.2283     11.6797      0.6109
    29         S         14.8438     11.2974     -0.1447
    30         C         14.3051      9.6363     -0.6059
    31         C         15.0182      8.4011     -0.6782
    32         C         14.2288      7.4103     -0.2478
    33         C         14.9330      6.1312      0.0288
    34         C         16.2779      6.1887     -0.1259
    35         S         16.7452      7.8880     -0.6299
    36         C         17.2506      5.1012      0.0177
    37         C         18.6660      5.4486      0.3052
    38         C         19.6254      4.5056      0.3230
    39         C         19.2395      3.1189      0.0680
    40         C         17.9570      2.7998     -0.1593
    41         C         16.9036      3.8128     -0.1922
    42         C         17.9140      1.3742     -0.4514
    43         C         16.7675      0.5159     -0.7485
    44         C         16.9949     -0.7943     -0.9610
    45         C         18.3664     -1.3362     -0.8776
    46         C         19.4129     -0.5337     -0.6004
    47         C         19.1731      0.9005     -0.3961
    48         N         20.0668      1.9677     -0.0629
    49         C         21.4796      2.1248     -0.3948
    50         C         22.3020      0.8263     -0.5704
    51         C         23.8060      1.1531     -0.7661
    52         C         24.6404     -0.1281     -1.0002
    53         C         12.9327     12.8519      1.4401
    54         C         13.4573     14.0791      1.2443
    55         C         13.2225     15.1445      2.2362
    56         O         13.5778     16.3015      2.0051
    57         O         12.8343     14.8218      3.4942
    58         C         14.2573     14.3879      0.0985
    59         N         14.9044     14.6378     -0.8283
    60         H         12.3105     12.6959      2.2765
    61         H         -0.3758      0.5201     -0.8826
    62         H         -0.3643     -1.0285     -0.0136
    63         H         -0.3729      0.4978      0.8963
    64         H          1.9032     -0.5330      0.8852
    65         H          1.8979     -0.5259     -0.8908
    66         H          1.7501      1.9710     -0.8857
    67         H          1.7606      1.9685      0.8904
    68         H          4.0341      0.9792      0.9098
    69         H          4.0221      0.8728     -0.8644
    70         H          3.8569      3.3516     -1.0259
    71         H          3.8582      3.4784      0.7463
    72         H          6.1401      2.5683      0.8637
    73         H          6.1427      2.2438     -0.8838
    74         H          5.9668      4.6690     -1.3652
    75         H          5.9198      5.0338      0.3736
    76         H          8.2053      4.2124      0.6759
    77         H          8.2626      3.6094     -0.9948
    78         H          8.0724      5.9347     -1.8623
    79         H          7.9900      6.5605     -0.2013
    80         H         10.2651      5.6914      0.2568
    81         H         10.3512      4.9928     -1.3677
    82         H         10.2468      7.1795     -2.4115
    83         H         10.0411      8.0148     -0.8900
    84         H         12.4396      6.2316     -1.4081
    85         H         12.3782      7.8288     -2.1324
    86         H         11.9632      6.3508      1.3344
    87         H         13.2937      7.2631      2.0119
    88         H         11.3102      7.6534      3.2832
    89         H         11.8998      9.1493      2.5771
    90         H         10.1033      8.8885      0.7871
    91         H          9.4870      7.4827      1.6835
    92         H          9.0007      9.0225      3.6194
    93         H          9.6309     10.3835      2.6633
    94         H          7.8901      9.7401      0.8544
    95         H          7.1728      8.6587      2.0649
    96         H          6.8435     10.6822      3.5719
    97         H          7.4695     11.7047      2.2584
    98         H          5.6074     10.7803      0.7650
    99         H          4.9503      9.9603      2.1971
   100         H          4.7804     12.2491      3.3221
   101         H          5.2669     12.9798      1.7757
   102         H          3.2603     11.8811      0.6825
   103         H          2.7713     11.2689      2.2776
   104         H          2.6626     13.6681      3.1017
   105         H          3.0176     14.2100      1.4461
   106         H          0.9333     13.0407      0.6445
   107         H          0.5801     12.5595      2.3177
   108         H          0.7474     15.4411      1.2808
   109         H         -0.7366     14.5594      1.7011
   110         H          0.4335     14.9787      2.9705
   111         H         11.4768     10.5731      0.9035
   112         H         14.4228      5.2614      0.3167
   113         H         18.9343      6.4473      0.4961
   114         H         20.6244      4.7638      0.5183
   115         H         15.9186      3.5424     -0.4376
   116         H         15.7942      0.9083     -0.7945
   117         H         16.1928     -1.4395     -1.1761
   118         H         18.5246     -2.3657     -1.0209
   119         H         20.3715     -0.9476     -0.5132
   120         H         21.5536      2.7068     -1.3180
   121         H         21.9391      2.7038      0.4121
   122         H         22.1857      0.2033      0.3180
   123         H         21.9418      0.2871     -1.4488
   124         H         23.9231      1.8104     -1.6305
   125         H         24.1857      1.6673      0.1205
   126         H         24.2982     -0.6390     -1.9015
   127         H         25.6906      0.1418     -1.1224
   128         H         24.5409     -0.7993     -0.1461
   129         H         12.8252     15.4624      4.1825

  H: (RM1): G.B. ROCHA, R.O. FREIRE, A.M.SIMAS, J.J.P. STEWART, J. COMP. CHEM. 27, 1101 (2006)
  C: (RM1): G.B. ROCHA, R.O. FREIRE, A.M.SIMAS, J.J.P. STEWART, J. COMP. CHEM. 27, 1101 (2006)
  N: (RM1): G.B. ROCHA, R.O. FREIRE, A.M.SIMAS, J.J.P. STEWART, J. COMP. CHEM. 27, 1101 (2006)
  O: (RM1): G.B. ROCHA, R.O. FREIRE, A.M.SIMAS, J.J.P. STEWART, J. COMP. CHEM. 27, 1101 (2006)
  S: (RM1): G.B. ROCHA, R.O. FREIRE, A.M.SIMAS, J.J.P. STEWART, J. COMP. CHEM. 27, 1101 (2006)

           Empirical Formula: C53 H70 N2 O2 S2  =   129 atoms



      MOLECULAR POINT GROUP   :   C1  


      RHF CALCULATION, NO. OF DOUBLY OCCUPIED LEVELS = 158


          Geometry optimization using L-BFGS
 CYCLE:     1 TIME:   0.602 TIME LEFT:  2.00D  GRAD.:   490.325 HEAT:  55.52900
 CYCLE:     2 TIME:   0.320 TIME LEFT:  2.00D  GRAD.:   449.442 HEAT:  53.22653
 CYCLE:     3 TIME:   0.391 TIME LEFT:  2.00D  GRAD.:   437.963 HEAT:  32.59032
 CYCLE:     4 TIME:   0.367 TIME LEFT:  2.00D  GRAD.:   450.185 HEAT:  53.22607
 CYCLE:     5 TIME:   0.367 TIME LEFT:  2.00D  GRAD.:   439.079 HEAT:  32.59092
 CYCLE:     6 TIME:   0.328 TIME LEFT:  2.00D  GRAD.:   383.616 HEAT:  22.89166
 CYCLE:     7 TIME:   0.375 TIME LEFT:  2.00D  GRAD.:   275.179 HEAT: -2.019649
 CYCLE:     8 TIME:   0.375 TIME LEFT:  2.00D  GRAD.:   383.087 HEAT: -3.944323
 CYCLE:     9 TIME:   0.359 TIME LEFT:  2.00D  GRAD.:   142.989 HEAT: -11.52997
 CYCLE:    10 TIME:   0.398 TIME LEFT:  2.00D  GRAD.:   130.985 HEAT: -12.82635
 CYCLE:    11 TIME:   0.375 TIME LEFT:  2.00D  GRAD.:    96.277 HEAT: -13.85984
 CYCLE:    12 TIME:   0.414 TIME LEFT:  2.00D  GRAD.:   118.524 HEAT: -15.99140
 CYCLE:    13 TIME:   0.359 TIME LEFT:  2.00D  GRAD.:   104.379 HEAT: -17.71811
 CYCLE:    14 TIME:   0.352 TIME LEFT:  2.00D  GRAD.:    93.409 HEAT: -19.38388
 CYCLE:    15 TIME:   0.344 TIME LEFT:  2.00D  GRAD.:    80.543 HEAT: -21.24646
 CYCLE:    16 TIME:   0.375 TIME LEFT:  2.00D  GRAD.:    85.086 HEAT: -23.45529
 CYCLE:    17 TIME:   0.375 TIME LEFT:  2.00D  GRAD.:    82.778 HEAT: -25.27248
 CYCLE:    18 TIME:   0.422 TIME LEFT:  2.00D  GRAD.:   210.753 HEAT: -25.27277
 CYCLE:    19 TIME:   0.383 TIME LEFT:  2.00D  GRAD.:    79.362 HEAT: -26.84186
 CYCLE:    20 TIME:   0.352 TIME LEFT:  2.00D  GRAD.:    44.969 HEAT: -27.15079
 CYCLE:    21 TIME:   0.328 TIME LEFT:  2.00D  GRAD.:    43.312 HEAT: -27.50898
 CYCLE:    22 TIME:   0.398 TIME LEFT:  2.00D  GRAD.:    55.425 HEAT: -28.25188
 CYCLE:    23 TIME:   0.383 TIME LEFT:  2.00D  GRAD.:    79.911 HEAT: -29.01705
 CYCLE:    24 TIME:   0.359 TIME LEFT:  2.00D  GRAD.:   105.628 HEAT: -29.59202
 CYCLE:    25 TIME:   0.352 TIME LEFT:  2.00D  GRAD.:    41.617 HEAT: -30.08698
 CYCLE:    26 TIME:   0.359 TIME LEFT:  2.00D  GRAD.:    43.549 HEAT: -30.27056
 CYCLE:    27 TIME:   0.398 TIME LEFT:  2.00D  GRAD.:    49.088 HEAT: -30.64311
 CYCLE:    28 TIME:   0.422 TIME LEFT:  2.00D  GRAD.:    68.727 HEAT: -31.39548
 CYCLE:    29 TIME:   0.398 TIME LEFT:  2.00D  GRAD.:    68.635 HEAT: -32.13641
 CYCLE:    30 TIME:   0.352 TIME LEFT:  2.00D  GRAD.:    49.926 HEAT: -32.91569
 CYCLE:    31 TIME:   0.367 TIME LEFT:  2.00D  GRAD.:    49.313 HEAT: -33.63967
 CYCLE:    32 TIME:   0.367 TIME LEFT:  2.00D  GRAD.:    82.075 HEAT: -34.04576
 CYCLE:    33 TIME:   0.328 TIME LEFT:  2.00D  GRAD.:    53.348 HEAT: -34.42297
 CYCLE:    34 TIME:   0.336 TIME LEFT:  2.00D  GRAD.:    39.289 HEAT: -34.70083
 CYCLE:    35 TIME:   0.344 TIME LEFT:  2.00D  GRAD.:    51.762 HEAT: -35.05966
 CYCLE:    36 TIME:   0.406 TIME LEFT:  2.00D  GRAD.:    50.213 HEAT: -35.33942
 CYCLE:    37 TIME:   0.383 TIME LEFT:  2.00D  GRAD.:    33.856 HEAT: -35.57588
 CYCLE:    38 TIME:   0.406 TIME LEFT:  2.00D  GRAD.:    45.333 HEAT: -35.80111
 CYCLE:    39 TIME:   0.328 TIME LEFT:  2.00D  GRAD.:    39.001 HEAT: -35.96057
 CYCLE:    40 TIME:   0.375 TIME LEFT:  2.00D  GRAD.:    36.994 HEAT: -36.12992
 CYCLE:    41 TIME:   0.492 TIME LEFT:  2.00D  GRAD.:    33.628 HEAT: -36.48448
 CYCLE:    42 TIME:   0.328 TIME LEFT:  2.00D  GRAD.:    57.187 HEAT: -36.66594
 CYCLE:    43 TIME:   0.367 TIME LEFT:  2.00D  GRAD.:    27.672 HEAT: -36.87938
 CYCLE:    44 TIME:   0.312 TIME LEFT:  2.00D  GRAD.:    20.428 HEAT: -36.98834
 CYCLE:    45 TIME:   0.312 TIME LEFT:  2.00D  GRAD.:    21.203 HEAT: -37.09877
 CYCLE:    46 TIME:   0.328 TIME LEFT:  2.00D  GRAD.:    36.868 HEAT: -37.25237
 CYCLE:    47 TIME:   0.312 TIME LEFT:  2.00D  GRAD.:    25.076 HEAT: -37.39596
 CYCLE:    48 TIME:   0.305 TIME LEFT:  2.00D  GRAD.:    28.793 HEAT: -37.50502
 CYCLE:    49 TIME:   0.359 TIME LEFT:  2.00D  GRAD.:    30.475 HEAT: -37.58185
 CYCLE:    50 TIME:   0.344 TIME LEFT:  2.00D  GRAD.:    22.900 HEAT: -37.64213
 CYCLE:    51 TIME:   0.312 TIME LEFT:  2.00D  GRAD.:    26.414 HEAT: -37.80216
 CYCLE:    52 TIME:   0.312 TIME LEFT:  2.00D  GRAD.:    26.920 HEAT: -37.93540
 CYCLE:    53 TIME:   0.312 TIME LEFT:  2.00D  GRAD.:    64.701 HEAT: -38.01084
 CYCLE:    54 TIME:   0.297 TIME LEFT:  2.00D  GRAD.:    20.126 HEAT: -38.14471
 CYCLE:    55 TIME:   0.312 TIME LEFT:  2.00D  GRAD.:    18.956 HEAT: -38.18717
 CYCLE:    56 TIME:   0.297 TIME LEFT:  2.00D  GRAD.:    20.740 HEAT: -38.27135
 CYCLE:    57 TIME:   0.312 TIME LEFT:  2.00D  GRAD.:    36.602 HEAT: -38.41114
 CYCLE:    58 TIME:   0.312 TIME LEFT:  2.00D  GRAD.:    31.028 HEAT: -38.48497
 CYCLE:    59 TIME:   0.297 TIME LEFT:  2.00D  GRAD.:    15.408 HEAT: -38.55383
 CYCLE:    60 TIME:   0.297 TIME LEFT:  2.00D  GRAD.:    14.277 HEAT: -38.61098
 CYCLE:    61 TIME:   0.297 TIME LEFT:  2.00D  GRAD.:    18.032 HEAT: -38.68970
 CYCLE:    62 TIME:   0.312 TIME LEFT:  2.00D  GRAD.:    48.299 HEAT: -38.78861
 CYCLE:    63 TIME:   0.320 TIME LEFT:  2.00D  GRAD.:    31.038 HEAT: -38.88751
 CYCLE:    64 TIME:   0.297 TIME LEFT:  2.00D  GRAD.:    16.563 HEAT: -38.95485
 CYCLE:    65 TIME:   0.297 TIME LEFT:  2.00D  GRAD.:    16.156 HEAT: -39.02412
 CYCLE:    66 TIME:   0.305 TIME LEFT:  2.00D  GRAD.:    18.323 HEAT: -39.10747
 CYCLE:    67 TIME:   0.312 TIME LEFT:  2.00D  GRAD.:    43.380 HEAT: -39.22408
 CYCLE:    68 TIME:   0.297 TIME LEFT:  2.00D  GRAD.:    59.869 HEAT: -39.24365
 CYCLE:    69 TIME:   0.297 TIME LEFT:  2.00D  GRAD.:    15.686 HEAT: -39.33622
 CYCLE:    70 TIME:   0.297 TIME LEFT:  2.00D  GRAD.:    13.181 HEAT: -39.35865
 CYCLE:    71 TIME:   0.297 TIME LEFT:  2.00D  GRAD.:    19.350 HEAT: -39.40837
 CYCLE:    72 TIME:   0.305 TIME LEFT:  2.00D  GRAD.:    23.685 HEAT: -39.47754
 CYCLE:    73 TIME:   0.312 TIME LEFT:  2.00D  GRAD.:    24.388 HEAT: -39.58392
 CYCLE:    74 TIME:   0.312 TIME LEFT:  2.00D  GRAD.:    43.031 HEAT: -39.59692
 CYCLE:    75 TIME:   0.297 TIME LEFT:  2.00D  GRAD.:    12.265 HEAT: -39.70590
 CYCLE:    76 TIME:   0.297 TIME LEFT:  2.00D  GRAD.:    12.680 HEAT: -39.73454
 CYCLE:    77 TIME:   0.297 TIME LEFT:  2.00D  GRAD.:    19.079 HEAT: -39.77692
 CYCLE:    78 TIME:   0.297 TIME LEFT:  2.00D  GRAD.:    40.481 HEAT: -39.80647
 CYCLE:    79 TIME:   0.289 TIME LEFT:  2.00D  GRAD.:    19.864 HEAT: -39.85546
 CYCLE:    80 TIME:   0.305 TIME LEFT:  2.00D  GRAD.:    14.991 HEAT: -39.90252
 CYCLE:    81 TIME:   0.297 TIME LEFT:  2.00D  GRAD.:    18.014 HEAT: -39.93095
 CYCLE:    82 TIME:   0.297 TIME LEFT:  2.00D  GRAD.:    18.604 HEAT: -40.00305
 CYCLE:    83 TIME:   0.312 TIME LEFT:  2.00D  GRAD.:   138.248 HEAT: -39.75369
 CYCLE:    84 TIME:   0.312 TIME LEFT:  2.00D  GRAD.:    49.619 HEAT: -40.00742
 CYCLE:    85 TIME:   0.305 TIME LEFT:  2.00D  GRAD.:    15.877 HEAT: -40.11739
 CYCLE:    86 TIME:   0.297 TIME LEFT:  2.00D  GRAD.:    17.676 HEAT: -40.13977
 CYCLE:    87 TIME:   0.305 TIME LEFT:  2.00D  GRAD.:    18.230 HEAT: -40.23721
 CYCLE:    88 TIME:   0.375 TIME LEFT:  2.00D  GRAD.:    38.290 HEAT: -40.29658
 CYCLE:    89 TIME:   0.594 TIME LEFT:  2.00D  GRAD.:    18.368 HEAT: -40.39563
 CYCLE:    90 TIME:   0.719 TIME LEFT:  2.00D  GRAD.:    12.748 HEAT: -40.44382
 CYCLE:    91 TIME:   0.516 TIME LEFT:  2.00D  GRAD.:    16.626 HEAT: -40.50294
 CYCLE:    92 TIME:   0.531 TIME LEFT:  2.00D  GRAD.:    34.344 HEAT: -40.55452
 CYCLE:    93 TIME:   0.539 TIME LEFT:  2.00D  GRAD.:    18.948 HEAT: -40.62105
 CYCLE:    94 TIME:   0.711 TIME LEFT:  2.00D  GRAD.:    15.607 HEAT: -40.70772
 CYCLE:    95 TIME:   0.562 TIME LEFT:  2.00D  GRAD.:    31.590 HEAT: -40.73815
 CYCLE:    96 TIME:   0.492 TIME LEFT:  2.00D  GRAD.:    20.515 HEAT: -40.78194
 CYCLE:    97 TIME:   0.609 TIME LEFT:  2.00D  GRAD.:    15.061 HEAT: -40.86348
 CYCLE:    98 TIME:   0.562 TIME LEFT:  2.00D  GRAD.:    19.068 HEAT: -40.91699
 CYCLE:    99 TIME:   0.500 TIME LEFT:  2.00D  GRAD.:    78.615 HEAT: -40.88377
 CYCLE:   100 TIME:   0.516 TIME LEFT:  2.00D  GRAD.:    19.728 HEAT: -41.00675
 CYCLE:   101 TIME:   0.664 TIME LEFT:  2.00D  GRAD.:    13.816 HEAT: -41.03660
 CYCLE:   102 TIME:   0.602 TIME LEFT:  2.00D  GRAD.:    19.237 HEAT: -41.09486
 CYCLE:   103 TIME:   0.547 TIME LEFT:  2.00D  GRAD.:    18.771 HEAT: -41.14835
 CYCLE:   104 TIME:   0.656 TIME LEFT:  2.00D  GRAD.:    38.590 HEAT: -41.21689
 CYCLE:   105 TIME:   0.562 TIME LEFT:  2.00D  GRAD.:    27.173 HEAT: -41.27837
 CYCLE:   106 TIME:   0.586 TIME LEFT:  2.00D  GRAD.:    10.460 HEAT: -41.31456
 CYCLE:   107 TIME:   0.625 TIME LEFT:  2.00D  GRAD.:    10.232 HEAT: -41.33474
 CYCLE:   108 TIME:   0.586 TIME LEFT:  2.00D  GRAD.:    16.979 HEAT: -41.37515
 CYCLE:   109 TIME:   0.547 TIME LEFT:  2.00D  GRAD.:    21.240 HEAT: -41.42409
 CYCLE:   110 TIME:   0.602 TIME LEFT:  2.00D  GRAD.:    40.465 HEAT: -41.44151
 CYCLE:   111 TIME:   0.641 TIME LEFT:  2.00D  GRAD.:    13.571 HEAT: -41.50016
 CYCLE:   112 TIME:   0.602 TIME LEFT:  2.00D  GRAD.:    11.059 HEAT: -41.52172
 CYCLE:   113 TIME:   0.734 TIME LEFT:  2.00D  GRAD.:    19.524 HEAT: -41.55830
 CYCLE:   114 TIME:   0.742 TIME LEFT:  2.00D  GRAD.:    26.051 HEAT: -41.57653
 CYCLE:   115 TIME:   0.461 TIME LEFT:  2.00D  GRAD.:    14.046 HEAT: -41.60230
 CYCLE:   116 TIME:   0.609 TIME LEFT:  2.00D  GRAD.:     9.624 HEAT: -41.62917
 CYCLE:   117 TIME:   0.539 TIME LEFT:  2.00D  GRAD.:    11.006 HEAT: -41.64658
 CYCLE:   118 TIME:   0.648 TIME LEFT:  2.00D  GRAD.:    25.913 HEAT: -41.68065
 CYCLE:   119 TIME:   0.578 TIME LEFT:  2.00D  GRAD.:    12.179 HEAT: -41.71232
 CYCLE:   120 TIME:   0.547 TIME LEFT:  2.00D  GRAD.:     8.484 HEAT: -41.72625
 CYCLE:   121 TIME:   0.609 TIME LEFT:  2.00D  GRAD.:     8.946 HEAT: -41.75196
 CYCLE:   122 TIME:   0.586 TIME LEFT:  2.00D  GRAD.:    10.891 HEAT: -41.78254
 CYCLE:   123 TIME:   0.492 TIME LEFT:  2.00D  GRAD.:    14.502 HEAT: -41.83157
 CYCLE:   124 TIME:   0.633 TIME LEFT:  2.00D  GRAD.:    24.425 HEAT: -41.85231
 CYCLE:   125 TIME:   0.633 TIME LEFT:  2.00D  GRAD.:    20.812 HEAT: -41.87788
 CYCLE:   126 TIME:   0.562 TIME LEFT:  2.00D  GRAD.:     9.214 HEAT: -41.89582
 CYCLE:   127 TIME:   0.680 TIME LEFT:  2.00D  GRAD.:     9.090 HEAT: -41.91052
 CYCLE:   128 TIME:   0.484 TIME LEFT:  2.00D  GRAD.:    10.549 HEAT: -41.92718
 CYCLE:   129 TIME:   0.562 TIME LEFT:  2.00D  GRAD.:    40.523 HEAT: -41.92426
 CYCLE:   130 TIME:   0.555 TIME LEFT:  2.00D  GRAD.:    10.830 HEAT: -41.96145
 CYCLE:   131 TIME:   0.578 TIME LEFT:  2.00D  GRAD.:     7.665 HEAT: -41.97089
 CYCLE:   132 TIME:   0.672 TIME LEFT:  2.00D  GRAD.:    11.810 HEAT: -41.98484
 CYCLE:   133 TIME:   0.516 TIME LEFT:  2.00D  GRAD.:    12.054 HEAT: -41.99995
 CYCLE:   134 TIME:   0.602 TIME LEFT:  2.00D  GRAD.:    46.484 HEAT: -41.97008
 CYCLE:   135 TIME:   0.523 TIME LEFT:  2.00D  GRAD.:     8.900 HEAT: -42.03632
 CYCLE:   136 TIME:   0.469 TIME LEFT:  2.00D  GRAD.:     6.303 HEAT: -42.04329
 CYCLE:   137 TIME:   0.484 TIME LEFT:  2.00D  GRAD.:     9.125 HEAT: -42.05659
 CYCLE:   138 TIME:   0.453 TIME LEFT:  2.00D  GRAD.:    11.858 HEAT: -42.07286
 CYCLE:   139 TIME:   0.562 TIME LEFT:  2.00D  GRAD.:    13.261 HEAT: -42.10637
 CYCLE:   140 TIME:   1.031 TIME LEFT:  2.00D  GRAD.:    24.691 HEAT: -42.11842
 CYCLE:   141 TIME:   0.773 TIME LEFT:  2.00D  GRAD.:    13.311 HEAT: -42.14100
 CYCLE:   142 TIME:   0.891 TIME LEFT:  2.00D  GRAD.:     8.824 HEAT: -42.15333
 CYCLE:   143 TIME:   0.844 TIME LEFT:  2.00D  GRAD.:    10.335 HEAT: -42.16758
 CYCLE:   144 TIME:   0.820 TIME LEFT:  2.00D  GRAD.:     8.064 HEAT: -42.17901
 CYCLE:   145 TIME:   0.906 TIME LEFT:  2.00D  GRAD.:    12.308 HEAT: -42.19569
 CYCLE:   146 TIME:   0.844 TIME LEFT:  2.00D  GRAD.:    20.802 HEAT: -42.20351
 CYCLE:   147 TIME:   0.633 TIME LEFT:  2.00D  GRAD.:     9.068 HEAT: -42.21870
 CYCLE:   148 TIME:   0.828 TIME LEFT:  2.00D  GRAD.:     7.138 HEAT: -42.22764
 CYCLE:   149 TIME:   0.773 TIME LEFT:  2.00D  GRAD.:     9.382 HEAT: -42.24403
 CYCLE:   150 TIME:   0.742 TIME LEFT:  2.00D  GRAD.:    15.134 HEAT: -42.26074
 CYCLE:   151 TIME:   0.773 TIME LEFT:  2.00D  GRAD.:    11.210 HEAT: -42.28109
 CYCLE:   152 TIME:   0.688 TIME LEFT:  2.00D  GRAD.:     8.804 HEAT: -42.30255
 CYCLE:   153 TIME:   0.898 TIME LEFT:  2.00D  GRAD.:     7.622 HEAT: -42.33453
 CYCLE:   154 TIME:   0.789 TIME LEFT:  2.00D  GRAD.:    10.734 HEAT: -42.35491
 CYCLE:   155 TIME:   0.938 TIME LEFT:  2.00D  GRAD.:    31.134 HEAT: -42.35372
 CYCLE:   156 TIME:   0.953 TIME LEFT:  2.00D  GRAD.:     7.235 HEAT: -42.38291
 CYCLE:   157 TIME:   0.859 TIME LEFT:  2.00D  GRAD.:     6.666 HEAT: -42.38991
 CYCLE:   158 TIME:   0.859 TIME LEFT:  2.00D  GRAD.:     7.523 HEAT: -42.40368
 CYCLE:   159 TIME:   0.648 TIME LEFT:  2.00D  GRAD.:    14.947 HEAT: -42.42337
 CYCLE:   160 TIME:   0.859 TIME LEFT:  2.00D  GRAD.:    21.543 HEAT: -42.43053
 CYCLE:   161 TIME:   0.906 TIME LEFT:  2.00D  GRAD.:     6.510 HEAT: -42.44925
 CYCLE:   162 TIME:   0.562 TIME LEFT:  2.00D  GRAD.:     6.458 HEAT: -42.45530
 CYCLE:   163 TIME:   0.914 TIME LEFT:  2.00D  GRAD.:     8.263 HEAT: -42.46829
 CYCLE:   164 TIME:   0.742 TIME LEFT:  2.00D  GRAD.:    21.741 HEAT: -42.47843
 CYCLE:   165 TIME:   0.734 TIME LEFT:  2.00D  GRAD.:     7.705 HEAT: -42.49700
 CYCLE:   166 TIME:   0.594 TIME LEFT:  2.00D  GRAD.:     6.071 HEAT: -42.50443
 CYCLE:   167 TIME:   0.680 TIME LEFT:  2.00D  GRAD.:     6.728 HEAT: -42.51422
 CYCLE:   168 TIME:   0.539 TIME LEFT:  2.00D  GRAD.:     7.861 HEAT: -42.52987
 CYCLE:   169 TIME:   0.734 TIME LEFT:  2.00D  GRAD.:    30.110 HEAT: -42.52278
 CYCLE:   170 TIME:   0.742 TIME LEFT:  2.00D  GRAD.:     6.152 HEAT: -42.54984
 CYCLE:   171 TIME:   0.641 TIME LEFT:  2.00D  GRAD.:     4.826 HEAT: -42.55287
 CYCLE:   172 TIME:   0.570 TIME LEFT:  2.00D  GRAD.:     5.950 HEAT: -42.56123
 CYCLE:   173 TIME:   0.625 TIME LEFT:  2.00D  GRAD.:    11.240 HEAT: -42.56932
 CYCLE:   174 TIME:   0.680 TIME LEFT:  2.00D  GRAD.:     8.181 HEAT: -42.57760
 CYCLE:   175 TIME:   0.672 TIME LEFT:  2.00D  GRAD.:     5.815 HEAT: -42.58416
 CYCLE:   176 TIME:   0.648 TIME LEFT:  2.00D  GRAD.:     5.396 HEAT: -42.58801
 CYCLE:   177 TIME:   0.867 TIME LEFT:  2.00D  GRAD.:     5.793 HEAT: -42.59469
 CYCLE:   178 TIME:   0.523 TIME LEFT:  2.00D  GRAD.:     5.523 HEAT: -42.60898
 CYCLE:   179 TIME:   0.672 TIME LEFT:  2.00D  GRAD.:    17.251 HEAT: -42.61248
 CYCLE:   180 TIME:   0.781 TIME LEFT:  2.00D  GRAD.:     5.155 HEAT: -42.62538
 CYCLE:   181 TIME:   0.891 TIME LEFT:  2.00D  GRAD.:     4.084 HEAT: -42.62916
 CYCLE:   182 TIME:   0.766 TIME LEFT:  2.00D  GRAD.:     5.571 HEAT: -42.63568
 CYCLE:   183 TIME:   0.656 TIME LEFT:  2.00D  GRAD.:     9.005 HEAT: -42.64095
 CYCLE:   184 TIME:   0.797 TIME LEFT:  2.00D  GRAD.:     6.966 HEAT: -42.64773
 CYCLE:   185 TIME:   0.766 TIME LEFT:  2.00D  GRAD.:     4.376 HEAT: -42.65375
 CYCLE:   186 TIME:   0.547 TIME LEFT:  2.00D  GRAD.:     5.035 HEAT: -42.66033
 CYCLE:   187 TIME:   0.680 TIME LEFT:  2.00D  GRAD.:    21.901 HEAT: -42.65669
 CYCLE:   188 TIME:   0.656 TIME LEFT:  2.00D  GRAD.:     4.478 HEAT: -42.66883
 CYCLE:   189 TIME:   0.805 TIME LEFT:  2.00D  GRAD.:     4.048 HEAT: -42.67185
 CYCLE:   190 TIME:   0.703 TIME LEFT:  2.00D  GRAD.:     5.183 HEAT: -42.68154
 CYCLE:   191 TIME:   0.648 TIME LEFT:  2.00D  GRAD.:    13.249 HEAT: -42.68300
 CYCLE:   192 TIME:   0.695 TIME LEFT:  2.00D  GRAD.:     3.701 HEAT: -42.69248
 CYCLE:   193 TIME:   0.641 TIME LEFT:  2.00D  GRAD.:     3.630 HEAT: -42.69492
 CYCLE:   194 TIME:   0.711 TIME LEFT:  2.00D  GRAD.:     8.175 HEAT: -42.70014
 CYCLE:   195 TIME:   0.609 TIME LEFT:  2.00D  GRAD.:    10.898 HEAT: -42.70188
 CYCLE:   196 TIME:   0.586 TIME LEFT:  2.00D  GRAD.:     4.358 HEAT: -42.70624
 CYCLE:   197 TIME:   0.648 TIME LEFT:  2.00D  GRAD.:     3.352 HEAT: -42.70915
 CYCLE:   198 TIME:   0.719 TIME LEFT:  2.00D  GRAD.:     4.821 HEAT: -42.71295
 CYCLE:   199 TIME:   0.789 TIME LEFT:  2.00D  GRAD.:     5.546 HEAT: -42.71952
 CYCLE:   200 TIME:   0.867 TIME LEFT:  2.00D  GRAD.:    10.997 HEAT: -42.72754
 CYCLE:   201 TIME:   0.820 TIME LEFT:  2.00D  GRAD.:     5.954 HEAT: -42.73750
 CYCLE:   202 TIME:   0.648 TIME LEFT:  2.00D  GRAD.:    10.959 HEAT: -42.74329
 CYCLE:   203 TIME:   0.656 TIME LEFT:  2.00D  GRAD.:     8.662 HEAT: -42.75192
 CYCLE:   204 TIME:   0.734 TIME LEFT:  2.00D  GRAD.:     6.611 HEAT: -42.75931
 CYCLE:   205 TIME:   0.664 TIME LEFT:  2.00D  GRAD.:     5.583 HEAT: -42.76659
 CYCLE:   206 TIME:   0.734 TIME LEFT:  2.00D  GRAD.:     6.582 HEAT: -42.77990
 CYCLE:   207 TIME:   0.656 TIME LEFT:  2.00D  GRAD.:     6.951 HEAT: -42.79084
 CYCLE:   208 TIME:   0.555 TIME LEFT:  2.00D  GRAD.:     8.707 HEAT: -42.80260
 CYCLE:   209 TIME:   0.633 TIME LEFT:  2.00D  GRAD.:    10.586 HEAT: -42.81916
 CYCLE:   210 TIME:   0.688 TIME LEFT:  2.00D  GRAD.:    13.270 HEAT: -42.83665
 CYCLE:   211 TIME:   0.688 TIME LEFT:  2.00D  GRAD.:    14.270 HEAT: -42.84975
 CYCLE:   212 TIME:   0.688 TIME LEFT:  2.00D  GRAD.:    22.737 HEAT: -42.84831
 CYCLE:   213 TIME:   0.586 TIME LEFT:  2.00D  GRAD.:    16.643 HEAT: -42.85622
 CYCLE:   214 TIME:   0.938 TIME LEFT:  2.00D  GRAD.:    13.616 HEAT: -42.86769
 CYCLE:   215 TIME:   0.617 TIME LEFT:  2.00D  GRAD.:   331.010 HEAT: -39.23496
 CYCLE:   216 TIME:   0.578 TIME LEFT:  2.00D  GRAD.:   202.387 HEAT: -41.18183
 CYCLE:   217 TIME:   0.734 TIME LEFT:  2.00D  GRAD.:   125.435 HEAT: -42.35735
 CYCLE:   218 TIME:   0.695 TIME LEFT:  2.00D  GRAD.:    55.948 HEAT: -42.84313
 CYCLE:   219 TIME:   0.914 TIME LEFT:  2.00D  GRAD.:   163.377 HEAT: -42.41289
 CYCLE:   220 TIME:   0.773 TIME LEFT:  2.00D  GRAD.:   349.117 HEAT: -39.45024
 CYCLE:   221 TIME:   0.586 TIME LEFT:  2.00D  GRAD.:    65.385 HEAT: -42.86073
 CYCLE:   222 TIME:   0.945 TIME LEFT:  2.00D  GRAD.:    28.328 HEAT: -42.82281
 CYCLE:   223 TIME:   0.734 TIME LEFT:  2.00D  GRAD.:   146.638 HEAT: -42.13582
 CYCLE:   224 TIME:   0.789 TIME LEFT:  2.00D  GRAD.:   920.442 HEAT: -18.49204
 CYCLE:   225 TIME:   0.914 TIME LEFT:  2.00D  GRAD.:   559.320 HEAT: -33.73836
 CYCLE:   226 TIME:   0.836 TIME LEFT:  2.00D  GRAD.:  1047.549 HEAT:  39.47548
 CYCLE:   227 TIME:   0.797 TIME LEFT:  2.00D  GRAD.:   649.398 HEAT: -28.33942
 CYCLE:   228 TIME:   0.883 TIME LEFT:  2.00D  GRAD.:  1370.033 HEAT: -6.509203
 CYCLE:   229 TIME:   0.680 TIME LEFT:  2.00D  GRAD.:   944.093 HEAT: -2.694358
 CYCLE:   230 TIME:   0.836 TIME LEFT:  2.00D  GRAD.:  1457.885 HEAT: -2.853164
 CYCLE:   231 TIME:   0.750 TIME LEFT:  2.00D  GRAD.:   393.290 HEAT: -36.21242
 CYCLE:   232 TIME:   0.820 TIME LEFT:  2.00D  GRAD.:   358.640 HEAT: -38.47021
 CYCLE:   233 TIME:   0.828 TIME LEFT:  2.00D  GRAD.:   209.663 HEAT: -39.14733
 CYCLE:   234 TIME:   0.734 TIME LEFT:  2.00D  GRAD.:   221.713 HEAT: -42.34726
 CYCLE:   235 TIME:   0.789 TIME LEFT:  2.00D  GRAD.:   369.739 HEAT: -38.96574
 CYCLE:   236 TIME:   0.930 TIME LEFT:  2.00D  GRAD.:    82.601 HEAT: -43.02340
 CYCLE:   237 TIME:   0.750 TIME LEFT:  2.00D  GRAD.:   139.983 HEAT: -42.58240
 CYCLE:   238 TIME:   0.641 TIME LEFT:  2.00D  GRAD.:    15.641 HEAT: -43.66525
 CYCLE:   239 TIME:   0.539 TIME LEFT:  2.00D  GRAD.:    25.181 HEAT: -43.67620
 CYCLE:   240 TIME:   0.562 TIME LEFT:  2.00D  GRAD.:    11.600 HEAT: -43.70895
 CYCLE:   241 TIME:   0.492 TIME LEFT:  2.00D  GRAD.:    13.125 HEAT: -43.74122
 CYCLE:   242 TIME:   0.531 TIME LEFT:  2.00D  GRAD.:    13.473 HEAT: -43.76676
 CYCLE:   243 TIME:   0.555 TIME LEFT:  2.00D  GRAD.:    19.119 HEAT: -43.80460
 CYCLE:   244 TIME:   0.602 TIME LEFT:  2.00D  GRAD.:    29.785 HEAT: -43.79077
 CYCLE:   245 TIME:   0.562 TIME LEFT:  2.00D  GRAD.:     6.036 HEAT: -43.83406
 CYCLE:   246 TIME:   0.516 TIME LEFT:  2.00D  GRAD.:     5.330 HEAT: -43.83805
 CYCLE:   247 TIME:   0.734 TIME LEFT:  2.00D  GRAD.:     8.349 HEAT: -43.85398
 CYCLE:   248 TIME:   0.531 TIME LEFT:  2.00D  GRAD.:    21.464 HEAT: -43.85685
 CYCLE:   249 TIME:   0.570 TIME LEFT:  2.00D  GRAD.:     9.704 HEAT: -43.87597
 CYCLE:   250 TIME:   0.703 TIME LEFT:  2.00D  GRAD.:     6.479 HEAT: -43.88787
 CYCLE:   251 TIME:   0.664 TIME LEFT:  2.00D  GRAD.:    11.699 HEAT: -43.90085
 CYCLE:   252 TIME:   0.516 TIME LEFT:  2.00D  GRAD.:    15.575 HEAT: -43.91146
 CYCLE:   253 TIME:   0.672 TIME LEFT:  2.00D  GRAD.:     8.744 HEAT: -43.92273
 CYCLE:   254 TIME:   0.578 TIME LEFT:  2.00D  GRAD.:     6.991 HEAT: -43.93379
 CYCLE:   255 TIME:   0.594 TIME LEFT:  2.00D  GRAD.:     7.723 HEAT: -43.94220
 CYCLE:   256 TIME:   0.469 TIME LEFT:  2.00D  GRAD.:    12.767 HEAT: -43.96011
 CYCLE:   257 TIME:   0.508 TIME LEFT:  2.00D  GRAD.:    15.241 HEAT: -43.96527
 CYCLE:   258 TIME:   0.453 TIME LEFT:  2.00D  GRAD.:     5.899 HEAT: -43.97556
 CYCLE:   259 TIME:   0.594 TIME LEFT:  2.00D  GRAD.:     6.497 HEAT: -43.98071
 CYCLE:   260 TIME:   0.617 TIME LEFT:  2.00D  GRAD.:     8.182 HEAT: -43.99102
 CYCLE:   261 TIME:   0.469 TIME LEFT:  2.00D  GRAD.:     7.841 HEAT: -44.00815
 CYCLE:   262 TIME:   0.555 TIME LEFT:  2.00D  GRAD.:    10.120 HEAT: -44.02294
 CYCLE:   263 TIME:   0.562 TIME LEFT:  2.00D  GRAD.:     7.362 HEAT: -44.03586
 CYCLE:   264 TIME:   0.648 TIME LEFT:  2.00D  GRAD.:    16.645 HEAT: -44.03558
 CYCLE:   265 TIME:   0.570 TIME LEFT:  2.00D  GRAD.:     6.390 HEAT: -44.04996
 CYCLE:   266 TIME:   0.609 TIME LEFT:  2.00D  GRAD.:     3.700 HEAT: -44.05429
 CYCLE:   267 TIME:   0.594 TIME LEFT:  2.00D  GRAD.:     6.396 HEAT: -44.06145
 CYCLE:   268 TIME:   0.789 TIME LEFT:  2.00D  GRAD.:     4.781 HEAT: -44.07049
 CYCLE:   269 TIME:   0.625 TIME LEFT:  2.00D  GRAD.:     5.254 HEAT: -44.08281
 CYCLE:   270 TIME:   0.648 TIME LEFT:  2.00D  GRAD.:    13.336 HEAT: -44.09178
 CYCLE:   271 TIME:   0.641 TIME LEFT:  2.00D  GRAD.:     5.310 HEAT: -44.10556
 CYCLE:   272 TIME:   0.484 TIME LEFT:  2.00D  GRAD.:     7.730 HEAT: -44.11062
 CYCLE:   273 TIME:   0.562 TIME LEFT:  2.00D  GRAD.:     5.557 HEAT: -44.11567
 CYCLE:   274 TIME:   0.555 TIME LEFT:  2.00D  GRAD.:     4.870 HEAT: -44.12147
 CYCLE:   275 TIME:   0.609 TIME LEFT:  2.00D  GRAD.:    11.016 HEAT: -44.13042
 CYCLE:   276 TIME:   0.531 TIME LEFT:  2.00D  GRAD.:     5.617 HEAT: -44.13911
 CYCLE:   277 TIME:   0.445 TIME LEFT:  2.00D  GRAD.:     5.097 HEAT: -44.14335
 CYCLE:   278 TIME:   0.609 TIME LEFT:  2.00D  GRAD.:     5.456 HEAT: -44.15322
 CYCLE:   279 TIME:   0.688 TIME LEFT:  2.00D  GRAD.:     5.829 HEAT: -44.16417
 CYCLE:   280 TIME:   0.625 TIME LEFT:  2.00D  GRAD.:    23.228 HEAT: -44.16243
 CYCLE:   281 TIME:   0.609 TIME LEFT:  2.00D  GRAD.:     4.567 HEAT: -44.17727
 CYCLE:   282 TIME:   0.609 TIME LEFT:  2.00D  GRAD.:     4.224 HEAT: -44.17905
 CYCLE:   283 TIME:   0.531 TIME LEFT:  2.00D  GRAD.:     5.386 HEAT: -44.18618
 CYCLE:   284 TIME:   0.523 TIME LEFT:  2.00D  GRAD.:     8.591 HEAT: -44.19448
 CYCLE:   285 TIME:   0.625 TIME LEFT:  2.00D  GRAD.:     7.817 HEAT: -44.20055
 CYCLE:   286 TIME:   0.633 TIME LEFT:  2.00D  GRAD.:     4.000 HEAT: -44.20464
 CYCLE:   287 TIME:   0.492 TIME LEFT:  2.00D  GRAD.:     4.461 HEAT: -44.20736
 CYCLE:   288 TIME:   0.484 TIME LEFT:  2.00D  GRAD.:     5.800 HEAT: -44.21242
 CYCLE:   289 TIME:   0.633 TIME LEFT:  2.00D  GRAD.:     5.016 HEAT: -44.21743
 CYCLE:   290 TIME:   0.469 TIME LEFT:  2.00D  GRAD.:     3.423 HEAT: -44.22037
 CYCLE:   291 TIME:   0.500 TIME LEFT:  2.00D  GRAD.:     4.533 HEAT: -44.22361
 CYCLE:   292 TIME:   0.609 TIME LEFT:  2.00D  GRAD.:     5.136 HEAT: -44.22774
 CYCLE:   293 TIME:   0.578 TIME LEFT:  2.00D  GRAD.:    12.423 HEAT: -44.22678
 CYCLE:   294 TIME:   0.570 TIME LEFT:  2.00D  GRAD.:     3.473 HEAT: -44.23339
 CYCLE:   295 TIME:   0.617 TIME LEFT:  2.00D  GRAD.:     2.101 HEAT: -44.23503
 CYCLE:   296 TIME:   0.688 TIME LEFT:  2.00D  GRAD.:     3.620 HEAT: -44.23676
 CYCLE:   297 TIME:   0.641 TIME LEFT:  2.00D  GRAD.:     6.505 HEAT: -44.23782
 CYCLE:   298 TIME:   0.508 TIME LEFT:  2.00D  GRAD.:     3.159 HEAT: -44.23930
 CYCLE:   299 TIME:   0.641 TIME LEFT:  2.00D  GRAD.:     2.810 HEAT: -44.24092
 CYCLE:   300 TIME:   0.492 TIME LEFT:  2.00D  GRAD.:     3.290 HEAT: -44.24219
 CYCLE:   301 TIME:   0.734 TIME LEFT:  2.00D  GRAD.:    12.241 HEAT: -44.24176
 CYCLE:   302 TIME:   0.547 TIME LEFT:  2.00D  GRAD.:     4.104 HEAT: -44.24451
 CYCLE:   303 TIME:   0.594 TIME LEFT:  2.00D  GRAD.:     2.136 HEAT: -44.24542
 CYCLE:   304 TIME:   0.586 TIME LEFT:  2.00D  GRAD.:     2.852 HEAT: -44.24643
 CYCLE:   305 TIME:   0.539 TIME LEFT:  2.00D  GRAD.:     3.545 HEAT: -44.24765
 CYCLE:   306 TIME:   0.602 TIME LEFT:  2.00D  GRAD.:     8.610 HEAT: -44.24932
 CYCLE:   307 TIME:   0.602 TIME LEFT:  2.00D  GRAD.:     4.180 HEAT: -44.25184
 CYCLE:   308 TIME:   0.445 TIME LEFT:  2.00D  GRAD.:     2.471 HEAT: -44.25293
 CYCLE:   309 TIME:   0.594 TIME LEFT:  2.00D  GRAD.:     3.956 HEAT: -44.25395
 CYCLE:   310 TIME:   0.516 TIME LEFT:  2.00D  GRAD.:     4.799 HEAT: -44.25503
 CYCLE:   311 TIME:   0.477 TIME LEFT:  2.00D  GRAD.:     5.356 HEAT: -44.25793
 CYCLE:   312 TIME:   0.617 TIME LEFT:  2.00D  GRAD.:    15.108 HEAT: -44.25554
 CYCLE:   313 TIME:   0.508 TIME LEFT:  2.00D  GRAD.:     4.645 HEAT: -44.25966
 CYCLE:   314 TIME:   0.547 TIME LEFT:  2.00D  GRAD.:     2.326 HEAT: -44.26072
 CYCLE:   315 TIME:   0.461 TIME LEFT:  2.00D  GRAD.:     2.476 HEAT: -44.26126
 CYCLE:   316 TIME:   0.570 TIME LEFT:  2.00D  GRAD.:     5.188 HEAT: -44.26260
 CYCLE:   317 TIME:   0.523 TIME LEFT:  2.00D  GRAD.:     3.518 HEAT: -44.26366
 CYCLE:   318 TIME:   0.500 TIME LEFT:  2.00D  GRAD.:     2.412 HEAT: -44.26552
 CYCLE:   319 TIME:   0.500 TIME LEFT:  2.00D  GRAD.:     2.581 HEAT: -44.26617
 CYCLE:   320 TIME:   0.734 TIME LEFT:  2.00D  GRAD.:     2.867 HEAT: -44.26841
 CYCLE:   321 TIME:   0.617 TIME LEFT:  2.00D  GRAD.:    10.035 HEAT: -44.26707
 CYCLE:   322 TIME:   0.547 TIME LEFT:  2.00D  GRAD.:     2.400 HEAT: -44.27035
 CYCLE:   323 TIME:   0.523 TIME LEFT:  2.00D  GRAD.:     1.523 HEAT: -44.27087
 CYCLE:   324 TIME:   0.578 TIME LEFT:  2.00D  GRAD.:     2.469 HEAT: -44.27176
 CYCLE:   325 TIME:   0.602 TIME LEFT:  2.00D  GRAD.:     2.056 HEAT: -44.27239
 CYCLE:   326 TIME:   0.672 TIME LEFT:  2.00D  GRAD.:     6.390 HEAT: -44.27293
 CYCLE:   327 TIME:   0.609 TIME LEFT:  2.00D  GRAD.:     2.330 HEAT: -44.27402
 CYCLE:   328 TIME:   0.484 TIME LEFT:  2.00D  GRAD.:     1.405 HEAT: -44.27421
 CYCLE:   329 TIME:   0.570 TIME LEFT:  2.00D  GRAD.:     1.515 HEAT: -44.27459
 CYCLE:   330 TIME:   0.508 TIME LEFT:  2.00D  GRAD.:     1.651 HEAT: -44.27507
 CYCLE:   331 TIME:   0.594 TIME LEFT:  2.00D  GRAD.:     7.544 HEAT: -44.27479
 CYCLE:   332 TIME:   0.633 TIME LEFT:  2.00D  GRAD.:     2.165 HEAT: -44.27588
 CYCLE:   333 TIME:   0.711 TIME LEFT:  2.00D  GRAD.:     1.244 HEAT: -44.27620
 CYCLE:   334 TIME:   0.625 TIME LEFT:  2.00D  GRAD.:     1.742 HEAT: -44.27678
 CYCLE:   335 TIME:   0.547 TIME LEFT:  2.00D  GRAD.:     1.922 HEAT: -44.27735
 CYCLE:   336 TIME:   0.688 TIME LEFT:  2.00D  GRAD.:     3.470 HEAT: -44.27846
 CYCLE:   337 TIME:   0.617 TIME LEFT:  2.00D  GRAD.:     2.496 HEAT: -44.27920
 CYCLE:   338 TIME:   0.539 TIME LEFT:  2.00D  GRAD.:     1.269 HEAT: -44.27971
 CYCLE:   339 TIME:   0.469 TIME LEFT:  2.00D  GRAD.:     1.974 HEAT: -44.28003
 CYCLE:   340 TIME:   0.516 TIME LEFT:  2.00D  GRAD.:     2.113 HEAT: -44.28043
 CYCLE:   341 TIME:   0.562 TIME LEFT:  2.00D  GRAD.:     4.176 HEAT: -44.28094
 CYCLE:   342 TIME:   0.492 TIME LEFT:  2.00D  GRAD.:     1.515 HEAT: -44.28160
 CYCLE:   343 TIME:   0.516 TIME LEFT:  2.00D  GRAD.:     1.418 HEAT: -44.28190
 CYCLE:   344 TIME:   0.602 TIME LEFT:  2.00D  GRAD.:     2.221 HEAT: -44.28229
 CYCLE:   345 TIME:   0.547 TIME LEFT:  2.00D  GRAD.:     1.885 HEAT: -44.28274
 CYCLE:   346 TIME:   0.531 TIME LEFT:  2.00D  GRAD.:     2.606 HEAT: -44.28345
 CYCLE:   347 TIME:   0.594 TIME LEFT:  2.00D  GRAD.:     2.563 HEAT: -44.28391
 CYCLE:   348 TIME:   0.516 TIME LEFT:  2.00D  GRAD.:     1.429 HEAT: -44.28422
 CYCLE:   349 TIME:   0.492 TIME LEFT:  2.00D  GRAD.:     1.199 HEAT: -44.28460
 CYCLE:   350 TIME:   0.617 TIME LEFT:  2.00D  GRAD.:     1.464 HEAT: -44.28505
 CYCLE:   351 TIME:   0.711 TIME LEFT:  2.00D  GRAD.:     1.604 HEAT: -44.28572
 CYCLE:   352 TIME:   0.602 TIME LEFT:  2.00D  GRAD.:     4.174 HEAT: -44.28577
 CYCLE:   353 TIME:   0.562 TIME LEFT:  2.00D  GRAD.:     1.124 HEAT: -44.28659
 CYCLE:   354 TIME:   0.492 TIME LEFT:  2.00D  GRAD.:     0.992 HEAT: -44.28685
 CYCLE:   355 TIME:   0.516 TIME LEFT:  2.00D  GRAD.:     4.071 HEAT: -44.28718
 CYCLE:   356 TIME:   0.609 TIME LEFT:  2.00D  GRAD.:     1.472 HEAT: -44.28761
 CYCLE:   357 TIME:   0.422 TIME LEFT:  2.00D  GRAD.:     1.064 HEAT: -44.28776
 CYCLE:   358 TIME:   0.539 TIME LEFT:  2.00D  GRAD.:     2.105 HEAT: -44.28808
 CYCLE:   359 TIME:   0.508 TIME LEFT:  2.00D  GRAD.:     1.705 HEAT: -44.28832
 CYCLE:   360 TIME:   0.492 TIME LEFT:  2.00D  GRAD.:     1.590 HEAT: -44.28880
 CYCLE:   361 TIME:   0.508 TIME LEFT:  2.00D  GRAD.:     1.963 HEAT: -44.28925
 CYCLE:   362 TIME:   0.469 TIME LEFT:  2.00D  GRAD.:     1.357 HEAT: -44.28964
 CYCLE:   363 TIME:   0.617 TIME LEFT:  2.00D  GRAD.:     1.115 HEAT: -44.28994
 CYCLE:   364 TIME:   0.547 TIME LEFT:  2.00D  GRAD.:     1.637 HEAT: -44.29046
 CYCLE:   365 TIME:   0.547 TIME LEFT:  2.00D  GRAD.:     1.451 HEAT: -44.29092
 CYCLE:   366 TIME:   0.547 TIME LEFT:  2.00D  GRAD.:     2.595 HEAT: -44.29150
 CYCLE:   367 TIME:   0.602 TIME LEFT:  2.00D  GRAD.:     1.208 HEAT: -44.29210
 CYCLE:   368 TIME:   0.539 TIME LEFT:  2.00D  GRAD.:     1.045 HEAT: -44.29234
 CYCLE:   369 TIME:   0.555 TIME LEFT:  2.00D  GRAD.:     1.069 HEAT: -44.29267
 CYCLE:   370 TIME:   0.500 TIME LEFT:  2.00D  GRAD.:     7.964 HEAT: -44.29176
 CYCLE:   371 TIME:   0.602 TIME LEFT:  2.00D  GRAD.:     1.325 HEAT: -44.29295
 CYCLE:   372 TIME:   0.625 TIME LEFT:  2.00D  GRAD.:     1.000 HEAT: -44.29308
 CYCLE:   373 TIME:   0.695 TIME LEFT:  2.00D  GRAD.:     1.370 HEAT: -44.29346
 CYCLE:   374 TIME:   0.797 TIME LEFT:  2.00D  GRAD.:     1.435 HEAT: -44.29383
 CYCLE:   375 TIME:   0.609 TIME LEFT:  2.00D  GRAD.:     1.941 HEAT: -44.29395
 CYCLE:   376 TIME:   0.938 TIME LEFT:  2.00D  GRAD.:     0.966 HEAT: -44.29407
 CYCLE:   377 TIME:   0.594 TIME LEFT:  2.00D  GRAD.:     0.964 HEAT: -44.29420
 CYCLE:   378 TIME:   0.555 TIME LEFT:  2.00D  GRAD.:     1.465 HEAT: -44.29437
 CYCLE:   379 TIME:   0.578 TIME LEFT:  2.00D  GRAD.:     1.594 HEAT: -44.29462
 CYCLE:   380 TIME:   0.570 TIME LEFT:  2.00D  GRAD.:     2.341 HEAT: -44.29479
 CYCLE:   381 TIME:   0.539 TIME LEFT:  2.00D  GRAD.:     0.847 HEAT: -44.29506
 CYCLE:   382 TIME:   0.469 TIME LEFT:  2.00D  GRAD.:     0.822 HEAT: -44.29518
 CYCLE:   383 TIME:   0.594 TIME LEFT:  2.00D  GRAD.:     1.111 HEAT: -44.29540
 CYCLE:   384 TIME:   1.148 TIME LEFT:  2.00D  GRAD.:     1.152 HEAT: -44.29569
 CYCLE:   385 TIME:   0.641 TIME LEFT:  2.00D  GRAD.:     6.497 HEAT: -44.29485
 CYCLE:   386 TIME:   0.531 TIME LEFT:  2.00D  GRAD.:     0.980 HEAT: -44.29605
 CYCLE:   387 TIME:   0.555 TIME LEFT:  2.00D  GRAD.:     0.687 HEAT: -44.29613
 CYCLE:   388 TIME:   0.680 TIME LEFT:  2.00D  GRAD.:     1.469 HEAT: -44.29626
 CYCLE:   389 TIME:   0.625 TIME LEFT:  2.00D  GRAD.:     1.106 HEAT: -44.29638
 CYCLE:   390 TIME:   0.438 TIME LEFT:  2.00D  GRAD.:     0.786 HEAT: -44.29646
 CYCLE:   391 TIME:   0.469 TIME LEFT:  2.00D  GRAD.:     0.772 HEAT: -44.29663
 CYCLE:   392 TIME:   0.656 TIME LEFT:  2.00D  GRAD.:     1.343 HEAT: -44.29680
 CYCLE:   393 TIME:   0.648 TIME LEFT:  2.00D  GRAD.:     1.448 HEAT: -44.29692
 CYCLE:   394 TIME:   0.523 TIME LEFT:  2.00D  GRAD.:     0.823 HEAT: -44.29703
 CYCLE:   395 TIME:   0.609 TIME LEFT:  2.00D  GRAD.:     0.834 HEAT: -44.29714
 CYCLE:   396 TIME:   0.578 TIME LEFT:  2.00D  GRAD.:     0.710 HEAT: -44.29723
 CYCLE:   397 TIME:   0.477 TIME LEFT:  2.00D  GRAD.:     0.884 HEAT: -44.29748
 CYCLE:   398 TIME:   0.562 TIME LEFT:  2.00D  GRAD.:     1.931 HEAT: -44.29752
 CYCLE:   399 TIME:   0.508 TIME LEFT:  2.00D  GRAD.:     0.801 HEAT: -44.29772
 CYCLE:   400 TIME:   0.609 TIME LEFT:  2.00D  GRAD.:     0.606 HEAT: -44.29786
 CYCLE:   401 TIME:   0.539 TIME LEFT:  2.00D  GRAD.:     0.812 HEAT: -44.29803
 CYCLE:   402 TIME:   0.617 TIME LEFT:  2.00D  GRAD.:     1.461 HEAT: -44.29816
 CYCLE:   403 TIME:   0.570 TIME LEFT:  2.00D  GRAD.:     1.069 HEAT: -44.29829
 CYCLE:   404 TIME:   0.578 TIME LEFT:  2.00D  GRAD.:     0.655 HEAT: -44.29837
 CYCLE:   405 TIME:   0.555 TIME LEFT:  2.00D  GRAD.:     0.736 HEAT: -44.29851
 CYCLE:   406 TIME:   0.547 TIME LEFT:  2.00D  GRAD.:     0.975 HEAT: -44.29861
 CYCLE:   407 TIME:   0.664 TIME LEFT:  2.00D  GRAD.:     2.555 HEAT: -44.29859
 CYCLE:   408 TIME:   0.438 TIME LEFT:  2.00D  GRAD.:     0.550 HEAT: -44.29875
 CYCLE:   409 TIME:   0.516 TIME LEFT:  2.00D  GRAD.:     0.546 HEAT: -44.29878
 CYCLE:   410 TIME:   0.492 TIME LEFT:  2.00D  GRAD.:     0.634 HEAT: -44.29885
 CYCLE:   411 TIME:   0.594 TIME LEFT:  2.00D  GRAD.:     0.664 HEAT: -44.29897
 CYCLE:   412 TIME:   0.578 TIME LEFT:  2.00D  GRAD.:     2.004 HEAT: -44.29900
 CYCLE:   413 TIME:   0.516 TIME LEFT:  2.00D  GRAD.:     0.526 HEAT: -44.29917
 CYCLE:   414 TIME:   0.664 TIME LEFT:  2.00D  GRAD.:     0.487 HEAT: -44.29921
 CYCLE:   415 TIME:   0.477 TIME LEFT:  2.00D  GRAD.:     0.667 HEAT: -44.29930
 CYCLE:   416 TIME:   0.594 TIME LEFT:  2.00D  GRAD.:     2.718 HEAT: -44.29926
 CYCLE:   417 TIME:   0.547 TIME LEFT:  2.00D  GRAD.:     0.704 HEAT: -44.29940
 CYCLE:   418 TIME:   0.516 TIME LEFT:  2.00D  GRAD.:     0.484 HEAT: -44.29944
 CYCLE:   419 TIME:   0.586 TIME LEFT:  2.00D  GRAD.:     0.427 HEAT: -44.29948
 CYCLE:   420 TIME:   0.570 TIME LEFT:  2.00D  GRAD.:     0.547 HEAT: -44.29957
 CYCLE:   421 TIME:   0.609 TIME LEFT:  2.00D  GRAD.:     2.964 HEAT: -44.29948
 CYCLE:   422 TIME:   0.664 TIME LEFT:  2.00D  GRAD.:     0.559 HEAT: -44.29966
 CYCLE:   423 TIME:   0.555 TIME LEFT:  2.00D  GRAD.:     0.455 HEAT: -44.29969
 CYCLE:   424 TIME:   0.664 TIME LEFT:  2.00D  GRAD.:     0.430 HEAT: -44.29975
 CYCLE:   425 TIME:   0.852 TIME LEFT:  2.00D  GRAD.:     0.709 HEAT: -44.29985
 CYCLE:   426 TIME:   0.680 TIME LEFT:  2.00D  GRAD.:     0.772 HEAT: -44.29993
 CYCLE:   427 TIME:   0.547 TIME LEFT:  2.00D  GRAD.:     0.468 HEAT: -44.30002
 CYCLE:   428 TIME:   0.547 TIME LEFT:  2.00D  GRAD.:     0.360 HEAT: -44.30005
 CYCLE:   429 TIME:   0.578 TIME LEFT:  2.00D  GRAD.:     0.437 HEAT: -44.30010
 CYCLE:   430 TIME:   0.703 TIME LEFT:  2.00D  GRAD.:     0.498 HEAT: -44.30016
 CYCLE:   431 TIME:   0.680 TIME LEFT:  2.00D  GRAD.:     1.232 HEAT: -44.30018
 CYCLE:   432 TIME:   0.547 TIME LEFT:  2.00D  GRAD.:     0.515 HEAT: -44.30022
 CYCLE:   433 TIME:   0.617 TIME LEFT:  2.00D  GRAD.:     0.393 HEAT: -44.30024
 CYCLE:   434 TIME:   0.641 TIME LEFT:  2.00D  GRAD.:     0.898 HEAT: -44.30028
 CYCLE:   435 TIME:   1.062 TIME LEFT:  2.00D  GRAD.:     0.404 HEAT: -44.30032
 CYCLE:   436 TIME:   0.539 TIME LEFT:  2.00D  GRAD.:     0.392 HEAT: -44.30036
 CYCLE:   437 TIME:   0.562 TIME LEFT:  2.00D  GRAD.:     0.438 HEAT: -44.30039
 CYCLE:   438 TIME:   0.695 TIME LEFT:  2.00D  GRAD.:     0.559 HEAT: -44.30044
 CYCLE:   439 TIME:   0.562 TIME LEFT:  2.00D  GRAD.:     1.242 HEAT: -44.30046
 CYCLE:   440 TIME:   0.500 TIME LEFT:  2.00D  GRAD.:     0.491 HEAT: -44.30050
 CYCLE:   441 TIME:   0.586 TIME LEFT:  2.00D  GRAD.:     0.304 HEAT: -44.30052
 CYCLE:   442 TIME:   0.586 TIME LEFT:  2.00D  GRAD.:     0.453 HEAT: -44.30054
 CYCLE:   443 TIME:   0.570 TIME LEFT:  2.00D  GRAD.:     0.478 HEAT: -44.30057
 CYCLE:   444 TIME:   0.562 TIME LEFT:  2.00D  GRAD.:     0.539 HEAT: -44.30061
 CYCLE:   445 TIME:   0.625 TIME LEFT:  2.00D  GRAD.:     3.307 HEAT: -44.30023
 CYCLE:   446 TIME:   0.633 TIME LEFT:  2.00D  GRAD.:     0.417 HEAT: -44.30066
 CYCLE:   447 TIME:   0.664 TIME LEFT:  2.00D  GRAD.:     0.319 HEAT: -44.30067
 CYCLE:   448 TIME:   0.453 TIME LEFT:  2.00D  GRAD.:     0.566 HEAT: -44.30069
 CYCLE:   449 TIME:   0.422 TIME LEFT:  2.00D  GRAD.:     0.363 HEAT: -44.30072
 CYCLE:   450 TIME:   0.477 TIME LEFT:  2.00D  GRAD.:     0.274 HEAT: -44.30074
 CYCLE:   451 TIME:   0.562 TIME LEFT:  2.00D  GRAD.:     0.319 HEAT: -44.30077
 CYCLE:   452 TIME:   0.539 TIME LEFT:  2.00D  GRAD.:     0.636 HEAT: -44.30078
 CYCLE:   453 TIME:   0.594 TIME LEFT:  2.00D  GRAD.:     0.312 HEAT: -44.30080
 CYCLE:   454 TIME:   0.641 TIME LEFT:  2.00D  GRAD.:     0.282 HEAT: -44.30081
 CYCLE:   455 TIME:   0.555 TIME LEFT:  2.00D  GRAD.:     0.422 HEAT: -44.30083
 CYCLE:   456 TIME:   0.555 TIME LEFT:  2.00D  GRAD.:     0.496 HEAT: -44.30086
 CYCLE:   457 TIME:   0.461 TIME LEFT:  2.00D  GRAD.:     0.351 HEAT: -44.30088
 CYCLE:   458 TIME:   0.594 TIME LEFT:  2.00D  GRAD.:     0.854 HEAT: -44.30088
 CYCLE:   459 TIME:   0.633 TIME LEFT:  2.00D  GRAD.:     0.279 HEAT: -44.30091
 CYCLE:   460 TIME:   0.570 TIME LEFT:  2.00D  GRAD.:     0.326 HEAT: -44.30092
 CYCLE:   461 TIME:   0.523 TIME LEFT:  2.00D  GRAD.:     0.411 HEAT: -44.30093
 CYCLE:   462 TIME:   0.625 TIME LEFT:  2.00D  GRAD.:     0.471 HEAT: -44.30094
 CYCLE:   463 TIME:   0.594 TIME LEFT:  2.00D  GRAD.:     0.296 HEAT: -44.30097
 CYCLE:   464 TIME:   0.453 TIME LEFT:  2.00D  GRAD.:     0.412 HEAT: -44.30099
 CYCLE:   465 TIME:   0.602 TIME LEFT:  2.00D  GRAD.:     0.421 HEAT: -44.30100
 CYCLE:   466 TIME:   0.586 TIME LEFT:  2.00D  GRAD.:     0.347 HEAT: -44.30102
 CYCLE:   467 TIME:   0.570 TIME LEFT:  2.00D  GRAD.:     0.298 HEAT: -44.30104
 CYCLE:   468 TIME:   0.516 TIME LEFT:  2.00D  GRAD.:     0.284 HEAT: -44.30106
 CYCLE:   469 TIME:   0.461 TIME LEFT:  2.00D  GRAD.:     0.283 HEAT: -44.30108
 CYCLE:   470 TIME:   0.609 TIME LEFT:  2.00D  GRAD.:     0.273 HEAT: -44.30110
 CYCLE:   471 TIME:   0.570 TIME LEFT:  2.00D  GRAD.:     0.318 HEAT: -44.30112
 CYCLE:   472 TIME:   0.578 TIME LEFT:  2.00D  GRAD.:     0.217 HEAT: -44.30113
 CYCLE:   473 TIME:   0.562 TIME LEFT:  2.00D  GRAD.:     0.353 HEAT: -44.30115
 CYCLE:   474 TIME:   0.500 TIME LEFT:  2.00D  GRAD.:     0.501 HEAT: -44.30116
 CYCLE:   475 TIME:   0.766 TIME LEFT:  2.00D  GRAD.:     0.437 HEAT: -44.30117
 CYCLE:   476 TIME:   0.758 TIME LEFT:  2.00D  GRAD.:     0.601 HEAT: -44.30119
 CYCLE:   477 TIME:   0.570 TIME LEFT:  2.00D  GRAD.:     0.253 HEAT: -44.30120
 CYCLE:   478 TIME:   0.555 TIME LEFT:  2.00D  GRAD.:     0.211 HEAT: -44.30121
 CYCLE:   479 TIME:   0.523 TIME LEFT:  2.00D  GRAD.:     0.327 HEAT: -44.30122
 CYCLE:   480 TIME:   0.516 TIME LEFT:  2.00D  GRAD.:     0.428 HEAT: -44.30123
 CYCLE:   481 TIME:   0.531 TIME LEFT:  2.00D  GRAD.:     0.308 HEAT: -44.30125
 CYCLE:   482 TIME:   0.539 TIME LEFT:  2.00D  GRAD.:     0.653 HEAT: -44.30126
 CYCLE:   483 TIME:   0.508 TIME LEFT:  2.00D  GRAD.:     0.275 HEAT: -44.30127
 CYCLE:   484 TIME:   0.461 TIME LEFT:  2.00D  GRAD.:     0.295 HEAT: -44.30127
 CYCLE:   485 TIME:   0.602 TIME LEFT:  2.00D  GRAD.:     0.309 HEAT: -44.30128
 CYCLE:   486 TIME:   0.492 TIME LEFT:  2.00D  GRAD.:     0.464 HEAT: -44.30130
 CYCLE:   487 TIME:   0.547 TIME LEFT:  2.00D  GRAD.:     0.552 HEAT: -44.30131
 CYCLE:   488 TIME:   0.727 TIME LEFT:  2.00D  GRAD.:     0.400 HEAT: -44.30133
 CYCLE:   489 TIME:   0.531 TIME LEFT:  2.00D  GRAD.:     0.359 HEAT: -44.30135
 CYCLE:   490 TIME:   0.461 TIME LEFT:  2.00D  GRAD.:     0.362 HEAT: -44.30136
 CYCLE:   491 TIME:   0.469 TIME LEFT:  2.00D  GRAD.:     0.274 HEAT: -44.30138
 CYCLE:   492 TIME:   0.484 TIME LEFT:  2.00D  GRAD.:     0.232 HEAT: -44.30139
 CYCLE:   493 TIME:   0.594 TIME LEFT:  2.00D  GRAD.:     0.270 HEAT: -44.30140
 CYCLE:   494 TIME:   0.633 TIME LEFT:  2.00D  GRAD.:     0.290 HEAT: -44.30142
 CYCLE:   495 TIME:   0.594 TIME LEFT:  2.00D  GRAD.:     0.294 HEAT: -44.30143
 CYCLE:   496 TIME:   0.555 TIME LEFT:  2.00D  GRAD.:     0.188 HEAT: -44.30144
 CYCLE:   497 TIME:   0.531 TIME LEFT:  2.00D  GRAD.:     0.214 HEAT: -44.30144
 CYCLE:   498 TIME:   0.617 TIME LEFT:  2.00D  GRAD.:     0.379 HEAT: -44.30144
 CYCLE:   499 TIME:   0.547 TIME LEFT:  2.00D  GRAD.:     0.440 HEAT: -44.30146
 CYCLE:   500 TIME:   0.578 TIME LEFT:  2.00D  GRAD.:     0.185 HEAT: -44.30147
 CYCLE:   501 TIME:   0.602 TIME LEFT:  2.00D  GRAD.:     0.221 HEAT: -44.30147
 CYCLE:   502 TIME:   0.602 TIME LEFT:  2.00D  GRAD.:     0.189 HEAT: -44.30148
 CYCLE:   503 TIME:   0.453 TIME LEFT:  2.00D  GRAD.:     0.186 HEAT: -44.30149
 CYCLE:   504 TIME:   0.664 TIME LEFT:  2.00D  GRAD.:     0.248 HEAT: -44.30151
 CYCLE:   505 TIME:   0.492 TIME LEFT:  2.00D  GRAD.:     0.241 HEAT: -44.30152
 CYCLE:   506 TIME:   0.656 TIME LEFT:  2.00D  GRAD.:     0.261 HEAT: -44.30153
 CYCLE:   507 TIME:   0.445 TIME LEFT:  2.00D  GRAD.:     0.183 HEAT: -44.30153
 CYCLE:   508 TIME:   0.641 TIME LEFT:  2.00D  GRAD.:     0.253 HEAT: -44.30154
 CYCLE:   509 TIME:   0.570 TIME LEFT:  2.00D  GRAD.:     0.267 HEAT: -44.30155
 CYCLE:   510 TIME:   0.523 TIME LEFT:  2.00D  GRAD.:     0.186 HEAT: -44.30155
 CYCLE:   511 TIME:   0.641 TIME LEFT:  2.00D  GRAD.:     0.239 HEAT: -44.30156
 CYCLE:   512 TIME:   0.570 TIME LEFT:  2.00D  GRAD.:     0.214 HEAT: -44.30156
 CYCLE:   513 TIME:   0.492 TIME LEFT:  2.00D  GRAD.:     0.278 HEAT: -44.30156
 CYCLE:   514 TIME:   0.641 TIME LEFT:  2.00D  GRAD.:     0.190 HEAT: -44.30157
 CYCLE:   515 TIME:   0.516 TIME LEFT:  2.00D  GRAD.:     0.160 HEAT: -44.30157
 CYCLE:   516 TIME:   0.602 TIME LEFT:  2.00D  GRAD.:     0.284 HEAT: -44.30157
 CYCLE:   517 TIME:   0.453 TIME LEFT:  2.00D  GRAD.:     0.235 HEAT: -44.30157
 CYCLE:   518 TIME:   0.516 TIME LEFT:  2.00D  GRAD.:     0.195 HEAT: -44.30158
 CYCLE:   519 TIME:   0.438 TIME LEFT:  2.00D  GRAD.:     0.199 HEAT: -44.30158
 CYCLE:   520 TIME:   0.547 TIME LEFT:  2.00D  GRAD.:     0.221 HEAT: -44.30158
 CYCLE:   521 TIME:   0.477 TIME LEFT:  2.00D  GRAD.:     0.162 HEAT: -44.30158
 CYCLE:   522 TIME:   0.531 TIME LEFT:  2.00D  GRAD.:     0.122 HEAT: -44.30158
 CYCLE:   523 TIME:   0.531 TIME LEFT:  2.00D  GRAD.:     0.127 HEAT: -44.30159
 CYCLE:   524 TIME:   0.477 TIME LEFT:  2.00D  GRAD.:     0.155 HEAT: -44.30159
 CYCLE:   525 TIME:   0.391 TIME LEFT:  2.00D  GRAD.:     0.197 HEAT: -44.30159
 CYCLE:   526 TIME:   0.406 TIME LEFT:  2.00D  GRAD.:     0.147 HEAT: -44.30159
 CYCLE:   527 TIME:   0.508 TIME LEFT:  2.00D  GRAD.:     0.121 HEAT: -44.30159
 CYCLE:   528 TIME:   0.523 TIME LEFT:  2.00D  GRAD.:     0.126 HEAT: -44.30160
 CYCLE:   529 TIME:   0.508 TIME LEFT:  2.00D  GRAD.:     0.110 HEAT: -44.30160
 CYCLE:   530 TIME:   0.586 TIME LEFT:  2.00D  GRAD.:     0.104 HEAT: -44.30160
 CYCLE:   531 TIME:   0.555 TIME LEFT:  2.00D  GRAD.:     0.115 HEAT: -44.30160
 CYCLE:   532 TIME:   0.469 TIME LEFT:  2.00D  GRAD.:     0.124 HEAT: -44.30160
 CYCLE:   533 TIME:   0.555 TIME LEFT:  2.00D  GRAD.:     0.149 HEAT: -44.30161
 CYCLE:   534 TIME:   1.320 TIME LEFT:  2.00D  GRAD.:     0.171 HEAT: -44.30161
 CYCLE:   535 TIME:   0.508 TIME LEFT:  2.00D  GRAD.:     0.360 HEAT: -44.30161
 CYCLE:   536 TIME:   0.516 TIME LEFT:  2.00D  GRAD.:     0.261 HEAT: -44.30161
 CYCLE:   537 TIME:   0.461 TIME LEFT:  2.00D  GRAD.:     0.160 HEAT: -44.30161
 CYCLE:   538 TIME:   0.594 TIME LEFT:  2.00D  GRAD.:     0.162 HEAT: -44.30162
 CYCLE:   539 TIME:   0.555 TIME LEFT:  2.00D  GRAD.:     0.256 HEAT: -44.30162
 CYCLE:   540 TIME:   0.508 TIME LEFT:  2.00D  GRAD.:     0.217 HEAT: -44.30162
 CYCLE:   541 TIME:   0.484 TIME LEFT:  2.00D  GRAD.:     0.120 HEAT: -44.30162
 CYCLE:   542 TIME:   0.508 TIME LEFT:  2.00D  GRAD.:     0.105 HEAT: -44.30162
 CYCLE:   543 TIME:   0.406 TIME LEFT:  2.00D  GRAD.:     0.081 HEAT: -44.30162

 -------------------------------------------------------------------------------
 RM1 PRECISE POLAR GNORM=0.1




     HERBERTS TEST WAS SATISFIED IN BFGS                      
     SCF FIELD WAS ACHIEVED                                   


                              RM1 CALCULATION
                                                       MOPAC2016 (Version: 21.013L)
                                                       Sun Oct 17 20:27:01 2021
                                                       No. of days remaining =  88




          FINAL HEAT OF FORMATION =        -44.30162 KCAL/MOL =    -185.35799 KJ/MOL


          TOTAL ENERGY            =      -9062.80198 EV
          ELECTRONIC ENERGY       =    -108970.40880 EV  POINT GROUP:     C1  
          CORE-CORE REPULSION     =      99907.60682 EV
          COSMO AREA              =        918.73 SQUARE ANGSTROMS
          COSMO VOLUME            =       1096.23 CUBIC ANGSTROMS

          GRADIENT NORM           =          0.08086 = 0.00712 PER ATOM
          IONIZATION POTENTIAL    =          8.048080 EV
          HOMO LUMO ENERGIES (EV) =         -8.048 -1.392
          NO. OF FILLED LEVELS    =        158
          MOLECULAR WEIGHT        =        831.2682

          MOLECULAR DIMENSIONS (Angstroms)

            Atom       Atom       Distance
            H   124    H   109    27.13295
            H    62    O    56    20.13278
            H   127    H    82     8.55841


          SCF CALCULATIONS        =        544
 
          WALL-CLOCK TIME         =  5 MINUTES AND  8.336 SECONDS
          COMPUTATION TIME        = 35 MINUTES AND 14.588 SECONDS




  ATOM    CHEMICAL      BOND LENGTH      BOND ANGLE     TWIST ANGLE 
 NUMBER    SYMBOL       (ANGSTROMS)      (DEGREES)       (DEGREES) 
   (I)                     NA:I           NB:NA:I       NC:NB:NA:I       NA    NB    NC 
     1       C          0.00000000       0.0000000       0.0000000        0     0     0
     2       C          1.51999833  *    0.0000000       0.0000000        1     0     0
     3       C          1.52665845  *  110.7728618  *    0.0000000        2     1     0
     4       C          1.52688262  *  110.8099606  * -179.9497233  *     3     2     1
     5       C          1.52705872  *  110.7500693  * -179.9224065  *     4     3     2
     6       C          1.52709649  *  110.7466611  * -179.9338791  *     5     4     3
     7       C          1.52708705  *  110.7455502  * -179.9383345  *     6     5     4
     8       C          1.52709491  *  110.7421005  * -179.9577820  *     7     6     5
     9       C          1.52707006  *  110.7414912  *  179.9895892  *     8     7     6
    10       C          1.52665971  *  110.7168752  *  179.6229922  *     9     8     7
    11       C          1.52860127  *  110.8899271  *  179.0957918  *    10     9     8
    12       C          1.52801497  *  111.8735649  *  177.1496114  *    11    10     9
    13       C          1.53807473  *  114.0529007  * -102.9689300  *    12    11    10
    14       C          1.53659240  *  112.8035849  *   56.0536220  *    13    12    11
    15       C          1.52786265  *  115.8635287  * -124.0402522  *    14    13    12
    16       C          1.52692148  *  112.1147042  *   87.2232184  *    15    14    13
    17       C          1.52639491  *  110.9168411  * -175.2191378  *    16    15    14
    18       C          1.52713638  *  110.7540224  * -178.5086091  *    17    16    15
    19       C          1.52705233  *  110.7485836  * -179.3982951  *    18    17    16
    20       C          1.52708985  *  110.7481639  * -179.8667484  *    19    18    17
    21       C          1.52709285  *  110.7360959  * -179.9377256  *    20    19    18
    22       C          1.52705523  *  110.7497156  * -179.9887428  *    21    20    19
    23       C          1.52687347  *  110.7456218  * -179.9988671  *    22    21    20
    24       C          1.52666385  *  110.8125788  *  179.9950562  *    23    22    21
    25       C          1.51999861  *  110.7690966  *  179.9970906  *    24    23    22
    26       C          1.50802214  *  110.4767763  *  -75.6504048  *    13    12    11
    27       C          1.40208961  *  137.4487382  *  -62.8543254  *    26    13    14
    28       C          1.39242211  *  111.0716037  * -178.1622066  *    27    26    13
    29       S          1.70753281  *  112.5903039  *   -0.0881319  *    28    27    26
    30       C          1.40350265  *  111.4453949  *  118.8139232  *    26    13    14
    31       C          1.42391652  *  108.5555441  * -179.9449678  *    30    26    27
    32       C          1.38798336  *  108.2851765  *    0.4428620  *    31    30    26
    33       C          1.41512513  *  112.4459631  * -179.8590382  *    32    31    30
    34       C          1.37388393  *  110.2503066  *    0.1423050  *    33    32    31
    35       S          1.67654361  *  138.6387095  * -179.4835070  *    31    30    26
    36       C          1.44309931  *  125.2711165  * -179.2806787  *    34    33    32
    37       C          1.40342160  *  120.0811140  * -137.7221634  *    36    34    33
    38       C          1.38462753  *  121.5683437  *  179.7266990  *    37    36    34
    39       C          1.39311118  *  117.5086351  *   -0.0343122  *    38    37    36
    40       C          1.42247563  *  121.2132680  *   -0.5139580  *    39    38    37
    41       C          1.39285285  *  118.8939765  *   41.6635696  *    36    34    33
    42       C          1.44101584  *  107.0566100  * -179.1743960  *    40    39    38
    43       C          1.38524321  *  132.7193996  *  179.8279933  *    42    40    39
    44       C          1.38691570  *  118.3258508  * -179.2672909  *    43    42    40
    45       C          1.39855241  *  121.0873660  *   -0.0244859  *    44    43    42
    46       C          1.38634549  *  121.7376948  *   -0.2467758  *    45    44    43
    47       C          1.42079941  *  107.0396632  *   -0.0143268  *    42    40    39
    48       N          1.40947346  *  129.6370768  *  176.5144008  *    39    38    37
    49       C          1.46010294  *  124.8941281  * -164.5778309  *    48    39    40
    50       C          1.53565901  *  111.8686850  *   81.7878733  *    49    48    39
    51       C          1.52547756  *  110.0864808  *  179.8418408  *    50    49    48
    52       C          1.51989607  *  110.5550787  * -179.8894853  *    51    50    49
    53       C          1.42650798  *  121.7764944  * -179.9142336  *    28    27    26
    54       C          1.35135939  *  126.0279770  *  179.7473474  *    53    28    27
    55       C          1.46683943  *  123.0329736  *  179.4308196  *    54    53    28
    56       O          1.22052925  *  127.4127288  * -164.6401841  *    55    54    53
    57       O          1.35404136  *  113.8790142  *   15.5742141  *    55    54    53
    58       C          1.41648399  *  123.4069200  *   -0.0222962  *    54    53    28
    59       N          1.15716872  *  178.6854559  * -178.6206691  *    58    54    53
    60       H          1.10215846  *  114.7069879  *   -0.5152159  *    53    28    27
    61       H          1.09957450  *  112.2901953  *   60.1688863  *     1     2     3
    62       H          1.09965444  *  111.8536395  * -179.9845909  *     1     2     3
    63       H          1.09957131  *  112.2915446  *  -60.1344544  *     1     2     3
    64       H          1.11062000  *  110.1307004  * -177.2569511  *     2     1    61
    65       H          1.11062070  *  110.1293893  *  177.2926991  *     2     1    63
    66       H          1.11054716  *  110.2146724  * -179.7899201  *     3     2    64
    67       H          1.11054932  *  110.2070781  *  179.8862408  *     3     2    65
    68       H          1.11057840  *  110.3146840  * -179.8790571  *     4     3    66
    69       H          1.11057335  *  110.3102723  * -179.9777675  *     4     3    67
    70       H          1.11057249  *  110.3194457  * -179.9276113  *     5     4    68
    71       H          1.11057592  *  110.3147033  * -179.9427898  *     5     4    69
    72       H          1.11057806  *  110.3223836  * -179.9363620  *     6     5    70
    73       H          1.11057645  *  110.3186652  * -179.9453659  *     6     5    71
    74       H          1.11057186  *  110.3326297  * -179.9629418  *     7     6    72
    75       H          1.11058617  *  110.3113219  *  -64.8303795  *     7     6    72
    76       H          1.11058199  *  110.3392856  *  179.9778807  *     8     7    74
    77       H          1.11058552  *  110.3082622  *  179.9785681  *     8     7    75
    78       H          1.11049410  *  110.3554150  *  179.6449023  *     9     8    76
    79       H          1.11108710  *  110.2841390  *  179.7060610  *     9     8    77
    80       H          1.11493678  *  110.4505540  *  178.3108503  *    10     9    78
    81       H          1.11021881  *  110.3539113  *  178.6910248  *    10     9    79
    82       H          1.11090850  *  109.6526757  *  177.1924812  *    11    10    80
    83       H          1.11271341  *  109.9252448  *  -68.8374973  *    11    10    80
    84       H          1.11151796  *  110.9810816  * -101.5836978  *    12    11    82
    85       H          1.11167055  *  109.8179601  * -102.1522337  *    12    11    83
    86       H          1.11480390  *  110.3687954  * -117.7841828  *    14    13    32
    87       H          1.11328014  *  108.8932303  *   -5.6359451  *    14    13    32
    88       H          1.11280718  *  109.1626348  *   82.2678771  *    15    14    86
    89       H          1.10949136  *  111.2335805  * -164.0583641  *    15    14    86
    90       H          1.11701640  *  110.2042217  * -173.4803113  *    16    15    88
    91       H          1.11097803  *  110.2895553  * -172.5263395  *    16    15    89
    92       H          1.11050523  *  110.3041045  * -178.5996788  *    17    16    90
    93       H          1.11081570  *  110.3317672  *  -63.5119724  *    17    16    90
    94       H          1.11065327  *  110.3324345  * -179.3958498  *    18    17    92
    95       H          1.11058684  *  110.3312664  *  -64.2818534  *    18    17    92
    96       H          1.11057432  *  110.2993420  * -179.8847199  *    19    18    94
    97       H          1.11059917  *  110.3430802  * -179.8689016  *    19    18    95
    98       H          1.11057278  *  110.3310152  * -179.9216060  *    20    19    96
    99       H          1.11057697  *  110.3299564  *  -64.7771660  *    20    19    96
   100       H          1.11057838  *  110.3237022  * -179.9892473  *    21    20    98
   101       H          1.11058198  *  110.3285220  * -179.9914788  *    21    20    99
   102       H          1.11057586  *  110.3348342  *  179.9931712  *    22    21   100
   103       H          1.11057589  *  110.3348128  *  -64.8644335  *    22    21   100
   104       H          1.11054997  *  110.4060780  *  179.9483217  *    23    22   102
   105       H          1.11055265  *  110.4071446  *  -64.8426554  *    23    22   102
   106       H          1.11061933  *  110.5221412  *  179.8314000  *    24    23   104
   107       H          1.11062077  *  110.5229634  *  -64.8557607  *    24    23   104
   108       H          1.09957284  *  112.2901716  *  -62.4224329  *    25    24   106
   109       H          1.09965186  *  111.8548991  *   57.4264461  *    25    24   106
   110       H          1.09957160  *  112.2905520  *  177.2755482  *    25    24   106
   111       H          1.09089798  *  124.4251086  * -178.6319016  *    27    26    30
   112       H          1.08644324  *  124.2772306  *  179.3941252  *    33    32    31
   113       H          1.09506143  *  119.4172847  * -179.0833663  *    37    36    41
   114       H          1.09154110  *  120.6748458  * -179.9164204  *    38    37    36
   115       H          1.09312334  *  121.5450784  *    0.9892056  *    41    36    34
   116       H          1.09273880  *  120.3119572  * -179.4461888  *    43    42    47
   117       H          1.09347208  *  119.6649353  *  179.9506106  *    44    43    42
   118       H          1.09470286  *  119.0701458  *  179.7281598  *    45    44    43
   119       H          1.09130468  *  120.9812145  *  179.9711869  *    46    45    44
   120       H          1.11509536  *  108.5453835  * -155.3768582  *    49    48    39
   121       H          1.11446760  *  108.9606437  *  -41.4454498  *    49    48    39
   122       H          1.11048120  *  110.4122558  * -179.1673382  *    50    49   120
   123       H          1.11081716  *  110.3000103  *  -63.9468673  *    50    49   120
   124       H          1.11079410  *  110.6082775  * -179.9318828  *    51    50   122
   125       H          1.11079735  *  110.5994952  *  -64.4290938  *    51    50   122
   126       H          1.09959752  *  112.2981503  *  -62.4235212  *    52    51   124
   127       H          1.09969607  *  111.7878037  *   57.4105048  *    52    51   124
   128       H          1.09960221  *  112.2935025  *  177.2384914  *    52    51   124
   129       H          0.96754830  *  110.9502523  *    0.0223582  *    57    55    56

                             CARTESIAN COORDINATES

   1    C        0.000000000     0.000000000     0.000000000
   2    C        1.519998331     0.000000000     0.000000000
   3    C        2.061449340     1.427416139     0.000000000
   4    C        3.588331123     1.428404984    -0.001252426
   5    C        4.128432916     2.856758809     0.000682868
   6    C        5.655526382     2.857660036    -0.002217917
   7    C        6.195613421     4.286046812     0.001254468
   8    C        7.722703002     4.286859546    -0.002698893
   9    C        8.262768171     5.715237038     0.000514024
  10    C        9.789418172     5.715374241     0.005955557
  11    C       10.334421213     7.143387120    -0.013351250
  12    C       11.860309862     7.171427315     0.062195635
  13    C       12.412596772     7.542518274     1.448898390
  14    C       11.894153554     6.619792217     2.562859545
  15    C       11.192977765     7.312920730     3.730031193
  16    C        9.702896482     7.516807500     3.466256382
  17    C        9.053835937     8.314035863     4.594542150
  18    C        7.556817318     8.484148026     4.345257922
  19    C        6.910300136     9.294424153     5.466577207
  20    C        5.412733352     9.461723662     5.218972679
  21    C        4.766761153    10.273357072     6.339679470
  22    C        3.269148997    10.440607535     6.092530166
  23    C        2.623371554    11.252157332     7.213110831
  24    C        1.126022034    11.420408594     6.967472014
  25    C        0.484164507    12.228340318     8.083563867
  26    C       12.268334704     9.023275066     1.695228533
  27    C       11.226314070     9.942507689     1.882470758
  28    C       11.720443055    11.235574161     2.032986458
  29    S       13.424527607    11.300797260     1.946325648
  30    C       13.516856097     9.664041436     1.716024371
  31    C       14.532013723     8.684870904     1.520529329
  32    C       13.920674697     7.447978142     1.369338378
  33    C       14.855246662     6.403917645     1.171621304
  34    C       16.135367725     6.902560115     1.185862320
[...]
  113          H           0.107921        0.8921     0.89208
  114          H           0.119737        0.8803     0.88026
  115          H           0.114692        0.8853     0.88531
  116          H           0.107174        0.8928     0.89283
  117          H           0.108553        0.8914     0.89145
  118          H           0.101355        0.8986     0.89865
  119          H           0.117570        0.8824     0.88243
  120          H           0.078225        0.9218     0.92178
  121          H           0.078353        0.9216     0.92165
  122          H           0.081090        0.9189     0.91891
  123          H           0.081568        0.9184     0.91843
  124          H           0.060646        0.9394     0.93935
  125          H           0.060694        0.9393     0.93931
  126          H           0.061188        0.9388     0.93881
  127          H           0.059634        0.9404     0.94037
  128          H           0.061331        0.9387     0.93867
  
 DIPOLE           X         Y         Z       TOTAL
 POINT-CHG.     3.140    -5.182     0.395     6.072
 HYBRID        -3.054    -2.183     0.076     3.755
 SUM            0.085    -7.365     0.471     7.381


          ATOMIC ORBITAL ELECTRON POPULATIONS

     Atom    s        px        py        pz   
    1  C   1.15574   0.96518   1.02746   1.02868
    2  C   1.16681   0.95222   0.96751   1.02584
    3  C   1.17075   0.95358   0.96932   1.02912
    4  C   1.17073   0.95650   0.96791   1.02847
    5  C   1.17073   0.95400   0.96981   1.02868
    6  C   1.17076   0.95648   0.96737   1.02878
    7  C   1.17076   0.95344   0.97043   1.02875
    8  C   1.17074   0.95709   0.96648   1.02902
    9  C   1.17085   0.95319   0.97158   1.02881
   10  C   1.17355   0.95727   0.96706   1.02857
   11  C   1.17203   0.94841   0.97387   1.03406
   12  C   1.17416   0.95808   1.03587   0.95510
   13  C   1.16373   0.89204   0.89018   0.94427
   14  C   1.17401   1.01981   0.97692   0.95731
   15  C   1.16992   0.95200   1.02441   0.97287
   16  C   1.17433   0.95734   1.01271   0.98771
   17  C   1.17091   0.95527   1.01020   0.98997
   18  C   1.17078   0.95412   1.01010   0.98789
   19  C   1.17082   0.95597   1.00930   0.98818
   20  C   1.17073   0.95356   1.00938   0.98933
   21  C   1.17075   0.95547   1.00908   0.98820
   22  C   1.17072   0.95416   1.00921   0.98937
   23  C   1.17076   0.95496   1.00909   0.98810
   24  C   1.16680   0.95467   1.00596   0.98486
   25  C   1.15574   1.01458   1.01106   0.99575
   26  C   1.19031   0.91312   0.95889   1.06128
   27  C   1.17826   0.98492   0.89659   0.92550
   28  C   1.22294   1.02755   0.99693   1.25575
   29  S   1.87478   0.91415   0.91519   1.62631
   30  C   1.21985   0.98259   1.01610   1.05709
   31  C   1.20841   0.99776   0.97924   1.14836
   32  C   1.19718   0.95564   0.91728   0.99181
   33  C   1.17307   0.90817   0.98779   1.03036
   34  C   1.21954   0.97454   0.98897   1.09662
   35  S   1.87957   0.92222   0.96926   1.70068
   36  C   1.14872   0.92273   0.98479   0.99273
   37  C   1.17603   0.92462   0.97949   0.97512
   38  C   1.17006   0.99700   0.98945   1.00928
   39  C   1.15335   0.85405   0.92420   0.94821
   40  C   1.15934   0.94433   0.99482   0.99389
   41  C   1.16986   0.96216   0.93516   0.95995
   42  C   1.15902   0.94069   0.99083   1.00176
   43  C   1.16935   0.98002   0.94472   0.94114
   44  C   1.17814   0.96238   0.99843   1.01861
   45  C   1.17649   0.94350   0.97713   0.95605
   46  C   1.17073   1.00326   0.98982   1.00387
   47  C   1.15333   0.91794   0.90892   0.90598
   48  N   1.51870   1.15873   1.31328   1.29569
   49  C   1.15777   0.84903   0.99411   0.93663
   50  C   1.17991   0.99443   1.00443   0.99012
   51  C   1.16547   0.96592   0.99553   0.98046
   52  C   1.15554   1.03123   0.99577   0.99584
   53  C   1.16739   0.98165   0.88024   0.78977
   54  C   1.14024   0.88434   0.94415   1.22398
   55  C   1.17880   0.80836   0.87306   0.73078
   56  O   1.90986   1.82842   1.15781   1.46457
   57  O   1.83995   1.23217   1.43195   1.83364
   58  C   1.19735   0.91539   0.92311   0.91787
   59  N   1.84859   1.11755   1.07462   1.11056
   60  H   0.87662
   61  H   0.94245
   62  H   0.94442
   63  H   0.94251
   64  H   0.94045
   65  H   0.94039
   66  H   0.93795
   67  H   0.93806
   68  H   0.93843
   69  H   0.93831
   70  H   0.93806
   71  H   0.93833
   72  H   0.93825
   73  H   0.93797
   74  H   0.93772
   75  H   0.93852
   76  H   0.93843
   77  H   0.93739
   78  H   0.93678
   79  H   0.93892
   80  H   0.93499
   81  H   0.93621
   82  H   0.93707
   83  H   0.92898
   84  H   0.92852
   85  H   0.92598
   86  H   0.92163
   87  H   0.92969
   88  H   0.93982
   89  H   0.92496
   90  H   0.93604
   91  H   0.93525
   92  H   0.93467
   93  H   0.93760
   94  H   0.94222
   95  H   0.93710
   96  H   0.93675
   97  H   0.93710
   98  H   0.93902
   99  H   0.93827
  100  H   0.93772
  101  H   0.93772
  102  H   0.93873
  103  H   0.93852
  104  H   0.93779
  105  H   0.93781
  106  H   0.94056
  107  H   0.94055
  108  H   0.94230
  109  H   0.94443
  110  H   0.94241
  111  H   0.86838
  112  H   0.86735
  113  H   0.89208
  114  H   0.88026
  115  H   0.88531
  116  H   0.89283
  117  H   0.89145
  118  H   0.89865
  119  H   0.88243
  120  H   0.92178
  121  H   0.92165
  122  H   0.91891
  123  H   0.91843
  124  H   0.93935
  125  H   0.93931
  126  H   0.93881
  127  H   0.94037
  128  H   0.93867
  129  H   0.75596
 ******************** TDHF POLARIZABILITIES ********************



          MOLECULAR WEIGHT =  831.27



          ROTATIONAL CONSTANTS IN CM(-1)

          A =    0.00103753   B =    0.00044541   C =    0.00034081



           PRINCIPAL MOMENTS OF INERTIA IN UNITS OF 10**(-40)*GRAM-CM**2

          A =    26980.0817   B =    62847.0054   C =    82136.3544


 ROTATION MATRIX FOR ORIENTATION OF MOLECULE:

         0.939848    0.327530    0.097010
        -0.280473    0.902018   -0.328173
        -0.194991    0.281224    0.939623


          CARTESIAN COORDINATES 

    NO.       ATOM         X         Y         Z

     1         C       -8.9139  -10.8363   -0.5367
     2         C       -7.4854  -10.3384   -0.3893
     3         C       -7.3768   -8.8735   -0.8052
     4         C       -5.9418   -8.3729   -0.6586
     5         C       -5.8352   -6.9070   -1.0731
     6         C       -4.3996   -6.4069   -0.9280
     7         C       -4.2933   -4.9406   -1.3411
     8         C       -2.8576   -4.4408   -1.1969
     9         C       -2.7512   -2.9746   -1.6103
    10         C       -1.3175   -2.4729   -1.4571
    11         C       -1.2021   -1.0117   -1.8910
    12         C        0.2094   -0.4654   -1.6812
    13         C        0.3540    0.4402   -0.4464
    14         C       -0.0916   -0.2487    0.8528
    15         C       -1.1726    0.4751    1.6540
    16         C       -2.5788    0.0968    1.1947
    17         C       -3.6324    0.9206    1.9303
    18         C       -5.0385    0.5137    1.4950
    19         C       -6.0921    1.3481    2.2200
    20         C       -7.4982    0.9389    1.7871
    21         C       -8.5515    1.7746    2.5112
    22         C       -9.9577    1.3655    2.0788
    23         C      -11.0108    2.2011    2.8027
    24         C      -12.4173    1.7934    2.3714
    25         C      -13.4648    2.6258    3.0927
    26         C       -0.2449    1.7979   -0.7149
    27         C       -1.5186    2.3384   -0.9417
    28         C       -1.4462    3.7089   -1.1767
    29         S        0.1540    4.3015   -1.1142
    30         C        0.7448    2.7906   -0.7845
    31         C        2.0116    2.1849   -0.5484
    32         C        1.8134    0.8265   -0.3438
    33         C        3.0232    0.1352   -0.0963
    34         C        4.0837    1.0083   -0.1224
    35         S        3.6233    2.6361   -0.4496
    36         C        5.4665    0.6459    0.0751
    37         C        6.2988    1.4521    0.8669
    38         C        7.6283    1.1306    1.0815
    39         C        8.1150   -0.0286    0.4814
    40         C        7.2739   -0.8565   -0.3128
    41         C        5.9491   -0.5171   -0.5204
    42         C        8.0752   -1.9674   -0.7605
    43         C        7.7939   -3.0723   -1.5472
    44         C        8.8090   -3.9871   -1.7842
    45         C       10.0866   -3.8037   -1.2454
    46         C       10.3958   -2.7042   -0.4596
    47         C        9.3787   -1.7826   -0.2262
    48         N        9.4220   -0.5562    0.4730
    49         C       10.4790   -0.1839    1.4090
    50         C       10.3557   -0.9386    2.7407
    51         C       11.4797   -0.5227    3.6846
    52         C       11.3693   -1.2658    5.0058
    53         C       -2.6122    4.4898   -1.4331
    54         C       -2.6421    5.8205   -1.6665
    55         C       -3.8816    6.5574   -1.9354
    56         O       -3.9906    7.6791   -2.4039
    57         O       -5.0056    5.8778   -1.6068
    58         C       -1.4835    6.6351   -1.6865
    59         N       -0.5523    7.3217   -1.7075
    60         H       -3.5560    3.9206   -1.4374
    61         H       -9.2757  -10.7646   -1.5726
    62         H       -9.0124  -11.8909   -0.2412
    63         H       -9.6200  -10.2678    0.0856
    64         H       -7.1400  -10.4725    0.6577
    65         H       -6.7973  -10.9668   -0.9937
    66         H       -7.7269   -8.7447   -1.8512
    67         H       -8.0682   -8.2505   -0.1992
    68         H       -5.5925   -8.5044    0.3874
    69         H       -5.2520   -8.9968   -1.2654
    70         H       -6.1857   -6.7755   -2.1187
    71         H       -6.5244   -6.2834   -0.4653
    72         H       -4.0488   -6.5395    0.1173
    73         H       -3.7108   -7.0301   -1.5366
    74         H       -4.6448   -4.8076   -2.3862
    75         H       -4.9819   -4.3175   -0.7319
    76         H       -2.5059   -4.5732   -0.1519
    77         H       -2.1694   -5.0643   -1.8060
    78         H       -3.0968   -2.8424   -2.6573
    79         H       -3.4439   -2.3523   -1.0041
    80         H       -0.9794   -2.5766   -0.3998
    81         H       -0.6213   -3.1083   -2.0437
    82         H       -1.4904   -0.9154   -2.9595
    83         H       -1.9530   -0.3948   -1.3492
    84         H        0.9496   -1.2917   -1.6107
    85         H        0.5314    0.1025   -2.5810
    86         H       -0.4108   -1.2967    0.6466
    87         H        0.7958   -0.3859    1.5108
    88         H       -1.0614    0.2198    2.7314
    89         H       -1.0224    1.5741    1.6301
    90         H       -2.6741    0.2347    0.0903
    91         H       -2.7565   -0.9885    1.3519
    92         H       -3.5181    0.8004    3.0283
    93         H       -3.4709    2.0045    1.7487
    94         H       -5.1491    0.6237    0.3953
    95         H       -5.2039   -0.5677    1.6866
    96         H       -5.9799    1.2395    3.3195
    97         H       -5.9283    2.4294    2.0266
    98         H       -7.6099    1.0462    0.6874
    99         H       -7.6626   -0.1420    1.9821
   100         H       -8.4397    1.6676    3.6109
   101         H       -8.3872    2.8555    2.3162
   102         H      -10.0698    1.4725    0.9791
   103         H      -10.1223    0.2846    2.2739
   104         H      -10.9007    2.0945    3.9026
   105         H      -10.8481    3.2823    2.6081
   106         H      -12.5341    1.9010    1.2722
   107         H      -12.5867    0.7132    2.5666
   108         H      -13.3592    3.7004    2.8849
   109         H      -14.4859    2.3465    2.7949
   110         H      -13.4120    2.5076    4.1847
   111         H       -2.4457    1.7641   -0.9165
   112         H        3.0895   -0.9316    0.0983
   113         H        5.8879    2.3528    1.3350
   114         H        8.2623    1.7675    1.7011
   115         H        5.3100   -1.1482   -1.1435
   116         H        6.7942   -3.2109   -1.9662
   117         H        8.6109   -4.8675   -2.4015
   118         H       10.8620   -4.5489   -1.4499
   119         H       11.3968   -2.5737   -0.0451
   120         H       11.4651   -0.3814    0.9272
   121         H       10.4496    0.9187    1.5685
   122         H        9.3650   -0.7469    3.2043
   123         H       10.3772   -2.0353    2.5656
   124         H       12.4706   -0.7134    3.2204
   125         H       11.4572    0.5739    3.8598
   126         H       11.4345   -2.3560    4.8781
   127         H       12.1716   -0.9816    5.7022
   128         H       10.4190   -1.0630    5.5204
   129         H       -5.7957    6.4024   -1.7985


 ENERGY OF "REORIENTED" SYSTEM WITHOUT FIELD:      -44.3016217090


  NFREQ=  3  IWFLB=  0  IBET=  1  IGAM=  1
  ATOL= 0.10000D-02  BTOL= 0.10000D-02    MAXITU=  500    MAXITA=  150


 *****************************************************************
 CALCULATION OF STATIC FIELD QUANTITIES
 *****************************************************************

 +++++ ALPHA AT       0.00000 EV.

                           COMPONENTS OF ALPHA

                     *X           *Y           *Z
           *=X:     754.1825    -144.0329      56.7954
           *=Y:    -144.0495     638.3788       5.3255
           *=Z:      56.8293       5.3062     318.4139

  ISOTROPIC AVERAGE ALPHA =     570.32507 A.U. =     84.51345 ANG.**3

 +++++ BETA (SECOND HARMONIC GENERATION) AT       0.00000 EV.

                              COMPONENTS OF BETA
            *XX         *XY         *YY         *XZ         *YZ         *ZZ
   *=X  7161.49515 -5159.97414  3237.38388  1259.10392 -1033.56653   130.22599
   *=Y -5160.15612  3237.74300 -1715.74995 -1033.58530   830.67753   -34.41975
   *=Z  1259.75503 -1034.12601   830.92398   130.37516   -34.58769    28.84294


 AVERAGE BETAX(SHG) VALUE AT   0.00000 EV =       6317.6663 a.u. =  0.545810E-28 ESU
 AVERAGE BETAY(SHG) VALUE AT   0.00000 EV =      -4146.1899 a.u. = -0.358207E-28 ESU
 AVERAGE BETAZ(SHG) VALUE AT   0.00000 EV =       1271.3541 a.u. =  0.109838E-28 ESU



 AVERAGE BETA (SHG) VALUE AT   0.00000 EV =       7662.9067 a.u. =  0.662031E-28 ESU
   (1 a.u. = 8.639418X10-33 esu)



 +++++ ALPHA AT       0.00000 EV.

                           COMPONENTS OF ALPHA

                     *X           *Y           *Z
           *=X:     754.1825    -144.0329      56.7954
           *=Y:    -144.0495     638.3788       5.3255
           *=Z:      56.8293       5.3062     318.4139

  ISOTROPIC AVERAGE ALPHA =     570.32507 A.U. =     84.51345 ANG.**3


 GAMMA (THIRD HARMONIC GENERATION) AT    0.00000 EV.


 GAMMA(X,X,X,X) =       2100811.50889
 GAMMA(Y,Y,Y,Y) =        288692.54946
 GAMMA(Z,Z,Z,Z) =         19800.75488
 GAMMA(X,X,Y,Y) =        791807.61830
 GAMMA(X,X,Z,Z) =         73480.24244
 GAMMA(Y,Y,X,X) =        791808.01078
 GAMMA(Y,Y,Z,Z) =         34019.01875
 GAMMA(Z,Z,X,X) =         73480.24154
 GAMMA(Z,Z,Y,Y) =         34019.13475


 AVERAGE GAMMA VALUE AT    0.00000 =        841583.81596 a.u. =       423880.73770 ESU (X10-39)




 **********************************************************************
 CALCULATION FOR A FREQUENCY OF    0.25000 EV  =       0.00919 A.U. 
                  WAVELENGTH OF    4959.37 NM  =    2016.38525 CM(-1)
 **********************************************************************

 +++++ ALPHA AT       0.25000 EV.

                           COMPONENTS OF ALPHA

                     *X           *Y           *Z
           *=X:     757.2492    -145.6978      57.2205
           *=Y:    -145.7100     640.3900       5.0845
           *=Z:      57.2448       5.0706     318.8101

  ISOTROPIC AVERAGE ALPHA =     572.14977 A.U. =     84.78385 ANG.**3

 +++++ BETA (SECOND HARMONIC GENERATION) AT       0.25000 EV.

                              COMPONENTS OF BETA
            *XX         *XY         *YY         *XZ         *YZ         *ZZ
   *=X  7562.58539 -5461.98393  3435.20885  1336.76433 -1097.26350   140.44863
   *=Y -5442.41839  3445.91437 -1856.31762 -1093.18570   879.94302   -41.98710
   *=Z  1329.88690 -1092.50147   875.41986   141.93128   -44.11035    31.15661


 AVERAGE BETAX(SHG) VALUE AT   0.25000 EV =       6687.8210 a.u. =  0.577789E-28 ESU
 AVERAGE BETAY(SHG) VALUE AT   0.25000 EV =      -4413.1094 a.u. = -0.381267E-28 ESU
 AVERAGE BETAZ(SHG) VALUE AT   0.25000 EV =       1346.4383 a.u. =  0.116324E-28 ESU



 AVERAGE BETA (SHG) VALUE AT   0.25000 EV =       8124.9849 a.u. =  0.701951E-28 ESU
   (1 a.u. = 8.639418X10-33 esu)



 +++++ ALPHA AT       0.75000 EV.

                           COMPONENTS OF ALPHA

                     *X           *Y           *Z
           *=X:     784.1251    -160.5683      60.9435
           *=Y:    -160.5733     657.7676       2.9258
           *=Z:      60.9678       2.9101     322.0812

  ISOTROPIC AVERAGE ALPHA =     587.99133 A.U. =     87.13132 ANG.**3


 GAMMA (THIRD HARMONIC GENERATION) AT    0.25000 EV.


 GAMMA(X,X,X,X) =       2391548.56398
 GAMMA(Y,Y,Y,Y) =        334581.50352
 GAMMA(Z,Z,Z,Z) =         20472.05782
 GAMMA(X,X,Y,Y) =        903720.48051
 GAMMA(X,X,Z,Z) =         82420.92724
 GAMMA(Y,Y,X,X) =        915961.05882
 GAMMA(Y,Y,Z,Z) =         38508.36034
 GAMMA(Z,Z,X,X) =         82552.60702
 GAMMA(Z,Z,Y,Y) =         38061.97317


 AVERAGE GAMMA VALUE AT    0.25000 =        961565.50648 a.u. =       484311.94672 ESU (X10-39)




 **********************************************************************
 CALCULATION FOR A FREQUENCY OF    0.50000 EV  =       0.01837 A.U. 
                  WAVELENGTH OF    2479.68 NM  =    4032.77050 CM(-1)
 **********************************************************************

 +++++ ALPHA AT       0.50000 EV.

                           COMPONENTS OF ALPHA

                     *X           *Y           *Z
           *=X:     766.8008    -150.9173      58.5247
           *=Y:    -150.9280     646.6140       4.3396
           *=Z:      58.5507       4.3240     320.0106

  ISOTROPIC AVERAGE ALPHA =     577.80850 A.U. =     85.62238 ANG.**3

 +++++ BETA (SECOND HARMONIC GENERATION) AT       0.50000 EV.

                              COMPONENTS OF BETA
            *XX         *XY         *YY         *XZ         *YZ         *ZZ
   *=X  9054.57438 -6593.15946  4180.18564  1627.58494 -1336.19660   179.29003
   *=Y -6491.91578  4229.12078 -2388.15885 -1314.31664  1063.05386   -70.83321
   *=Z  1591.90017 -1310.03124  1039.49926   186.54944   -81.12541    39.79945


 AVERAGE BETAX(SHG) VALUE AT   0.50000 EV =       8070.9079 a.u. =  0.697279E-28 ESU
 AVERAGE BETAY(SHG) VALUE AT   0.50000 EV =      -5415.1591 a.u. = -0.467838E-28 ESU
 AVERAGE BETAZ(SHG) VALUE AT   0.50000 EV =       1626.4151 a.u. =  0.140513E-28 ESU



 AVERAGE BETA (SHG) VALUE AT   0.50000 EV =       9854.3760 a.u. =  0.851361E-28 ESU
   (1 a.u. = 8.639418X10-33 esu)



 +++++ ALPHA AT       1.50000 EV.

                           COMPONENTS OF ALPHA

                     *X           *Y           *Z
           *=X:     932.2770    -250.2572      83.6202
           *=Y:    -250.2724     747.3864     -11.5293
           *=Z:      83.6634     -11.5569     335.6458

  ISOTROPIC AVERAGE ALPHA =     671.76974 A.U. =     99.54600 ANG.**3


 GAMMA (THIRD HARMONIC GENERATION) AT    0.50000 EV.


 GAMMA(X,X,X,X) =       3959317.42476
 GAMMA(Y,Y,Y,Y) =        588860.05351
 GAMMA(Z,Z,Z,Z) =         23276.79160
 GAMMA(X,X,Y,Y) =       1515967.40448
 GAMMA(X,X,Z,Z) =        130549.23401
 GAMMA(Y,Y,X,X) =       1604366.95209
 GAMMA(Y,Y,Z,Z) =         62622.32373
 GAMMA(Z,Z,X,X) =        131940.23721
 GAMMA(Z,Z,Y,Y) =         59573.04741


 AVERAGE GAMMA VALUE AT    0.50000 =       1615294.69376 a.u. =       813575.89513 ESU (X10-39)



 **********************
 *                    *
 * JOB ENDED NORMALLY *
 *                    *
 **********************



 TOTAL JOB TIME:           896.19 SECONDS

 == MOPAC DONE ==
