 *******************************************************************************
 ** Site#: 4824         For non-commercial use only    Version 21.013L 64BITS **
 *******************************************************************************
 ** Cite this program as: MOPAC2016, Version: 21.013L, James J. P. Stewart,   **
 ** Stewart Computational Chemistry, web: HTTP://OpenMOPAC.net. Days left:  87**
 *******************************************************************************
 **                                                                           **
 **                                MOPAC2016                                  **
 **                                                                           **
 *******************************************************************************

                              RM1 CALCULATION RESULTS

 *******************************************************************************
 *  CALCULATION DONE:                                Mon Oct 18 13:01:28 2021  *
 *  RM1        - The RM1 Hamiltonian to be used
 *  POLAR      - CALCULATE FIRST, SECOND AND THIRD-ORDER POLARIZABILITIES
 *  PRECISE    - TIGHTER CRITERIA TO BE USED
 *  XYZ        - CARTESIAN COORDINATE SYSTEM TO BE USED
 *  T=         - A TIME OF 172800.0 SECONDS REQUESTED
 *  DUMP=N     - RESTART FILE WRITTEN EVERY 7200.0 SECONDS REQUESTED
 *  GNORM      - EXIT WHEN GRADIENT NORM DROPS BELOW 0.100
 *******************************************************************************
RM1 PRECISE POLAR XYZ GNORM=0.1


   ATOM   CHEMICAL          X               Y               Z
  NUMBER   SYMBOL      (ANGSTROMS)     (ANGSTROMS)     (ANGSTROMS)
 
     1       C          0.00000000  *   0.00000000  *   0.00000000  *
     2       C          1.53075062  *   0.00000000  *   0.00000000  *
     3       C          2.07280477  *   1.43347218  *   0.00000000  *
     4       C          3.60607424  *   1.44245417  *  -0.02307927  *
     5       C          4.12263871  *   2.88795974  *  -0.03015154  *
     6       C          5.65322602  *   2.91826667  *  -0.07154834  *
     7       N          6.26943967  *   4.24374038  *  -0.07760450  *
     8       C          5.69910256  *   5.52865186  *   0.06224814  *
     9       C          4.38857117  *   5.98115665  *   0.05015777  *
    10       C          4.14814162  *   7.35124647  *   0.23845700  *
    11       C          5.18696925  *   8.26722877  *   0.39679812  *
    12       C          6.52480832  *   7.81557832  *   0.37354168  *
    13       C          6.75746376  *   6.47010527  *   0.19607960  *
    14       C          7.99355328  *   5.73334249  *   0.13984277  *
    15       C          7.67376998  *   4.38106830  *   0.00673630  *
    16       C          8.66502419  *   3.41671981  *  -0.05884410  *
    17       C         10.00484036  *   3.83554422  *   0.05479770  *
    18       C         10.32936470  *   5.17626543  *   0.22646956  *
    19       C          9.30703145  *   6.12549313  *   0.22600284  *
    20       C          4.88081341  *   9.67113068  *   0.65594748  *
    21       C          5.76368629  *  10.64877321  *   0.41621187  *
    22       C          5.54716063  *  12.02910263  *   0.83640396  *
    23       C          4.50474949  *  12.80553493  *   0.29621824  *
    24       C          4.42930152  *  14.14914733  *   0.60666316  *
    25       C          5.38653833  *  14.72398885  *   1.46405970  *
    26       C          6.37355341  *  13.93143217  *   2.03960091  *
    27       C          6.45800082  *  12.59867206  *   1.72037495  *
    28       C          5.40613788  *  16.16019011  *   1.71876402  *
    29       C          5.65482309  *  17.05038711  *   0.74361916  *
    30       C          5.87509845  *  18.46830707  *   1.06107034  *
    31       O          5.33294655  *  19.02833523  *   2.00535432  *
    32       O          6.83783562  *  19.10146370  *   0.37268095  *
    33       C          5.80108943  *  16.65270546  *  -0.61255237  *
    34       N          5.91834505  *  16.32348800  *  -1.71440326  *
    35       H          3.91885129  *   9.91407372  *   1.11072355  *
    36       H          6.73049199  *  10.42772529  *  -0.04086429  *
    37       H          5.33918637  *  16.48745719  *   2.76160173  *
    38       H         -0.39050031  *   0.51311571  *  -0.88795480  *
    39       H         -0.38100009  *  -1.02905246  *  -0.00296269  *
    40       H         -0.39060097  *   0.50669739  *   0.89145115  *
    41       H          1.89669075  *  -0.54179842  *   0.89329845  *
    42       H          1.89810720  *  -0.54407209  *  -0.89136337  *
    43       H          1.67731215  *   1.97528338  *  -0.88089378  *
    44       H          1.71200368  *   1.96388595  *   0.90294263  *
    45       H          3.99722148  *   0.90170519  *   0.85979214  *
    46       H          3.96914714  *   0.91275333  *  -0.92525365  *
    47       H          3.70380467  *   3.41518637  *  -0.90982495  *
    48       H          3.76647361  *   3.39831235  *   0.88710539  *
    49       H          6.04277953  *   2.34099167  *   0.79963500  *
    50       H          5.99335543  *   2.38844043  *  -0.99196659  *
    51       H          3.54112133  *   5.31775856  *  -0.09606879  *
    52       H          3.11423707  *   7.69633596  *   0.26810722  *
    53       H          7.35614274  *   8.50467183  *   0.51225585  *
    54       H          8.42983141  *   2.36436099  *  -0.19657962  *
    55       H         10.79955684  *   3.09264622  *   0.00566890  *
    56       H         11.37275698  *   5.47593247  *   0.31039571  *
    57       H          9.58036525  *   7.16979467  *   0.35755127  *
    58       H          3.77762920  *  12.34322346  *  -0.37071476  *
    59       H          3.63345726  *  14.76404401  *   0.18609775  *
    60       H          7.12136718  *  14.37004971  *   2.70034001  *
    61       H          7.27415387  *  12.00485648  *   2.13072092  *
    62       H          7.06875200  *  19.99712951  *   0.63940281  *
 


          CARTESIAN COORDINATES 

    NO.       ATOM           X           Y           Z

     1         C          0.0000      0.0000      0.0000
     2         C          1.5308      0.0000      0.0000
     3         C          2.0728      1.4335      0.0000
     4         C          3.6061      1.4425     -0.0231
     5         C          4.1226      2.8880     -0.0302
     6         C          5.6532      2.9183     -0.0715
     7         N          6.2694      4.2437     -0.0776
     8         C          5.6991      5.5287      0.0622
     9         C          4.3886      5.9812      0.0502
    10         C          4.1481      7.3512      0.2385
    11         C          5.1870      8.2672      0.3968
    12         C          6.5248      7.8156      0.3735
    13         C          6.7575      6.4701      0.1961
    14         C          7.9936      5.7333      0.1398
    15         C          7.6738      4.3811      0.0067
    16         C          8.6650      3.4167     -0.0588
    17         C         10.0048      3.8355      0.0548
    18         C         10.3294      5.1763      0.2265
    19         C          9.3070      6.1255      0.2260
    20         C          4.8808      9.6711      0.6559
    21         C          5.7637     10.6488      0.4162
    22         C          5.5472     12.0291      0.8364
    23         C          4.5047     12.8055      0.2962
    24         C          4.4293     14.1491      0.6067
    25         C          5.3865     14.7240      1.4641
    26         C          6.3736     13.9314      2.0396
    27         C          6.4580     12.5987      1.7204
    28         C          5.4061     16.1602      1.7188
    29         C          5.6548     17.0504      0.7436
    30         C          5.8751     18.4683      1.0611
    31         O          5.3329     19.0283      2.0054
    32         O          6.8378     19.1015      0.3727
    33         C          5.8011     16.6527     -0.6126
    34         N          5.9183     16.3235     -1.7144
    35         H          3.9189      9.9141      1.1107
    36         H          6.7305     10.4277     -0.0409
    37         H          5.3392     16.4875      2.7616
    38         H         -0.3905      0.5131     -0.8880
    39         H         -0.3810     -1.0291     -0.0030
    40         H         -0.3906      0.5067      0.8915
    41         H          1.8967     -0.5418      0.8933
    42         H          1.8981     -0.5441     -0.8914
    43         H          1.6773      1.9753     -0.8809
    44         H          1.7120      1.9639      0.9029
    45         H          3.9972      0.9017      0.8598
    46         H          3.9691      0.9128     -0.9253
    47         H          3.7038      3.4152     -0.9098
    48         H          3.7665      3.3983      0.8871
    49         H          6.0428      2.3410      0.7996
    50         H          5.9934      2.3884     -0.9920
    51         H          3.5411      5.3178     -0.0961
    52         H          3.1142      7.6963      0.2681
    53         H          7.3561      8.5047      0.5123
    54         H          8.4298      2.3644     -0.1966
    55         H         10.7996      3.0926      0.0057
    56         H         11.3728      5.4759      0.3104
    57         H          9.5804      7.1698      0.3576
    58         H          3.7776     12.3432     -0.3707
    59         H          3.6335     14.7640      0.1861
    60         H          7.1214     14.3700      2.7003
    61         H          7.2742     12.0049      2.1307
    62         H          7.0688     19.9971      0.6394

  H: (RM1): G.B. ROCHA, R.O. FREIRE, A.M.SIMAS, J.J.P. STEWART, J. COMP. CHEM. 27, 1101 (2006)
  C: (RM1): G.B. ROCHA, R.O. FREIRE, A.M.SIMAS, J.J.P. STEWART, J. COMP. CHEM. 27, 1101 (2006)
  N: (RM1): G.B. ROCHA, R.O. FREIRE, A.M.SIMAS, J.J.P. STEWART, J. COMP. CHEM. 27, 1101 (2006)
  O: (RM1): G.B. ROCHA, R.O. FREIRE, A.M.SIMAS, J.J.P. STEWART, J. COMP. CHEM. 27, 1101 (2006)

           Empirical Formula: C30 H28 N2 O2  =    62 atoms



      MOLECULAR POINT GROUP   :   C1  


      RHF CALCULATION, NO. OF DOUBLY OCCUPIED LEVELS = 85


          Geometry optimization using L-BFGS
 CYCLE:     1 TIME:   0.234 TIME LEFT:  2.00D  GRAD.:   100.525 HEAT:  31.18226
 CYCLE:     2 TIME:   0.191 TIME LEFT:  2.00D  GRAD.:    98.387 HEAT:  31.08225
 CYCLE:     3 TIME:   0.145 TIME LEFT:  2.00D  GRAD.:    35.717 HEAT:  27.94171
 CYCLE:     4 TIME:   0.195 TIME LEFT:  2.00D  GRAD.:    98.594 HEAT:  31.08221
 CYCLE:     5 TIME:   0.160 TIME LEFT:  2.00D  GRAD.:    35.700 HEAT:  27.93949
 CYCLE:     6 TIME:   0.199 TIME LEFT:  2.00D  GRAD.:    39.732 HEAT:  27.37443
 CYCLE:     7 TIME:   0.152 TIME LEFT:  2.00D  GRAD.:    35.465 HEAT:  26.78279
 CYCLE:     8 TIME:   0.176 TIME LEFT:  2.00D  GRAD.:    36.174 HEAT:  26.40989
 CYCLE:     9 TIME:   0.215 TIME LEFT:  2.00D  GRAD.:    15.331 HEAT:  26.17374
 CYCLE:    10 TIME:   0.176 TIME LEFT:  2.00D  GRAD.:    13.527 HEAT:  26.07486
 CYCLE:    11 TIME:   0.199 TIME LEFT:  2.00D  GRAD.:    12.428 HEAT:  25.95055
 CYCLE:    12 TIME:   0.109 TIME LEFT:  2.00D  GRAD.:    10.245 HEAT:  25.83391
 CYCLE:    13 TIME:   0.148 TIME LEFT:  2.00D  GRAD.:    20.684 HEAT:  25.84022
 CYCLE:    14 TIME:   0.133 TIME LEFT:  2.00D  GRAD.:     5.797 HEAT:  25.76878
 CYCLE:    15 TIME:   0.141 TIME LEFT:  2.00D  GRAD.:     4.892 HEAT:  25.75247
 CYCLE:    16 TIME:   0.215 TIME LEFT:  2.00D  GRAD.:     6.605 HEAT:  25.70694
 CYCLE:    17 TIME:   0.148 TIME LEFT:  2.00D  GRAD.:     7.710 HEAT:  25.66252
 CYCLE:    18 TIME:   0.219 TIME LEFT:  2.00D  GRAD.:    11.757 HEAT:  25.62812
 CYCLE:    19 TIME:   0.172 TIME LEFT:  2.00D  GRAD.:     5.577 HEAT:  25.58300
 CYCLE:    20 TIME:   0.113 TIME LEFT:  2.00D  GRAD.:     6.625 HEAT:  25.55318
 CYCLE:    21 TIME:   0.109 TIME LEFT:  2.00D  GRAD.:    10.452 HEAT:  25.51889
 CYCLE:    22 TIME:   0.168 TIME LEFT:  2.00D  GRAD.:    12.349 HEAT:  25.48994
 CYCLE:    23 TIME:   0.148 TIME LEFT:  2.00D  GRAD.:     5.998 HEAT:  25.46201
 CYCLE:    24 TIME:   0.121 TIME LEFT:  2.00D  GRAD.:     6.194 HEAT:  25.43898
 CYCLE:    25 TIME:   0.223 TIME LEFT:  2.00D  GRAD.:     6.348 HEAT:  25.42185
 CYCLE:    26 TIME:   0.133 TIME LEFT:  2.00D  GRAD.:    11.097 HEAT:  25.38720
 CYCLE:    27 TIME:   0.125 TIME LEFT:  2.00D  GRAD.:     7.343 HEAT:  25.35972
 CYCLE:    28 TIME:   0.133 TIME LEFT:  2.00D  GRAD.:     4.615 HEAT:  25.34344
 CYCLE:    29 TIME:   0.105 TIME LEFT:  2.00D  GRAD.:     5.285 HEAT:  25.32284
 CYCLE:    30 TIME:   0.195 TIME LEFT:  2.00D  GRAD.:     7.142 HEAT:  25.29611
 CYCLE:    31 TIME:   0.164 TIME LEFT:  2.00D  GRAD.:     8.382 HEAT:  25.25366
 CYCLE:    32 TIME:   0.137 TIME LEFT:  2.00D  GRAD.:     7.191 HEAT:  25.21102
 CYCLE:    33 TIME:   0.109 TIME LEFT:  2.00D  GRAD.:     6.623 HEAT:  25.17351
 CYCLE:    34 TIME:   0.109 TIME LEFT:  2.00D  GRAD.:     8.810 HEAT:  25.12711
 CYCLE:    35 TIME:   0.125 TIME LEFT:  2.00D  GRAD.:     9.595 HEAT:  25.08143
 CYCLE:    36 TIME:   0.102 TIME LEFT:  2.00D  GRAD.:    12.278 HEAT:  25.00536
 CYCLE:    37 TIME:   0.156 TIME LEFT:  2.00D  GRAD.:    16.480 HEAT:  24.94696
 CYCLE:    38 TIME:   0.160 TIME LEFT:  2.00D  GRAD.:     9.562 HEAT:  24.88529
 CYCLE:    39 TIME:   0.164 TIME LEFT:  2.00D  GRAD.:    11.046 HEAT:  24.82555
 CYCLE:    40 TIME:   0.188 TIME LEFT:  2.00D  GRAD.:    11.930 HEAT:  24.75407
 CYCLE:    41 TIME:   0.191 TIME LEFT:  2.00D  GRAD.:    12.745 HEAT:  24.65185
 CYCLE:    42 TIME:   0.117 TIME LEFT:  2.00D  GRAD.:    18.572 HEAT:  24.59680
 CYCLE:    43 TIME:   0.137 TIME LEFT:  2.00D  GRAD.:    11.004 HEAT:  24.52756
 CYCLE:    44 TIME:   0.117 TIME LEFT:  2.00D  GRAD.:     7.492 HEAT:  24.49238
 CYCLE:    45 TIME:   0.211 TIME LEFT:  2.00D  GRAD.:     8.826 HEAT:  24.44817
 CYCLE:    46 TIME:   0.117 TIME LEFT:  2.00D  GRAD.:     9.629 HEAT:  24.40346
 CYCLE:    47 TIME:   0.113 TIME LEFT:  2.00D  GRAD.:     7.893 HEAT:  24.34830
 CYCLE:    48 TIME:   0.129 TIME LEFT:  2.00D  GRAD.:    15.233 HEAT:  24.28837
 CYCLE:    49 TIME:   0.141 TIME LEFT:  2.00D  GRAD.:    10.486 HEAT:  24.23596
 CYCLE:    50 TIME:   0.125 TIME LEFT:  2.00D  GRAD.:     7.427 HEAT:  24.20131
 CYCLE:    51 TIME:   0.148 TIME LEFT:  2.00D  GRAD.:     8.869 HEAT:  24.14678
 CYCLE:    52 TIME:   0.172 TIME LEFT:  2.00D  GRAD.:    20.254 HEAT:  24.13990
 CYCLE:    53 TIME:   0.109 TIME LEFT:  2.00D  GRAD.:     5.949 HEAT:  24.10600
 CYCLE:    54 TIME:   0.113 TIME LEFT:  2.00D  GRAD.:     4.339 HEAT:  24.09548
 CYCLE:    55 TIME:   0.086 TIME LEFT:  2.00D  GRAD.:     6.057 HEAT:  24.07609
 CYCLE:    56 TIME:   0.074 TIME LEFT:  2.00D  GRAD.:     6.326 HEAT:  24.05350
 CYCLE:    57 TIME:   0.086 TIME LEFT:  2.00D  GRAD.:    12.970 HEAT:  24.02595
 CYCLE:    58 TIME:   0.070 TIME LEFT:  2.00D  GRAD.:     5.807 HEAT:  23.98556
 CYCLE:    59 TIME:   0.098 TIME LEFT:  2.00D  GRAD.:     5.145 HEAT:  23.96378
 CYCLE:    60 TIME:   0.105 TIME LEFT:  2.00D  GRAD.:     8.310 HEAT:  23.93481
 CYCLE:    61 TIME:   0.074 TIME LEFT:  2.00D  GRAD.:    10.048 HEAT:  23.91106
 CYCLE:    62 TIME:   0.090 TIME LEFT:  2.00D  GRAD.:     6.805 HEAT:  23.88313
 CYCLE:    63 TIME:   0.078 TIME LEFT:  2.00D  GRAD.:     6.004 HEAT:  23.83759
 CYCLE:    64 TIME:   0.098 TIME LEFT:  2.00D  GRAD.:     8.951 HEAT:  23.79925
 CYCLE:    65 TIME:   0.098 TIME LEFT:  2.00D  GRAD.:     8.599 HEAT:  23.75872
 CYCLE:    66 TIME:   0.109 TIME LEFT:  2.00D  GRAD.:     8.548 HEAT:  23.71776
 CYCLE:    67 TIME:   0.105 TIME LEFT:  2.00D  GRAD.:     6.963 HEAT:  23.69420
 CYCLE:    68 TIME:   0.105 TIME LEFT:  2.00D  GRAD.:     7.586 HEAT:  23.66642
 CYCLE:    69 TIME:   0.082 TIME LEFT:  2.00D  GRAD.:     9.194 HEAT:  23.61577
 CYCLE:    70 TIME:   0.086 TIME LEFT:  2.00D  GRAD.:    10.136 HEAT:  23.57019
 CYCLE:    71 TIME:   0.098 TIME LEFT:  2.00D  GRAD.:     7.032 HEAT:  23.53106
 CYCLE:    72 TIME:   0.105 TIME LEFT:  2.00D  GRAD.:     7.400 HEAT:  23.48649
 CYCLE:    73 TIME:   0.105 TIME LEFT:  2.00D  GRAD.:     9.736 HEAT:  23.44759
 CYCLE:    74 TIME:   0.090 TIME LEFT:  2.00D  GRAD.:     8.607 HEAT:  23.39471
 CYCLE:    75 TIME:   0.074 TIME LEFT:  2.00D  GRAD.:     7.372 HEAT:  23.33309
 CYCLE:    76 TIME:   0.074 TIME LEFT:  2.00D  GRAD.:     9.239 HEAT:  23.26948
 CYCLE:    77 TIME:   0.090 TIME LEFT:  2.00D  GRAD.:    11.036 HEAT:  23.22783
 CYCLE:    78 TIME:   0.082 TIME LEFT:  2.00D  GRAD.:     9.752 HEAT:  23.19187
 CYCLE:    79 TIME:   0.102 TIME LEFT:  2.00D  GRAD.:     7.079 HEAT:  23.14679
 CYCLE:    80 TIME:   0.109 TIME LEFT:  2.00D  GRAD.:     7.783 HEAT:  23.10790
 CYCLE:    81 TIME:   0.086 TIME LEFT:  2.00D  GRAD.:    10.753 HEAT:  23.07043
 CYCLE:    82 TIME:   0.102 TIME LEFT:  2.00D  GRAD.:     8.853 HEAT:  23.02801
 CYCLE:    83 TIME:   0.098 TIME LEFT:  2.00D  GRAD.:     8.876 HEAT:  22.98726
 CYCLE:    84 TIME:   0.109 TIME LEFT:  2.00D  GRAD.:    11.212 HEAT:  22.94896
 CYCLE:    85 TIME:   0.102 TIME LEFT:  2.00D  GRAD.:     8.867 HEAT:  22.90308
 CYCLE:    86 TIME:   0.113 TIME LEFT:  2.00D  GRAD.:    10.168 HEAT:  22.82772
 CYCLE:    87 TIME:   0.102 TIME LEFT:  2.00D  GRAD.:    17.003 HEAT:  22.80876
 CYCLE:    88 TIME:   0.109 TIME LEFT:  2.00D  GRAD.:    10.184 HEAT:  22.72483
 CYCLE:    89 TIME:   0.105 TIME LEFT:  2.00D  GRAD.:     6.914 HEAT:  22.68329
 CYCLE:    90 TIME:   0.109 TIME LEFT:  2.00D  GRAD.:     7.988 HEAT:  22.63051
 CYCLE:    91 TIME:   0.109 TIME LEFT:  2.00D  GRAD.:    10.081 HEAT:  22.56687
 CYCLE:    92 TIME:   0.102 TIME LEFT:  2.00D  GRAD.:     8.574 HEAT:  22.51604
 CYCLE:    93 TIME:   0.102 TIME LEFT:  2.00D  GRAD.:     6.824 HEAT:  22.46688
 CYCLE:    94 TIME:   0.105 TIME LEFT:  2.00D  GRAD.:     8.105 HEAT:  22.39533
 CYCLE:    95 TIME:   0.113 TIME LEFT:  2.00D  GRAD.:    30.349 HEAT:  22.45132
 CYCLE:    96 TIME:   0.105 TIME LEFT:  2.00D  GRAD.:     6.463 HEAT:  22.35102
 CYCLE:    97 TIME:   0.078 TIME LEFT:  2.00D  GRAD.:    10.538 HEAT:  22.34956
 CYCLE:    98 TIME:   0.109 TIME LEFT:  2.00D  GRAD.:     4.605 HEAT:  22.32370
 CYCLE:    99 TIME:   0.102 TIME LEFT:  2.00D  GRAD.:     4.743 HEAT:  22.30232
 CYCLE:   100 TIME:   0.102 TIME LEFT:  2.00D  GRAD.:     7.984 HEAT:  22.27249
 CYCLE:   101 TIME:   0.102 TIME LEFT:  2.00D  GRAD.:     8.093 HEAT:  22.22912
 CYCLE:   102 TIME:   0.109 TIME LEFT:  2.00D  GRAD.:     8.824 HEAT:  22.19679
 CYCLE:   103 TIME:   0.102 TIME LEFT:  2.00D  GRAD.:     6.225 HEAT:  22.16125
 CYCLE:   104 TIME:   0.113 TIME LEFT:  2.00D  GRAD.:     6.585 HEAT:  22.12412
 CYCLE:   105 TIME:   0.105 TIME LEFT:  2.00D  GRAD.:     8.435 HEAT:  22.09467
 CYCLE:   106 TIME:   0.102 TIME LEFT:  2.00D  GRAD.:     5.129 HEAT:  22.05922
 CYCLE:   107 TIME:   0.102 TIME LEFT:  2.00D  GRAD.:     4.595 HEAT:  22.02889
 CYCLE:   108 TIME:   0.105 TIME LEFT:  2.00D  GRAD.:     9.910 HEAT:  22.00581
 CYCLE:   109 TIME:   0.094 TIME LEFT:  2.00D  GRAD.:     5.249 HEAT:  21.98113
 CYCLE:   110 TIME:   0.078 TIME LEFT:  2.00D  GRAD.:     6.180 HEAT:  21.97131
 CYCLE:   111 TIME:   0.105 TIME LEFT:  2.00D  GRAD.:     5.394 HEAT:  21.95119
 CYCLE:   112 TIME:   0.078 TIME LEFT:  2.00D  GRAD.:     7.758 HEAT:  21.93393
 CYCLE:   113 TIME:   0.105 TIME LEFT:  2.00D  GRAD.:     5.568 HEAT:  21.91618
 CYCLE:   114 TIME:   0.090 TIME LEFT:  2.00D  GRAD.:     4.627 HEAT:  21.90233
 CYCLE:   115 TIME:   0.098 TIME LEFT:  2.00D  GRAD.:     5.373 HEAT:  21.89076
 CYCLE:   116 TIME:   0.086 TIME LEFT:  2.00D  GRAD.:     4.939 HEAT:  21.87576
 CYCLE:   117 TIME:   0.086 TIME LEFT:  2.00D  GRAD.:     6.460 HEAT:  21.85603
 CYCLE:   118 TIME:   0.098 TIME LEFT:  2.00D  GRAD.:     5.370 HEAT:  21.83816
 CYCLE:   119 TIME:   0.098 TIME LEFT:  2.00D  GRAD.:     4.175 HEAT:  21.82565
 CYCLE:   120 TIME:   0.105 TIME LEFT:  2.00D  GRAD.:     4.340 HEAT:  21.80705
 CYCLE:   121 TIME:   0.113 TIME LEFT:  2.00D  GRAD.:     5.912 HEAT:  21.79393
 CYCLE:   122 TIME:   0.109 TIME LEFT:  2.00D  GRAD.:     3.791 HEAT:  21.78240
 CYCLE:   123 TIME:   0.098 TIME LEFT:  2.00D  GRAD.:     3.731 HEAT:  21.76742
 CYCLE:   124 TIME:   0.098 TIME LEFT:  2.00D  GRAD.:     4.482 HEAT:  21.75560
 CYCLE:   125 TIME:   0.102 TIME LEFT:  2.00D  GRAD.:     5.234 HEAT:  21.73540
 CYCLE:   126 TIME:   0.109 TIME LEFT:  2.00D  GRAD.:     7.057 HEAT:  21.71982
 CYCLE:   127 TIME:   0.098 TIME LEFT:  2.00D  GRAD.:     6.996 HEAT:  21.70787
 CYCLE:   128 TIME:   0.098 TIME LEFT:  2.00D  GRAD.:     4.503 HEAT:  21.69663
 CYCLE:   129 TIME:   0.105 TIME LEFT:  2.00D  GRAD.:     4.448 HEAT:  21.68136
 CYCLE:   130 TIME:   0.098 TIME LEFT:  2.00D  GRAD.:     6.875 HEAT:  21.66672
 CYCLE:   131 TIME:   0.109 TIME LEFT:  2.00D  GRAD.:     4.860 HEAT:  21.64881
 CYCLE:   132 TIME:   0.109 TIME LEFT:  2.00D  GRAD.:     5.167 HEAT:  21.62956
 CYCLE:   133 TIME:   0.102 TIME LEFT:  2.00D  GRAD.:     7.930 HEAT:  21.61206
 CYCLE:   134 TIME:   0.102 TIME LEFT:  2.00D  GRAD.:     4.992 HEAT:  21.59459
 CYCLE:   135 TIME:   0.105 TIME LEFT:  2.00D  GRAD.:     4.171 HEAT:  21.57577
 CYCLE:   136 TIME:   0.102 TIME LEFT:  2.00D  GRAD.:     5.020 HEAT:  21.56102
 CYCLE:   137 TIME:   0.109 TIME LEFT:  2.00D  GRAD.:     6.982 HEAT:  21.53831
 CYCLE:   138 TIME:   0.105 TIME LEFT:  2.00D  GRAD.:     5.168 HEAT:  21.51822
 CYCLE:   139 TIME:   0.098 TIME LEFT:  2.00D  GRAD.:     3.964 HEAT:  21.50351
 CYCLE:   140 TIME:   0.098 TIME LEFT:  2.00D  GRAD.:     4.413 HEAT:  21.48868
 CYCLE:   141 TIME:   0.102 TIME LEFT:  2.00D  GRAD.:     6.182 HEAT:  21.47159
 CYCLE:   142 TIME:   0.102 TIME LEFT:  2.00D  GRAD.:     7.753 HEAT:  21.45689
 CYCLE:   143 TIME:   0.078 TIME LEFT:  2.00D  GRAD.:     3.573 HEAT:  21.44505
 CYCLE:   144 TIME:   0.082 TIME LEFT:  2.00D  GRAD.:     3.325 HEAT:  21.44011
 CYCLE:   145 TIME:   0.078 TIME LEFT:  2.00D  GRAD.:     3.987 HEAT:  21.43080
 CYCLE:   146 TIME:   0.098 TIME LEFT:  2.00D  GRAD.:     4.009 HEAT:  21.41380
 CYCLE:   147 TIME:   0.098 TIME LEFT:  2.00D  GRAD.:     8.716 HEAT:  21.40499
 CYCLE:   148 TIME:   0.086 TIME LEFT:  2.00D  GRAD.:     4.113 HEAT:  21.39182
 CYCLE:   149 TIME:   0.074 TIME LEFT:  2.00D  GRAD.:     4.219 HEAT:  21.38357
 CYCLE:   150 TIME:   0.098 TIME LEFT:  2.00D  GRAD.:     4.987 HEAT:  21.37050
 CYCLE:   151 TIME:   0.090 TIME LEFT:  2.00D  GRAD.:     5.910 HEAT:  21.34907
 CYCLE:   152 TIME:   0.094 TIME LEFT:  2.00D  GRAD.:    10.051 HEAT:  21.32956
 CYCLE:   153 TIME:   0.074 TIME LEFT:  2.00D  GRAD.:     5.885 HEAT:  21.29189
 CYCLE:   154 TIME:   0.078 TIME LEFT:  2.00D  GRAD.:     4.701 HEAT:  21.26483
 CYCLE:   155 TIME:   0.098 TIME LEFT:  2.00D  GRAD.:     8.694 HEAT:  21.23919
 CYCLE:   156 TIME:   0.082 TIME LEFT:  2.00D  GRAD.:     5.274 HEAT:  21.21700
 CYCLE:   157 TIME:   0.109 TIME LEFT:  2.00D  GRAD.:     4.723 HEAT:  21.19977
 CYCLE:   158 TIME:   0.102 TIME LEFT:  2.00D  GRAD.:     5.309 HEAT:  21.18407
 CYCLE:   159 TIME:   0.098 TIME LEFT:  2.00D  GRAD.:    11.659 HEAT:  21.17867
 CYCLE:   160 TIME:   0.098 TIME LEFT:  2.00D  GRAD.:     4.916 HEAT:  21.16541
 CYCLE:   161 TIME:   0.094 TIME LEFT:  2.00D  GRAD.:     3.758 HEAT:  21.15594
 CYCLE:   162 TIME:   0.078 TIME LEFT:  2.00D  GRAD.:     4.866 HEAT:  21.14682
 CYCLE:   163 TIME:   0.109 TIME LEFT:  2.00D  GRAD.:     4.541 HEAT:  21.12914
 CYCLE:   164 TIME:   0.117 TIME LEFT:  2.00D  GRAD.:     6.987 HEAT:  21.11236
 CYCLE:   165 TIME:   0.102 TIME LEFT:  2.00D  GRAD.:     6.990 HEAT:  21.09880
 CYCLE:   166 TIME:   0.098 TIME LEFT:  2.00D  GRAD.:     4.475 HEAT:  21.08825
 CYCLE:   167 TIME:   0.102 TIME LEFT:  2.00D  GRAD.:     3.768 HEAT:  21.07507
 CYCLE:   168 TIME:   0.102 TIME LEFT:  2.00D  GRAD.:     3.925 HEAT:  21.05900
 CYCLE:   169 TIME:   0.105 TIME LEFT:  2.00D  GRAD.:     7.028 HEAT:  21.04380
 CYCLE:   170 TIME:   0.102 TIME LEFT:  2.00D  GRAD.:     5.754 HEAT:  21.02030
 CYCLE:   171 TIME:   0.105 TIME LEFT:  2.00D  GRAD.:     4.229 HEAT:  21.00251
 CYCLE:   172 TIME:   0.105 TIME LEFT:  2.00D  GRAD.:     3.964 HEAT:  20.98883
 CYCLE:   173 TIME:   0.105 TIME LEFT:  2.00D  GRAD.:     5.500 HEAT:  20.97410
 CYCLE:   174 TIME:   0.098 TIME LEFT:  2.00D  GRAD.:     5.556 HEAT:  20.95672
 CYCLE:   175 TIME:   0.105 TIME LEFT:  2.00D  GRAD.:     8.100 HEAT:  20.94692
 CYCLE:   176 TIME:   0.105 TIME LEFT:  2.00D  GRAD.:     3.372 HEAT:  20.93813
 CYCLE:   177 TIME:   0.102 TIME LEFT:  2.00D  GRAD.:     4.296 HEAT:  20.93393
 CYCLE:   178 TIME:   0.109 TIME LEFT:  2.00D  GRAD.:     4.427 HEAT:  20.92647
 CYCLE:   179 TIME:   0.105 TIME LEFT:  2.00D  GRAD.:     4.186 HEAT:  20.91308
 CYCLE:   180 TIME:   0.105 TIME LEFT:  2.00D  GRAD.:     6.672 HEAT:  20.90095
 CYCLE:   181 TIME:   0.102 TIME LEFT:  2.00D  GRAD.:     4.097 HEAT:  20.89050
 CYCLE:   182 TIME:   0.105 TIME LEFT:  2.00D  GRAD.:     3.863 HEAT:  20.87792
 CYCLE:   183 TIME:   0.105 TIME LEFT:  2.00D  GRAD.:     5.706 HEAT:  20.86205
 CYCLE:   184 TIME:   0.102 TIME LEFT:  2.00D  GRAD.:     6.380 HEAT:  20.84234
 CYCLE:   185 TIME:   0.098 TIME LEFT:  2.00D  GRAD.:     5.150 HEAT:  20.82439
 CYCLE:   186 TIME:   0.102 TIME LEFT:  2.00D  GRAD.:     5.019 HEAT:  20.80717
 CYCLE:   187 TIME:   0.078 TIME LEFT:  2.00D  GRAD.:     5.267 HEAT:  20.78864
 CYCLE:   188 TIME:   0.086 TIME LEFT:  2.00D  GRAD.:     8.390 HEAT:  20.77611
 CYCLE:   189 TIME:   0.074 TIME LEFT:  2.00D  GRAD.:     4.852 HEAT:  20.75853
 CYCLE:   190 TIME:   0.098 TIME LEFT:  2.00D  GRAD.:     5.407 HEAT:  20.73642
 CYCLE:   191 TIME:   0.086 TIME LEFT:  2.00D  GRAD.:     7.440 HEAT:  20.71767
 CYCLE:   192 TIME:   0.094 TIME LEFT:  2.00D  GRAD.:     7.766 HEAT:  20.69580
 CYCLE:   193 TIME:   0.105 TIME LEFT:  2.00D  GRAD.:     5.541 HEAT:  20.67628
 CYCLE:   194 TIME:   0.094 TIME LEFT:  2.00D  GRAD.:     7.631 HEAT:  20.65536
 CYCLE:   195 TIME:   0.102 TIME LEFT:  2.00D  GRAD.:     6.041 HEAT:  20.63641
 CYCLE:   196 TIME:   0.102 TIME LEFT:  2.00D  GRAD.:     7.675 HEAT:  20.61255
 CYCLE:   197 TIME:   0.090 TIME LEFT:  2.00D  GRAD.:     5.738 HEAT:  20.58595
 CYCLE:   198 TIME:   0.098 TIME LEFT:  2.00D  GRAD.:     4.992 HEAT:  20.56422
 CYCLE:   199 TIME:   0.098 TIME LEFT:  2.00D  GRAD.:     8.305 HEAT:  20.53728
 CYCLE:   200 TIME:   0.094 TIME LEFT:  2.00D  GRAD.:     5.773 HEAT:  20.51442
 CYCLE:   201 TIME:   0.105 TIME LEFT:  2.00D  GRAD.:     5.094 HEAT:  20.49867
 CYCLE:   202 TIME:   0.098 TIME LEFT:  2.00D  GRAD.:     7.621 HEAT:  20.46838
 CYCLE:   203 TIME:   0.105 TIME LEFT:  2.00D  GRAD.:     6.938 HEAT:  20.43711
 CYCLE:   204 TIME:   0.117 TIME LEFT:  2.00D  GRAD.:     4.603 HEAT:  20.41180
 CYCLE:   205 TIME:   0.117 TIME LEFT:  2.00D  GRAD.:     5.110 HEAT:  20.39390
 CYCLE:   206 TIME:   0.113 TIME LEFT:  2.00D  GRAD.:    12.273 HEAT:  20.39137
 CYCLE:   207 TIME:   0.109 TIME LEFT:  2.00D  GRAD.:     4.980 HEAT:  20.36047
 CYCLE:   208 TIME:   0.109 TIME LEFT:  2.00D  GRAD.:     4.736 HEAT:  20.34881
 CYCLE:   209 TIME:   0.109 TIME LEFT:  2.00D  GRAD.:     6.157 HEAT:  20.33545
 CYCLE:   210 TIME:   0.102 TIME LEFT:  2.00D  GRAD.:     5.171 HEAT:  20.32257
 CYCLE:   211 TIME:   0.105 TIME LEFT:  2.00D  GRAD.:     7.273 HEAT:  20.29402
 CYCLE:   212 TIME:   0.102 TIME LEFT:  2.00D  GRAD.:    11.494 HEAT:  20.28805
 CYCLE:   213 TIME:   0.102 TIME LEFT:  2.00D  GRAD.:     3.909 HEAT:  20.26979
 CYCLE:   214 TIME:   0.105 TIME LEFT:  2.00D  GRAD.:     3.216 HEAT:  20.26377
 CYCLE:   215 TIME:   0.102 TIME LEFT:  2.00D  GRAD.:     5.122 HEAT:  20.25167
 CYCLE:   216 TIME:   0.098 TIME LEFT:  2.00D  GRAD.:     5.968 HEAT:  20.23620
 CYCLE:   217 TIME:   0.105 TIME LEFT:  2.00D  GRAD.:    10.351 HEAT:  20.22270
 CYCLE:   218 TIME:   0.102 TIME LEFT:  2.00D  GRAD.:     4.332 HEAT:  20.20066
 CYCLE:   219 TIME:   0.094 TIME LEFT:  2.00D  GRAD.:     3.766 HEAT:  20.18990
 CYCLE:   220 TIME:   0.098 TIME LEFT:  2.00D  GRAD.:     4.858 HEAT:  20.17354
 CYCLE:   221 TIME:   0.102 TIME LEFT:  2.00D  GRAD.:     7.314 HEAT:  20.15904
 CYCLE:   222 TIME:   0.102 TIME LEFT:  2.00D  GRAD.:     6.973 HEAT:  20.14472
 CYCLE:   223 TIME:   0.102 TIME LEFT:  2.00D  GRAD.:     3.471 HEAT:  20.13574
 CYCLE:   224 TIME:   0.094 TIME LEFT:  2.00D  GRAD.:     3.956 HEAT:  20.12833
 CYCLE:   225 TIME:   0.098 TIME LEFT:  2.00D  GRAD.:     5.478 HEAT:  20.11560
 CYCLE:   226 TIME:   0.102 TIME LEFT:  2.00D  GRAD.:     5.963 HEAT:  20.10082
 CYCLE:   227 TIME:   0.090 TIME LEFT:  2.00D  GRAD.:     9.886 HEAT:  20.09486
 CYCLE:   228 TIME:   0.094 TIME LEFT:  2.00D  GRAD.:     3.554 HEAT:  20.07686
 CYCLE:   229 TIME:   0.094 TIME LEFT:  2.00D  GRAD.:     3.066 HEAT:  20.06834
 CYCLE:   230 TIME:   0.098 TIME LEFT:  2.00D  GRAD.:     4.591 HEAT:  20.05567
 CYCLE:   231 TIME:   0.105 TIME LEFT:  2.00D  GRAD.:     5.744 HEAT:  20.03714
 CYCLE:   232 TIME:   0.098 TIME LEFT:  2.00D  GRAD.:     5.599 HEAT:  20.01991
 CYCLE:   233 TIME:   0.102 TIME LEFT:  2.00D  GRAD.:     7.150 HEAT:  20.00700
 CYCLE:   234 TIME:   0.105 TIME LEFT:  2.00D  GRAD.:     8.596 HEAT:  19.98251
 CYCLE:   235 TIME:   0.098 TIME LEFT:  2.00D  GRAD.:     5.297 HEAT:  19.97060
 CYCLE:   236 TIME:   0.102 TIME LEFT:  2.00D  GRAD.:     5.332 HEAT:  19.95953
 CYCLE:   237 TIME:   0.102 TIME LEFT:  2.00D  GRAD.:     4.790 HEAT:  19.94516
 CYCLE:   238 TIME:   0.117 TIME LEFT:  2.00D  GRAD.:     7.308 HEAT:  19.92160
 CYCLE:   239 TIME:   0.105 TIME LEFT:  2.00D  GRAD.:     8.752 HEAT:  19.90031
 CYCLE:   240 TIME:   0.105 TIME LEFT:  2.00D  GRAD.:     5.411 HEAT:  19.88471
 CYCLE:   241 TIME:   0.086 TIME LEFT:  2.00D  GRAD.:     7.280 HEAT:  19.86146
 CYCLE:   242 TIME:   0.098 TIME LEFT:  2.00D  GRAD.:     8.428 HEAT:  19.84399
 CYCLE:   243 TIME:   0.094 TIME LEFT:  2.00D  GRAD.:     5.473 HEAT:  19.81482
 CYCLE:   244 TIME:   0.098 TIME LEFT:  2.00D  GRAD.:     5.892 HEAT:  19.77946
 CYCLE:   245 TIME:   0.102 TIME LEFT:  2.00D  GRAD.:     6.927 HEAT:  19.75161
 CYCLE:   246 TIME:   0.098 TIME LEFT:  2.00D  GRAD.:     6.455 HEAT:  19.70810
 CYCLE:   247 TIME:   0.105 TIME LEFT:  2.00D  GRAD.:    13.740 HEAT:  19.69439
 CYCLE:   248 TIME:   0.082 TIME LEFT:  2.00D  GRAD.:     6.027 HEAT:  19.66222
 CYCLE:   249 TIME:   0.098 TIME LEFT:  2.00D  GRAD.:     8.947 HEAT:  19.65251
 CYCLE:   250 TIME:   0.105 TIME LEFT:  2.00D  GRAD.:     4.629 HEAT:  19.62775
 CYCLE:   251 TIME:   0.109 TIME LEFT:  2.00D  GRAD.:     4.674 HEAT:  19.60313
 CYCLE:   252 TIME:   0.113 TIME LEFT:  2.00D  GRAD.:     8.594 HEAT:  19.57930
 CYCLE:   253 TIME:   0.109 TIME LEFT:  2.00D  GRAD.:     8.772 HEAT:  19.55352
 CYCLE:   254 TIME:   0.109 TIME LEFT:  2.00D  GRAD.:     5.990 HEAT:  19.53060
 CYCLE:   255 TIME:   0.109 TIME LEFT:  2.00D  GRAD.:     6.109 HEAT:  19.50575
 CYCLE:   256 TIME:   0.109 TIME LEFT:  2.00D  GRAD.:     6.329 HEAT:  19.48543
 CYCLE:   257 TIME:   0.109 TIME LEFT:  2.00D  GRAD.:    13.949 HEAT:  19.46945
 CYCLE:   258 TIME:   0.102 TIME LEFT:  2.00D  GRAD.:     5.358 HEAT:  19.43889
 CYCLE:   259 TIME:   0.102 TIME LEFT:  2.00D  GRAD.:     5.158 HEAT:  19.42342
 CYCLE:   260 TIME:   0.102 TIME LEFT:  2.00D  GRAD.:     6.367 HEAT:  19.39601
 CYCLE:   261 TIME:   0.102 TIME LEFT:  2.00D  GRAD.:    10.075 HEAT:  19.34522
 CYCLE:   262 TIME:   0.102 TIME LEFT:  2.00D  GRAD.:    11.337 HEAT:  19.32073
 CYCLE:   263 TIME:   0.109 TIME LEFT:  2.00D  GRAD.:     5.278 HEAT:  19.29316
 CYCLE:   264 TIME:   0.117 TIME LEFT:  2.00D  GRAD.:     4.872 HEAT:  19.27105
 CYCLE:   265 TIME:   0.109 TIME LEFT:  2.00D  GRAD.:     6.175 HEAT:  19.24514
 CYCLE:   266 TIME:   0.125 TIME LEFT:  2.00D  GRAD.:     8.208 HEAT:  19.20947
 CYCLE:   267 TIME:   0.113 TIME LEFT:  2.00D  GRAD.:    12.158 HEAT:  19.19511
 CYCLE:   268 TIME:   0.113 TIME LEFT:  2.00D  GRAD.:     4.143 HEAT:  19.16495
 CYCLE:   269 TIME:   0.105 TIME LEFT:  2.00D  GRAD.:     3.980 HEAT:  19.15320
 CYCLE:   270 TIME:   0.105 TIME LEFT:  2.00D  GRAD.:     8.600 HEAT:  19.13806
 CYCLE:   271 TIME:   0.109 TIME LEFT:  2.00D  GRAD.:     5.912 HEAT:  19.12086
 CYCLE:   272 TIME:   0.102 TIME LEFT:  2.00D  GRAD.:     4.528 HEAT:  19.10704
 CYCLE:   273 TIME:   0.094 TIME LEFT:  2.00D  GRAD.:     6.313 HEAT:  19.08506
 CYCLE:   274 TIME:   0.094 TIME LEFT:  2.00D  GRAD.:     7.584 HEAT:  19.06660
 CYCLE:   275 TIME:   0.109 TIME LEFT:  2.00D  GRAD.:     5.816 HEAT:  19.04610
 CYCLE:   276 TIME:   0.105 TIME LEFT:  2.00D  GRAD.:     5.678 HEAT:  19.00351
 CYCLE:   277 TIME:   0.070 TIME LEFT:  2.00D  GRAD.:    10.477 HEAT:  18.97789
 CYCLE:   278 TIME:   0.098 TIME LEFT:  2.00D  GRAD.:     6.859 HEAT:  18.94427
 CYCLE:   279 TIME:   0.070 TIME LEFT:  2.00D  GRAD.:     4.990 HEAT:  18.89876
 CYCLE:   280 TIME:   0.105 TIME LEFT:  2.00D  GRAD.:     6.258 HEAT:  18.87143
 CYCLE:   281 TIME:   0.113 TIME LEFT:  2.00D  GRAD.:     8.793 HEAT:  18.84422
 CYCLE:   282 TIME:   0.145 TIME LEFT:  2.00D  GRAD.:     4.815 HEAT:  18.81632
 CYCLE:   283 TIME:   0.141 TIME LEFT:  2.00D  GRAD.:     5.155 HEAT:  18.79250
 CYCLE:   284 TIME:   0.133 TIME LEFT:  2.00D  GRAD.:     6.594 HEAT:  18.76812
 CYCLE:   285 TIME:   0.125 TIME LEFT:  2.00D  GRAD.:    19.782 HEAT:  18.77258
 CYCLE:   286 TIME:   0.125 TIME LEFT:  2.00D  GRAD.:     4.292 HEAT:  18.73383
 CYCLE:   287 TIME:   0.121 TIME LEFT:  2.00D  GRAD.:     3.681 HEAT:  18.72667
 CYCLE:   288 TIME:   0.133 TIME LEFT:  2.00D  GRAD.:     4.413 HEAT:  18.71301
 CYCLE:   289 TIME:   0.098 TIME LEFT:  2.00D  GRAD.:     7.998 HEAT:  18.69987
 CYCLE:   290 TIME:   0.086 TIME LEFT:  2.00D  GRAD.:     3.917 HEAT:  18.68398
 CYCLE:   291 TIME:   0.109 TIME LEFT:  2.00D  GRAD.:     3.089 HEAT:  18.67533
 CYCLE:   292 TIME:   0.102 TIME LEFT:  2.00D  GRAD.:     4.120 HEAT:  18.66730
 CYCLE:   293 TIME:   0.109 TIME LEFT:  2.00D  GRAD.:     4.418 HEAT:  18.65762
 CYCLE:   294 TIME:   0.098 TIME LEFT:  2.00D  GRAD.:     3.797 HEAT:  18.64437
 CYCLE:   295 TIME:   0.102 TIME LEFT:  2.00D  GRAD.:     7.973 HEAT:  18.63384
 CYCLE:   296 TIME:   0.082 TIME LEFT:  2.00D  GRAD.:     3.563 HEAT:  18.61905
 CYCLE:   297 TIME:   0.105 TIME LEFT:  2.00D  GRAD.:     3.437 HEAT:  18.60928
 CYCLE:   298 TIME:   0.113 TIME LEFT:  2.00D  GRAD.:     4.032 HEAT:  18.59517
 CYCLE:   299 TIME:   0.105 TIME LEFT:  2.00D  GRAD.:     5.924 HEAT:  18.57634
 CYCLE:   300 TIME:   0.113 TIME LEFT:  2.00D  GRAD.:     4.512 HEAT:  18.55967
 CYCLE:   301 TIME:   0.098 TIME LEFT:  2.00D  GRAD.:     3.630 HEAT:  18.54543
 CYCLE:   302 TIME:   0.094 TIME LEFT:  2.00D  GRAD.:     6.260 HEAT:  18.53248
 CYCLE:   303 TIME:   0.102 TIME LEFT:  2.00D  GRAD.:     7.912 HEAT:  18.52568
 CYCLE:   304 TIME:   0.086 TIME LEFT:  2.00D  GRAD.:     4.279 HEAT:  18.51773
 CYCLE:   305 TIME:   0.078 TIME LEFT:  2.00D  GRAD.:     3.456 HEAT:  18.50672
 CYCLE:   306 TIME:   0.105 TIME LEFT:  2.00D  GRAD.:     3.996 HEAT:  18.50062
 CYCLE:   307 TIME:   0.086 TIME LEFT:  2.00D  GRAD.:     5.604 HEAT:  18.48180
 CYCLE:   308 TIME:   0.102 TIME LEFT:  2.00D  GRAD.:    11.939 HEAT:  18.48143
 CYCLE:   309 TIME:   0.078 TIME LEFT:  2.00D  GRAD.:     3.202 HEAT:  18.46172
 CYCLE:   310 TIME:   0.113 TIME LEFT:  2.00D  GRAD.:     2.665 HEAT:  18.45756
 CYCLE:   311 TIME:   0.102 TIME LEFT:  2.00D  GRAD.:     3.375 HEAT:  18.44822
 CYCLE:   312 TIME:   0.094 TIME LEFT:  2.00D  GRAD.:     4.731 HEAT:  18.43649
 CYCLE:   313 TIME:   0.102 TIME LEFT:  2.00D  GRAD.:     5.981 HEAT:  18.42659
 CYCLE:   314 TIME:   0.090 TIME LEFT:  2.00D  GRAD.:     3.159 HEAT:  18.41579
 CYCLE:   315 TIME:   0.082 TIME LEFT:  2.00D  GRAD.:     2.786 HEAT:  18.40887
 CYCLE:   316 TIME:   0.090 TIME LEFT:  2.00D  GRAD.:     3.718 HEAT:  18.40196
 CYCLE:   317 TIME:   0.086 TIME LEFT:  2.00D  GRAD.:     4.795 HEAT:  18.39451
 CYCLE:   318 TIME:   0.090 TIME LEFT:  2.00D  GRAD.:     4.105 HEAT:  18.38790
 CYCLE:   319 TIME:   0.105 TIME LEFT:  2.00D  GRAD.:     2.638 HEAT:  18.38349
 CYCLE:   320 TIME:   0.109 TIME LEFT:  2.00D  GRAD.:     2.588 HEAT:  18.37847
 CYCLE:   321 TIME:   0.094 TIME LEFT:  2.00D  GRAD.:     3.455 HEAT:  18.37172
 CYCLE:   322 TIME:   0.102 TIME LEFT:  2.00D  GRAD.:     4.138 HEAT:  18.36171
 CYCLE:   323 TIME:   0.121 TIME LEFT:  2.00D  GRAD.:     4.621 HEAT:  18.35338
 CYCLE:   324 TIME:   0.105 TIME LEFT:  2.00D  GRAD.:     3.105 HEAT:  18.34622
 CYCLE:   325 TIME:   0.113 TIME LEFT:  2.00D  GRAD.:     3.639 HEAT:  18.33699
 CYCLE:   326 TIME:   0.109 TIME LEFT:  2.00D  GRAD.:     4.544 HEAT:  18.32839
 CYCLE:   327 TIME:   0.117 TIME LEFT:  2.00D  GRAD.:     6.223 HEAT:  18.31876
 CYCLE:   328 TIME:   0.113 TIME LEFT:  2.00D  GRAD.:     3.251 HEAT:  18.30469
 CYCLE:   329 TIME:   0.105 TIME LEFT:  2.00D  GRAD.:     2.464 HEAT:  18.29756
 CYCLE:   330 TIME:   0.098 TIME LEFT:  2.00D  GRAD.:     3.412 HEAT:  18.29088
 CYCLE:   331 TIME:   0.109 TIME LEFT:  2.00D  GRAD.:     3.752 HEAT:  18.28568
 CYCLE:   332 TIME:   0.102 TIME LEFT:  2.00D  GRAD.:     3.425 HEAT:  18.27968
 CYCLE:   333 TIME:   0.102 TIME LEFT:  2.00D  GRAD.:     2.586 HEAT:  18.27435
 CYCLE:   334 TIME:   0.105 TIME LEFT:  2.00D  GRAD.:     2.312 HEAT:  18.27120
 CYCLE:   335 TIME:   0.105 TIME LEFT:  2.00D  GRAD.:     2.433 HEAT:  18.26552
 CYCLE:   336 TIME:   0.105 TIME LEFT:  2.00D  GRAD.:     4.677 HEAT:  18.26230
 CYCLE:   337 TIME:   0.098 TIME LEFT:  2.00D  GRAD.:     2.318 HEAT:  18.25745
 CYCLE:   338 TIME:   0.102 TIME LEFT:  2.00D  GRAD.:     2.165 HEAT:  18.25287
 CYCLE:   339 TIME:   0.090 TIME LEFT:  2.00D  GRAD.:     2.570 HEAT:  18.24847
 CYCLE:   340 TIME:   0.086 TIME LEFT:  2.00D  GRAD.:     6.089 HEAT:  18.24403
 CYCLE:   341 TIME:   0.098 TIME LEFT:  2.00D  GRAD.:     2.802 HEAT:  18.23691
 CYCLE:   342 TIME:   0.070 TIME LEFT:  2.00D  GRAD.:     2.252 HEAT:  18.23243
 CYCLE:   343 TIME:   0.070 TIME LEFT:  2.00D  GRAD.:     3.028 HEAT:  18.22703
 CYCLE:   344 TIME:   0.070 TIME LEFT:  2.00D  GRAD.:     3.724 HEAT:  18.21993
 CYCLE:   345 TIME:   0.098 TIME LEFT:  2.00D  GRAD.:     3.449 HEAT:  18.21076
 CYCLE:   346 TIME:   0.070 TIME LEFT:  2.00D  GRAD.:     4.994 HEAT:  18.20730
 CYCLE:   347 TIME:   0.070 TIME LEFT:  2.00D  GRAD.:     2.653 HEAT:  18.20424
 CYCLE:   348 TIME:   0.098 TIME LEFT:  2.00D  GRAD.:     2.484 HEAT:  18.20142
 CYCLE:   349 TIME:   0.102 TIME LEFT:  2.00D  GRAD.:     2.891 HEAT:  18.19705
 CYCLE:   350 TIME:   0.074 TIME LEFT:  2.00D  GRAD.:     3.275 HEAT:  18.19089
 CYCLE:   351 TIME:   0.102 TIME LEFT:  2.00D  GRAD.:     7.077 HEAT:  18.18918
 CYCLE:   352 TIME:   0.105 TIME LEFT:  2.00D  GRAD.:     2.007 HEAT:  18.18035
 CYCLE:   353 TIME:   0.109 TIME LEFT:  2.00D  GRAD.:     1.995 HEAT:  18.17692
 CYCLE:   354 TIME:   0.098 TIME LEFT:  2.00D  GRAD.:     2.707 HEAT:  18.16992
 CYCLE:   355 TIME:   0.105 TIME LEFT:  2.00D  GRAD.:     4.706 HEAT:  18.16215
 CYCLE:   356 TIME:   0.098 TIME LEFT:  2.00D  GRAD.:     4.055 HEAT:  18.15489
 CYCLE:   357 TIME:   0.102 TIME LEFT:  2.00D  GRAD.:     2.560 HEAT:  18.14868
 CYCLE:   358 TIME:   0.102 TIME LEFT:  2.00D  GRAD.:     2.751 HEAT:  18.14269
 CYCLE:   359 TIME:   0.109 TIME LEFT:  2.00D  GRAD.:     2.686 HEAT:  18.13665
 CYCLE:   360 TIME:   0.113 TIME LEFT:  2.00D  GRAD.:     7.764 HEAT:  18.13342
 CYCLE:   361 TIME:   0.098 TIME LEFT:  2.00D  GRAD.:     2.905 HEAT:  18.12443
 CYCLE:   362 TIME:   0.098 TIME LEFT:  2.00D  GRAD.:     2.315 HEAT:  18.12120
 CYCLE:   363 TIME:   0.102 TIME LEFT:  2.00D  GRAD.:     2.740 HEAT:  18.11596
 CYCLE:   364 TIME:   0.102 TIME LEFT:  2.00D  GRAD.:     4.262 HEAT:  18.10461
 CYCLE:   365 TIME:   0.102 TIME LEFT:  2.00D  GRAD.:     5.290 HEAT:  18.09829
 CYCLE:   366 TIME:   0.094 TIME LEFT:  2.00D  GRAD.:     3.034 HEAT:  18.09258
 CYCLE:   367 TIME:   0.117 TIME LEFT:  2.00D  GRAD.:     2.882 HEAT:  18.08897
 CYCLE:   368 TIME:   0.102 TIME LEFT:  2.00D  GRAD.:     3.195 HEAT:  18.08159
 CYCLE:   369 TIME:   0.102 TIME LEFT:  2.00D  GRAD.:     3.173 HEAT:  18.07096
 CYCLE:   370 TIME:   0.102 TIME LEFT:  2.00D  GRAD.:     8.382 HEAT:  18.06787
 CYCLE:   371 TIME:   0.094 TIME LEFT:  2.00D  GRAD.:     2.811 HEAT:  18.05734
 CYCLE:   372 TIME:   0.098 TIME LEFT:  2.00D  GRAD.:     2.349 HEAT:  18.05335
 CYCLE:   373 TIME:   0.117 TIME LEFT:  2.00D  GRAD.:     3.578 HEAT:  18.04648
 CYCLE:   374 TIME:   0.098 TIME LEFT:  2.00D  GRAD.:     4.778 HEAT:  18.03875
 CYCLE:   375 TIME:   0.102 TIME LEFT:  2.00D  GRAD.:     4.584 HEAT:  18.03007
 CYCLE:   376 TIME:   0.109 TIME LEFT:  2.00D  GRAD.:     2.722 HEAT:  18.02294
 CYCLE:   377 TIME:   0.098 TIME LEFT:  2.00D  GRAD.:     2.851 HEAT:  18.01763
 CYCLE:   378 TIME:   0.098 TIME LEFT:  2.00D  GRAD.:     2.711 HEAT:  18.01203
 CYCLE:   379 TIME:   0.105 TIME LEFT:  2.00D  GRAD.:     6.395 HEAT:  18.00537
 CYCLE:   380 TIME:   0.098 TIME LEFT:  2.00D  GRAD.:     3.502 HEAT:  17.99851
 CYCLE:   381 TIME:   0.098 TIME LEFT:  2.00D  GRAD.:     2.358 HEAT:  17.99517
 CYCLE:   382 TIME:   0.086 TIME LEFT:  2.00D  GRAD.:     2.144 HEAT:  17.98979
 CYCLE:   383 TIME:   0.105 TIME LEFT:  2.00D  GRAD.:     3.477 HEAT:  17.98466
 CYCLE:   384 TIME:   0.086 TIME LEFT:  2.00D  GRAD.:     2.471 HEAT:  17.97912
 CYCLE:   385 TIME:   0.078 TIME LEFT:  2.00D  GRAD.:     2.015 HEAT:  17.97488
 CYCLE:   386 TIME:   0.078 TIME LEFT:  2.00D  GRAD.:     2.217 HEAT:  17.97076
 CYCLE:   387 TIME:   0.098 TIME LEFT:  2.00D  GRAD.:     3.677 HEAT:  17.96737
 CYCLE:   388 TIME:   0.098 TIME LEFT:  2.00D  GRAD.:     2.339 HEAT:  17.96342
 CYCLE:   389 TIME:   0.082 TIME LEFT:  2.00D  GRAD.:     2.342 HEAT:  17.95914
 CYCLE:   390 TIME:   0.094 TIME LEFT:  2.00D  GRAD.:     3.765 HEAT:  17.95638
 CYCLE:   391 TIME:   0.090 TIME LEFT:  2.00D  GRAD.:     3.021 HEAT:  17.95337
 CYCLE:   392 TIME:   0.113 TIME LEFT:  2.00D  GRAD.:     1.884 HEAT:  17.94530
 CYCLE:   393 TIME:   0.102 TIME LEFT:  2.00D  GRAD.:     2.710 HEAT:  17.94176
 CYCLE:   394 TIME:   0.109 TIME LEFT:  2.00D  GRAD.:     3.527 HEAT:  17.93707
 CYCLE:   395 TIME:   0.105 TIME LEFT:  2.00D  GRAD.:     2.237 HEAT:  17.93181
 CYCLE:   396 TIME:   0.098 TIME LEFT:  2.00D  GRAD.:     2.173 HEAT:  17.92750
 CYCLE:   397 TIME:   0.098 TIME LEFT:  2.00D  GRAD.:     3.229 HEAT:  17.92446
 CYCLE:   398 TIME:   0.098 TIME LEFT:  2.00D  GRAD.:     2.279 HEAT:  17.92129
 CYCLE:   399 TIME:   0.105 TIME LEFT:  2.00D  GRAD.:     2.054 HEAT:  17.91569
 CYCLE:   400 TIME:   0.105 TIME LEFT:  2.00D  GRAD.:     2.984 HEAT:  17.91198
 CYCLE:   401 TIME:   0.094 TIME LEFT:  2.00D  GRAD.:     2.355 HEAT:  17.90776
 CYCLE:   402 TIME:   0.094 TIME LEFT:  2.00D  GRAD.:     3.414 HEAT:  17.90212
 CYCLE:   403 TIME:   0.105 TIME LEFT:  2.00D  GRAD.:     3.138 HEAT:  17.89867
 CYCLE:   404 TIME:   0.109 TIME LEFT:  2.00D  GRAD.:     1.813 HEAT:  17.89621
 CYCLE:   405 TIME:   0.102 TIME LEFT:  2.00D  GRAD.:     1.646 HEAT:  17.89344
 CYCLE:   406 TIME:   0.105 TIME LEFT:  2.00D  GRAD.:     3.046 HEAT:  17.89151
 CYCLE:   407 TIME:   0.105 TIME LEFT:  2.00D  GRAD.:     1.922 HEAT:  17.88941
 CYCLE:   408 TIME:   0.105 TIME LEFT:  2.00D  GRAD.:     1.485 HEAT:  17.88663
 CYCLE:   409 TIME:   0.094 TIME LEFT:  2.00D  GRAD.:     2.419 HEAT:  17.88504
 CYCLE:   410 TIME:   0.105 TIME LEFT:  2.00D  GRAD.:     1.664 HEAT:  17.88318
 CYCLE:   411 TIME:   0.098 TIME LEFT:  2.00D  GRAD.:     1.440 HEAT:  17.88152
 CYCLE:   412 TIME:   0.098 TIME LEFT:  2.00D  GRAD.:     1.865 HEAT:  17.87994
 CYCLE:   413 TIME:   0.102 TIME LEFT:  2.00D  GRAD.:     1.301 HEAT:  17.87872
 CYCLE:   414 TIME:   0.105 TIME LEFT:  2.00D  GRAD.:     1.245 HEAT:  17.87723
 CYCLE:   415 TIME:   0.102 TIME LEFT:  2.00D  GRAD.:     1.454 HEAT:  17.87555
 CYCLE:   416 TIME:   0.105 TIME LEFT:  2.00D  GRAD.:     2.950 HEAT:  17.87477
 CYCLE:   417 TIME:   0.105 TIME LEFT:  2.00D  GRAD.:     1.057 HEAT:  17.87307
 CYCLE:   418 TIME:   0.102 TIME LEFT:  2.00D  GRAD.:     0.929 HEAT:  17.87239
 CYCLE:   419 TIME:   0.113 TIME LEFT:  2.00D  GRAD.:     1.211 HEAT:  17.87136
 CYCLE:   420 TIME:   0.105 TIME LEFT:  2.00D  GRAD.:     1.892 HEAT:  17.86980
 CYCLE:   421 TIME:   0.109 TIME LEFT:  2.00D  GRAD.:     2.343 HEAT:  17.86878
 CYCLE:   422 TIME:   0.105 TIME LEFT:  2.00D  GRAD.:     1.411 HEAT:  17.86749
 CYCLE:   423 TIME:   0.113 TIME LEFT:  2.00D  GRAD.:     1.138 HEAT:  17.86669
 CYCLE:   424 TIME:   0.094 TIME LEFT:  2.00D  GRAD.:     1.330 HEAT:  17.86575
 CYCLE:   425 TIME:   0.082 TIME LEFT:  2.00D  GRAD.:     3.361 HEAT:  17.86460
 CYCLE:   426 TIME:   0.074 TIME LEFT:  2.00D  GRAD.:     1.690 HEAT:  17.86310
 CYCLE:   427 TIME:   0.086 TIME LEFT:  2.00D  GRAD.:     1.229 HEAT:  17.86181
 CYCLE:   428 TIME:   0.074 TIME LEFT:  2.00D  GRAD.:     1.411 HEAT:  17.86104
 CYCLE:   429 TIME:   0.090 TIME LEFT:  2.00D  GRAD.:     1.909 HEAT:  17.85864
 CYCLE:   430 TIME:   0.086 TIME LEFT:  2.00D  GRAD.:     4.126 HEAT:  17.85826
 CYCLE:   431 TIME:   0.090 TIME LEFT:  2.00D  GRAD.:     1.350 HEAT:  17.85508
 CYCLE:   432 TIME:   0.074 TIME LEFT:  2.00D  GRAD.:     1.116 HEAT:  17.85390
 CYCLE:   433 TIME:   0.090 TIME LEFT:  2.00D  GRAD.:     1.500 HEAT:  17.85187
 CYCLE:   434 TIME:   0.094 TIME LEFT:  2.00D  GRAD.:     1.813 HEAT:  17.84929
 CYCLE:   435 TIME:   0.094 TIME LEFT:  2.00D  GRAD.:     2.645 HEAT:  17.84694
 CYCLE:   436 TIME:   0.086 TIME LEFT:  2.00D  GRAD.:     3.079 HEAT:  17.84452
 CYCLE:   437 TIME:   0.086 TIME LEFT:  2.00D  GRAD.:     1.569 HEAT:  17.84274
 CYCLE:   438 TIME:   0.082 TIME LEFT:  2.00D  GRAD.:     1.245 HEAT:  17.84181
 CYCLE:   439 TIME:   0.082 TIME LEFT:  2.00D  GRAD.:     1.683 HEAT:  17.84043
 CYCLE:   440 TIME:   0.082 TIME LEFT:  2.00D  GRAD.:     2.714 HEAT:  17.83937
 CYCLE:   441 TIME:   0.090 TIME LEFT:  2.00D  GRAD.:     1.362 HEAT:  17.83783
 CYCLE:   442 TIME:   0.090 TIME LEFT:  2.00D  GRAD.:     1.283 HEAT:  17.83655
 CYCLE:   443 TIME:   0.098 TIME LEFT:  2.00D  GRAD.:     1.331 HEAT:  17.83516
 CYCLE:   444 TIME:   0.105 TIME LEFT:  2.00D  GRAD.:     2.638 HEAT:  17.83369
 CYCLE:   445 TIME:   0.105 TIME LEFT:  2.00D  GRAD.:     1.075 HEAT:  17.83195
 CYCLE:   446 TIME:   0.109 TIME LEFT:  2.00D  GRAD.:     0.959 HEAT:  17.83118
 CYCLE:   447 TIME:   0.109 TIME LEFT:  2.00D  GRAD.:     1.216 HEAT:  17.82998
 CYCLE:   448 TIME:   0.105 TIME LEFT:  2.00D  GRAD.:     2.715 HEAT:  17.82949
 CYCLE:   449 TIME:   0.160 TIME LEFT:  2.00D  GRAD.:     1.006 HEAT:  17.82824
 CYCLE:   450 TIME:   0.203 TIME LEFT:  2.00D  GRAD.:     0.748 HEAT:  17.82766
 CYCLE:   451 TIME:   0.105 TIME LEFT:  2.00D  GRAD.:     0.969 HEAT:  17.82704
 CYCLE:   452 TIME:   0.148 TIME LEFT:  2.00D  GRAD.:     1.054 HEAT:  17.82610
 CYCLE:   453 TIME:   0.176 TIME LEFT:  2.00D  GRAD.:     5.876 HEAT:  17.82856
 CYCLE:   454 TIME:   0.102 TIME LEFT:  2.00D  GRAD.:     0.773 HEAT:  17.82512
 CYCLE:   455 TIME:   0.094 TIME LEFT:  2.00D  GRAD.:     0.668 HEAT:  17.82495
 CYCLE:   456 TIME:   0.105 TIME LEFT:  2.00D  GRAD.:     1.339 HEAT:  17.82433
 CYCLE:   457 TIME:   0.113 TIME LEFT:  2.00D  GRAD.:     1.172 HEAT:  17.82378
 CYCLE:   458 TIME:   0.102 TIME LEFT:  2.00D  GRAD.:     0.903 HEAT:  17.82321
 CYCLE:   459 TIME:   0.082 TIME LEFT:  2.00D  GRAD.:     0.961 HEAT:  17.82230
 CYCLE:   460 TIME:   0.109 TIME LEFT:  2.00D  GRAD.:     2.119 HEAT:  17.82205
 CYCLE:   461 TIME:   0.086 TIME LEFT:  2.00D  GRAD.:     0.793 HEAT:  17.82121
 CYCLE:   462 TIME:   0.070 TIME LEFT:  2.00D  GRAD.:     0.688 HEAT:  17.82078
 CYCLE:   463 TIME:   0.074 TIME LEFT:  2.00D  GRAD.:     0.868 HEAT:  17.82013
 CYCLE:   464 TIME:   0.090 TIME LEFT:  2.00D  GRAD.:     1.808 HEAT:  17.81938
 CYCLE:   465 TIME:   0.078 TIME LEFT:  2.00D  GRAD.:     1.044 HEAT:  17.81841
 CYCLE:   466 TIME:   0.102 TIME LEFT:  2.00D  GRAD.:     0.828 HEAT:  17.81755
 CYCLE:   467 TIME:   0.098 TIME LEFT:  2.00D  GRAD.:     1.188 HEAT:  17.81658
 CYCLE:   468 TIME:   0.090 TIME LEFT:  2.00D  GRAD.:     2.593 HEAT:  17.81601
 CYCLE:   469 TIME:   0.086 TIME LEFT:  2.00D  GRAD.:     1.251 HEAT:  17.81496
 CYCLE:   470 TIME:   0.094 TIME LEFT:  2.00D  GRAD.:     0.969 HEAT:  17.81422
 CYCLE:   471 TIME:   0.082 TIME LEFT:  2.00D  GRAD.:     1.423 HEAT:  17.81360
 CYCLE:   472 TIME:   0.102 TIME LEFT:  2.00D  GRAD.:     1.438 HEAT:  17.81295
 CYCLE:   473 TIME:   0.109 TIME LEFT:  2.00D  GRAD.:     1.061 HEAT:  17.81232
 CYCLE:   474 TIME:   0.117 TIME LEFT:  2.00D  GRAD.:     0.938 HEAT:  17.81122
 CYCLE:   475 TIME:   0.117 TIME LEFT:  2.00D  GRAD.:     1.012 HEAT:  17.81038
 CYCLE:   476 TIME:   0.105 TIME LEFT:  2.00D  GRAD.:     1.626 HEAT:  17.80933
 CYCLE:   477 TIME:   0.109 TIME LEFT:  2.00D  GRAD.:     1.618 HEAT:  17.80821
 CYCLE:   478 TIME:   0.105 TIME LEFT:  2.00D  GRAD.:     0.925 HEAT:  17.80745
 CYCLE:   479 TIME:   0.102 TIME LEFT:  2.00D  GRAD.:     0.765 HEAT:  17.80686
 CYCLE:   480 TIME:   0.098 TIME LEFT:  2.00D  GRAD.:     0.868 HEAT:  17.80622
 CYCLE:   481 TIME:   0.109 TIME LEFT:  2.00D  GRAD.:     2.379 HEAT:  17.80603
 CYCLE:   482 TIME:   0.098 TIME LEFT:  2.00D  GRAD.:     0.756 HEAT:  17.80505
 CYCLE:   483 TIME:   0.102 TIME LEFT:  2.00D  GRAD.:     0.545 HEAT:  17.80472
 CYCLE:   484 TIME:   0.105 TIME LEFT:  2.00D  GRAD.:     0.786 HEAT:  17.80425
 CYCLE:   485 TIME:   0.102 TIME LEFT:  2.00D  GRAD.:     1.544 HEAT:  17.80385
 CYCLE:   486 TIME:   0.105 TIME LEFT:  2.00D  GRAD.:     0.939 HEAT:  17.80342
 CYCLE:   487 TIME:   0.098 TIME LEFT:  2.00D  GRAD.:     0.531 HEAT:  17.80318
 CYCLE:   488 TIME:   0.102 TIME LEFT:  2.00D  GRAD.:     0.584 HEAT:  17.80297
 CYCLE:   489 TIME:   0.105 TIME LEFT:  2.00D  GRAD.:     0.788 HEAT:  17.80268
 CYCLE:   490 TIME:   0.113 TIME LEFT:  2.00D  GRAD.:     0.899 HEAT:  17.80226
 CYCLE:   491 TIME:   0.098 TIME LEFT:  2.00D  GRAD.:     0.858 HEAT:  17.80194
 CYCLE:   492 TIME:   0.098 TIME LEFT:  2.00D  GRAD.:     0.609 HEAT:  17.80167
 CYCLE:   493 TIME:   0.105 TIME LEFT:  2.00D  GRAD.:     0.637 HEAT:  17.80131
 CYCLE:   494 TIME:   0.105 TIME LEFT:  2.00D  GRAD.:     0.922 HEAT:  17.80097
 CYCLE:   495 TIME:   0.102 TIME LEFT:  2.00D  GRAD.:     0.720 HEAT:  17.80050
 CYCLE:   496 TIME:   0.102 TIME LEFT:  2.00D  GRAD.:     0.772 HEAT:  17.80009
 CYCLE:   497 TIME:   0.102 TIME LEFT:  2.00D  GRAD.:     0.684 HEAT:  17.79970
 CYCLE:   498 TIME:   0.102 TIME LEFT:  2.00D  GRAD.:     0.670 HEAT:  17.79932
 CYCLE:   499 TIME:   0.102 TIME LEFT:  2.00D  GRAD.:     0.884 HEAT:  17.79882
 CYCLE:   500 TIME:   0.105 TIME LEFT:  2.00D  GRAD.:     2.661 HEAT:  17.79885
 CYCLE:   501 TIME:   0.098 TIME LEFT:  2.00D  GRAD.:     0.711 HEAT:  17.79821
 CYCLE:   502 TIME:   0.102 TIME LEFT:  2.00D  GRAD.:     0.541 HEAT:  17.79803
 CYCLE:   503 TIME:   0.105 TIME LEFT:  2.00D  GRAD.:     0.636 HEAT:  17.79775
 CYCLE:   504 TIME:   0.105 TIME LEFT:  2.00D  GRAD.:     0.730 HEAT:  17.79733
 CYCLE:   505 TIME:   0.082 TIME LEFT:  2.00D  GRAD.:     2.949 HEAT:  17.79789
 CYCLE:   506 TIME:   0.074 TIME LEFT:  2.00D  GRAD.:     0.630 HEAT:  17.79656
 CYCLE:   507 TIME:   0.094 TIME LEFT:  2.00D  GRAD.:     0.477 HEAT:  17.79640
 CYCLE:   508 TIME:   0.094 TIME LEFT:  2.00D  GRAD.:     0.669 HEAT:  17.79599
 CYCLE:   509 TIME:   0.113 TIME LEFT:  2.00D  GRAD.:     1.138 HEAT:  17.79559
 CYCLE:   510 TIME:   0.090 TIME LEFT:  2.00D  GRAD.:     0.890 HEAT:  17.79505
 CYCLE:   511 TIME:   0.105 TIME LEFT:  2.00D  GRAD.:     0.906 HEAT:  17.79445
 CYCLE:   512 TIME:   0.102 TIME LEFT:  2.00D  GRAD.:     1.247 HEAT:  17.79401
 CYCLE:   513 TIME:   0.102 TIME LEFT:  2.00D  GRAD.:     0.697 HEAT:  17.79357
 CYCLE:   514 TIME:   0.102 TIME LEFT:  2.00D  GRAD.:     0.682 HEAT:  17.79316
 CYCLE:   515 TIME:   0.098 TIME LEFT:  2.00D  GRAD.:     0.858 HEAT:  17.79269
 CYCLE:   516 TIME:   0.090 TIME LEFT:  2.00D  GRAD.:     2.399 HEAT:  17.79269
 CYCLE:   517 TIME:   0.078 TIME LEFT:  2.00D  GRAD.:     0.558 HEAT:  17.79210
 CYCLE:   518 TIME:   0.090 TIME LEFT:  2.00D  GRAD.:     0.522 HEAT:  17.79197
 CYCLE:   519 TIME:   0.090 TIME LEFT:  2.00D  GRAD.:     0.616 HEAT:  17.79173
 CYCLE:   520 TIME:   0.105 TIME LEFT:  2.00D  GRAD.:     0.632 HEAT:  17.79136
 CYCLE:   521 TIME:   0.109 TIME LEFT:  2.00D  GRAD.:     2.653 HEAT:  17.79192
 CYCLE:   522 TIME:   0.102 TIME LEFT:  2.00D  GRAD.:     0.458 HEAT:  17.79085
 CYCLE:   523 TIME:   0.102 TIME LEFT:  2.00D  GRAD.:     0.353 HEAT:  17.79075
 CYCLE:   524 TIME:   0.090 TIME LEFT:  2.00D  GRAD.:     0.555 HEAT:  17.79055
 CYCLE:   525 TIME:   0.086 TIME LEFT:  2.00D  GRAD.:     0.577 HEAT:  17.79034
 CYCLE:   526 TIME:   0.074 TIME LEFT:  2.00D  GRAD.:     0.607 HEAT:  17.78995
 CYCLE:   527 TIME:   0.094 TIME LEFT:  2.00D  GRAD.:     1.418 HEAT:  17.78986
 CYCLE:   528 TIME:   0.078 TIME LEFT:  2.00D  GRAD.:     0.555 HEAT:  17.78953
 CYCLE:   529 TIME:   0.082 TIME LEFT:  2.00D  GRAD.:     0.427 HEAT:  17.78937
 CYCLE:   530 TIME:   0.090 TIME LEFT:  2.00D  GRAD.:     0.528 HEAT:  17.78916
 CYCLE:   531 TIME:   0.078 TIME LEFT:  2.00D  GRAD.:     1.276 HEAT:  17.78891
 CYCLE:   532 TIME:   0.090 TIME LEFT:  2.00D  GRAD.:     0.567 HEAT:  17.78862
 CYCLE:   533 TIME:   0.074 TIME LEFT:  2.00D  GRAD.:     0.427 HEAT:  17.78844
 CYCLE:   534 TIME:   0.102 TIME LEFT:  2.00D  GRAD.:     0.511 HEAT:  17.78822
 CYCLE:   535 TIME:   0.105 TIME LEFT:  2.00D  GRAD.:     1.122 HEAT:  17.78810
 CYCLE:   536 TIME:   0.098 TIME LEFT:  2.00D  GRAD.:     0.502 HEAT:  17.78789
 CYCLE:   537 TIME:   0.102 TIME LEFT:  2.00D  GRAD.:     0.368 HEAT:  17.78772
 CYCLE:   538 TIME:   0.102 TIME LEFT:  2.00D  GRAD.:     0.490 HEAT:  17.78759
 CYCLE:   539 TIME:   0.098 TIME LEFT:  2.00D  GRAD.:     0.541 HEAT:  17.78736
 CYCLE:   540 TIME:   0.098 TIME LEFT:  2.00D  GRAD.:     1.442 HEAT:  17.78729
 CYCLE:   541 TIME:   0.090 TIME LEFT:  2.00D  GRAD.:     0.487 HEAT:  17.78694
 CYCLE:   542 TIME:   0.098 TIME LEFT:  2.00D  GRAD.:     0.498 HEAT:  17.78677
 CYCLE:   543 TIME:   0.113 TIME LEFT:  2.00D  GRAD.:     0.640 HEAT:  17.78633
 CYCLE:   544 TIME:   0.105 TIME LEFT:  2.00D  GRAD.:     0.950 HEAT:  17.78600
 CYCLE:   545 TIME:   0.105 TIME LEFT:  2.00D  GRAD.:     1.026 HEAT:  17.78562
 CYCLE:   546 TIME:   0.098 TIME LEFT:  2.00D  GRAD.:     1.137 HEAT:  17.78528
 CYCLE:   547 TIME:   0.090 TIME LEFT:  2.00D  GRAD.:     0.785 HEAT:  17.78491
 CYCLE:   548 TIME:   0.090 TIME LEFT:  2.00D  GRAD.:     0.661 HEAT:  17.78469
 CYCLE:   549 TIME:   0.105 TIME LEFT:  2.00D  GRAD.:     0.545 HEAT:  17.78440
 CYCLE:   550 TIME:   0.102 TIME LEFT:  2.00D  GRAD.:     1.213 HEAT:  17.78413
 CYCLE:   551 TIME:   0.090 TIME LEFT:  2.00D  GRAD.:     0.671 HEAT:  17.78382
 CYCLE:   552 TIME:   0.109 TIME LEFT:  2.00D  GRAD.:     0.375 HEAT:  17.78369
 CYCLE:   553 TIME:   0.102 TIME LEFT:  2.00D  GRAD.:     0.357 HEAT:  17.78358
 CYCLE:   554 TIME:   0.074 TIME LEFT:  2.00D  GRAD.:     0.431 HEAT:  17.78339
 CYCLE:   555 TIME:   0.090 TIME LEFT:  2.00D  GRAD.:     1.085 HEAT:  17.78321
 CYCLE:   556 TIME:   0.105 TIME LEFT:  2.00D  GRAD.:     0.498 HEAT:  17.78295
 CYCLE:   557 TIME:   0.102 TIME LEFT:  2.00D  GRAD.:     0.398 HEAT:  17.78280
 CYCLE:   558 TIME:   0.098 TIME LEFT:  2.00D  GRAD.:     0.460 HEAT:  17.78260
 CYCLE:   559 TIME:   0.102 TIME LEFT:  2.00D  GRAD.:     0.839 HEAT:  17.78247
 CYCLE:   560 TIME:   0.090 TIME LEFT:  2.00D  GRAD.:     0.539 HEAT:  17.78228
 CYCLE:   561 TIME:   0.082 TIME LEFT:  2.00D  GRAD.:     0.542 HEAT:  17.78212
 CYCLE:   562 TIME:   0.102 TIME LEFT:  2.00D  GRAD.:     0.566 HEAT:  17.78200
 CYCLE:   563 TIME:   0.098 TIME LEFT:  2.00D  GRAD.:     0.489 HEAT:  17.78186
 CYCLE:   564 TIME:   0.105 TIME LEFT:  2.00D  GRAD.:     0.562 HEAT:  17.78155
 CYCLE:   565 TIME:   0.098 TIME LEFT:  2.00D  GRAD.:     0.949 HEAT:  17.78133
 CYCLE:   566 TIME:   0.102 TIME LEFT:  2.00D  GRAD.:     0.498 HEAT:  17.78107
 CYCLE:   567 TIME:   0.109 TIME LEFT:  2.00D  GRAD.:     0.449 HEAT:  17.78082
 CYCLE:   568 TIME:   0.109 TIME LEFT:  2.00D  GRAD.:     0.537 HEAT:  17.78057
 CYCLE:   569 TIME:   0.098 TIME LEFT:  2.00D  GRAD.:     1.503 HEAT:  17.78053
 CYCLE:   570 TIME:   0.102 TIME LEFT:  2.00D  GRAD.:     0.426 HEAT:  17.78019
 CYCLE:   571 TIME:   0.195 TIME LEFT:  2.00D  GRAD.:     0.357 HEAT:  17.78009
 CYCLE:   572 TIME:   0.180 TIME LEFT:  2.00D  GRAD.:     0.454 HEAT:  17.77990
 CYCLE:   573 TIME:   0.152 TIME LEFT:  2.00D  GRAD.:     0.510 HEAT:  17.77964
 CYCLE:   574 TIME:   0.113 TIME LEFT:  2.00D  GRAD.:     1.602 HEAT:  17.77968
 CYCLE:   575 TIME:   0.090 TIME LEFT:  2.00D  GRAD.:     0.440 HEAT:  17.77928
 CYCLE:   576 TIME:   0.094 TIME LEFT:  2.00D  GRAD.:     0.326 HEAT:  17.77919
 CYCLE:   577 TIME:   0.090 TIME LEFT:  2.00D  GRAD.:     0.609 HEAT:  17.77905
 CYCLE:   578 TIME:   0.086 TIME LEFT:  2.00D  GRAD.:     0.661 HEAT:  17.77893
 CYCLE:   579 TIME:   0.090 TIME LEFT:  2.00D  GRAD.:     0.406 HEAT:  17.77880
 CYCLE:   580 TIME:   0.121 TIME LEFT:  2.00D  GRAD.:     0.410 HEAT:  17.77867
 CYCLE:   581 TIME:   0.098 TIME LEFT:  2.00D  GRAD.:     0.633 HEAT:  17.77851
 CYCLE:   582 TIME:   0.102 TIME LEFT:  2.00D  GRAD.:     0.515 HEAT:  17.77827
 CYCLE:   583 TIME:   0.102 TIME LEFT:  2.00D  GRAD.:     0.481 HEAT:  17.77805
 CYCLE:   584 TIME:   0.121 TIME LEFT:  2.00D  GRAD.:     0.899 HEAT:  17.77788
 CYCLE:   585 TIME:   0.098 TIME LEFT:  2.00D  GRAD.:     0.423 HEAT:  17.77769
 CYCLE:   586 TIME:   0.117 TIME LEFT:  2.00D  GRAD.:     0.423 HEAT:  17.77755
 CYCLE:   587 TIME:   0.105 TIME LEFT:  2.00D  GRAD.:     0.479 HEAT:  17.77734
 CYCLE:   588 TIME:   0.117 TIME LEFT:  2.00D  GRAD.:     0.692 HEAT:  17.77709
 CYCLE:   589 TIME:   0.125 TIME LEFT:  2.00D  GRAD.:     0.594 HEAT:  17.77684
 CYCLE:   590 TIME:   0.109 TIME LEFT:  2.00D  GRAD.:     0.571 HEAT:  17.77657
 CYCLE:   591 TIME:   0.109 TIME LEFT:  2.00D  GRAD.:     0.527 HEAT:  17.77631
 CYCLE:   592 TIME:   0.094 TIME LEFT:  2.00D  GRAD.:     0.802 HEAT:  17.77614
 CYCLE:   593 TIME:   0.109 TIME LEFT:  2.00D  GRAD.:     0.794 HEAT:  17.77598
 CYCLE:   594 TIME:   0.113 TIME LEFT:  2.00D  GRAD.:     0.589 HEAT:  17.77582
 CYCLE:   595 TIME:   0.113 TIME LEFT:  2.00D  GRAD.:     0.544 HEAT:  17.77555
 CYCLE:   596 TIME:   0.109 TIME LEFT:  2.00D  GRAD.:     0.641 HEAT:  17.77536
 CYCLE:   597 TIME:   0.117 TIME LEFT:  2.00D  GRAD.:     0.602 HEAT:  17.77507
 CYCLE:   598 TIME:   0.109 TIME LEFT:  2.00D  GRAD.:     0.666 HEAT:  17.77486
 CYCLE:   599 TIME:   0.109 TIME LEFT:  2.00D  GRAD.:     0.438 HEAT:  17.77468
 CYCLE:   600 TIME:   0.113 TIME LEFT:  2.00D  GRAD.:     0.439 HEAT:  17.77449
 CYCLE:   601 TIME:   0.102 TIME LEFT:  2.00D  GRAD.:     0.512 HEAT:  17.77429
 CYCLE:   602 TIME:   0.105 TIME LEFT:  2.00D  GRAD.:     0.575 HEAT:  17.77412
 CYCLE:   603 TIME:   0.105 TIME LEFT:  2.00D  GRAD.:     0.339 HEAT:  17.77399
 CYCLE:   604 TIME:   0.102 TIME LEFT:  2.00D  GRAD.:     0.320 HEAT:  17.77390
 CYCLE:   605 TIME:   0.102 TIME LEFT:  2.00D  GRAD.:     0.374 HEAT:  17.77381
 CYCLE:   606 TIME:   0.105 TIME LEFT:  2.00D  GRAD.:     0.587 HEAT:  17.77373
 CYCLE:   607 TIME:   0.098 TIME LEFT:  2.00D  GRAD.:     0.288 HEAT:  17.77364
 CYCLE:   608 TIME:   0.109 TIME LEFT:  2.00D  GRAD.:     0.311 HEAT:  17.77357
 CYCLE:   609 TIME:   0.098 TIME LEFT:  2.00D  GRAD.:     0.720 HEAT:  17.77352
 CYCLE:   610 TIME:   0.098 TIME LEFT:  2.00D  GRAD.:     0.393 HEAT:  17.77345
 CYCLE:   611 TIME:   0.102 TIME LEFT:  2.00D  GRAD.:     0.259 HEAT:  17.77337
 CYCLE:   612 TIME:   0.094 TIME LEFT:  2.00D  GRAD.:     0.305 HEAT:  17.77332
 CYCLE:   613 TIME:   0.109 TIME LEFT:  2.00D  GRAD.:     0.513 HEAT:  17.77324
 CYCLE:   614 TIME:   0.105 TIME LEFT:  2.00D  GRAD.:     0.328 HEAT:  17.77315
 CYCLE:   615 TIME:   0.102 TIME LEFT:  2.00D  GRAD.:     0.298 HEAT:  17.77307
 CYCLE:   616 TIME:   0.105 TIME LEFT:  2.00D  GRAD.:     0.383 HEAT:  17.77297
 CYCLE:   617 TIME:   0.094 TIME LEFT:  2.00D  GRAD.:     0.355 HEAT:  17.77291
 CYCLE:   618 TIME:   0.082 TIME LEFT:  2.00D  GRAD.:     0.311 HEAT:  17.77283
 CYCLE:   619 TIME:   0.102 TIME LEFT:  2.00D  GRAD.:     0.497 HEAT:  17.77275
 CYCLE:   620 TIME:   0.082 TIME LEFT:  2.00D  GRAD.:     0.292 HEAT:  17.77268
 CYCLE:   621 TIME:   0.094 TIME LEFT:  2.00D  GRAD.:     0.215 HEAT:  17.77264
 CYCLE:   622 TIME:   0.102 TIME LEFT:  2.00D  GRAD.:     0.232 HEAT:  17.77256
 CYCLE:   623 TIME:   0.078 TIME LEFT:  2.00D  GRAD.:     0.500 HEAT:  17.77249
 CYCLE:   624 TIME:   0.074 TIME LEFT:  2.00D  GRAD.:     0.383 HEAT:  17.77241
 CYCLE:   625 TIME:   0.090 TIME LEFT:  2.00D  GRAD.:     0.347 HEAT:  17.77234
 CYCLE:   626 TIME:   0.102 TIME LEFT:  2.00D  GRAD.:     0.352 HEAT:  17.77228
 CYCLE:   627 TIME:   0.098 TIME LEFT:  2.00D  GRAD.:     0.380 HEAT:  17.77222
 CYCLE:   628 TIME:   0.098 TIME LEFT:  2.00D  GRAD.:     0.489 HEAT:  17.77205
 CYCLE:   629 TIME:   0.098 TIME LEFT:  2.00D  GRAD.:     0.366 HEAT:  17.77191
 CYCLE:   630 TIME:   0.078 TIME LEFT:  2.00D  GRAD.:     0.371 HEAT:  17.77181
 CYCLE:   631 TIME:   0.078 TIME LEFT:  2.00D  GRAD.:     0.488 HEAT:  17.77171
 CYCLE:   632 TIME:   0.086 TIME LEFT:  2.00D  GRAD.:     0.443 HEAT:  17.77159
 CYCLE:   633 TIME:   0.098 TIME LEFT:  2.00D  GRAD.:     0.748 HEAT:  17.77140
 CYCLE:   634 TIME:   0.078 TIME LEFT:  2.00D  GRAD.:     0.460 HEAT:  17.77130
 CYCLE:   635 TIME:   0.094 TIME LEFT:  2.00D  GRAD.:     0.569 HEAT:  17.77122
 CYCLE:   636 TIME:   0.082 TIME LEFT:  2.00D  GRAD.:     0.529 HEAT:  17.77118
 CYCLE:   637 TIME:   0.098 TIME LEFT:  2.00D  GRAD.:     0.248 HEAT:  17.77113
 CYCLE:   638 TIME:   0.090 TIME LEFT:  2.00D  GRAD.:     0.201 HEAT:  17.77110
 CYCLE:   639 TIME:   0.074 TIME LEFT:  2.00D  GRAD.:     0.370 HEAT:  17.77107
 CYCLE:   640 TIME:   0.086 TIME LEFT:  2.00D  GRAD.:     0.257 HEAT:  17.77103
 CYCLE:   641 TIME:   0.098 TIME LEFT:  2.00D  GRAD.:     0.243 HEAT:  17.77100
 CYCLE:   642 TIME:   0.086 TIME LEFT:  2.00D  GRAD.:     0.245 HEAT:  17.77097
 CYCLE:   643 TIME:   0.094 TIME LEFT:  2.00D  GRAD.:     0.381 HEAT:  17.77093
 CYCLE:   644 TIME:   0.082 TIME LEFT:  2.00D  GRAD.:     0.202 HEAT:  17.77090
 CYCLE:   645 TIME:   0.070 TIME LEFT:  2.00D  GRAD.:     0.203 HEAT:  17.77087
 CYCLE:   646 TIME:   0.094 TIME LEFT:  2.00D  GRAD.:     0.168 HEAT:  17.77083
 CYCLE:   647 TIME:   0.090 TIME LEFT:  2.00D  GRAD.:     0.270 HEAT:  17.77078
 CYCLE:   648 TIME:   0.074 TIME LEFT:  2.00D  GRAD.:     0.355 HEAT:  17.77076
 CYCLE:   649 TIME:   0.074 TIME LEFT:  2.00D  GRAD.:     0.157 HEAT:  17.77073
 CYCLE:   650 TIME:   0.074 TIME LEFT:  2.00D  GRAD.:     0.206 HEAT:  17.77071
 CYCLE:   651 TIME:   0.074 TIME LEFT:  2.00D  GRAD.:     0.156 HEAT:  17.77068
 CYCLE:   652 TIME:   0.090 TIME LEFT:  2.00D  GRAD.:     0.475 HEAT:  17.77067
 CYCLE:   653 TIME:   0.086 TIME LEFT:  2.00D  GRAD.:     0.364 HEAT:  17.77064
 CYCLE:   654 TIME:   0.086 TIME LEFT:  2.00D  GRAD.:     0.132 HEAT:  17.77062
 CYCLE:   655 TIME:   0.062 TIME LEFT:  2.00D  GRAD.:     0.127 HEAT:  17.77062
 CYCLE:   656 TIME:   0.082 TIME LEFT:  2.00D  GRAD.:     0.158 HEAT:  17.77060
 CYCLE:   657 TIME:   0.090 TIME LEFT:  2.00D  GRAD.:     0.244 HEAT:  17.77056
 CYCLE:   658 TIME:   0.105 TIME LEFT:  2.00D  GRAD.:     0.341 HEAT:  17.77054
 CYCLE:   659 TIME:   0.102 TIME LEFT:  2.00D  GRAD.:     0.160 HEAT:  17.77052
 CYCLE:   660 TIME:   0.094 TIME LEFT:  2.00D  GRAD.:     0.139 HEAT:  17.77051
 CYCLE:   661 TIME:   0.098 TIME LEFT:  2.00D  GRAD.:     0.167 HEAT:  17.77048
 CYCLE:   662 TIME:   0.090 TIME LEFT:  2.00D  GRAD.:     0.251 HEAT:  17.77045
 CYCLE:   663 TIME:   0.086 TIME LEFT:  2.00D  GRAD.:     0.310 HEAT:  17.77043
 CYCLE:   664 TIME:   0.082 TIME LEFT:  2.00D  GRAD.:     0.178 HEAT:  17.77041
 CYCLE:   665 TIME:   0.109 TIME LEFT:  2.00D  GRAD.:     0.144 HEAT:  17.77039
 CYCLE:   666 TIME:   0.102 TIME LEFT:  2.00D  GRAD.:     0.196 HEAT:  17.77037
 CYCLE:   667 TIME:   0.102 TIME LEFT:  2.00D  GRAD.:     0.220 HEAT:  17.77035
 CYCLE:   668 TIME:   0.098 TIME LEFT:  2.00D  GRAD.:     0.183 HEAT:  17.77032
 CYCLE:   669 TIME:   0.094 TIME LEFT:  2.00D  GRAD.:     0.307 HEAT:  17.77030
 CYCLE:   670 TIME:   0.102 TIME LEFT:  2.00D  GRAD.:     0.167 HEAT:  17.77028
 CYCLE:   671 TIME:   0.102 TIME LEFT:  2.00D  GRAD.:     0.246 HEAT:  17.77027
 CYCLE:   672 TIME:   0.090 TIME LEFT:  2.00D  GRAD.:     0.187 HEAT:  17.77025
 CYCLE:   673 TIME:   0.078 TIME LEFT:  2.00D  GRAD.:     0.121 HEAT:  17.77024
 CYCLE:   674 TIME:   0.066 TIME LEFT:  2.00D  GRAD.:     0.142 HEAT:  17.77023
 CYCLE:   675 TIME:   0.082 TIME LEFT:  2.00D  GRAD.:     0.158 HEAT:  17.77021
 CYCLE:   676 TIME:   0.082 TIME LEFT:  2.00D  GRAD.:     0.323 HEAT:  17.77020
 CYCLE:   677 TIME:   0.082 TIME LEFT:  2.00D  GRAD.:     0.169 HEAT:  17.77017
 CYCLE:   678 TIME:   0.098 TIME LEFT:  2.00D  GRAD.:     0.148 HEAT:  17.77014
 CYCLE:   679 TIME:   0.086 TIME LEFT:  2.00D  GRAD.:     0.185 HEAT:  17.77012
 CYCLE:   680 TIME:   0.086 TIME LEFT:  2.00D  GRAD.:     0.158 HEAT:  17.77009
 CYCLE:   681 TIME:   0.102 TIME LEFT:  2.00D  GRAD.:     0.181 HEAT:  17.77007
 CYCLE:   682 TIME:   0.094 TIME LEFT:  2.00D  GRAD.:     0.116 HEAT:  17.77005
 CYCLE:   683 TIME:   0.078 TIME LEFT:  2.00D  GRAD.:     0.146 HEAT:  17.77003
 CYCLE:   684 TIME:   0.098 TIME LEFT:  2.00D  GRAD.:     0.220 HEAT:  17.77000
 CYCLE:   685 TIME:   0.078 TIME LEFT:  2.00D  GRAD.:     0.205 HEAT:  17.76998
 CYCLE:   686 TIME:   0.102 TIME LEFT:  2.00D  GRAD.:     0.172 HEAT:  17.76996
 CYCLE:   687 TIME:   0.098 TIME LEFT:  2.00D  GRAD.:     0.164 HEAT:  17.76995
 CYCLE:   688 TIME:   0.098 TIME LEFT:  2.00D  GRAD.:     0.216 HEAT:  17.76993
 CYCLE:   689 TIME:   0.094 TIME LEFT:  2.00D  GRAD.:     0.182 HEAT:  17.76991
 CYCLE:   690 TIME:   0.094 TIME LEFT:  2.00D  GRAD.:     0.171 HEAT:  17.76988
 CYCLE:   691 TIME:   0.098 TIME LEFT:  2.00D  GRAD.:     0.200 HEAT:  17.76985
 CYCLE:   692 TIME:   0.098 TIME LEFT:  2.00D  GRAD.:     0.208 HEAT:  17.76983
 CYCLE:   693 TIME:   0.098 TIME LEFT:  2.00D  GRAD.:     0.190 HEAT:  17.76980
 CYCLE:   694 TIME:   0.094 TIME LEFT:  2.00D  GRAD.:     0.198 HEAT:  17.76977
 CYCLE:   695 TIME:   0.098 TIME LEFT:  2.00D  GRAD.:     0.238 HEAT:  17.76974
 CYCLE:   696 TIME:   0.184 TIME LEFT:  2.00D  GRAD.:     0.162 HEAT:  17.76970
 CYCLE:   697 TIME:   0.141 TIME LEFT:  2.00D  GRAD.:     0.165 HEAT:  17.76967
 CYCLE:   698 TIME:   0.129 TIME LEFT:  2.00D  GRAD.:     0.151 HEAT:  17.76966
 CYCLE:   699 TIME:   0.133 TIME LEFT:  2.00D  GRAD.:     0.132 HEAT:  17.76965
 CYCLE:   700 TIME:   0.133 TIME LEFT:  2.00D  GRAD.:     0.192 HEAT:  17.76962
 CYCLE:   701 TIME:   0.184 TIME LEFT:  2.00D  GRAD.:     0.241 HEAT:  17.76960
 CYCLE:   702 TIME:   0.160 TIME LEFT:  2.00D  GRAD.:     0.155 HEAT:  17.76959
 CYCLE:   703 TIME:   0.195 TIME LEFT:  2.00D  GRAD.:     0.355 HEAT:  17.76959
 CYCLE:   704 TIME:   0.148 TIME LEFT:  2.00D  GRAD.:     0.144 HEAT:  17.76956
 CYCLE:   705 TIME:   0.164 TIME LEFT:  2.00D  GRAD.:     0.127 HEAT:  17.76955
 CYCLE:   706 TIME:   0.098 TIME LEFT:  2.00D  GRAD.:     0.248 HEAT:  17.76951
 CYCLE:   707 TIME:   0.207 TIME LEFT:  2.00D  GRAD.:     0.187 HEAT:  17.76948
 CYCLE:   708 TIME:   0.129 TIME LEFT:  2.00D  GRAD.:     0.195 HEAT:  17.76943
 CYCLE:   709 TIME:   0.156 TIME LEFT:  2.00D  GRAD.:     0.416 HEAT:  17.76937
 CYCLE:   710 TIME:   0.105 TIME LEFT:  2.00D  GRAD.:     0.303 HEAT:  17.76931
 CYCLE:   711 TIME:   0.164 TIME LEFT:  2.00D  GRAD.:     0.482 HEAT:  17.76927
 CYCLE:   712 TIME:   0.215 TIME LEFT:  2.00D  GRAD.:     0.276 HEAT:  17.76924
 CYCLE:   713 TIME:   0.215 TIME LEFT:  2.00D  GRAD.:     0.366 HEAT:  17.76923
 CYCLE:   714 TIME:   0.199 TIME LEFT:  2.00D  GRAD.:     0.244 HEAT:  17.76918
 CYCLE:   715 TIME:   0.234 TIME LEFT:  2.00D  GRAD.:     0.261 HEAT:  17.76915
 CYCLE:   716 TIME:   0.137 TIME LEFT:  2.00D  GRAD.:     0.265 HEAT:  17.76911
 CYCLE:   717 TIME:   0.227 TIME LEFT:  2.00D  GRAD.:     0.197 HEAT:  17.76907
 CYCLE:   718 TIME:   0.129 TIME LEFT:  2.00D  GRAD.:     0.287 HEAT:  17.76902
 CYCLE:   719 TIME:   0.137 TIME LEFT:  2.00D  GRAD.:     0.241 HEAT:  17.76898
 CYCLE:   720 TIME:   0.148 TIME LEFT:  2.00D  GRAD.:     0.364 HEAT:  17.76894
 CYCLE:   721 TIME:   0.164 TIME LEFT:  2.00D  GRAD.:     0.218 HEAT:  17.76891
 CYCLE:   722 TIME:   0.102 TIME LEFT:  2.00D  GRAD.:     0.246 HEAT:  17.76886
 CYCLE:   723 TIME:   0.105 TIME LEFT:  2.00D  GRAD.:     0.227 HEAT:  17.76883
 CYCLE:   724 TIME:   0.160 TIME LEFT:  2.00D  GRAD.:     0.327 HEAT:  17.76878
 CYCLE:   725 TIME:   0.172 TIME LEFT:  2.00D  GRAD.:     0.251 HEAT:  17.76875
 CYCLE:   726 TIME:   0.152 TIME LEFT:  2.00D  GRAD.:     0.155 HEAT:  17.76873
 CYCLE:   727 TIME:   0.152 TIME LEFT:  2.00D  GRAD.:     0.214 HEAT:  17.76871
 CYCLE:   728 TIME:   0.117 TIME LEFT:  2.00D  GRAD.:     0.159 HEAT:  17.76869
 CYCLE:   729 TIME:   0.160 TIME LEFT:  2.00D  GRAD.:     0.157 HEAT:  17.76865
 CYCLE:   730 TIME:   0.188 TIME LEFT:  2.00D  GRAD.:     0.196 HEAT:  17.76863
 CYCLE:   731 TIME:   0.191 TIME LEFT:  2.00D  GRAD.:     0.296 HEAT:  17.76858
 CYCLE:   732 TIME:   0.195 TIME LEFT:  2.00D  GRAD.:     1.082 HEAT:  17.76865
 CYCLE:   733 TIME:   0.207 TIME LEFT:  2.00D  GRAD.:     0.189 HEAT:  17.76854
 CYCLE:   734 TIME:   0.223 TIME LEFT:  2.00D  GRAD.:     0.157 HEAT:  17.76852
 CYCLE:   735 TIME:   0.145 TIME LEFT:  2.00D  GRAD.:     0.251 HEAT:  17.76849
 CYCLE:   736 TIME:   0.195 TIME LEFT:  2.00D  GRAD.:     0.182 HEAT:  17.76846
 CYCLE:   737 TIME:   0.156 TIME LEFT:  2.00D  GRAD.:     0.183 HEAT:  17.76843
 CYCLE:   738 TIME:   0.145 TIME LEFT:  2.00D  GRAD.:     0.157 HEAT:  17.76841
 CYCLE:   739 TIME:   0.160 TIME LEFT:  2.00D  GRAD.:     0.219 HEAT:  17.76837
 CYCLE:   740 TIME:   0.145 TIME LEFT:  2.00D  GRAD.:     0.315 HEAT:  17.76835
 CYCLE:   741 TIME:   0.176 TIME LEFT:  2.00D  GRAD.:     0.153 HEAT:  17.76832
 CYCLE:   742 TIME:   0.125 TIME LEFT:  2.00D  GRAD.:     0.160 HEAT:  17.76830
 CYCLE:   743 TIME:   0.141 TIME LEFT:  2.00D  GRAD.:     0.176 HEAT:  17.76828
 CYCLE:   744 TIME:   0.188 TIME LEFT:  2.00D  GRAD.:     0.213 HEAT:  17.76822
 CYCLE:   745 TIME:   0.121 TIME LEFT:  2.00D  GRAD.:     0.355 HEAT:  17.76818
 CYCLE:   746 TIME:   0.098 TIME LEFT:  2.00D  GRAD.:     0.183 HEAT:  17.76814
 CYCLE:   747 TIME:   0.102 TIME LEFT:  2.00D  GRAD.:     0.165 HEAT:  17.76811
 CYCLE:   748 TIME:   0.141 TIME LEFT:  2.00D  GRAD.:     0.319 HEAT:  17.76808
 CYCLE:   749 TIME:   0.129 TIME LEFT:  2.00D  GRAD.:     0.257 HEAT:  17.76805
 CYCLE:   750 TIME:   0.098 TIME LEFT:  2.00D  GRAD.:     0.214 HEAT:  17.76803
 CYCLE:   751 TIME:   0.105 TIME LEFT:  2.00D  GRAD.:     0.239 HEAT:  17.76801
 CYCLE:   752 TIME:   0.164 TIME LEFT:  2.00D  GRAD.:     0.382 HEAT:  17.76795
 CYCLE:   753 TIME:   0.102 TIME LEFT:  2.00D  GRAD.:     0.173 HEAT:  17.76789
 CYCLE:   754 TIME:   0.102 TIME LEFT:  2.00D  GRAD.:     0.154 HEAT:  17.76786
 CYCLE:   755 TIME:   0.160 TIME LEFT:  2.00D  GRAD.:     0.230 HEAT:  17.76783
 CYCLE:   756 TIME:   0.152 TIME LEFT:  2.00D  GRAD.:     0.172 HEAT:  17.76779
 CYCLE:   757 TIME:   0.094 TIME LEFT:  2.00D  GRAD.:     0.165 HEAT:  17.76777
 CYCLE:   758 TIME:   0.102 TIME LEFT:  2.00D  GRAD.:     0.163 HEAT:  17.76774
 CYCLE:   759 TIME:   0.145 TIME LEFT:  2.00D  GRAD.:     0.195 HEAT:  17.76772
 CYCLE:   760 TIME:   0.105 TIME LEFT:  2.00D  GRAD.:     0.233 HEAT:  17.76769
 CYCLE:   761 TIME:   0.176 TIME LEFT:  2.00D  GRAD.:     0.136 HEAT:  17.76767
 CYCLE:   762 TIME:   0.105 TIME LEFT:  2.00D  GRAD.:     0.360 HEAT:  17.76766
 CYCLE:   763 TIME:   0.164 TIME LEFT:  2.00D  GRAD.:     0.186 HEAT:  17.76764
 CYCLE:   764 TIME:   0.152 TIME LEFT:  2.00D  GRAD.:     0.142 HEAT:  17.76762
 CYCLE:   765 TIME:   0.141 TIME LEFT:  2.00D  GRAD.:     0.197 HEAT:  17.76761
 CYCLE:   766 TIME:   0.195 TIME LEFT:  2.00D  GRAD.:     0.176 HEAT:  17.76759
 CYCLE:   767 TIME:   0.164 TIME LEFT:  2.00D  GRAD.:     0.157 HEAT:  17.76757
 CYCLE:   768 TIME:   0.102 TIME LEFT:  2.00D  GRAD.:     0.159 HEAT:  17.76756
 CYCLE:   769 TIME:   0.219 TIME LEFT:  2.00D  GRAD.:     0.139 HEAT:  17.76755
 CYCLE:   770 TIME:   0.203 TIME LEFT:  2.00D  GRAD.:     0.149 HEAT:  17.76753
 CYCLE:   771 TIME:   0.145 TIME LEFT:  2.00D  GRAD.:     0.299 HEAT:  17.76752
 CYCLE:   772 TIME:   0.117 TIME LEFT:  2.00D  GRAD.:     0.120 HEAT:  17.76751
 CYCLE:   773 TIME:   0.203 TIME LEFT:  2.00D  GRAD.:     0.110 HEAT:  17.76750
 CYCLE:   774 TIME:   0.141 TIME LEFT:  2.00D  GRAD.:     0.251 HEAT:  17.76750
 CYCLE:   775 TIME:   0.125 TIME LEFT:  2.00D  GRAD.:     0.142 HEAT:  17.76748
 CYCLE:   776 TIME:   0.141 TIME LEFT:  2.00D  GRAD.:     0.086 HEAT:  17.76747

 -------------------------------------------------------------------------------
 RM1 PRECISE POLAR XYZ GNORM=0.1




     HERBERTS TEST WAS SATISFIED IN BFGS                      
     SCF FIELD WAS ACHIEVED                                   


                              RM1 CALCULATION
                                                       MOPAC2016 (Version: 21.013L)
                                                       Mon Oct 18 13:02:53 2021
                                                       No. of days remaining =  87




          FINAL HEAT OF FORMATION =         17.76747 KCAL/MOL =      74.33909 KJ/MOL


          TOTAL ENERGY            =      -5204.94752 EV
          ELECTRONIC ENERGY       =     -42647.47669 EV  POINT GROUP:     C1  
          CORE-CORE REPULSION     =      37442.52917 EV
          COSMO AREA              =        503.34 SQUARE ANGSTROMS
          COSMO VOLUME            =        561.24 CUBIC ANGSTROMS

          GRADIENT NORM           =          0.08632 = 0.01096 PER ATOM
          IONIZATION POTENTIAL    =          8.117162 EV
          HOMO LUMO ENERGIES (EV) =         -8.117 -0.930
          NO. OF FILLED LEVELS    =         85
          MOLECULAR WEIGHT        =        448.5634

          MOLECULAR DIMENSIONS (Angstroms)

            Atom       Atom       Distance
            H    62    H    39    21.79808
            H    38    H    56     9.70992
            H    50    H    37     4.99325


          SCF CALCULATIONS        =        777
 
          WALL-CLOCK TIME         =  1 MINUTE AND 24.320 SECONDS
          COMPUTATION TIME        = 16 MINUTES AND 16.746 SECONDS




   ATOM   CHEMICAL          X               Y               Z
  NUMBER   SYMBOL      (ANGSTROMS)     (ANGSTROMS)     (ANGSTROMS)
 
     1       C          0.50255688  *  -0.18269471  *   0.89287550  *
     2       C          1.50693285  *   0.25337095  *  -0.16132812  *
     3       C          2.41588874  *   1.35362179  *   0.38092737  *
     4       C          3.42219198  *   1.79579797  *  -0.67897465  *
     5       C          4.33124812  *   2.89158452  *  -0.13040091  *
     6       C          5.33218894  *   3.33387693  *  -1.20814620  *
     7       N          6.22231681  *   4.38618318  *  -0.72557411  *
     8       C          5.81358281  *   5.71660010  *  -0.49693384  *
     9       C          4.69056107  *   6.39173695  *  -0.97025888  *
    10       C          4.56558679  *   7.73009880  *  -0.63875338  *
    11       C          5.53271520  *   8.39049066  *   0.13431556  *
    12       C          6.64940039  *   7.71509702  *   0.61467953  *
    13       C          6.78648218  *   6.37302857  *   0.30445027  *
    14       C          7.78502716  *   5.39111963  *   0.64399798  *
    15       C          7.39091662  *   4.16741004  *   0.03781697  *
    16       C          8.14572256  *   3.00772514  *   0.19185126  *
    17       C          9.30070498  *   3.09832784  *   0.95349889  *
    18       C          9.69922397  *   4.30074033  *   1.54561629  *
    19       C          8.94658435  *   5.45599279  *   1.39571234  *
    20       C          5.33959434  *   9.80252544  *   0.44043420  *
    21       C          6.34448699  *  10.68145972  *   0.39752544  *
    22       C          6.14866346  *  12.09066022  *   0.71640584  *
    23       C          5.03971835  *  12.78194308  *   0.23469465  *
    24       C          4.86923633  *  14.12624473  *   0.54118983  *
    25       C          5.80898710  *  14.78022477  *   1.33312092  *
    26       C          6.91540103  *  14.08701662  *   1.82701950  *
    27       C          7.09021841  *  12.75000452  *   1.50890335  *
    28       C          5.64590539  *  16.18302719  *   1.67838600  *
    29       C          5.33049583  *  17.12714699  *   0.77433755  *
    30       C          5.16256553  *  18.52233515  *   1.20610742  *
    31       O          5.30768718  *  18.95385059  *   2.34083778  *
    32       O          4.81133954  *  19.36406940  *   0.21385298  *
    33       C          5.17632540  *  16.84533430  *  -0.60720034  *
    34       N          5.06019849  *  16.63099851  *  -1.73742031  *
    35       H          4.31970789  *  10.09711969  *   0.71459258  *
    36       H          7.36410583  *  10.39243878  *   0.11948268  *
    37       H          5.80293144  *  16.44651467  *   2.73538553  *
    38       H         -0.14499017  *   0.64381632  *   1.21943045  *
    39       H         -0.16243723  *  -0.97556611  *   0.52082777  *
    40       H          0.99023936  *  -0.57878899  *   1.79528097  *
    41       H          2.10807329  *  -0.61704747  *  -0.49971502  *
    42       H          0.97716717  *   0.59990660  *  -1.07388069  *
    43       H          1.80958486  *   2.21863507  *   0.72380422  *
    44       H          2.94325834  *   1.00149179  *   1.29265163  *
    45       H          4.02518476  *   0.92895013  *  -1.02353324  *
    46       H          2.89259088  *   2.15053949  *  -1.58862596  *
    47       H          3.73341215  *   3.76065044  *   0.21808390  *
    48       H          4.86942404  *   2.53883223  *   0.77467082  *
    49       H          5.94627496  *   2.47436258  *  -1.56274937  *
    50       H          4.80300369  *   3.70724299  *  -2.11602432  *
    51       H          3.93436214  *   5.89164228  *  -1.57814721  *
    52       H          3.69295713  *   8.28795181  *  -0.99419546  *
    53       H          7.40025657  *   8.21292628  *   1.23362830  *
    54       H          7.84969009  *   2.06164018  *  -0.26421559  *
    55       H          9.91760127  *   2.20528827  *   1.09587962  *
    56       H         10.61925084  *   4.32683352  *   2.13590863  *
    57       H          9.25358160  *   6.39829971  *   1.85598997  *
    58       H          4.30596889  *  12.27615378  *  -0.40063388  *
    59       H          3.98560563  *  14.65659189  *   0.17156741  *
    60       H          7.64981437  *  14.60049212  *   2.45572056  *
    61       H          7.96378859  *  12.20884286  *   1.88499376  *
    62       H          4.71528555  *  20.26975063  *   0.54281558  *

                             CARTESIAN COORDINATES

   1    C        0.502556879    -0.182694708     0.892875501
   2    C        1.506932849     0.253370945    -0.161328121
   3    C        2.415888745     1.353621789     0.380927373
   4    C        3.422191981     1.795797975    -0.678974653
   5    C        4.331248118     2.891584524    -0.130400909
   6    C        5.332188942     3.333876933    -1.208146201
   7    N        6.222316814     4.386183184    -0.725574106
   8    C        5.813582813     5.716600095    -0.496933838
   9    C        4.690561074     6.391736950    -0.970258877
  10    C        4.565586789     7.730098800    -0.638753378
  11    C        5.532715202     8.390490658     0.134315564
  12    C        6.649400393     7.715097016     0.614679529
  13    C        6.786482179     6.373028571     0.304450265
  14    C        7.785027162     5.391119633     0.643997982
  15    C        7.390916619     4.167410042     0.037816967
  16    C        8.145722564     3.007725143     0.191851262
  17    C        9.300704983     3.098327840     0.953498895
  18    C        9.699223975     4.300740329     1.545616288
  19    C        8.946584348     5.455992789     1.395712341
  20    C        5.339594341     9.802525441     0.440434198
  21    C        6.344486991    10.681459715     0.397525438
  22    C        6.148663461    12.090660222     0.716405844
  23    C        5.039718352    12.781943084     0.234694650
  24    C        4.869236328    14.126244725     0.541189833
[...]
  59    H        3.985605631    14.656591892     0.171567407
  60    H        7.649814370    14.600492119     2.455720562
  61    H        7.963788588    12.208842862     1.884993758
  62    H        4.715285547    20.269750631     0.542815576


           Empirical Formula: C30 H28 N2 O2  =    62 atoms



      MOLECULAR POINT GROUP   :   C1  


                  EIGENVALUES  
 -39.78841 -39.22198 -37.79515 -36.78760 -36.34133 -36.11755 -35.45273 -35.13405
 -34.05289 -32.90314 -32.08176 -31.08431 -30.16513 -29.99360 -29.33326 -28.40974
 -27.63578 -26.98887 -25.28247 -24.50295 -23.25515 -22.98557 -22.84193 -22.13798
 -21.88327 -21.55803 -21.36651 -20.91537 -20.65759 -19.73159 -19.28668 -18.21155
 -17.96125 -17.74840 -17.22183 -16.93735 -16.61250 -16.38243 -16.28409 -16.03401
 -15.87744 -15.76161 -15.60661 -15.38239 -15.16590 -14.95048 -14.89721 -14.79988
 -14.58026 -14.55700 -14.50575 -14.36200 -14.25967 -14.23568 -14.05136 -13.74310
 -13.69122 -13.52204 -13.44787 -13.34967 -13.17435 -13.03137 -12.77146 -12.64962
 -12.56768 -12.46864 -12.35082 -12.30444 -12.18520 -12.16181 -12.01098 -11.95437
 -11.78285 -11.70171 -11.54976 -11.49670 -11.24120 -11.23792 -10.67331 -10.36790
  -9.92180  -9.67765  -9.18164  -8.55119  -8.11716  -0.93033  -0.04086   0.02081
   0.30641   0.39169   0.84335   1.14515   1.21027   1.53780   1.59526   1.79435
   2.18499   2.40195   2.70654   2.89829   2.98353   3.21882   3.40995   3.61930
   3.66533   3.76744   3.77574   3.81223   3.84149   3.93334   3.98767   4.01449
   4.04424   4.11996   4.21150   4.22613   4.26321   4.27947   4.32319   4.34590
   4.37338   4.43174   4.46637   4.48834   4.56037   4.60005   4.62988   4.68608
   4.71523   4.73095   4.80206   4.83747   4.89932   4.92539   4.94111   4.97138
   4.98983   4.99383   5.01550   5.04219   5.08957   5.12609   5.20102   5.23938
   5.29898   5.34947   5.36265   5.40056   5.43478   5.52907   5.54346   5.62081
   5.68293   5.78421   5.90714   5.94912   5.96217   6.06972   6.09785   6.17783
   6.24534   6.44591   6.52860   6.53502


              NET ATOMIC CHARGES AND DIPOLE CONTRIBUTIONS

  ATOM NO.   TYPE          CHARGE      No. of ELECS.   s-Pop       p-Pop
   31          O          -0.374973        6.3750     1.91033     4.46464
   30          C           0.399542        3.6005     1.18128     2.41918
   32          O          -0.310381        6.3104     1.83990     4.47048
   62          H           0.245270        0.7547     0.75473
   33          C           0.047360        3.9526     1.19528     2.75736
   34          N          -0.142550        5.1426     1.84801     3.29455
    1          C          -0.177762        4.1778     1.15569     3.02207
    2          C          -0.112306        4.1123     1.16677     2.94554
    3          C          -0.122862        4.1229     1.17070     2.95216
    4          C          -0.118905        4.1189     1.16947     2.94943
    5          C          -0.169722        4.1697     1.17992     2.98980
    6          C           0.062398        3.9376     1.15780     2.77980
    7          N          -0.286502        5.2865     1.52108     3.76542
    8          C           0.117100        3.8829     1.15344     2.72946
    9          C          -0.168475        4.1685     1.17051     2.99797
   10          C          -0.047704        4.0477     1.17544     2.87226
   11          C          -0.097018        4.0970     1.16245     2.93457
   12          C          -0.027629        4.0276     1.16870     2.85893
   13          C          -0.093328        4.0933     1.15928     2.93405
   14          C          -0.091378        4.0914     1.15925     2.93213
   15          C           0.114365        3.8856     1.15350     2.73213
   16          C          -0.167338        4.1673     1.17051     2.99683
   17          C          -0.054070        4.0541     1.17638     2.87769
   18          C          -0.157532        4.1575     1.17801     2.97952
   19          C          -0.036279        4.0363     1.16929     2.86699
   20          C          -0.061254        4.0613     1.17875     2.88250
   21          C          -0.141560        4.1416     1.18006     2.96150
   22          C           0.022141        3.9779     1.16508     2.81278
   23          C          -0.120014        4.1200     1.18040     2.93961
   24          C          -0.053112        4.0531     1.17835     2.87476
   25          C          -0.119470        4.1195     1.16280     2.95667
   26          C          -0.058864        4.0589     1.17682     2.88205
   27          C          -0.122167        4.1222     1.17952     2.94264
   28          C           0.086216        3.9138     1.18700     2.72679
   29          C          -0.129848        4.1298     1.14276     2.98709
   35          H           0.108655        0.8913     0.89134
   36          H           0.121231        0.8788     0.87877
   37          H           0.136108        0.8639     0.86389
   38          H           0.058661        0.9413     0.94134
   39          H           0.057206        0.9428     0.94279
   40          H           0.058721        0.9413     0.94128
   41          H           0.060111        0.9399     0.93989
   42          H           0.060069        0.9399     0.93993
   43          H           0.064879        0.9351     0.93512
   44          H           0.065184        0.9348     0.93482
   45          H           0.062453        0.9375     0.93755
   46          H           0.062247        0.9378     0.93775
   47          H           0.080708        0.9193     0.91929
   48          H           0.081319        0.9187     0.91868
   49          H           0.078948        0.9211     0.92105
   50          H           0.077266        0.9227     0.92273
   51          H           0.119088        0.8809     0.88091
   52          H           0.104483        0.8955     0.89552
   53          H           0.111919        0.8881     0.88808
   54          H           0.116795        0.8832     0.88321
   55          H           0.101013        0.8990     0.89899
   56          H           0.108173        0.8918     0.89183
   57          H           0.106721        0.8933     0.89328
   58          H           0.120785        0.8792     0.87921
   59          H           0.117663        0.8823     0.88234
   60          H           0.110997        0.8890     0.88900
   61          H           0.117208        0.8828     0.88279
   
 DIPOLE           X         Y         Z       TOTAL
 POINT-CHG.    -0.545    -4.847     1.012     4.981
 HYBRID        -0.161     0.502     0.663     0.847
 SUM           -0.706    -4.345     1.676     4.710


          ATOMIC ORBITAL ELECTRON POPULATIONS

     Atom    s        px        py        pz   
    1  C   1.15569   0.99941   1.02331   0.99935
    2  C   1.16677   0.97708   0.98677   0.98169
    3  C   1.17070   0.97744   0.99288   0.98184
    4  C   1.16947   0.97839   0.98330   0.98775
    5  C   1.17992   0.98948   1.00781   0.99251
    6  C   1.15780   0.91882   0.90075   0.96024
    7  N   1.52108   1.18483   1.07344   1.50715
    8  C   1.15344   0.94493   0.83153   0.95300
    9  C   1.17051   0.98587   0.95843   1.05367
   10  C   1.17544   0.97251   0.93664   0.96311
   11  C   1.16245   0.96756   0.94046   1.02655
   12  C   1.16870   0.95685   0.92893   0.97315
   13  C   1.15928   0.96521   0.94292   1.02592
   14  C   1.15925   0.97417   0.92897   1.02899
   15  C   1.15350   0.87263   0.94721   0.91229
   16  C   1.17051   0.97791   0.96966   1.04926
   17  C   1.17638   0.95106   0.97024   0.95640
   18  C   1.17801   1.00799   0.94032   1.03121
   19  C   1.16929   0.93339   0.97405   0.95955
   20  C   1.17875   0.98262   0.93033   0.96955
   21  C   1.18006   1.00045   0.93067   1.03038
   22  C   1.16508   0.93373   0.93546   0.94358
   23  C   1.18040   0.98100   0.95108   1.00753
   24  C   1.17835   0.97577   0.95253   0.94646
   25  C   1.16280   0.99210   0.93255   1.03201
   26  C   1.17682   0.96103   0.94615   0.97486
   27  C   1.17952   0.99556   0.95107   0.99601
   28  C   1.18700   0.81879   0.92245   0.98554
   29  C   1.14276   1.15248   0.93332   0.90129
   30  C   1.18128   0.72899   0.86084   0.82935
   31  O   1.91033   1.47016   1.76660   1.22788
   32  O   1.83990   1.82097   1.23607   1.41344
   33  C   1.19528   0.92365   0.92134   0.91237
   34  N   1.84801   1.09628   1.08966   1.10860
   35  H   0.89134
   36  H   0.87877
   37  H   0.86389
   38  H   0.94134
   39  H   0.94279
   40  H   0.94128
   41  H   0.93989
   42  H   0.93993
   43  H   0.93512
   44  H   0.93482
   45  H   0.93755
   46  H   0.93775
   47  H   0.91929
   48  H   0.91868
   49  H   0.92105
   50  H   0.92273
   51  H   0.88091
   52  H   0.89552
   53  H   0.88808
   54  H   0.88321
   55  H   0.89899
   56  H   0.89183
   57  H   0.89328
   58  H   0.87921
   59  H   0.88234
   60  H   0.88900
   61  H   0.88279
   62  H   0.75473
 ******************** TDHF POLARIZABILITIES ********************



          MOLECULAR WEIGHT =  448.56



          ROTATIONAL CONSTANTS IN CM(-1)

          A =    0.00784337   B =    0.00099662   C =    0.00091734



           PRINCIPAL MOMENTS OF INERTIA IN UNITS OF 10**(-40)*GRAM-CM**2

          A =     3568.9734   B =    28087.6414   C =    30515.2740


 ROTATION MATRIX FOR ORIENTATION OF MOLECULE:

         0.036642   -0.985821   -0.163753
         0.998163    0.044018   -0.041641
         0.048259   -0.161926    0.985622


          CARTESIAN COORDINATES 

    NO.       ATOM         X         Y         Z

     1         C       -9.3375    4.5483    1.7228
     2         C       -8.9163    3.7480    0.5011
     3         C       -7.7586    2.8126    0.8409
     4         C       -7.3315    2.0116   -0.3869
     5         C       -6.1780    1.0749   -0.0407
     6         C       -5.7518    0.2821   -1.2853
     7         N       -4.6456   -0.6272   -0.9993
     8         C       -3.3215   -0.2027   -0.7624
     9         C       -2.7116    1.0107   -1.0731
    10         C       -1.3643    1.1392   -0.7816
    11         C       -0.6324    0.0896   -0.2056
    12         C       -1.2424   -1.1187    0.1132
    13         C       -2.5920   -1.2627   -0.1592
    14         C       -3.5191   -2.3453    0.0529
    15         C       -4.7843   -1.9125   -0.4291
    16         C       -5.9067   -2.7326   -0.3526
    17         C       -5.7372   -3.9905    0.2052
    18         C       -4.4938   -4.4263    0.6735
    19         C       -3.3755   -3.6092    0.6009
    20         C        0.7847    0.2926    0.0690
    21         C        1.6968   -0.6524   -0.1745
    22         C        3.1116   -0.4490    0.1132
    23         C        3.7378    0.7527   -0.2088
    24         C        5.0882    0.9303    0.0653
    25         C        5.8136   -0.0956    0.6647
    26         C        5.1860   -1.2968    0.9992
    27         C        3.8425   -1.4765    0.7127
    28         C        7.2245    0.0710    0.9733
    29         C        8.1117    0.5699    0.0946
    30         C        9.5190    0.7270    0.4895
    31         O       10.0098    0.4192    1.5662
    32         O       10.2984    1.2709   -0.4660
    33         C        7.7581    0.9332   -1.2301
    34         N        7.4853    1.2213   -2.3162
    35         H        1.0547    1.2666    0.4939
    36         H        1.4323   -1.6253   -0.6034
    37         H        7.5443   -0.2433    1.9784
    38         H       -8.5205    5.1701    2.1163
    39         H      -10.1713    5.2292    1.4980
    40         H       -9.6715    3.9039    2.5489
    41         H       -9.7795    3.1719    0.1054
    42         H       -8.6339    4.4333   -0.3260
    43         H       -6.9009    3.3929    1.2421
    44         H       -8.0468    2.1296    1.6678
    45         H       -8.1913    1.4348   -0.7892
    46         H       -7.0408    2.6967   -1.2116
    47         H       -5.3156    1.6461    0.3644
    48         H       -6.4667    0.3823    0.7779
    49         H       -6.6044   -0.3037   -1.6996
    50         H       -5.4424    0.9672   -2.1090
    51         H       -3.2679    1.8326   -1.5276
    52         H       -0.8566    2.0815   -1.0123
    53         H       -0.6881   -1.9372    0.5795
    54         H       -6.8839   -2.4085   -0.7142
    55         H       -6.5992   -4.6610    0.2817
    56         H       -4.4056   -5.4278    1.1035
    57         H       -2.4015   -3.9449    0.9650
    58         H        3.1754    1.5567   -0.6937
    59         H        5.5673    1.8846   -0.1764
    60         H        5.7558   -2.1000    1.4772
    61         H        3.3525   -2.4224    0.9629
    62         H       11.2148    1.3522   -0.1637


 ENERGY OF "REORIENTED" SYSTEM WITHOUT FIELD:       17.7674679113


  NFREQ=  3  IWFLB=  0  IBET=  1  IGAM=  1
  ATOL= 0.10000D-02  BTOL= 0.10000D-02    MAXITU=  500    MAXITA=  150


 *****************************************************************
 CALCULATION OF STATIC FIELD QUANTITIES
 *****************************************************************

 +++++ ALPHA AT       0.00000 EV.

                           COMPONENTS OF ALPHA

                     *X           *Y           *Z
           *=X:     501.7953      46.4587      22.0406
           *=Y:      46.4720     280.1583     -69.5703
           *=Z:      22.0208     -69.5713     163.5463

  ISOTROPIC AVERAGE ALPHA =     315.16663 A.U. =     46.70288 ANG.**3

 +++++ BETA (SECOND HARMONIC GENERATION) AT       0.00000 EV.

                              COMPONENTS OF BETA
            *XX         *XY         *YY         *XZ         *YZ         *ZZ
   *=X -4672.79033  -675.72657   197.49059  -299.78721  -195.72240   134.25210
   *=Y  -675.83311   197.40807   327.48537  -195.72767  -143.69634    54.51920
   *=Z  -299.43449  -195.67384  -143.71999   134.30484    54.53763   -11.16680


 AVERAGE BETAX(SHG) VALUE AT   0.00000 EV =      -2604.6405 a.u. = -0.225026E-28 ESU
 AVERAGE BETAY(SHG) VALUE AT   0.00000 EV =       -176.2471 a.u. = -0.152267E-29 ESU
 AVERAGE BETAZ(SHG) VALUE AT   0.00000 EV =       -272.7244 a.u. = -0.235618E-29 ESU



 AVERAGE BETA (SHG) VALUE AT   0.00000 EV =       2624.8036 a.u. =  0.226768E-28 ESU
   (1 a.u. = 8.639418X10-33 esu)



 +++++ ALPHA AT       0.00000 EV.

                           COMPONENTS OF ALPHA

                     *X           *Y           *Z
           *=X:     501.7953      46.4587      22.0406
           *=Y:      46.4720     280.1583     -69.5703
           *=Z:      22.0208     -69.5713     163.5463

  ISOTROPIC AVERAGE ALPHA =     315.16663 A.U. =     46.70288 ANG.**3


 GAMMA (THIRD HARMONIC GENERATION) AT    0.00000 EV.


 GAMMA(X,X,X,X) =       1229609.84630
 GAMMA(Y,Y,Y,Y) =         46506.41080
 GAMMA(Z,Z,Z,Z) =          6580.22431
 GAMMA(X,X,Y,Y) =         31271.04243
 GAMMA(X,X,Z,Z) =          5252.99394
 GAMMA(Y,Y,X,X) =         31270.83148
 GAMMA(Y,Y,Z,Z) =          5013.15514
 GAMMA(Z,Z,X,X) =          5252.61140
 GAMMA(Z,Z,Y,Y) =          5013.28702


 AVERAGE GAMMA VALUE AT    0.00000 =        273154.08056 a.u. =       137579.58623 ESU (X10-39)




 **********************************************************************
 CALCULATION FOR A FREQUENCY OF    0.25000 EV  =       0.00919 A.U. 
                  WAVELENGTH OF    4959.37 NM  =    2016.38525 CM(-1)
 **********************************************************************

 +++++ ALPHA AT       0.25000 EV.

                           COMPONENTS OF ALPHA

                     *X           *Y           *Z
           *=X:     503.5283      46.6916      21.9935
           *=Y:      46.7026     280.6175     -69.7005
           *=Z:      21.9773     -69.7013     163.7090

  ISOTROPIC AVERAGE ALPHA =     315.95156 A.U. =     46.81919 ANG.**3

 +++++ BETA (SECOND HARMONIC GENERATION) AT       0.25000 EV.

                              COMPONENTS OF BETA
            *XX         *XY         *YY         *XZ         *YZ         *ZZ
   *=X -4842.56932  -697.55368   205.97727  -307.80683  -201.72842   137.33783
   *=Y  -697.52145   200.38939   332.95919  -199.48096  -146.09623    55.47990
   *=Z  -297.52535  -197.89650  -145.80218   136.29965    55.41621   -11.56252


 AVERAGE BETAX(SHG) VALUE AT   0.25000 EV =      -2702.2030 a.u. = -0.233455E-28 ESU
 AVERAGE BETAY(SHG) VALUE AT   0.25000 EV =       -185.4878 a.u. = -0.160251E-29 ESU
 AVERAGE BETAZ(SHG) VALUE AT   0.25000 EV =       -277.1642 a.u. = -0.239454E-29 ESU



 AVERAGE BETA (SHG) VALUE AT   0.25000 EV =       2722.7057 a.u. =  0.235226E-28 ESU
   (1 a.u. = 8.639418X10-33 esu)



 +++++ ALPHA AT       0.75000 EV.

                           COMPONENTS OF ALPHA

                     *X           *Y           *Z
           *=X:     518.0657      48.6307      21.6152
           *=Y:      48.6413     284.3784     -70.7658
           *=Z:      21.5965     -70.7675     165.0252

  ISOTROPIC AVERAGE ALPHA =     322.48980 A.U. =     47.78806 ANG.**3


 GAMMA (THIRD HARMONIC GENERATION) AT    0.25000 EV.


 GAMMA(X,X,X,X) =       1336285.70905
 GAMMA(Y,Y,Y,Y) =         48586.93050
 GAMMA(Z,Z,Z,Z) =          6734.63814
 GAMMA(X,X,Y,Y) =         32407.32103
 GAMMA(X,X,Z,Z) =          5465.19185
 GAMMA(Y,Y,X,X) =         33421.58264
 GAMMA(Y,Y,Z,Z) =          5211.33208
 GAMMA(Z,Z,X,X) =          5234.91518
 GAMMA(Z,Z,Y,Y) =          5182.28606


 AVERAGE GAMMA VALUE AT    0.25000 =        295705.98131 a.u. =       148938.30789 ESU (X10-39)




 **********************************************************************
 CALCULATION FOR A FREQUENCY OF    0.50000 EV  =       0.01837 A.U. 
                  WAVELENGTH OF    2479.68 NM  =    4032.77050 CM(-1)
 **********************************************************************

 +++++ ALPHA AT       0.50000 EV.

                           COMPONENTS OF ALPHA

                     *X           *Y           *Z
           *=X:     508.8264      47.3979      21.8578
           *=Y:      47.4092     282.0076     -70.0939
           *=Z:      21.8419     -70.0947     164.1981

  ISOTROPIC AVERAGE ALPHA =     318.34402 A.U. =     47.17372 ANG.**3

 +++++ BETA (SECOND HARMONIC GENERATION) AT       0.50000 EV.

                              COMPONENTS OF BETA
            *XX         *XY         *YY         *XZ         *YZ         *ZZ
   *=X -5417.24267  -771.11127   235.28036  -334.67031  -222.11760   147.61956
   *=Y  -770.32478   209.57481   350.42164  -211.64886  -153.77639    58.54516
   *=Z  -288.67268  -204.62441  -152.39942   142.68129    58.23286   -12.84210


 AVERAGE BETAX(SHG) VALUE AT   0.50000 EV =      -3032.8632 a.u. = -0.262022E-28 ESU
 AVERAGE BETAY(SHG) VALUE AT   0.50000 EV =       -217.2543 a.u. = -0.187695E-29 ESU
 AVERAGE BETAZ(SHG) VALUE AT   0.50000 EV =       -291.2984 a.u. = -0.251665E-29 ESU



 AVERAGE BETA (SHG) VALUE AT   0.50000 EV =       3054.5561 a.u. =  0.263896E-28 ESU
   (1 a.u. = 8.639418X10-33 esu)



 +++++ ALPHA AT       1.50000 EV.

                           COMPONENTS OF ALPHA

                     *X           *Y           *Z
           *=X:     579.3367      56.7493      19.7273
           *=Y:      56.7687     298.5039     -74.8258
           *=Z:      19.7050     -74.8266     169.8069

  ISOTROPIC AVERAGE ALPHA =     349.21586 A.U. =     51.74845 ANG.**3


 GAMMA (THIRD HARMONIC GENERATION) AT    0.50000 EV.


 GAMMA(X,X,X,X) =       1767009.41559
 GAMMA(Y,Y,Y,Y) =         55861.87686
 GAMMA(Z,Z,Z,Z) =          7254.23289
 GAMMA(X,X,Y,Y) =         35787.15217
 GAMMA(X,X,Z,Z) =          6208.26073
 GAMMA(Y,Y,X,X) =         41685.16376
 GAMMA(Y,Y,Z,Z) =          5904.70297
 GAMMA(Z,Z,X,X) =          4997.38656
 GAMMA(Z,Z,Y,Y) =          5762.58697


 AVERAGE GAMMA VALUE AT    0.50000 =        386094.15570 a.u. =       194464.14301 ESU (X10-39)



 **********************
 *                    *
 * JOB ENDED NORMALLY *
 *                    *
 **********************



 TOTAL JOB TIME:           128.49 SECONDS

 == MOPAC DONE ==
