 *******************************************************************************
 ** Site#: 4824         For non-commercial use only    Version 21.013L 64BITS **
 *******************************************************************************
 ** Cite this program as: MOPAC2016, Version: 21.013L, James J. P. Stewart,   **
 ** Stewart Computational Chemistry, web: HTTP://OpenMOPAC.net. Days left:  88**
 *******************************************************************************
 **                                                                           **
 **                                MOPAC2016                                  **
 **                                                                           **
 *******************************************************************************

                              RM1 CALCULATION RESULTS

 *******************************************************************************
 *  CALCULATION DONE:                                Sun Oct 17 20:23:38 2021  *
 *  RM1        - The RM1 Hamiltonian to be used
 *  POLAR      - CALCULATE FIRST, SECOND AND THIRD-ORDER POLARIZABILITIES
 *  PRECISE    - TIGHTER CRITERIA TO BE USED
 *  T=         - A TIME OF 172800.0 SECONDS REQUESTED
 *  DUMP=N     - RESTART FILE WRITTEN EVERY 7200.0 SECONDS REQUESTED
 *  GNORM      - EXIT WHEN GRADIENT NORM DROPS BELOW 0.100
 *******************************************************************************
RM1 PRECISE POLAR GNORM=0.1


  ATOM    CHEMICAL      BOND LENGTH      BOND ANGLE     TWIST ANGLE 
 NUMBER    SYMBOL       (ANGSTROMS)      (DEGREES)       (DEGREES) 
   (I)                     NA:I           NB:NA:I       NC:NB:NA:I       NA    NB    NC 
     1       N          0.00000000       0.0000000       0.0000000        0     0     0
     2       C          1.15830000  *    0.0000000       0.0000000        1     0     0
     3       C          1.42950000  *  179.8707000  *    0.0000000        2     1     0
     4       C          1.34960000  *  121.8880000  * -178.9576000  *     3     2     1
     5       C          1.46810000  *  125.9721000  *   -2.0233000  *     4     3     2
     6       C          1.34910000  *  129.2675000  *  -33.3205000  *     5     4     3
     7       C          1.48770000  *  115.9558000  * -175.5571000  *     6     5     4
     8       C          1.34950000  *  116.2608000  *    1.5367000  *     7     6     5
     9       S          1.82030000  *  123.6861000  *  153.5515000  *     5     4     3
    10       C          1.47280000  *  127.3252000  *  177.6398000  *     8     7     6
    11       C          1.48910000  *  120.5943000  *   20.2979000  *    10     8     7
    12       C          1.34850000  *  121.3572000  * -178.0563000  *    11    10     8
    13       C          1.46100000  *  118.3560000  *   -0.1742000  *    12    11    10
    14       C          1.34220000  *  120.4832000  *   -0.8614000  *    13    12    11
    15       C          1.35150000  *  120.1098000  * -158.9092000  *    10     8     7
    16       C          1.45940000  *  107.6385000  * -179.4865000  *    14    13    12
    17       C          1.46140000  *  130.7766000  * -178.9682000  *    16    14    13
    18       C          1.34770000  *  117.9608000  *  178.8537000  *    17    16    14
    19       C          1.47990000  *  120.6839000  *    0.0000000  *    18    17    16
    20       C          1.34790000  *  120.7988000  *    0.1941000  *    19    18    17
    21       C          1.34350000  *  107.6456000  *    0.3707000  *    16    14    13
    22       N          1.41800000  *  130.4058000  *  179.9449000  *    13    12    11
    23       C          1.40910000  *  126.4360000  * -173.9549000  *    22    13    14
    24       C          1.47220000  *  119.7373000  *  -72.2272000  *    23    22    13
    25       C          1.34470000  *  120.1966000  * -178.7275000  *    24    23    22
    26       C          1.47210000  *  120.2275000  *   -0.8215000  *    25    24    23
    27       C          1.34690000  *  119.5573000  *   -0.3269000  *    26    25    24
    28       C          1.34670000  *  120.7233000  *  108.2144000  *    23    22    13
    29       C          1.47040000  *  119.2257000  * -179.4723000  *    26    25    24
    30       C          1.34940000  *  122.5813000  *   83.6320000  *    29    26    27
    31       C          1.47430000  *  120.5393000  *   -1.3771000  *    30    29    26
    32       C          1.47310000  *  119.4812000  *   98.4702000  *    31    30    29
    33       C          1.34480000  *  120.1183000  * -179.4001000  *    32    31    30
    34       C          1.46940000  *  120.0220000  *   -0.2426000  *    33    32    31
    35       C          1.34460000  *  120.0213000  *    0.0000000  *    34    33    32
    36       C          1.34770000  *  120.8786000  *  -81.3675000  *    31    30    29
    37       C          1.47930000  *  120.6156000  *  176.4315000  *    30    29    26
    38       C          1.47800000  *  120.4308000  *  -42.9183000  *    37    30    29
    39       C          1.34500000  *  120.5278000  * -179.8154000  *    38    37    30
    40       C          1.46810000  *  120.0965000  *   -0.1361000  *    39    38    37
    41       C          1.34400000  *  119.7917000  *    0.8812000  *    40    39    38
    42       C          1.34920000  *  120.7519000  *  138.3183000  *    37    30    29
    43       C          1.47660000  *  117.8852000  *  178.1436000  *     3     2     4
    44       O          1.23260000  *  120.9397000  *    1.1050000  *    43     3     4
    45       O          1.35560000  *  120.2666000  * -177.6592000  *    43     3     4
    46       H          1.05390000  *  117.9395000  *  176.6060000  *     4     3     2
    47       H          1.04800000  *  122.9532000  *    1.1524000  *     6     5     4
    48       H          1.04860000  *  121.0250000  *  179.4800000  *     7     6     5
    49       H          1.05100000  *  120.0634000  * -178.1959000  *    11    10    15
    50       H          1.05040000  *  120.8023000  * -179.7768000  *    12    11    10
    51       H          1.04970000  *  121.4287000  *   -0.3499000  *    15    10     8
    52       H          1.05010000  *  121.1168000  *  179.6623000  *    17    16    21
    53       H          1.05150000  *  119.7926000  * -179.8789000  *    18    17    16
    54       H          1.05120000  *  119.4363000  * -179.6586000  *    19    18    17
    55       H          1.04990000  *  120.8219000  * -179.6728000  *    20    19    18
    56       H          1.05110000  *  119.9446000  * -179.8037000  *    24    23    28
    57       H          1.05150000  *  119.7935000  *  179.2759000  *    25    24    23
    58       H          1.05140000  *  120.4249000  *    0.0973000  *    27    26    29
    59       H          1.05140000  *  120.2261000  *   -0.2898000  *    28    23    22
    60       H          1.05210000  *  117.7750000  *  -98.6069000  *    29    26    27
    61       H          1.05140000  *  120.0005000  * -179.8124000  *    32    31    36
    62       H          1.05080000  *  120.0954000  *  179.8143000  *    33    32    31
    63       H          1.05110000  *  119.8980000  * -179.8385000  *    34    33    32
    64       H          1.05080000  *  120.1678000  * -179.9379000  *    35    34    33
    65       H          1.05150000  *  120.3837000  *  179.7069000  *    36    31    32
    66       H          1.05140000  *  120.1645000  *  177.9462000  *    38    37    42
    67       H          1.05110000  *  120.0965000  *  179.4576000  *    39    38    37
    68       H          1.05100000  *  120.0028000  * -179.2546000  *    40    39    38
    69       H          1.05100000  *  120.0489000  *  179.9428000  *    41    40    39
    70       H          1.05100000  *  120.5487000  * -179.5315000  *    42    37    38
    71       H          0.94120000  *  120.9895000  *    0.3761000  *    45    43    44
 


          CARTESIAN COORDINATES 

    NO.       ATOM           X           Y           Z

     1         N          0.0000      0.0000      0.0000
     2         C          1.1583      0.0000      0.0000
     3         C          2.5878      0.0032      0.0000
     4         C          3.3033     -1.1409     -0.0208
     5         C          2.7537     -2.5021     -0.0036
     6         C          1.6424     -2.9667      0.6039
     7         C          1.4147     -4.4339      0.5113
     8         C          2.3583     -5.1446     -0.1410
     9         S          3.6124     -3.9465     -0.7035
    10         C          2.4032     -6.6041     -0.3334
    11         C          1.1676     -7.4245     -0.1999
    12         C          1.1980     -8.7659     -0.3345
    13         C          2.4799     -9.4057     -0.6210
    14         C          3.5923     -8.6682     -0.7627
    15         C          3.5747     -7.2147     -0.6184
    16         C          4.6940     -9.5807     -1.0516
    17         C          6.1149     -9.3213     -1.2739
    18         C          6.9218    -10.3764     -1.5017
    19         C          6.3775    -11.7524     -1.5243
    20         C          5.0642    -11.9785     -1.3216
    21         C          4.1938    -10.8273     -1.0791
    22         N          2.8029    -10.7736     -0.8085
    23         C          1.8937    -11.8490     -0.8584
    24         C          1.2271    -12.2995      0.3745
    25         C          0.3773    -13.3411      0.3420
    26         C          0.0936    -14.0268     -0.9294
    27         C          0.6858    -13.5997     -2.0612
    28         C          1.6333    -12.4764     -2.0212
    29         C         -0.8483    -15.1559     -0.9416
    30         C         -0.4418    -16.4418     -0.8944
    31         C          0.9945    -16.7725     -0.8578
    32         C          1.6350    -17.0800      0.4327
    33         C          2.9468    -17.3716      0.4824
    34         C          3.7433    -17.3893     -0.7523
    35         C          3.1610    -17.1139     -1.9325
    36         C          1.7283    -16.7939     -1.9880
    37         C         -1.4286    -17.5419     -0.8298
    38         C         -2.6073    -17.4393      0.0560
    39         C         -3.5037    -18.4400      0.1190
    40         C         -3.3193    -19.6461     -0.6973
    41         C         -2.2426    -19.7548     -1.4944
    42         C         -1.2578    -18.6654     -1.5570
    43         C          3.2755      1.3098     -0.0185
    44         O          4.5049      1.3781     -0.0735
    45         O          2.5603      2.4593      0.0501
    46         H          4.3532     -1.0658     -0.0747
    47         H          0.9963     -2.3539      1.1566
    48         H          0.5799     -4.8808      0.9619
    49         H          0.2452     -6.9595     -0.0066
    50         H          0.3205     -9.3358     -0.2420
    51         H          4.4670     -6.6700     -0.7133
    52         H          6.4974     -8.3435     -1.2560
    53         H          7.9494    -10.2230     -1.6634
    54         H          7.0256    -12.5616     -1.6984
    55         H          4.6785    -12.9549     -1.3325
    56         H          1.4232    -11.8124      1.2850
    57         H         -0.0866    -13.6648      1.2284
    58         H          0.4813    -14.0697     -2.9792
    59         H          2.1051    -12.1652     -2.9078
    60         H         -1.8771    -14.9361     -0.9528
    61         H          1.0672    -17.0678      1.3175
    62         H          3.4040    -17.5880      1.4035
    63         H          4.7680    -17.6199     -0.7115
    64         H          3.7282    -17.1269     -2.8170
    65         H          1.2821    -16.5809     -2.9159
    66         H         -2.7443    -16.5871      0.6564
    67         H         -4.3351    -18.3634      0.7577
    68         H         -4.0268    -20.4222     -0.6557
    69         H         -2.1060    -20.6169     -2.0798
    70         H         -0.4255    -18.7706     -2.1902
    71         H          2.9888      3.2974      0.0508

  H: (RM1): G.B. ROCHA, R.O. FREIRE, A.M.SIMAS, J.J.P. STEWART, J. COMP. CHEM. 27, 1101 (2006)
  C: (RM1): G.B. ROCHA, R.O. FREIRE, A.M.SIMAS, J.J.P. STEWART, J. COMP. CHEM. 27, 1101 (2006)
  N: (RM1): G.B. ROCHA, R.O. FREIRE, A.M.SIMAS, J.J.P. STEWART, J. COMP. CHEM. 27, 1101 (2006)
  O: (RM1): G.B. ROCHA, R.O. FREIRE, A.M.SIMAS, J.J.P. STEWART, J. COMP. CHEM. 27, 1101 (2006)
  S: (RM1): G.B. ROCHA, R.O. FREIRE, A.M.SIMAS, J.J.P. STEWART, J. COMP. CHEM. 27, 1101 (2006)

           Empirical Formula: C40 H26 N2 O2 S  =    71 atoms



      MOLECULAR POINT GROUP   :   C1  


      RHF CALCULATION, NO. OF DOUBLY OCCUPIED LEVELS = 107


          Geometry optimization using L-BFGS
 CYCLE:     1 TIME:   0.250 TIME LEFT:  2.00D  GRAD.:   596.685 HEAT:  204.9651
 CYCLE:     2 TIME:   0.188 TIME LEFT:  2.00D  GRAD.:   527.385 HEAT:  201.6130
 CYCLE:     3 TIME:   0.180 TIME LEFT:  2.00D  GRAD.:   403.419 HEAT:  183.7568
 CYCLE:     4 TIME:   0.164 TIME LEFT:  2.00D  GRAD.:   528.210 HEAT:  201.6126
 CYCLE:     5 TIME:   0.188 TIME LEFT:  2.00D  GRAD.:   404.262 HEAT:  183.7587
 CYCLE:     6 TIME:   0.164 TIME LEFT:  2.00D  GRAD.:   404.672 HEAT:  176.0031
 CYCLE:     7 TIME:   0.195 TIME LEFT:  2.00D  GRAD.:   368.037 HEAT:  140.1835
 CYCLE:     8 TIME:   0.164 TIME LEFT:  2.00D  GRAD.:  5120.764 HEAT:  356.7507
 CYCLE:     9 TIME:   0.148 TIME LEFT:  2.00D  GRAD.:   144.284 HEAT:  137.0999
 CYCLE:    10 TIME:   0.133 TIME LEFT:  2.00D  GRAD.:    94.826 HEAT:  136.6656
 CYCLE:    11 TIME:   0.125 TIME LEFT:  2.00D  GRAD.:    91.379 HEAT:  135.9531
 CYCLE:    12 TIME:   0.172 TIME LEFT:  2.00D  GRAD.:   136.226 HEAT:  134.4246
 CYCLE:    13 TIME:   0.148 TIME LEFT:  2.00D  GRAD.:   108.835 HEAT:  133.4848
 CYCLE:    14 TIME:   0.164 TIME LEFT:  2.00D  GRAD.:   138.944 HEAT:  133.0129
 CYCLE:    15 TIME:   0.156 TIME LEFT:  2.00D  GRAD.:    56.621 HEAT:  132.4313
 CYCLE:    16 TIME:   0.133 TIME LEFT:  2.00D  GRAD.:    55.851 HEAT:  132.2055
 CYCLE:    17 TIME:   0.141 TIME LEFT:  2.00D  GRAD.:    75.709 HEAT:  131.6800
 CYCLE:    18 TIME:   0.148 TIME LEFT:  2.00D  GRAD.:    69.312 HEAT:  131.2476
 CYCLE:    19 TIME:   0.180 TIME LEFT:  2.00D  GRAD.:   114.976 HEAT:  131.1472
 CYCLE:    20 TIME:   0.156 TIME LEFT:  2.00D  GRAD.:    28.868 HEAT:  130.7701
 CYCLE:    21 TIME:   0.109 TIME LEFT:  2.00D  GRAD.:    33.713 HEAT:  130.6921
 CYCLE:    22 TIME:   0.133 TIME LEFT:  2.00D  GRAD.:    36.126 HEAT:  130.5345
 CYCLE:    23 TIME:   0.172 TIME LEFT:  2.00D  GRAD.:    72.231 HEAT:  130.4532
 CYCLE:    24 TIME:   0.164 TIME LEFT:  2.00D  GRAD.:    25.697 HEAT:  130.3121
 CYCLE:    25 TIME:   0.180 TIME LEFT:  2.00D  GRAD.:    19.679 HEAT:  130.2446
 CYCLE:    26 TIME:   0.172 TIME LEFT:  2.00D  GRAD.:    24.756 HEAT:  130.1848
 CYCLE:    27 TIME:   0.172 TIME LEFT:  2.00D  GRAD.:    22.022 HEAT:  130.0996
 CYCLE:    28 TIME:   0.172 TIME LEFT:  2.00D  GRAD.:    53.265 HEAT:  130.0400
 CYCLE:    29 TIME:   0.148 TIME LEFT:  2.00D  GRAD.:    27.839 HEAT:  129.9661
 CYCLE:    30 TIME:   0.164 TIME LEFT:  2.00D  GRAD.:    12.761 HEAT:  129.9373
 CYCLE:    31 TIME:   0.172 TIME LEFT:  2.00D  GRAD.:     8.973 HEAT:  129.9179
 CYCLE:    32 TIME:   0.164 TIME LEFT:  2.00D  GRAD.:    10.562 HEAT:  129.9014
 CYCLE:    33 TIME:   0.172 TIME LEFT:  2.00D  GRAD.:    19.142 HEAT:  129.8843
 CYCLE:    34 TIME:   0.156 TIME LEFT:  2.00D  GRAD.:     9.986 HEAT:  129.8657
 CYCLE:    35 TIME:   0.125 TIME LEFT:  2.00D  GRAD.:    10.209 HEAT:  129.8532
 CYCLE:    36 TIME:   0.141 TIME LEFT:  2.00D  GRAD.:    14.284 HEAT:  129.8332
 CYCLE:    37 TIME:   0.133 TIME LEFT:  2.00D  GRAD.:    39.446 HEAT:  129.8363
 CYCLE:    38 TIME:   0.125 TIME LEFT:  2.00D  GRAD.:    12.299 HEAT:  129.8060
 CYCLE:    39 TIME:   0.133 TIME LEFT:  2.00D  GRAD.:    10.348 HEAT:  129.7927
 CYCLE:    40 TIME:   0.141 TIME LEFT:  2.00D  GRAD.:    10.174 HEAT:  129.7769
 CYCLE:    41 TIME:   0.141 TIME LEFT:  2.00D  GRAD.:    20.716 HEAT:  129.7441
 CYCLE:    42 TIME:   0.133 TIME LEFT:  2.00D  GRAD.:    21.818 HEAT:  129.7075
 CYCLE:    43 TIME:   0.141 TIME LEFT:  2.00D  GRAD.:    15.504 HEAT:  129.6713
 CYCLE:    44 TIME:   0.148 TIME LEFT:  2.00D  GRAD.:    13.631 HEAT:  129.6249
 CYCLE:    45 TIME:   0.125 TIME LEFT:  2.00D  GRAD.:    14.280 HEAT:  129.5635
 CYCLE:    46 TIME:   0.180 TIME LEFT:  2.00D  GRAD.:    24.272 HEAT:  129.5096
 CYCLE:    47 TIME:   0.180 TIME LEFT:  2.00D  GRAD.:    26.399 HEAT:  129.4663
 CYCLE:    48 TIME:   0.156 TIME LEFT:  2.00D  GRAD.:    49.326 HEAT:  129.4684
 CYCLE:    49 TIME:   0.180 TIME LEFT:  2.00D  GRAD.:    49.332 HEAT:  129.4880
 CYCLE:    50 TIME:   0.156 TIME LEFT:  2.00D  GRAD.:    46.725 HEAT:  129.4134
 CYCLE:    51 TIME:   0.156 TIME LEFT:  2.00D  GRAD.:    48.050 HEAT:  129.4017
 CYCLE:    52 TIME:   0.141 TIME LEFT:  2.00D  GRAD.:    47.886 HEAT:  129.4298
 CYCLE:    53 TIME:   0.156 TIME LEFT:  2.00D  GRAD.:    42.069 HEAT:  129.3514
 CYCLE:    54 TIME:   0.141 TIME LEFT:  2.00D  GRAD.:   110.252 HEAT:  129.5813
 CYCLE:    55 TIME:   0.156 TIME LEFT:  2.00D  GRAD.:    57.024 HEAT:  129.3787
 CYCLE:    56 TIME:   0.172 TIME LEFT:  2.00D  GRAD.:   138.725 HEAT:  129.7572
 CYCLE:    57 TIME:   0.188 TIME LEFT:  2.00D  GRAD.:    27.452 HEAT:  129.2751
 CYCLE:    58 TIME:   0.164 TIME LEFT:  2.00D  GRAD.:    13.321 HEAT:  129.2558
 CYCLE:    59 TIME:   0.172 TIME LEFT:  2.00D  GRAD.:    10.133 HEAT:  129.2506
 CYCLE:    60 TIME:   0.242 TIME LEFT:  2.00D  GRAD.:    13.225 HEAT:  129.2436
 CYCLE:    61 TIME:   0.188 TIME LEFT:  2.00D  GRAD.:    10.356 HEAT:  129.2302
 CYCLE:    62 TIME:   0.227 TIME LEFT:  2.00D  GRAD.:    11.839 HEAT:  129.2110
 CYCLE:    63 TIME:   0.148 TIME LEFT:  2.00D  GRAD.:    12.077 HEAT:  129.2026
 CYCLE:    64 TIME:   0.141 TIME LEFT:  2.00D  GRAD.:     7.884 HEAT:  129.1963
 CYCLE:    65 TIME:   0.141 TIME LEFT:  2.00D  GRAD.:    10.288 HEAT:  129.1878
 CYCLE:    66 TIME:   0.164 TIME LEFT:  2.00D  GRAD.:    19.024 HEAT:  129.1763
 CYCLE:    67 TIME:   0.148 TIME LEFT:  2.00D  GRAD.:    17.024 HEAT:  129.1640
 CYCLE:    68 TIME:   0.148 TIME LEFT:  2.00D  GRAD.:     8.311 HEAT:  129.1515
 CYCLE:    69 TIME:   0.109 TIME LEFT:  2.00D  GRAD.:     9.758 HEAT:  129.1414
 CYCLE:    70 TIME:   0.133 TIME LEFT:  2.00D  GRAD.:    14.623 HEAT:  129.1299
 CYCLE:    71 TIME:   0.117 TIME LEFT:  2.00D  GRAD.:    22.136 HEAT:  129.1178
 CYCLE:    72 TIME:   0.148 TIME LEFT:  2.00D  GRAD.:    10.446 HEAT:  129.1037
 CYCLE:    73 TIME:   0.148 TIME LEFT:  2.00D  GRAD.:     7.875 HEAT:  129.0933
 CYCLE:    74 TIME:   0.133 TIME LEFT:  2.00D  GRAD.:     9.373 HEAT:  129.0873
 CYCLE:    75 TIME:   0.109 TIME LEFT:  2.00D  GRAD.:    10.930 HEAT:  129.0786
 CYCLE:    76 TIME:   0.133 TIME LEFT:  2.00D  GRAD.:    11.714 HEAT:  129.0654
 CYCLE:    77 TIME:   0.133 TIME LEFT:  2.00D  GRAD.:    46.750 HEAT:  129.0913
 CYCLE:    78 TIME:   0.141 TIME LEFT:  2.00D  GRAD.:     7.791 HEAT:  129.0498
 CYCLE:    79 TIME:   0.148 TIME LEFT:  2.00D  GRAD.:     8.023 HEAT:  129.0447
 CYCLE:    80 TIME:   0.148 TIME LEFT:  2.00D  GRAD.:     7.449 HEAT:  129.0351
 CYCLE:    81 TIME:   0.156 TIME LEFT:  2.00D  GRAD.:     9.590 HEAT:  129.0272
 CYCLE:    82 TIME:   0.156 TIME LEFT:  2.00D  GRAD.:     5.929 HEAT:  129.0210
 CYCLE:    83 TIME:   0.156 TIME LEFT:  2.00D  GRAD.:     8.039 HEAT:  129.0134
 CYCLE:    84 TIME:   0.148 TIME LEFT:  2.00D  GRAD.:     7.721 HEAT:  129.0061
 CYCLE:    85 TIME:   0.156 TIME LEFT:  2.00D  GRAD.:    13.777 HEAT:  128.9898
 CYCLE:    86 TIME:   0.117 TIME LEFT:  2.00D  GRAD.:    10.109 HEAT:  128.9798
 CYCLE:    87 TIME:   0.156 TIME LEFT:  2.00D  GRAD.:     8.470 HEAT:  128.9727
 CYCLE:    88 TIME:   0.164 TIME LEFT:  2.00D  GRAD.:     8.665 HEAT:  128.9605
 CYCLE:    89 TIME:   0.141 TIME LEFT:  2.00D  GRAD.:    20.977 HEAT:  128.9503
 CYCLE:    90 TIME:   0.133 TIME LEFT:  2.00D  GRAD.:    38.103 HEAT:  128.9539
 CYCLE:    91 TIME:   0.172 TIME LEFT:  2.00D  GRAD.:    17.668 HEAT:  128.9368
 CYCLE:    92 TIME:   0.141 TIME LEFT:  2.00D  GRAD.:    19.684 HEAT:  128.9300
 CYCLE:    93 TIME:   0.172 TIME LEFT:  2.00D  GRAD.:    24.143 HEAT:  128.9447
 CYCLE:    94 TIME:   0.172 TIME LEFT:  2.00D  GRAD.:    25.511 HEAT:  128.9367
 CYCLE:    95 TIME:   0.164 TIME LEFT:  2.00D  GRAD.:    98.155 HEAT:  129.1584
 CYCLE:    96 TIME:   0.172 TIME LEFT:  2.00D  GRAD.:    31.127 HEAT:  128.9344
 CYCLE:    97 TIME:   0.172 TIME LEFT:  2.00D  GRAD.:    46.268 HEAT:  128.9541
 CYCLE:    98 TIME:   0.141 TIME LEFT:  2.00D  GRAD.:     9.533 HEAT:  128.8974
 CYCLE:    99 TIME:   0.172 TIME LEFT:  2.00D  GRAD.:    20.453 HEAT:  128.9083
 CYCLE:   100 TIME:   0.164 TIME LEFT:  2.00D  GRAD.:    13.704 HEAT:  128.8951
 CYCLE:   101 TIME:   0.172 TIME LEFT:  2.00D  GRAD.:     8.801 HEAT:  128.8886
 CYCLE:   102 TIME:   0.117 TIME LEFT:  2.00D  GRAD.:    14.782 HEAT:  128.8861
 CYCLE:   103 TIME:   0.141 TIME LEFT:  2.00D  GRAD.:     5.989 HEAT:  128.8795
 CYCLE:   104 TIME:   0.156 TIME LEFT:  2.00D  GRAD.:     5.207 HEAT:  128.8732
 CYCLE:   105 TIME:   0.156 TIME LEFT:  2.00D  GRAD.:     8.413 HEAT:  128.8630
 CYCLE:   106 TIME:   0.180 TIME LEFT:  2.00D  GRAD.:    18.464 HEAT:  128.8443
 CYCLE:   107 TIME:   0.148 TIME LEFT:  2.00D  GRAD.:    29.598 HEAT:  128.8370
 CYCLE:   108 TIME:   0.133 TIME LEFT:  2.00D  GRAD.:     9.536 HEAT:  128.8155
 CYCLE:   109 TIME:   0.133 TIME LEFT:  2.00D  GRAD.:     5.196 HEAT:  128.8095
 CYCLE:   110 TIME:   0.141 TIME LEFT:  2.00D  GRAD.:    14.176 HEAT:  128.8030
 CYCLE:   111 TIME:   0.133 TIME LEFT:  2.00D  GRAD.:     7.996 HEAT:  128.7959
 CYCLE:   112 TIME:   0.133 TIME LEFT:  2.00D  GRAD.:    10.706 HEAT:  128.7866
 CYCLE:   113 TIME:   0.125 TIME LEFT:  2.00D  GRAD.:     7.886 HEAT:  128.7823
 CYCLE:   114 TIME:   0.125 TIME LEFT:  2.00D  GRAD.:     8.198 HEAT:  128.7736
 CYCLE:   115 TIME:   0.117 TIME LEFT:  2.00D  GRAD.:     7.257 HEAT:  128.7668
 CYCLE:   116 TIME:   0.141 TIME LEFT:  2.00D  GRAD.:    11.681 HEAT:  128.7520
 CYCLE:   117 TIME:   0.125 TIME LEFT:  2.00D  GRAD.:    12.922 HEAT:  128.7397
 CYCLE:   118 TIME:   0.133 TIME LEFT:  2.00D  GRAD.:     7.340 HEAT:  128.7234
 CYCLE:   119 TIME:   0.125 TIME LEFT:  2.00D  GRAD.:     7.649 HEAT:  128.7140
 CYCLE:   120 TIME:   0.141 TIME LEFT:  2.00D  GRAD.:    15.348 HEAT:  128.7039
 CYCLE:   121 TIME:   0.125 TIME LEFT:  2.00D  GRAD.:     6.935 HEAT:  128.6923
 CYCLE:   122 TIME:   0.133 TIME LEFT:  2.00D  GRAD.:     6.336 HEAT:  128.6827
 CYCLE:   123 TIME:   0.148 TIME LEFT:  2.00D  GRAD.:     8.218 HEAT:  128.6713
 CYCLE:   124 TIME:   0.148 TIME LEFT:  2.00D  GRAD.:    17.020 HEAT:  128.6604
 CYCLE:   125 TIME:   0.117 TIME LEFT:  2.00D  GRAD.:     6.616 HEAT:  128.6509
 CYCLE:   126 TIME:   0.156 TIME LEFT:  2.00D  GRAD.:    23.301 HEAT:  128.6540
 CYCLE:   127 TIME:   0.117 TIME LEFT:  2.00D  GRAD.:     5.829 HEAT:  128.6410
 CYCLE:   128 TIME:   0.125 TIME LEFT:  2.00D  GRAD.:     5.161 HEAT:  128.6364
 CYCLE:   129 TIME:   0.133 TIME LEFT:  2.00D  GRAD.:     5.845 HEAT:  128.6227
 CYCLE:   130 TIME:   0.164 TIME LEFT:  2.00D  GRAD.:    29.964 HEAT:  128.6221
 CYCLE:   131 TIME:   0.148 TIME LEFT:  2.00D  GRAD.:     5.038 HEAT:  128.6031
 CYCLE:   132 TIME:   0.164 TIME LEFT:  2.00D  GRAD.:     9.162 HEAT:  128.5992
 CYCLE:   133 TIME:   0.164 TIME LEFT:  2.00D  GRAD.:     5.480 HEAT:  128.5921
 CYCLE:   134 TIME:   0.156 TIME LEFT:  2.00D  GRAD.:     6.854 HEAT:  128.5816
 CYCLE:   135 TIME:   0.180 TIME LEFT:  2.00D  GRAD.:    12.201 HEAT:  128.5763
 CYCLE:   136 TIME:   0.180 TIME LEFT:  2.00D  GRAD.:     6.142 HEAT:  128.5711
 CYCLE:   137 TIME:   0.195 TIME LEFT:  2.00D  GRAD.:     4.787 HEAT:  128.5683
 CYCLE:   138 TIME:   0.188 TIME LEFT:  2.00D  GRAD.:    16.750 HEAT:  128.5680
 CYCLE:   139 TIME:   0.125 TIME LEFT:  2.00D  GRAD.:     6.756 HEAT:  128.5618
 CYCLE:   140 TIME:   0.133 TIME LEFT:  2.00D  GRAD.:     3.770 HEAT:  128.5581
 CYCLE:   141 TIME:   0.125 TIME LEFT:  2.00D  GRAD.:     3.472 HEAT:  128.5554
 CYCLE:   142 TIME:   0.156 TIME LEFT:  2.00D  GRAD.:    15.912 HEAT:  128.5499
 CYCLE:   143 TIME:   0.125 TIME LEFT:  2.00D  GRAD.:     3.572 HEAT:  128.5439
 CYCLE:   144 TIME:   0.133 TIME LEFT:  2.00D  GRAD.:     3.554 HEAT:  128.5437
 CYCLE:   145 TIME:   0.141 TIME LEFT:  2.00D  GRAD.:     4.592 HEAT:  128.5413
 CYCLE:   146 TIME:   0.125 TIME LEFT:  2.00D  GRAD.:     7.007 HEAT:  128.5388
 CYCLE:   147 TIME:   0.117 TIME LEFT:  2.00D  GRAD.:     2.976 HEAT:  128.5361
 CYCLE:   148 TIME:   0.133 TIME LEFT:  2.00D  GRAD.:     2.935 HEAT:  128.5334
 CYCLE:   149 TIME:   0.133 TIME LEFT:  2.00D  GRAD.:     5.556 HEAT:  128.5308
 CYCLE:   150 TIME:   0.125 TIME LEFT:  2.00D  GRAD.:     4.487 HEAT:  128.5290
 CYCLE:   151 TIME:   0.133 TIME LEFT:  2.00D  GRAD.:     2.653 HEAT:  128.5279
 CYCLE:   152 TIME:   0.156 TIME LEFT:  2.00D  GRAD.:     4.949 HEAT:  128.5260
 CYCLE:   153 TIME:   0.133 TIME LEFT:  2.00D  GRAD.:     3.391 HEAT:  128.5245
 CYCLE:   154 TIME:   0.164 TIME LEFT:  2.00D  GRAD.:     3.505 HEAT:  128.5222
 CYCLE:   155 TIME:   0.148 TIME LEFT:  2.00D  GRAD.:     4.592 HEAT:  128.5199
 CYCLE:   156 TIME:   0.148 TIME LEFT:  2.00D  GRAD.:     5.018 HEAT:  128.5169
 CYCLE:   157 TIME:   0.156 TIME LEFT:  2.00D  GRAD.:     7.497 HEAT:  128.5146
 CYCLE:   158 TIME:   0.141 TIME LEFT:  2.00D  GRAD.:     6.348 HEAT:  128.5120
 CYCLE:   159 TIME:   0.117 TIME LEFT:  2.00D  GRAD.:     4.196 HEAT:  128.5125
 CYCLE:   160 TIME:   0.164 TIME LEFT:  2.00D  GRAD.:     8.090 HEAT:  128.5109
 CYCLE:   161 TIME:   0.141 TIME LEFT:  2.00D  GRAD.:     2.604 HEAT:  128.5088
 CYCLE:   162 TIME:   0.148 TIME LEFT:  2.00D  GRAD.:     2.072 HEAT:  128.5073
 CYCLE:   163 TIME:   0.156 TIME LEFT:  2.00D  GRAD.:     4.676 HEAT:  128.5053
 CYCLE:   164 TIME:   0.125 TIME LEFT:  2.00D  GRAD.:     3.943 HEAT:  128.5041
 CYCLE:   165 TIME:   0.156 TIME LEFT:  2.00D  GRAD.:     7.867 HEAT:  128.5027
 CYCLE:   166 TIME:   0.148 TIME LEFT:  2.00D  GRAD.:     6.644 HEAT:  128.5015
 CYCLE:   167 TIME:   0.156 TIME LEFT:  2.00D  GRAD.:     3.346 HEAT:  128.5003
 CYCLE:   168 TIME:   0.156 TIME LEFT:  2.00D  GRAD.:     2.331 HEAT:  128.4996
 CYCLE:   169 TIME:   0.164 TIME LEFT:  2.00D  GRAD.:     4.099 HEAT:  128.4981
 CYCLE:   170 TIME:   0.133 TIME LEFT:  2.00D  GRAD.:     4.301 HEAT:  128.4965
 CYCLE:   171 TIME:   0.125 TIME LEFT:  2.00D  GRAD.:    12.839 HEAT:  128.4964
 CYCLE:   172 TIME:   0.109 TIME LEFT:  2.00D  GRAD.:     3.200 HEAT:  128.4930
 CYCLE:   173 TIME:   0.133 TIME LEFT:  2.00D  GRAD.:     2.652 HEAT:  128.4919
 CYCLE:   174 TIME:   0.117 TIME LEFT:  2.00D  GRAD.:     3.148 HEAT:  128.4901
 CYCLE:   175 TIME:   0.133 TIME LEFT:  2.00D  GRAD.:     5.429 HEAT:  128.4871
 CYCLE:   176 TIME:   0.141 TIME LEFT:  2.00D  GRAD.:    10.630 HEAT:  128.4856
 CYCLE:   177 TIME:   0.125 TIME LEFT:  2.00D  GRAD.:     9.645 HEAT:  128.4830
 CYCLE:   178 TIME:   0.141 TIME LEFT:  2.00D  GRAD.:     5.247 HEAT:  128.4830
 CYCLE:   179 TIME:   0.141 TIME LEFT:  2.00D  GRAD.:     6.131 HEAT:  128.4792
 CYCLE:   180 TIME:   0.156 TIME LEFT:  2.00D  GRAD.:     4.157 HEAT:  128.4766
 CYCLE:   181 TIME:   0.125 TIME LEFT:  2.00D  GRAD.:     3.126 HEAT:  128.4736
 CYCLE:   182 TIME:   0.164 TIME LEFT:  2.00D  GRAD.:     6.668 HEAT:  128.4700
 CYCLE:   183 TIME:   0.156 TIME LEFT:  2.00D  GRAD.:    14.583 HEAT:  128.4687
 CYCLE:   184 TIME:   0.109 TIME LEFT:  2.00D  GRAD.:     4.727 HEAT:  128.4638
 CYCLE:   185 TIME:   0.125 TIME LEFT:  2.00D  GRAD.:    10.890 HEAT:  128.4645
 CYCLE:   186 TIME:   0.133 TIME LEFT:  2.00D  GRAD.:     6.775 HEAT:  128.4599
 CYCLE:   187 TIME:   0.133 TIME LEFT:  2.00D  GRAD.:     4.470 HEAT:  128.4572
 CYCLE:   188 TIME:   0.117 TIME LEFT:  2.00D  GRAD.:     3.397 HEAT:  128.4553
 CYCLE:   189 TIME:   0.117 TIME LEFT:  2.00D  GRAD.:     3.222 HEAT:  128.4526
 CYCLE:   190 TIME:   0.133 TIME LEFT:  2.00D  GRAD.:     6.026 HEAT:  128.4477
 CYCLE:   191 TIME:   0.117 TIME LEFT:  2.00D  GRAD.:    13.173 HEAT:  128.4463
 CYCLE:   192 TIME:   0.117 TIME LEFT:  2.00D  GRAD.:     5.660 HEAT:  128.4421
 CYCLE:   193 TIME:   0.148 TIME LEFT:  2.00D  GRAD.:     6.182 HEAT:  128.4370
 CYCLE:   194 TIME:   0.125 TIME LEFT:  2.00D  GRAD.:     5.190 HEAT:  128.4334
 CYCLE:   195 TIME:   0.133 TIME LEFT:  2.00D  GRAD.:     5.207 HEAT:  128.4299
 CYCLE:   196 TIME:   0.148 TIME LEFT:  2.00D  GRAD.:     8.288 HEAT:  128.4216
 CYCLE:   197 TIME:   0.141 TIME LEFT:  2.00D  GRAD.:    21.303 HEAT:  128.4187
 CYCLE:   198 TIME:   0.125 TIME LEFT:  2.00D  GRAD.:     6.112 HEAT:  128.4069
 CYCLE:   199 TIME:   0.172 TIME LEFT:  2.00D  GRAD.:     6.817 HEAT:  128.3993
 CYCLE:   200 TIME:   0.164 TIME LEFT:  2.00D  GRAD.:     6.744 HEAT:  128.3932
 CYCLE:   201 TIME:   0.141 TIME LEFT:  2.00D  GRAD.:     8.502 HEAT:  128.3816
 CYCLE:   202 TIME:   0.133 TIME LEFT:  2.00D  GRAD.:    12.896 HEAT:  128.3687
 CYCLE:   203 TIME:   0.164 TIME LEFT:  2.00D  GRAD.:    14.736 HEAT:  128.3563
 CYCLE:   204 TIME:   0.164 TIME LEFT:  2.00D  GRAD.:    88.146 HEAT:  128.4905
 CYCLE:   205 TIME:   0.172 TIME LEFT:  2.00D  GRAD.:    61.793 HEAT:  128.3971
 CYCLE:   206 TIME:   0.180 TIME LEFT:  2.00D  GRAD.:    44.759 HEAT:  128.3657
 CYCLE:   207 TIME:   0.188 TIME LEFT:  2.00D  GRAD.:    26.030 HEAT:  128.3206
 CYCLE:   208 TIME:   0.156 TIME LEFT:  2.00D  GRAD.:    72.000 HEAT:  128.4527
 CYCLE:   209 TIME:   0.164 TIME LEFT:  2.00D  GRAD.:    48.312 HEAT:  128.3396
 CYCLE:   210 TIME:   0.156 TIME LEFT:  2.00D  GRAD.:   122.343 HEAT:  128.7188
 CYCLE:   211 TIME:   0.133 TIME LEFT:  2.00D  GRAD.:    84.827 HEAT:  128.4247
 CYCLE:   212 TIME:   0.180 TIME LEFT:  2.00D  GRAD.:   128.320 HEAT:  128.6984
 CYCLE:   213 TIME:   0.188 TIME LEFT:  2.00D  GRAD.:    92.108 HEAT:  128.5095
 CYCLE:   214 TIME:   0.195 TIME LEFT:  2.00D  GRAD.:   229.847 HEAT:  129.3930
 CYCLE:   215 TIME:   0.188 TIME LEFT:  2.00D  GRAD.:   136.522 HEAT:  128.8481
 CYCLE:   216 TIME:   0.195 TIME LEFT:  2.00D  GRAD.:    38.398 HEAT:  128.2880
 CYCLE:   217 TIME:   0.188 TIME LEFT:  2.00D  GRAD.:    56.982 HEAT:  128.3943
 CYCLE:   218 TIME:   0.180 TIME LEFT:  2.00D  GRAD.:    21.595 HEAT:  128.2311
 CYCLE:   219 TIME:   0.172 TIME LEFT:  2.00D  GRAD.:    41.265 HEAT:  128.2651
 CYCLE:   220 TIME:   0.188 TIME LEFT:  2.00D  GRAD.:    16.340 HEAT:  128.2184
 CYCLE:   221 TIME:   0.180 TIME LEFT:  2.00D  GRAD.:    36.410 HEAT:  128.2434
 CYCLE:   222 TIME:   0.164 TIME LEFT:  2.00D  GRAD.:     8.167 HEAT:  128.2069
 CYCLE:   223 TIME:   0.172 TIME LEFT:  2.00D  GRAD.:     8.333 HEAT:  128.2078
 CYCLE:   224 TIME:   0.172 TIME LEFT:  2.00D  GRAD.:     9.162 HEAT:  128.1983
 CYCLE:   225 TIME:   0.164 TIME LEFT:  2.00D  GRAD.:     9.771 HEAT:  128.1821
 CYCLE:   226 TIME:   0.172 TIME LEFT:  2.00D  GRAD.:    10.610 HEAT:  128.1520
 CYCLE:   227 TIME:   0.180 TIME LEFT:  2.00D  GRAD.:    57.099 HEAT:  128.1649
 CYCLE:   228 TIME:   0.172 TIME LEFT:  2.00D  GRAD.:    11.033 HEAT:  128.0997
 CYCLE:   229 TIME:   0.188 TIME LEFT:  2.00D  GRAD.:    10.384 HEAT:  128.0851
 CYCLE:   230 TIME:   0.164 TIME LEFT:  2.00D  GRAD.:     8.934 HEAT:  128.0675
 CYCLE:   231 TIME:   0.180 TIME LEFT:  2.00D  GRAD.:    20.535 HEAT:  128.0269
 CYCLE:   232 TIME:   0.172 TIME LEFT:  2.00D  GRAD.:    14.393 HEAT:  128.0047
 CYCLE:   233 TIME:   0.164 TIME LEFT:  2.00D  GRAD.:    10.793 HEAT:  127.9956
 CYCLE:   234 TIME:   0.188 TIME LEFT:  2.00D  GRAD.:    33.676 HEAT:  127.9924
 CYCLE:   235 TIME:   0.172 TIME LEFT:  2.00D  GRAD.:    12.517 HEAT:  127.9484
 CYCLE:   236 TIME:   0.203 TIME LEFT:  2.00D  GRAD.:     8.152 HEAT:  127.9342
 CYCLE:   237 TIME:   0.289 TIME LEFT:  2.00D  GRAD.:     8.046 HEAT:  127.9198
 CYCLE:   238 TIME:   0.172 TIME LEFT:  2.00D  GRAD.:    13.636 HEAT:  127.8917
 CYCLE:   239 TIME:   0.180 TIME LEFT:  2.00D  GRAD.:    29.088 HEAT:  127.8828
 CYCLE:   240 TIME:   0.172 TIME LEFT:  2.00D  GRAD.:     9.633 HEAT:  127.8599
 CYCLE:   241 TIME:   0.172 TIME LEFT:  2.00D  GRAD.:    12.228 HEAT:  127.8480
 CYCLE:   242 TIME:   0.156 TIME LEFT:  2.00D  GRAD.:    12.764 HEAT:  127.8286
 CYCLE:   243 TIME:   0.172 TIME LEFT:  2.00D  GRAD.:    21.067 HEAT:  127.7946
 CYCLE:   244 TIME:   0.172 TIME LEFT:  2.00D  GRAD.:    21.788 HEAT:  127.7696
 CYCLE:   245 TIME:   0.164 TIME LEFT:  2.00D  GRAD.:    11.947 HEAT:  127.7504
 CYCLE:   246 TIME:   0.180 TIME LEFT:  2.00D  GRAD.:    15.417 HEAT:  127.7173
 CYCLE:   247 TIME:   0.172 TIME LEFT:  2.00D  GRAD.:    11.929 HEAT:  127.7000
 CYCLE:   248 TIME:   0.180 TIME LEFT:  2.00D  GRAD.:     9.656 HEAT:  127.6607
 CYCLE:   249 TIME:   0.188 TIME LEFT:  2.00D  GRAD.:    21.034 HEAT:  127.6332
 CYCLE:   250 TIME:   0.172 TIME LEFT:  2.00D  GRAD.:    15.014 HEAT:  127.6142
 CYCLE:   251 TIME:   0.164 TIME LEFT:  2.00D  GRAD.:    14.998 HEAT:  127.5932
 CYCLE:   252 TIME:   0.188 TIME LEFT:  2.00D  GRAD.:    51.170 HEAT:  127.6028
 CYCLE:   253 TIME:   0.172 TIME LEFT:  2.00D  GRAD.:    11.566 HEAT:  127.5507
 CYCLE:   254 TIME:   0.164 TIME LEFT:  2.00D  GRAD.:     8.864 HEAT:  127.5429
 CYCLE:   255 TIME:   0.172 TIME LEFT:  2.00D  GRAD.:     9.455 HEAT:  127.5225
 CYCLE:   256 TIME:   0.164 TIME LEFT:  2.00D  GRAD.:    16.102 HEAT:  127.4862
 CYCLE:   257 TIME:   0.172 TIME LEFT:  2.00D  GRAD.:    51.854 HEAT:  127.5127
 CYCLE:   258 TIME:   0.172 TIME LEFT:  2.00D  GRAD.:    10.787 HEAT:  127.4660
 CYCLE:   259 TIME:   0.172 TIME LEFT:  2.00D  GRAD.:     8.036 HEAT:  127.4575
 CYCLE:   260 TIME:   0.164 TIME LEFT:  2.00D  GRAD.:     9.721 HEAT:  127.4381
 CYCLE:   261 TIME:   0.172 TIME LEFT:  2.00D  GRAD.:    21.959 HEAT:  127.4160
 CYCLE:   262 TIME:   0.164 TIME LEFT:  2.00D  GRAD.:    12.997 HEAT:  127.3985
 CYCLE:   263 TIME:   0.164 TIME LEFT:  2.00D  GRAD.:    10.310 HEAT:  127.3863
 CYCLE:   264 TIME:   0.180 TIME LEFT:  2.00D  GRAD.:    11.663 HEAT:  127.3596
 CYCLE:   265 TIME:   0.180 TIME LEFT:  2.00D  GRAD.:    16.022 HEAT:  127.3296
 CYCLE:   266 TIME:   0.172 TIME LEFT:  2.00D  GRAD.:    40.120 HEAT:  127.3308
 CYCLE:   267 TIME:   0.188 TIME LEFT:  2.00D  GRAD.:    11.440 HEAT:  127.2923
 CYCLE:   268 TIME:   0.258 TIME LEFT:  2.00D  GRAD.:     9.646 HEAT:  127.2783
 CYCLE:   269 TIME:   0.195 TIME LEFT:  2.00D  GRAD.:    12.804 HEAT:  127.2553
 CYCLE:   270 TIME:   0.188 TIME LEFT:  2.00D  GRAD.:    34.321 HEAT:  127.2436
 CYCLE:   271 TIME:   0.164 TIME LEFT:  2.00D  GRAD.:    12.045 HEAT:  127.2155
 CYCLE:   272 TIME:   0.188 TIME LEFT:  2.00D  GRAD.:     7.441 HEAT:  127.2052
 CYCLE:   273 TIME:   0.195 TIME LEFT:  2.00D  GRAD.:    13.004 HEAT:  127.1955
 CYCLE:   274 TIME:   0.172 TIME LEFT:  2.00D  GRAD.:    11.446 HEAT:  127.1808
 CYCLE:   275 TIME:   0.180 TIME LEFT:  2.00D  GRAD.:    29.588 HEAT:  127.1572
 CYCLE:   276 TIME:   0.148 TIME LEFT:  2.00D  GRAD.:    12.624 HEAT:  127.1344
 CYCLE:   277 TIME:   0.156 TIME LEFT:  2.00D  GRAD.:     8.931 HEAT:  127.1292
 CYCLE:   278 TIME:   0.172 TIME LEFT:  2.00D  GRAD.:    18.520 HEAT:  127.1123
 CYCLE:   279 TIME:   0.156 TIME LEFT:  2.00D  GRAD.:    12.237 HEAT:  127.1018
 CYCLE:   280 TIME:   0.164 TIME LEFT:  2.00D  GRAD.:     8.814 HEAT:  127.0915
 CYCLE:   281 TIME:   0.164 TIME LEFT:  2.00D  GRAD.:    10.027 HEAT:  127.0766
 CYCLE:   282 TIME:   0.172 TIME LEFT:  2.00D  GRAD.:    13.779 HEAT:  127.0664
 CYCLE:   283 TIME:   0.156 TIME LEFT:  2.00D  GRAD.:     8.361 HEAT:  127.0573
 CYCLE:   284 TIME:   0.172 TIME LEFT:  2.00D  GRAD.:     6.698 HEAT:  127.0507
 CYCLE:   285 TIME:   0.266 TIME LEFT:  2.00D  GRAD.:    11.771 HEAT:  127.0414
 CYCLE:   286 TIME:   0.195 TIME LEFT:  2.00D  GRAD.:    11.317 HEAT:  127.0325
 CYCLE:   287 TIME:   0.188 TIME LEFT:  2.00D  GRAD.:     8.655 HEAT:  127.0173
 CYCLE:   288 TIME:   0.188 TIME LEFT:  2.00D  GRAD.:    13.156 HEAT:  127.0094
 CYCLE:   289 TIME:   0.141 TIME LEFT:  2.00D  GRAD.:     7.494 HEAT:  127.0018
 CYCLE:   290 TIME:   0.164 TIME LEFT:  2.00D  GRAD.:     7.112 HEAT:  126.9953
 CYCLE:   291 TIME:   0.125 TIME LEFT:  2.00D  GRAD.:     7.930 HEAT:  126.9875
 CYCLE:   292 TIME:   0.133 TIME LEFT:  2.00D  GRAD.:    18.386 HEAT:  126.9833
 CYCLE:   293 TIME:   0.117 TIME LEFT:  2.00D  GRAD.:     6.462 HEAT:  126.9742
 CYCLE:   294 TIME:   0.125 TIME LEFT:  2.00D  GRAD.:     6.271 HEAT:  126.9686
 CYCLE:   295 TIME:   0.125 TIME LEFT:  2.00D  GRAD.:     8.848 HEAT:  126.9616
 CYCLE:   296 TIME:   0.117 TIME LEFT:  2.00D  GRAD.:     8.405 HEAT:  126.9522
 CYCLE:   297 TIME:   0.133 TIME LEFT:  2.00D  GRAD.:    18.701 HEAT:  126.9454
 CYCLE:   298 TIME:   0.148 TIME LEFT:  2.00D  GRAD.:    16.365 HEAT:  126.9379
 CYCLE:   299 TIME:   0.141 TIME LEFT:  2.00D  GRAD.:     5.170 HEAT:  126.9310
 CYCLE:   300 TIME:   0.164 TIME LEFT:  2.00D  GRAD.:     7.850 HEAT:  126.9274
 CYCLE:   301 TIME:   0.156 TIME LEFT:  2.00D  GRAD.:     5.676 HEAT:  126.9230
 CYCLE:   302 TIME:   0.141 TIME LEFT:  2.00D  GRAD.:     5.332 HEAT:  126.9155
 CYCLE:   303 TIME:   0.133 TIME LEFT:  2.00D  GRAD.:     6.883 HEAT:  126.9093
 CYCLE:   304 TIME:   0.164 TIME LEFT:  2.00D  GRAD.:     8.407 HEAT:  126.8983
 CYCLE:   305 TIME:   0.141 TIME LEFT:  2.00D  GRAD.:    20.677 HEAT:  126.8968
 CYCLE:   306 TIME:   0.141 TIME LEFT:  2.00D  GRAD.:     6.258 HEAT:  126.8860
 CYCLE:   307 TIME:   0.133 TIME LEFT:  2.00D  GRAD.:     7.093 HEAT:  126.8817
 CYCLE:   308 TIME:   0.117 TIME LEFT:  2.00D  GRAD.:    14.953 HEAT:  126.8771
 CYCLE:   309 TIME:   0.117 TIME LEFT:  2.00D  GRAD.:     7.305 HEAT:  126.8697
 CYCLE:   310 TIME:   0.125 TIME LEFT:  2.00D  GRAD.:     3.497 HEAT:  126.8642
 CYCLE:   311 TIME:   0.117 TIME LEFT:  2.00D  GRAD.:     3.542 HEAT:  126.8620
 CYCLE:   312 TIME:   0.133 TIME LEFT:  2.00D  GRAD.:     9.982 HEAT:  126.8597
 CYCLE:   313 TIME:   0.125 TIME LEFT:  2.00D  GRAD.:     9.489 HEAT:  126.8563
 CYCLE:   314 TIME:   0.117 TIME LEFT:  2.00D  GRAD.:     3.578 HEAT:  126.8538
 CYCLE:   315 TIME:   0.125 TIME LEFT:  2.00D  GRAD.:     3.455 HEAT:  126.8516
 CYCLE:   316 TIME:   0.117 TIME LEFT:  2.00D  GRAD.:     4.460 HEAT:  126.8488
 CYCLE:   317 TIME:   0.141 TIME LEFT:  2.00D  GRAD.:    10.521 HEAT:  126.8435
 CYCLE:   318 TIME:   0.117 TIME LEFT:  2.00D  GRAD.:     9.531 HEAT:  126.8401
 CYCLE:   319 TIME:   0.117 TIME LEFT:  2.00D  GRAD.:     4.064 HEAT:  126.8372
 CYCLE:   320 TIME:   0.109 TIME LEFT:  2.00D  GRAD.:     5.680 HEAT:  126.8346
 CYCLE:   321 TIME:   0.109 TIME LEFT:  2.00D  GRAD.:     4.716 HEAT:  126.8323
 CYCLE:   322 TIME:   0.117 TIME LEFT:  2.00D  GRAD.:    10.591 HEAT:  126.8286
 CYCLE:   323 TIME:   0.109 TIME LEFT:  2.00D  GRAD.:     5.027 HEAT:  126.8251
 CYCLE:   324 TIME:   0.117 TIME LEFT:  2.00D  GRAD.:     3.352 HEAT:  126.8240
 CYCLE:   325 TIME:   0.117 TIME LEFT:  2.00D  GRAD.:     3.726 HEAT:  126.8210
 CYCLE:   326 TIME:   0.125 TIME LEFT:  2.00D  GRAD.:     4.121 HEAT:  126.8187
 CYCLE:   327 TIME:   0.133 TIME LEFT:  2.00D  GRAD.:     7.542 HEAT:  126.8140
 CYCLE:   328 TIME:   0.117 TIME LEFT:  2.00D  GRAD.:     4.756 HEAT:  126.8117
 CYCLE:   329 TIME:   0.133 TIME LEFT:  2.00D  GRAD.:     4.022 HEAT:  126.8108
 CYCLE:   330 TIME:   0.117 TIME LEFT:  2.00D  GRAD.:     5.212 HEAT:  126.8084
 CYCLE:   331 TIME:   0.125 TIME LEFT:  2.00D  GRAD.:     3.813 HEAT:  126.8060
 CYCLE:   332 TIME:   0.141 TIME LEFT:  2.00D  GRAD.:     2.445 HEAT:  126.8046
 CYCLE:   333 TIME:   0.117 TIME LEFT:  2.00D  GRAD.:     2.556 HEAT:  126.8035
 CYCLE:   334 TIME:   0.133 TIME LEFT:  2.00D  GRAD.:     9.605 HEAT:  126.8029
 CYCLE:   335 TIME:   0.117 TIME LEFT:  2.00D  GRAD.:     2.608 HEAT:  126.8007
 CYCLE:   336 TIME:   0.109 TIME LEFT:  2.00D  GRAD.:     2.170 HEAT:  126.8000
 CYCLE:   337 TIME:   0.125 TIME LEFT:  2.00D  GRAD.:     3.332 HEAT:  126.7989
 CYCLE:   338 TIME:   0.148 TIME LEFT:  2.00D  GRAD.:     3.930 HEAT:  126.7976
 CYCLE:   339 TIME:   0.133 TIME LEFT:  2.00D  GRAD.:     2.438 HEAT:  126.7958
 CYCLE:   340 TIME:   0.156 TIME LEFT:  2.00D  GRAD.:     2.550 HEAT:  126.7947
 CYCLE:   341 TIME:   0.148 TIME LEFT:  2.00D  GRAD.:     5.221 HEAT:  126.7939
 CYCLE:   342 TIME:   0.125 TIME LEFT:  2.00D  GRAD.:     3.034 HEAT:  126.7927
 CYCLE:   343 TIME:   0.125 TIME LEFT:  2.00D  GRAD.:     3.268 HEAT:  126.7916
 CYCLE:   344 TIME:   0.141 TIME LEFT:  2.00D  GRAD.:     3.424 HEAT:  126.7903
 CYCLE:   345 TIME:   0.117 TIME LEFT:  2.00D  GRAD.:     7.440 HEAT:  126.7901
 CYCLE:   346 TIME:   0.117 TIME LEFT:  2.00D  GRAD.:     2.274 HEAT:  126.7889
 CYCLE:   347 TIME:   0.117 TIME LEFT:  2.00D  GRAD.:     1.781 HEAT:  126.7885
 CYCLE:   348 TIME:   0.141 TIME LEFT:  2.00D  GRAD.:     2.604 HEAT:  126.7878
 CYCLE:   349 TIME:   0.148 TIME LEFT:  2.00D  GRAD.:     2.645 HEAT:  126.7872
 CYCLE:   350 TIME:   0.148 TIME LEFT:  2.00D  GRAD.:     3.026 HEAT:  126.7866
 CYCLE:   351 TIME:   0.156 TIME LEFT:  2.00D  GRAD.:     2.310 HEAT:  126.7861
 CYCLE:   352 TIME:   0.156 TIME LEFT:  2.00D  GRAD.:     2.525 HEAT:  126.7853
 CYCLE:   353 TIME:   0.148 TIME LEFT:  2.00D  GRAD.:     2.756 HEAT:  126.7847
 CYCLE:   354 TIME:   0.156 TIME LEFT:  2.00D  GRAD.:     1.955 HEAT:  126.7841
 CYCLE:   355 TIME:   0.156 TIME LEFT:  2.00D  GRAD.:     1.549 HEAT:  126.7837
 CYCLE:   356 TIME:   0.133 TIME LEFT:  2.00D  GRAD.:     2.167 HEAT:  126.7831
 CYCLE:   357 TIME:   0.109 TIME LEFT:  2.00D  GRAD.:     2.889 HEAT:  126.7828
 CYCLE:   358 TIME:   0.117 TIME LEFT:  2.00D  GRAD.:     1.779 HEAT:  126.7825
 CYCLE:   359 TIME:   0.125 TIME LEFT:  2.00D  GRAD.:     2.165 HEAT:  126.7819
 CYCLE:   360 TIME:   0.117 TIME LEFT:  2.00D  GRAD.:     1.722 HEAT:  126.7816
 CYCLE:   361 TIME:   0.125 TIME LEFT:  2.00D  GRAD.:     2.816 HEAT:  126.7812
 CYCLE:   362 TIME:   0.133 TIME LEFT:  2.00D  GRAD.:     1.971 HEAT:  126.7808
 CYCLE:   363 TIME:   0.109 TIME LEFT:  2.00D  GRAD.:     1.520 HEAT:  126.7806
 CYCLE:   364 TIME:   0.125 TIME LEFT:  2.00D  GRAD.:     2.901 HEAT:  126.7802
 CYCLE:   365 TIME:   0.109 TIME LEFT:  2.00D  GRAD.:     1.452 HEAT:  126.7797
 CYCLE:   366 TIME:   0.109 TIME LEFT:  2.00D  GRAD.:     1.347 HEAT:  126.7792
 CYCLE:   367 TIME:   0.156 TIME LEFT:  2.00D  GRAD.:     1.614 HEAT:  126.7787
 CYCLE:   368 TIME:   0.125 TIME LEFT:  2.00D  GRAD.:     2.578 HEAT:  126.7780
 CYCLE:   369 TIME:   0.133 TIME LEFT:  2.00D  GRAD.:     2.502 HEAT:  126.7774
 CYCLE:   370 TIME:   0.148 TIME LEFT:  2.00D  GRAD.:     2.978 HEAT:  126.7768
 CYCLE:   371 TIME:   0.156 TIME LEFT:  2.00D  GRAD.:     2.474 HEAT:  126.7763
 CYCLE:   372 TIME:   0.156 TIME LEFT:  2.00D  GRAD.:     2.054 HEAT:  126.7759
 CYCLE:   373 TIME:   0.125 TIME LEFT:  2.00D  GRAD.:     2.338 HEAT:  126.7755
 CYCLE:   374 TIME:   0.117 TIME LEFT:  2.00D  GRAD.:     1.222 HEAT:  126.7749
 CYCLE:   375 TIME:   0.133 TIME LEFT:  2.00D  GRAD.:     2.161 HEAT:  126.7744
 CYCLE:   376 TIME:   0.125 TIME LEFT:  2.00D  GRAD.:     2.744 HEAT:  126.7739
 CYCLE:   377 TIME:   0.125 TIME LEFT:  2.00D  GRAD.:     1.908 HEAT:  126.7734
 CYCLE:   378 TIME:   0.133 TIME LEFT:  2.00D  GRAD.:     1.790 HEAT:  126.7725
 CYCLE:   379 TIME:   0.117 TIME LEFT:  2.00D  GRAD.:     5.173 HEAT:  126.7722
 CYCLE:   380 TIME:   0.109 TIME LEFT:  2.00D  GRAD.:     1.851 HEAT:  126.7716
 CYCLE:   381 TIME:   0.156 TIME LEFT:  2.00D  GRAD.:     3.203 HEAT:  126.7713
 CYCLE:   382 TIME:   0.156 TIME LEFT:  2.00D  GRAD.:     1.736 HEAT:  126.7709
 CYCLE:   383 TIME:   0.164 TIME LEFT:  2.00D  GRAD.:     1.876 HEAT:  126.7702
 CYCLE:   384 TIME:   0.156 TIME LEFT:  2.00D  GRAD.:     1.959 HEAT:  126.7698
 CYCLE:   385 TIME:   0.148 TIME LEFT:  2.00D  GRAD.:     1.766 HEAT:  126.7694
 CYCLE:   386 TIME:   0.141 TIME LEFT:  2.00D  GRAD.:     1.493 HEAT:  126.7689
 CYCLE:   387 TIME:   0.133 TIME LEFT:  2.00D  GRAD.:     1.672 HEAT:  126.7684
 CYCLE:   388 TIME:   0.125 TIME LEFT:  2.00D  GRAD.:     5.106 HEAT:  126.7685
 CYCLE:   389 TIME:   0.133 TIME LEFT:  2.00D  GRAD.:     1.378 HEAT:  126.7679
 CYCLE:   390 TIME:   0.117 TIME LEFT:  2.00D  GRAD.:     1.161 HEAT:  126.7678
 CYCLE:   391 TIME:   0.125 TIME LEFT:  2.00D  GRAD.:     1.872 HEAT:  126.7674
 CYCLE:   392 TIME:   0.141 TIME LEFT:  2.00D  GRAD.:     2.082 HEAT:  126.7669
 CYCLE:   393 TIME:   0.141 TIME LEFT:  2.00D  GRAD.:     2.176 HEAT:  126.7665
 CYCLE:   394 TIME:   0.133 TIME LEFT:  2.00D  GRAD.:     1.636 HEAT:  126.7660
 CYCLE:   395 TIME:   0.164 TIME LEFT:  2.00D  GRAD.:     1.848 HEAT:  126.7654
 CYCLE:   396 TIME:   0.148 TIME LEFT:  2.00D  GRAD.:     1.631 HEAT:  126.7649
 CYCLE:   397 TIME:   0.125 TIME LEFT:  2.00D  GRAD.:     2.886 HEAT:  126.7646
 CYCLE:   398 TIME:   0.109 TIME LEFT:  2.00D  GRAD.:     1.300 HEAT:  126.7642
 CYCLE:   399 TIME:   0.133 TIME LEFT:  2.00D  GRAD.:     1.413 HEAT:  126.7642
 CYCLE:   400 TIME:   0.133 TIME LEFT:  2.00D  GRAD.:     2.463 HEAT:  126.7640
 CYCLE:   401 TIME:   0.125 TIME LEFT:  2.00D  GRAD.:     1.138 HEAT:  126.7637
 CYCLE:   402 TIME:   0.125 TIME LEFT:  2.00D  GRAD.:     0.766 HEAT:  126.7635
 CYCLE:   403 TIME:   0.141 TIME LEFT:  2.00D  GRAD.:     1.992 HEAT:  126.7632
 CYCLE:   404 TIME:   0.117 TIME LEFT:  2.00D  GRAD.:     1.650 HEAT:  126.7629
 CYCLE:   405 TIME:   0.188 TIME LEFT:  2.00D  GRAD.:     1.274 HEAT:  126.7624
 CYCLE:   406 TIME:   0.156 TIME LEFT:  2.00D  GRAD.:     1.450 HEAT:  126.7622
 CYCLE:   407 TIME:   0.164 TIME LEFT:  2.00D  GRAD.:     1.526 HEAT:  126.7619
 CYCLE:   408 TIME:   0.156 TIME LEFT:  2.00D  GRAD.:     1.340 HEAT:  126.7616
 CYCLE:   409 TIME:   0.117 TIME LEFT:  2.00D  GRAD.:     1.397 HEAT:  126.7613
 CYCLE:   410 TIME:   0.117 TIME LEFT:  2.00D  GRAD.:     0.869 HEAT:  126.7612
 CYCLE:   411 TIME:   0.117 TIME LEFT:  2.00D  GRAD.:     0.889 HEAT:  126.7611
 CYCLE:   412 TIME:   0.117 TIME LEFT:  2.00D  GRAD.:     2.415 HEAT:  126.7610
 CYCLE:   413 TIME:   0.109 TIME LEFT:  2.00D  GRAD.:     1.901 HEAT:  126.7608
 CYCLE:   414 TIME:   0.141 TIME LEFT:  2.00D  GRAD.:     1.048 HEAT:  126.7606
 CYCLE:   415 TIME:   0.109 TIME LEFT:  2.00D  GRAD.:     0.974 HEAT:  126.7606
 CYCLE:   416 TIME:   0.117 TIME LEFT:  2.00D  GRAD.:     0.915 HEAT:  126.7605
 CYCLE:   417 TIME:   0.117 TIME LEFT:  2.00D  GRAD.:     2.117 HEAT:  126.7604
 CYCLE:   418 TIME:   0.117 TIME LEFT:  2.00D  GRAD.:     0.654 HEAT:  126.7602
 CYCLE:   419 TIME:   0.109 TIME LEFT:  2.00D  GRAD.:     0.486 HEAT:  126.7602
 CYCLE:   420 TIME:   0.133 TIME LEFT:  2.00D  GRAD.:     1.719 HEAT:  126.7601
 CYCLE:   421 TIME:   0.125 TIME LEFT:  2.00D  GRAD.:     0.695 HEAT:  126.7600
 CYCLE:   422 TIME:   0.117 TIME LEFT:  2.00D  GRAD.:     0.531 HEAT:  126.7600
 CYCLE:   423 TIME:   0.125 TIME LEFT:  2.00D  GRAD.:     0.631 HEAT:  126.7600
 CYCLE:   424 TIME:   0.125 TIME LEFT:  2.00D  GRAD.:     0.794 HEAT:  126.7599
 CYCLE:   425 TIME:   0.125 TIME LEFT:  2.00D  GRAD.:     1.044 HEAT:  126.7598
 CYCLE:   426 TIME:   0.156 TIME LEFT:  2.00D  GRAD.:     0.470 HEAT:  126.7597
 CYCLE:   427 TIME:   0.125 TIME LEFT:  2.00D  GRAD.:     0.584 HEAT:  126.7597
 CYCLE:   428 TIME:   0.109 TIME LEFT:  2.00D  GRAD.:     0.872 HEAT:  126.7596
 CYCLE:   429 TIME:   0.148 TIME LEFT:  2.00D  GRAD.:     0.900 HEAT:  126.7596
 CYCLE:   430 TIME:   0.141 TIME LEFT:  2.00D  GRAD.:     0.614 HEAT:  126.7596
 CYCLE:   431 TIME:   0.141 TIME LEFT:  2.00D  GRAD.:     0.547 HEAT:  126.7595
 CYCLE:   432 TIME:   0.133 TIME LEFT:  2.00D  GRAD.:     0.569 HEAT:  126.7595
 CYCLE:   433 TIME:   0.117 TIME LEFT:  2.00D  GRAD.:     0.466 HEAT:  126.7595
 CYCLE:   434 TIME:   0.133 TIME LEFT:  2.00D  GRAD.:     0.525 HEAT:  126.7594
 CYCLE:   435 TIME:   0.125 TIME LEFT:  2.00D  GRAD.:     0.576 HEAT:  126.7594
 CYCLE:   436 TIME:   0.125 TIME LEFT:  2.00D  GRAD.:     0.378 HEAT:  126.7594
 CYCLE:   437 TIME:   0.133 TIME LEFT:  2.00D  GRAD.:     0.482 HEAT:  126.7593
 CYCLE:   438 TIME:   0.117 TIME LEFT:  2.00D  GRAD.:     0.809 HEAT:  126.7593
 CYCLE:   439 TIME:   0.141 TIME LEFT:  2.00D  GRAD.:     0.325 HEAT:  126.7593
 CYCLE:   440 TIME:   0.125 TIME LEFT:  2.00D  GRAD.:     0.253 HEAT:  126.7593
 CYCLE:   441 TIME:   0.125 TIME LEFT:  2.00D  GRAD.:     0.242 HEAT:  126.7592
 CYCLE:   442 TIME:   0.141 TIME LEFT:  2.00D  GRAD.:     0.382 HEAT:  126.7592
 CYCLE:   443 TIME:   0.125 TIME LEFT:  2.00D  GRAD.:     0.243 HEAT:  126.7592
 CYCLE:   444 TIME:   0.117 TIME LEFT:  2.00D  GRAD.:     0.237 HEAT:  126.7592
 CYCLE:   445 TIME:   0.117 TIME LEFT:  2.00D  GRAD.:     0.448 HEAT:  126.7592
 CYCLE:   446 TIME:   0.125 TIME LEFT:  2.00D  GRAD.:     0.354 HEAT:  126.7592
 CYCLE:   447 TIME:   0.117 TIME LEFT:  2.00D  GRAD.:     0.188 HEAT:  126.7592
 CYCLE:   448 TIME:   0.133 TIME LEFT:  2.00D  GRAD.:     0.187 HEAT:  126.7592
 CYCLE:   449 TIME:   0.125 TIME LEFT:  2.00D  GRAD.:     0.393 HEAT:  126.7591
 CYCLE:   450 TIME:   0.109 TIME LEFT:  2.00D  GRAD.:     0.244 HEAT:  126.7591
 CYCLE:   451 TIME:   0.109 TIME LEFT:  2.00D  GRAD.:     0.170 HEAT:  126.7591
 CYCLE:   452 TIME:   0.117 TIME LEFT:  2.00D  GRAD.:     0.415 HEAT:  126.7591
 CYCLE:   453 TIME:   0.117 TIME LEFT:  2.00D  GRAD.:     0.348 HEAT:  126.7591
 CYCLE:   454 TIME:   0.125 TIME LEFT:  2.00D  GRAD.:     0.144 HEAT:  126.7591
 CYCLE:   455 TIME:   0.117 TIME LEFT:  2.00D  GRAD.:     0.121 HEAT:  126.7591
 CYCLE:   456 TIME:   0.109 TIME LEFT:  2.00D  GRAD.:     0.270 HEAT:  126.7591
 CYCLE:   457 TIME:   0.102 TIME LEFT:  2.00D  GRAD.:     0.335 HEAT:  126.7591
 CYCLE:   458 TIME:   0.109 TIME LEFT:  2.00D  GRAD.:     0.170 HEAT:  126.7591
 CYCLE:   459 TIME:   0.102 TIME LEFT:  2.00D  GRAD.:     0.180 HEAT:  126.7591
 CYCLE:   460 TIME:   0.117 TIME LEFT:  2.00D  GRAD.:     0.232 HEAT:  126.7591
 CYCLE:   461 TIME:   0.117 TIME LEFT:  2.00D  GRAD.:     0.161 HEAT:  126.7591
 CYCLE:   462 TIME:   0.117 TIME LEFT:  2.00D  GRAD.:     0.129 HEAT:  126.7591
 CYCLE:   463 TIME:   0.109 TIME LEFT:  2.00D  GRAD.:     0.221 HEAT:  126.7591
 CYCLE:   464 TIME:   0.102 TIME LEFT:  2.00D  GRAD.:     0.367 HEAT:  126.7591
 CYCLE:   465 TIME:   0.117 TIME LEFT:  2.00D  GRAD.:     0.187 HEAT:  126.7591
 CYCLE:   466 TIME:   0.117 TIME LEFT:  2.00D  GRAD.:     0.149 HEAT:  126.7591
 CYCLE:   467 TIME:   0.117 TIME LEFT:  2.00D  GRAD.:     0.143 HEAT:  126.7591
 CYCLE:   468 TIME:   0.125 TIME LEFT:  2.00D  GRAD.:     0.140 HEAT:  126.7591
 CYCLE:   469 TIME:   0.141 TIME LEFT:  2.00D  GRAD.:     0.274 HEAT:  126.7591
 CYCLE:   470 TIME:   0.125 TIME LEFT:  2.00D  GRAD.:     0.166 HEAT:  126.7591
 CYCLE:   471 TIME:   0.148 TIME LEFT:  2.00D  GRAD.:     0.121 HEAT:  126.7590
 CYCLE:   472 TIME:   0.141 TIME LEFT:  2.00D  GRAD.:     0.153 HEAT:  126.7590
 CYCLE:   473 TIME:   0.148 TIME LEFT:  2.00D  GRAD.:     0.171 HEAT:  126.7590
 CYCLE:   474 TIME:   0.156 TIME LEFT:  2.00D  GRAD.:     0.198 HEAT:  126.7590
 CYCLE:   475 TIME:   0.148 TIME LEFT:  2.00D  GRAD.:     0.185 HEAT:  126.7590
 CYCLE:   476 TIME:   0.148 TIME LEFT:  2.00D  GRAD.:     0.135 HEAT:  126.7590
 CYCLE:   477 TIME:   0.156 TIME LEFT:  2.00D  GRAD.:     0.116 HEAT:  126.7590
 CYCLE:   478 TIME:   0.148 TIME LEFT:  2.00D  GRAD.:     0.077 HEAT:  126.7590

 -------------------------------------------------------------------------------
 RM1 PRECISE POLAR GNORM=0.1




     HERBERTS TEST WAS SATISFIED IN BFGS                      
     SCF FIELD WAS ACHIEVED                                   


                              RM1 CALCULATION
                                                       MOPAC2016 (Version: 21.013L)
                                                       Sun Oct 17 20:24:48 2021
                                                       No. of days remaining =  88




          FINAL HEAT OF FORMATION =        126.75903 KCAL/MOL =     530.35978 KJ/MOL


          TOTAL ENERGY            =      -6612.82506 EV
          ELECTRONIC ENERGY       =     -62475.62699 EV  POINT GROUP:     C1  
          CORE-CORE REPULSION     =      55862.80192 EV
          COSMO AREA              =        586.95 SQUARE ANGSTROMS
          COSMO VOLUME            =        692.06 CUBIC ANGSTROMS

          GRADIENT NORM           =          0.07714 = 0.00915 PER ATOM
          IONIZATION POTENTIAL    =          8.114860 EV
          HOMO LUMO ENERGIES (EV) =         -8.115 -1.165
          NO. OF FILLED LEVELS    =        107
          MOLECULAR WEIGHT        =        598.7176

          MOLECULAR DIMENSIONS (Angstroms)

            Atom       Atom       Distance
            H    71    H    68    23.47492
            H    53    N     1    11.03999
            H    63    H    58     7.52303


          SCF CALCULATIONS        =        479
 
          WALL-CLOCK TIME         =  1 MINUTE AND 10.078 SECONDS
          COMPUTATION TIME        = 13 MINUTES AND 56.217 SECONDS




  ATOM    CHEMICAL      BOND LENGTH      BOND ANGLE     TWIST ANGLE 
 NUMBER    SYMBOL       (ANGSTROMS)      (DEGREES)       (DEGREES) 
   (I)                     NA:I           NB:NA:I       NC:NB:NA:I       NA    NB    NC 
     1       N          0.00000000       0.0000000       0.0000000        0     0     0
     2       C          1.15654162  *    0.0000000       0.0000000        1     0     0
     3       C          1.41679638  *  179.1021386  *    0.0000000        2     1     0
     4       C          1.34812492  *  123.0843025  * -173.1400210  *     3     2     1
     5       C          1.43220780  *  123.5197281  *   -2.8763515  *     4     3     2
     6       C          1.36959827  *  127.3792713  *  -35.2704026  *     5     4     3
     7       C          1.42967437  *  111.8935506  * -178.8071255  *     6     5     4
     8       C          1.36743479  *  112.0766625  *    0.0580854  *     7     6     5
     9       S          1.71315735  *  120.5044441  *  146.3470575  *     5     4     3
    10       C          1.44356171  *  125.7218308  * -178.7539540  *     8     7     6
    11       C          1.40434277  *  118.5301875  *   42.2879620  *    10     8     7
    12       C          1.38436028  *  121.5034535  * -179.3254419  *    11    10     8
    13       C          1.39301892  *  117.3107886  *    0.4979355  *    12    11    10
    14       C          1.42291969  *  121.5532914  *   -1.2561794  *    13    12    11
    15       C          1.39256337  *  120.2839452  * -137.4109293  *    10     8     7
    16       C          1.44118022  *  107.1689349  * -178.6031665  *    14    13    12
    17       C          1.38562771  *  132.7606491  * -179.7260848  *    16    14    13
    18       C          1.38678486  *  118.3436364  *  179.3206723  *    17    16    14
    19       C          1.39897160  *  121.1488282  *   -0.4520547  *    18    17    16
    20       C          1.38621910  *  121.7409843  *    0.4298526  *    19    18    17
    21       C          1.42091121  *  107.1965525  *   -0.0684418  *    16    14    13
    22       N          1.40583035  *  129.6916934  * -179.5743530  *    13    12    11
    23       C          1.41611051  *  125.9218306  *  179.7890864  *    22    13    14
    24       C          1.39731015  *  119.5579650  *  -50.2551776  *    23    22    13
    25       C          1.38787824  *  119.2020016  *  179.8944271  *    24    23    22
    26       C          1.39351267  *  120.2833974  *    0.5156890  *    25    24    23
    27       C          1.39431414  *  120.0374901  *   -0.7374149  *    26    25    24
    28       C          1.39755240  *  119.4683009  *  129.6000169  *    23    22    13
    29       C          1.45648084  *  120.4584284  * -179.1177810  *    26    25    24
    30       C          1.33872753  *  123.1699928  *  134.0792963  *    29    26    27
    31       C          1.46114471  *  123.1068772  *   -3.4199124  *    30    29    26
    32       C          1.39327160  *  119.6165051  *  132.6746144  *    31    30    29
    33       C          1.38886877  *  119.7752708  *  179.8227667  *    32    31    30
    34       C          1.38997576  *  120.1396439  *   -0.4688837  *    33    32    31
    35       C          1.38976063  *  119.9962892  *   -0.0576962  *    34    33    32
    36       C          1.39277688  *  120.2009494  *  -48.2050333  *    31    30    29
    37       C          1.46243995  *  121.1362600  *  177.6214428  *    30    29    26
    38       C          1.39282670  *  120.2214631  *  -44.8221984  *    37    30    29
    39       C          1.38946526  *  119.8096250  *  179.6132330  *    38    37    30
    40       C          1.38933525  *  120.1670479  *   -0.0447052  *    39    38    37
    41       C          1.39023976  *  119.9675996  *    0.2504469  *    40    39    38
    42       C          1.39363044  *  119.7054184  *  135.1473594  *    37    30    29
    43       C          1.46880740  *  117.4220481  *  178.5785079  *     3     2     4
    44       O          1.22304145  *  126.5264986  *    0.4298919  *    43     3     4
    45       O          1.34811396  *  113.9793664  * -179.4332385  *    43     3     4
    46       H          1.10155281  *  120.1616130  *  176.7704525  *     4     3     2
    47       H          1.08855772  *  125.7377102  *   -0.6530522  *     6     5     4
    48       H          1.08754896  *  122.8073185  *  179.4961973  *     7     6     5
    49       H          1.09527261  *  119.3724926  * -178.9177002  *    11    10    15
    50       H          1.09225405  *  121.1231035  * -178.6610617  *    12    11    10
    51       H          1.09322962  *  121.7124220  *   -0.3289368  *    15    10     8
    52       H          1.09279467  *  120.2932588  *  179.8125506  *    17    16    21
    53       H          1.09358376  *  119.6371335  *  179.8122946  *    18    17    16
    54       H          1.09472452  *  119.0783406  * -179.4198329  *    19    18    17
    55       H          1.09182691  *  121.2844022  * -178.8757935  *    20    19    18
    56       H          1.09481808  *  120.8604000  *  179.1379294  *    24    23    28
    57       H          1.09525030  *  119.5664395  * -179.3926840  *    25    24    23
    58       H          1.09464828  *  119.9580739  *   -1.0457761  *    27    26    29
    59       H          1.09478765  *  120.8482799  *   -1.1180223  *    28    23    22
    60       H          1.09620120  *  115.4909189  *  -45.9352388  *    29    26    27
    61       H          1.09433253  *  120.0943148  * -179.3712502  *    32    31    36
    62       H          1.09388414  *  119.8812582  *  179.6765692  *    33    32    31
    63       H          1.09381885  *  120.0011321  * -179.9154578  *    34    33    32
    64       H          1.09391563  *  119.9655363  * -179.7082119  *    35    34    33
    65       H          1.09432670  *  120.2738079  *  179.0173479  *    36    31    32
    66       H          1.09410097  *  120.3957046  *  178.9498986  *    38    37    42
    67       H          1.09391789  *  119.8592556  *  179.9253263  *    39    38    37
    68       H          1.09380079  *  120.0289860  * -179.8508110  *    40    39    38
    69       H          1.09392851  *  119.9541774  *  179.9108691  *    41    40    39
    70       H          1.09448237  *  120.1160695  * -179.6847043  *    42    37    38
    71       H          0.96825444  *  111.0561175  *    0.2452427  *    45    43    44

                             CARTESIAN COORDINATES

   1    N        0.000000000     0.000000000     0.000000000
   2    C        1.156541625     0.000000000     0.000000000
   3    C        2.573164045     0.022201193     0.000000000
   4    C        3.326551261    -1.087594198    -0.134917395
   5    C        2.779724912    -2.407711650    -0.232334174
   6    C        1.669264096    -2.896677341     0.402952178
   7    C        1.437021178    -4.271741571     0.087943601
   8    C        2.378813848    -4.768628529    -0.769965376
   9    S        3.546465880    -3.597546251    -1.197378229
  10    C        2.412205852    -6.111330084    -1.299028614
  11    C        1.208063412    -6.693949999    -1.726548945
  12    C        1.166945646    -7.982465371    -2.231019802
  13    C        2.368473978    -8.684979113    -2.288516167
  14    C        3.595521535    -8.096859856    -1.872378600
  15    C        3.616229756    -6.807039442    -1.373511300
  16    C        4.631888565    -9.073721919    -2.093023857
  17    C        5.999875635    -9.059999655    -1.873052865
  18    C        6.728937583   -10.196619012    -2.188865101
  19    C        6.104517179   -11.335819218    -2.707944663
  20    C        4.738069706   -11.377833778    -2.937421172
  21    C        4.010198181   -10.230513853    -2.635538508
  22    N        2.626246800    -9.986379224    -2.753564430
  23    C        1.662384460   -10.897381373    -3.249964923
  24    C        0.505165788   -11.148667862    -2.508226631
  25    C       -0.435618729   -12.041180178    -3.002748900
  26    C       -0.221183360   -12.685810158    -4.219444105
  27    C        0.934969073   -12.424271333    -4.953624542
  28    C        1.881785089   -11.529715943    -4.476818246
  29    C       -1.214660938   -13.608600720    -4.751230082
  30    C       -1.784330441   -14.573506150    -4.018682774
  31    C       -1.414964087   -14.845666546    -2.631440516
  32    C       -2.412465875   -15.004086228    -1.671701410
  33    C       -2.065185452   -15.266540698    -0.352811562
  34    C       -0.727497799   -15.380579288     0.007215582
  35    C        0.265654409   -15.233103784    -0.953687265
  36    C       -0.074131130   -14.964340040    -2.273793998
  37    C       -2.815270431   -15.443176581    -4.583985064
  38    C       -3.847300434   -14.902544486    -5.347265640
  39    C       -4.817816002   -15.737659445    -5.886984309
  40    C       -4.759898160   -17.108347328    -5.667638257
  41    C       -3.731671486   -17.646268861    -4.902029392
  42    C       -2.760826446   -16.817009531    -4.356334699
  43    C        3.229189499     1.330542465     0.123567415
  44    O        4.433176538     1.545236310     0.111232265
  45    O        2.372512529     2.361837969     0.264795578
  46    H        4.424307547    -1.009029313    -0.181578834
  47    H        1.036720142    -2.342750502     1.094335647
  48    H        0.606809398    -4.839082820     0.502232204
  49    H        0.280968590    -6.113389064    -1.671174984
  50    H        0.230503076    -8.421773400    -2.581879723
  51    H        4.558565844    -6.361795808    -1.043493399
  52    H        6.482701884    -8.171452378    -1.458851529
  53    H        7.810370716   -10.207824334    -2.026685419
  54    H        6.711469100   -12.217773615    -2.936390691
  55    H        4.255763978   -12.277080795    -3.325779240
  56    H        0.341707571   -10.662951080    -1.540762291
  57    H       -1.349504982   -12.235005866    -2.431070026
  58    H        1.097763459   -12.924493412    -5.913588456
  59    H        2.779379166   -11.315845870    -5.066007913
  60    H       -1.474779395   -13.465093662    -5.806408351
  61    H       -3.465876479   -14.920746508    -1.956208476
  62    H       -2.846778500   -15.385971272     0.403119094
  63    H       -0.456599382   -15.588689052     1.046322910
  64    H        1.318089152   -15.327689924    -0.670692590
  65    H        0.710045633   -14.856122363    -3.029377663
  66    H       -3.904767609   -13.822910227    -5.515028350
  67    H       -5.629410352   -15.313782762    -6.485565558
  68    H       -5.523726245   -17.763937242    -6.095620357
  69    H       -3.687101322   -18.725385471    -4.728246675
  70    H       -1.953055671   -17.241990084    -3.752356581
  71    H        2.848500848     3.201614816     0.340470098


           Empirical Formula: C40 H26 N2 O2 S  =    71 atoms



      MOLECULAR POINT GROUP   :   C1  


                  EIGENVALUES  
 -40.01657 -39.13307 -38.12581 -37.17388 -37.02148 -36.58340 -36.44681 -35.74321
 -35.38409 -35.08192 -33.58484 -33.11638 -31.75878 -30.64984 -30.41054 -29.99674
 -29.86854 -29.63969 -29.13603 -29.04347 -28.27846 -27.58931 -26.89618 -25.39438
 -24.19441 -23.64090 -23.27802 -22.91132 -22.65121 -22.46174 -22.27502 -21.97417
 -21.87690 -21.81796 -21.00108 -20.94226 -20.01090 -19.41914 -19.08287 -18.47162
 -18.17951 -17.97068 -17.83982 -17.66258 -17.31638 -17.14410 -16.60349 -16.41667
 -16.31442 -16.19790 -16.02921 -15.89798 -15.88032 -15.57439 -15.53482 -15.36217
 -15.19603 -15.18302 -15.07317 -14.92440 -14.75887 -14.71729 -14.61458 -14.53129
 -14.39688 -14.37335 -14.31148 -14.20958 -14.18499 -14.10787 -13.91027 -13.75453
 -13.70155 -13.36565 -13.27605 -13.21467 -13.12058 -13.10986 -13.04422 -12.84215
 -12.75515 -12.62885 -12.46480 -12.40498 -12.31379 -12.22723 -12.11664 -12.04076
 -11.96656 -11.92596 -11.77992 -11.68525 -11.61517 -11.20691 -10.90877 -10.57461
 -10.02126  -9.93979  -9.80449  -9.64526  -9.59017  -9.58346  -9.54404  -9.35947
  -8.79412  -8.69394  -8.11486  -1.16489  -0.37493  -0.12640  -0.10280   0.29961
   0.34132   0.36864   0.45447   0.56198   0.60420   0.78990   1.02858   1.09951
   1.30103   1.36292   1.46693   1.52177   1.59336   1.64763   2.27977   2.50714
   2.63419   2.81313   2.92371   3.04244   3.04673   3.07563   3.62813   3.71969
   3.80785   3.85155   3.87159   3.91925   3.97124   3.99438   4.02698   4.10054
   4.16551   4.17720   4.20584   4.23228   4.26645   4.28499   4.31017   4.34818
   4.39502   4.40123   4.42030   4.43471   4.47422   4.48653   4.50248   4.64937
   4.67008   4.72533   4.73595   4.74231   4.79611   4.80486   4.80989   4.88217
   4.89909   4.91295   4.96210   5.01601   5.02711   5.06182   5.09968   5.18660
   5.19294   5.20211   5.24423   5.30110   5.30842   5.33138   5.33876   5.44830
   5.48488   5.53441   5.56695   5.68452   5.69655   5.72356   5.75766   5.77595
   5.81739   5.84521   5.86834   5.89254   5.93139   5.95247   6.03142   6.08316
   6.26704   6.29366   6.30298   6.31328   6.57526   6.59526


              NET ATOMIC CHARGES AND DIPOLE CONTRIBUTIONS

  ATOM NO.   TYPE          CHARGE      No. of ELECS.   s-Pop       p-Pop
   44          O          -0.378435        6.3784     1.91039     4.46805
   43          C           0.402838        3.5972     1.18043     2.41673
   45          O          -0.311230        6.3112     1.83996     4.47127
   71          H           0.244670        0.7553     0.75533
    2          C           0.054616        3.9454     1.19466     2.75073
    1          N          -0.151275        5.1513     1.84822     3.30306
    3          C          -0.147750        4.1478     1.14205     3.00570
    4          C           0.142603        3.8574     1.17174     2.68565
    5          C          -0.421349        4.4213     1.21460     3.20675
    6          C          -0.011074        4.0111     1.18439     2.82668
    7          C          -0.145328        4.1453     1.18370     2.96163
    8          C          -0.237741        4.2377     1.21648     3.02126
    9          S           0.483020        5.5170     1.88459     3.63239
   10          C          -0.064277        4.0643     1.14913     2.91515
   11          C          -0.038729        4.0387     1.17696     2.86177
   12          C          -0.172108        4.1721     1.17243     2.99968
   13          C           0.136455        3.8635     1.15144     2.71210
   14          C          -0.094194        4.0942     1.15838     2.93581
   15          C          -0.026894        4.0269     1.16891     2.85799
   16          C          -0.092715        4.0927     1.15854     2.93417
   17          C          -0.034803        4.0348     1.16945     2.86535
   18          C          -0.155604        4.1556     1.17848     2.97712
   19          C          -0.052730        4.0527     1.17680     2.87593
   20          C          -0.166941        4.1669     1.17205     2.99489
   21          C           0.124457        3.8755     1.15132     2.72423
   22          N          -0.256312        5.2563     1.47935     3.77696
   23          C           0.124140        3.8759     1.14192     2.73394
   24          C          -0.140737        4.1407     1.18205     2.95869
   25          C          -0.071168        4.0712     1.17946     2.89171
   26          C          -0.033463        4.0335     1.16262     2.87085
   27          C          -0.084248        4.0842     1.17790     2.90635
   28          C          -0.139167        4.1392     1.18139     2.95778
   29          C          -0.116215        4.1162     1.17786     2.93835
   30          C          -0.004487        4.0045     1.16260     2.84189
   31          C          -0.036239        4.0362     1.16141     2.87483
   32          C          -0.095243        4.0952     1.17928     2.91596
   33          C          -0.108747        4.1087     1.17906     2.92968
   34          C          -0.098949        4.0989     1.17929     2.91966
   35          C          -0.107886        4.1079     1.17917     2.92871
   36          C          -0.092709        4.0927     1.17969     2.91302
   37          C          -0.036372        4.0364     1.16255     2.87382
   38          C          -0.099386        4.0994     1.17898     2.92040
   39          C          -0.106680        4.1067     1.17887     2.92781
   40          C          -0.098687        4.0987     1.17922     2.91947
   41          C          -0.107148        4.1071     1.17919     2.92796
   42          C          -0.089741        4.0897     1.17934     2.91041
   46          H           0.132519        0.8675     0.86748
   47          H           0.135383        0.8646     0.86462
   48          H           0.137958        0.8620     0.86204
   49          H           0.112098        0.8879     0.88790
   50          H           0.128880        0.8711     0.87112
   51          H           0.114593        0.8854     0.88541
   52          H           0.108359        0.8916     0.89164
   53          H           0.109830        0.8902     0.89017
   54          H           0.102881        0.8971     0.89712
   55          H           0.124366        0.8756     0.87563
   56          H           0.128264        0.8717     0.87174
   57          H           0.122844        0.8772     0.87716
   58          H           0.114127        0.8859     0.88587
   59          H           0.128018        0.8720     0.87198
   60          H           0.117928        0.8821     0.88207
   61          H           0.115210        0.8848     0.88479
   62          H           0.106918        0.8931     0.89308
   63          H           0.105768        0.8942     0.89423
   64          H           0.107258        0.8927     0.89274
   65          H           0.115216        0.8848     0.88478
   66          H           0.110415        0.8896     0.88958
   67          H           0.106408        0.8936     0.89359
   68          H           0.105718        0.8943     0.89428
   69          H           0.107039        0.8930     0.89296
   70          H           0.115964        0.8840     0.88404
   
 DIPOLE           X         Y         Z       TOTAL
 POINT-CHG.     1.199    -5.732    -1.830     6.135
 HYBRID        -0.719     0.405     0.952     1.259
 SUM            0.480    -5.327    -0.878     5.420


          ATOMIC ORBITAL ELECTRON POPULATIONS

     Atom    s        px        py        pz   
    1  N   1.84822   1.11267   1.08872   1.10167
    2  C   1.19466   0.91154   0.91859   0.92060
    3  C   1.14205   0.89059   0.93571   1.17940
    4  C   1.17174   0.98875   0.88738   0.80952
    5  C   1.21460   1.06006   1.00822   1.13847
    6  C   1.18439   0.92388   0.94585   0.95695
    7  C   1.18370   1.00657   0.95296   1.00210
    8  C   1.21648   1.01352   0.98711   1.02063
    9  S   1.88459   1.23854   0.94851   1.44534
   10  C   1.14913   0.94396   0.91902   1.05218
   11  C   1.17696   0.96542   0.94141   0.95495
   12  C   1.17243   0.97002   0.96342   1.06624
   13  C   1.15144   0.94464   0.81871   0.94875
   14  C   1.15838   0.92418   0.95115   1.06048
   15  C   1.16891   0.96491   0.93135   0.96173
   16  C   1.15854   0.93665   0.93814   1.05939
   17  C   1.16945   0.92356   0.97303   0.96877
   18  C   1.17848   0.99594   0.94739   1.03380
   19  C   1.17680   0.93948   0.97226   0.96418
   20  C   1.17205   0.95124   0.97340   1.07025
   21  C   1.15132   0.79677   0.95015   0.97730
   22  N   1.47935   1.06864   1.13116   1.57715
   23  C   1.14192   0.88843   0.91902   0.92650
   24  C   1.18205   0.95591   1.00303   0.99975
   25  C   1.17946   0.98771   0.95159   0.95241
   26  C   1.16262   0.94724   0.97298   0.95063
   27  C   1.17790   0.94065   0.97321   0.99249
   28  C   1.18139   1.01012   0.99598   0.95168
   29  C   1.17786   0.97667   0.96390   0.99777
   30  C   1.16260   0.95764   0.95417   0.93008
   31  C   1.16141   0.93972   1.00992   0.92519
   32  C   1.17928   0.98718   0.99205   0.93673
   33  C   1.17906   0.96459   1.00068   0.96441
   34  C   1.17929   0.93899   0.99401   0.98666
   35  C   1.17917   0.98758   0.99941   0.94173
   36  C   1.17969   0.95635   0.99028   0.96639
   37  C   1.16255   0.95336   0.93706   0.98341
   38  C   1.17898   0.95275   0.99157   0.97609
   39  C   1.17887   0.98542   0.94541   0.99698
   40  C   1.17922   0.98036   0.95547   0.98364
   41  C   1.17919   0.95598   0.99068   0.98130
   42  C   1.17934   0.98539   0.93467   0.99035
   43  C   1.18043   0.84432   0.84898   0.72343
   44  O   1.91039   1.16023   1.84796   1.45986
   45  O   1.83996   1.41980   1.19479   1.85667
   46  H   0.86748
   47  H   0.86462
   48  H   0.86204
   49  H   0.88790
   50  H   0.87112
   51  H   0.88541
   52  H   0.89164
   53  H   0.89017
   54  H   0.89712
   55  H   0.87563
   56  H   0.87174
   57  H   0.87716
   58  H   0.88587
   59  H   0.87198
   60  H   0.88207
   61  H   0.88479
   62  H   0.89308
   63  H   0.89423
   64  H   0.89274
   65  H   0.88478
   66  H   0.88958
   67  H   0.89359
   68  H   0.89428
   69  H   0.89296
   70  H   0.88404
   71  H   0.75533
 ******************** TDHF POLARIZABILITIES ********************



          MOLECULAR WEIGHT =  598.72



          ROTATIONAL CONSTANTS IN CM(-1)

          A =    0.00449835   B =    0.00068804   C =    0.00063339



           PRINCIPAL MOMENTS OF INERTIA IN UNITS OF 10**(-40)*GRAM-CM**2

          A =     6222.8978   B =    40684.6295   C =    44194.8872


 ROTATION MATRIX FOR ORIENTATION OF MOLECULE:

         0.313680   -0.947674   -0.059322
         0.921512    0.318895   -0.221636
         0.228956    0.014857    0.973323


          CARTESIAN COORDINATES 

    NO.       ATOM         X         Y         Z

     1         N        8.3801    4.0368    0.1704
     2         C        8.7429    2.9408    0.1018
     3         C        9.2077    1.6054    0.0128
     4         C        8.3904    0.5355    0.0828
     5         C        6.9801    0.6313    0.3130
     6         C        6.3266    1.5372    1.1056
     7         C        4.9145    1.3141    1.1175
     8         C        4.5556    0.2504    0.3367
     9         S        5.9032   -0.4891   -0.4081
    10         C        3.2077   -0.2173    0.1174
    11         C        2.1952    0.7317   -0.0981
    12         C        0.8794    0.3523   -0.3011
    13         C        0.5957   -1.0113   -0.2727
    14         C        1.6179   -1.9804   -0.0708
    15         C        2.9272   -1.5813    0.1277
    16         C        0.9923   -3.2773   -0.1305
    17         C        1.4844   -4.5661   -0.0006
    18         C        0.5934   -5.6242   -0.0993
    19         C       -0.7711   -5.4034   -0.3150
    20         C       -1.2910   -4.1253   -0.4480
    21         C       -0.3930   -3.0651   -0.3653
    22         N       -0.6291   -1.6775   -0.4522
    23         C       -1.8846   -1.0620   -0.6762
    24         C       -2.3094   -0.0344    0.1701
    25         C       -3.5401    0.5652   -0.0577
    26         C       -4.3455    0.1383   -1.1117
    27         C       -3.9099   -0.8848   -1.9529
    28         C       -2.6794   -1.4897   -1.7432
    29         C       -5.6292    0.7776   -1.3659
    30         C       -6.5294    1.0207   -0.4052
    31         C       -6.3467    0.6045    0.9834
    32         C       -6.5858    1.5135    2.0118
    33         C       -6.4168    1.1203    3.3331
    34         C       -6.0199   -0.1784    3.6295
    35         C       -5.7924   -1.0868    2.6026
    36         C       -5.9536   -0.6987    1.2783
    37         C       -7.7836    1.7120   -0.7015
    38         C       -7.7839    2.8510   -1.5031
    39         C       -8.9815    3.4964   -1.7857
    40         C      -10.1762    3.0077   -1.2719
    41         C      -10.1741    1.8731   -0.4685
    42         C       -8.9804    1.2256   -0.1787
    43         C       10.6474    1.4028   -0.1958
    44         O       11.2201    0.3301   -0.3268
    45         O       11.3614    2.5456   -0.2361
    46         H        8.7965   -0.4804   -0.0452
    47         H        6.7970    2.3235    1.6933
    48         H        4.2261    1.9261    1.6957
    49         H        2.4520    1.7962   -0.1179
    50         H        0.1005    1.0944   -0.4897
    51         H        3.7086   -2.3274    0.2943
    52         H        2.5495   -4.7341    0.1770
    53         H        0.9594   -6.6502   -0.0031
    54         H       -1.4458   -6.2632   -0.3779
    55         H       -2.3599   -3.9607   -0.5981
    56         H       -1.6915    0.2898    1.0138
    57         H       -3.8745    1.3779    0.5959
    58         H       -4.5396   -1.2129   -2.7860
    59         H       -2.3357   -2.2809   -2.4174
    60         H       -5.8202    1.0542   -2.4093
    61         H       -6.9046    2.5342    1.7789
    62         H       -6.5990    1.8342    4.1417
    63         H       -5.8887   -0.4860    4.6709
    64         H       -5.4847   -2.1102    2.8366
    65         H       -5.7809   -1.4186    0.4724
    66         H       -6.8454    3.2473   -1.9022
    67         H       -8.9825    4.3919   -2.4141
    68         H      -11.1179    3.5161   -1.4978
    69         H      -11.1147    1.4893   -0.0628
    70         H       -8.9804    0.3336    0.4554
    71         H       12.3019    2.3634   -0.3768


 ENERGY OF "REORIENTED" SYSTEM WITHOUT FIELD:      126.7590307415


  NFREQ=  3  IWFLB=  0  IBET=  1  IGAM=  1
  ATOL= 0.10000D-02  BTOL= 0.10000D-02    MAXITU=  500    MAXITA=  150


 *****************************************************************
 CALCULATION OF STATIC FIELD QUANTITIES
 *****************************************************************

 +++++ ALPHA AT       0.00000 EV.

                           COMPONENTS OF ALPHA

                     *X           *Y           *Z
           *=X:     675.8374      -5.1373       3.1699
           *=Y:      -5.1334     459.1690      14.2711
           *=Z:       3.1383      14.2739     231.2267

  ISOTROPIC AVERAGE ALPHA =     455.41106 A.U. =     67.48496 ANG.**3

 +++++ BETA (SECOND HARMONIC GENERATION) AT       0.00000 EV.

                              COMPONENTS OF BETA
            *XX         *XY         *YY         *XZ         *YZ         *ZZ
   *=X -6211.27785 -2774.94014  -365.87896    90.97717   -49.20385    11.16569
   *=Y -2775.40270  -366.17940   591.98255   -49.19360   -70.40247   -34.50270
   *=Z    91.02589   -49.03272   -70.41238    11.15395   -34.51048    -8.33126


 AVERAGE BETAX(SHG) VALUE AT   0.00000 EV =      -3939.7195 a.u. = -0.340369E-28 ESU
 AVERAGE BETAY(SHG) VALUE AT   0.00000 EV =      -1330.5718 a.u. = -0.114954E-28 ESU
 AVERAGE BETAZ(SHG) VALUE AT   0.00000 EV =          7.3538 a.u. =  0.635327E-31 ESU



 AVERAGE BETA (SHG) VALUE AT   0.00000 EV =       4158.3489 a.u. =  0.359257E-28 ESU
   (1 a.u. = 8.639418X10-33 esu)



 +++++ ALPHA AT       0.00000 EV.

                           COMPONENTS OF ALPHA

                     *X           *Y           *Z
           *=X:     675.8374      -5.1373       3.1699
           *=Y:      -5.1334     459.1690      14.2711
           *=Z:       3.1383      14.2739     231.2267

  ISOTROPIC AVERAGE ALPHA =     455.41106 A.U. =     67.48496 ANG.**3


 GAMMA (THIRD HARMONIC GENERATION) AT    0.00000 EV.


 GAMMA(X,X,X,X) =       2261630.34434
 GAMMA(Y,Y,Y,Y) =        115636.49871
 GAMMA(Z,Z,Z,Z) =         35955.20365
 GAMMA(X,X,Y,Y) =        248088.20384
 GAMMA(X,X,Z,Z) =          -361.93698
 GAMMA(Y,Y,X,X) =        248087.64095
 GAMMA(Y,Y,Z,Z) =          1444.49525
 GAMMA(Z,Z,X,X) =          -362.18104
 GAMMA(Z,Z,Y,Y) =          1444.57455


 AVERAGE GAMMA VALUE AT    0.00000 =        582312.56865 a.u. =       293293.52168 ESU (X10-39)




 **********************************************************************
 CALCULATION FOR A FREQUENCY OF    0.25000 EV  =       0.00919 A.U. 
                  WAVELENGTH OF    4959.37 NM  =    2016.38525 CM(-1)
 **********************************************************************

 +++++ ALPHA AT       0.25000 EV.

                           COMPONENTS OF ALPHA

                     *X           *Y           *Z
           *=X:     678.6827      -4.8783       3.0590
           *=Y:      -4.8744     460.1652      14.3130
           *=Z:       3.0324      14.3153     231.5985

  ISOTROPIC AVERAGE ALPHA =     456.81544 A.U. =     67.69306 ANG.**3

 +++++ BETA (SECOND HARMONIC GENERATION) AT       0.25000 EV.

                              COMPONENTS OF BETA
            *XX         *XY         *YY         *XZ         *YZ         *ZZ
   *=X -6485.61417 -2897.52382  -379.27441    99.49829   -49.78738    10.62604
   *=Y -2906.34850  -391.72184   602.88020   -49.22233   -71.47130   -34.59550
   *=Z    91.37145   -50.03004   -72.09244    10.98743   -35.23946    -7.87052


 AVERAGE BETAX(SHG) VALUE AT   0.25000 EV =      -4117.3919 a.u. = -0.355719E-28 ESU
 AVERAGE BETAY(SHG) VALUE AT   0.25000 EV =      -1399.5660 a.u. = -0.120914E-28 ESU
 AVERAGE BETAZ(SHG) VALUE AT   0.25000 EV =         10.3443 a.u. =  0.893686E-31 ESU



 AVERAGE BETA (SHG) VALUE AT   0.25000 EV =       4348.7709 a.u. =  0.375708E-28 ESU
   (1 a.u. = 8.639418X10-33 esu)



 +++++ ALPHA AT       0.75000 EV.

                           COMPONENTS OF ALPHA

                     *X           *Y           *Z
           *=X:     702.9025      -2.6076       2.1367
           *=Y:      -2.6001     468.4215      14.6577
           *=Z:       2.1103      14.6601     234.6397

  ISOTROPIC AVERAGE ALPHA =     468.65457 A.U. =     69.44744 ANG.**3


 GAMMA (THIRD HARMONIC GENERATION) AT    0.25000 EV.


 GAMMA(X,X,X,X) =       2500816.49734
 GAMMA(Y,Y,Y,Y) =        122609.15567
 GAMMA(Z,Z,Z,Z) =         37720.57066
 GAMMA(X,X,Y,Y) =        272740.47261
 GAMMA(X,X,Z,Z) =          -532.72985
 GAMMA(Y,Y,X,X) =        273638.49493
 GAMMA(Y,Y,Z,Z) =          1422.20928
 GAMMA(Z,Z,X,X) =          -113.70563
 GAMMA(Z,Z,Y,Y) =          1414.32369


 AVERAGE GAMMA VALUE AT    0.25000 =        641943.05774 a.u. =       323327.62551 ESU (X10-39)




 **********************************************************************
 CALCULATION FOR A FREQUENCY OF    0.50000 EV  =       0.01837 A.U. 
                  WAVELENGTH OF    2479.68 NM  =    4032.77050 CM(-1)
 **********************************************************************

 +++++ ALPHA AT       0.50000 EV.

                           COMPONENTS OF ALPHA

                     *X           *Y           *Z
           *=X:     687.4462      -4.0701       2.7310
           *=Y:      -4.0653     463.1976      14.4382
           *=Z:       2.7032      14.4410     232.7220

  ISOTROPIC AVERAGE ALPHA =     461.12195 A.U. =     68.33122 ANG.**3

 +++++ BETA (SECOND HARMONIC GENERATION) AT       0.50000 EV.

                              COMPONENTS OF BETA
            *XX         *XY         *YY         *XZ         *YZ         *ZZ
   *=X -7444.62124 -3326.00203  -424.32245   130.06778   -51.60890     8.76694
   *=Y -3360.50707  -482.46436   637.52408   -48.84773   -74.80816   -34.75238
   *=Z    92.44807   -52.63063   -77.54527    10.32739   -37.61794    -6.34536


 AVERAGE BETAX(SHG) VALUE AT   0.50000 EV =      -4738.7386 a.u. = -0.409399E-28 ESU
 AVERAGE BETAY(SHG) VALUE AT   0.50000 EV =      -1641.9854 a.u. = -0.141858E-28 ESU
 AVERAGE BETAZ(SHG) VALUE AT   0.50000 EV =         21.2772 a.u. =  0.183823E-30 ESU



 AVERAGE BETA (SHG) VALUE AT   0.50000 EV =       5015.1982 a.u. =  0.433284E-28 ESU
   (1 a.u. = 8.639418X10-33 esu)



 +++++ ALPHA AT       1.50000 EV.

                           COMPONENTS OF ALPHA

                     *X           *Y           *Z
           *=X:     812.4890       8.9830      -2.4302
           *=Y:       9.0052     501.4256      16.1275
           *=Z:      -2.4747      16.1299     246.1198

  ISOTROPIC AVERAGE ALPHA =     520.01146 A.U. =     77.05775 ANG.**3


 GAMMA (THIRD HARMONIC GENERATION) AT    0.50000 EV.


 GAMMA(X,X,X,X) =       3547575.19991
 GAMMA(Y,Y,Y,Y) =        148639.01224
 GAMMA(Z,Z,Z,Z) =         44132.91210
 GAMMA(X,X,Y,Y) =        378759.84149
 GAMMA(X,X,Z,Z) =         -1323.17612
 GAMMA(Y,Y,X,X) =        382477.41590
 GAMMA(Y,Y,Z,Z) =          1239.58813
 GAMMA(Z,Z,X,X) =           849.46795
 GAMMA(Z,Z,Y,Y) =          1255.24638


 AVERAGE GAMMA VALUE AT    0.50000 =        900721.10160 a.u. =       453666.42962 ESU (X10-39)



 **********************
 *                    *
 * JOB ENDED NORMALLY *
 *                    *
 **********************



 TOTAL JOB TIME:           164.73 SECONDS

 == MOPAC DONE ==
