 *******************************************************************************
 ** Site#: 4824         For non-commercial use only    Version 21.013L 64BITS **
 *******************************************************************************
 ** Cite this program as: MOPAC2016, Version: 21.013L, James J. P. Stewart,   **
 ** Stewart Computational Chemistry, web: HTTP://OpenMOPAC.net. Days left:  88**
 *******************************************************************************
 **                                                                           **
 **                                MOPAC2016                                  **
 **                                                                           **
 *******************************************************************************

                              RM1 CALCULATION RESULTS

 *******************************************************************************
 *  CALCULATION DONE:                                Sun Oct 17 20:23:38 2021  *
 *  RM1        - The RM1 Hamiltonian to be used
 *  POLAR      - CALCULATE FIRST, SECOND AND THIRD-ORDER POLARIZABILITIES
 *  PRECISE    - TIGHTER CRITERIA TO BE USED
 *  T=         - A TIME OF 172800.0 SECONDS REQUESTED
 *  DUMP=N     - RESTART FILE WRITTEN EVERY 7200.0 SECONDS REQUESTED
 *  GNORM      - EXIT WHEN GRADIENT NORM DROPS BELOW 0.100
 *******************************************************************************
RM1 PRECISE POLAR GNORM=0.1


  ATOM    CHEMICAL      BOND LENGTH      BOND ANGLE     TWIST ANGLE 
 NUMBER    SYMBOL       (ANGSTROMS)      (DEGREES)       (DEGREES) 
   (I)                     NA:I           NB:NA:I       NC:NB:NA:I       NA    NB    NC 
     1       N          0.00000000       0.0000000       0.0000000        0     0     0
     2       C          1.15840000  *    0.0000000       0.0000000        1     0     0
     3       C          1.42960000  *  179.6331000  *    0.0000000        2     1     0
     4       C          1.34930000  *  121.6170000  * -179.7471000  *     3     2     1
     5       C          1.46620000  *  124.8226000  *   -1.5157000  *     4     3     2
     6       C          1.34920000  *  128.5608000  *  -41.4764000  *     5     4     3
     7       C          1.48700000  *  115.8098000  * -177.4629000  *     6     5     4
     8       C          1.34830000  *  115.8042000  *    1.2107000  *     7     6     5
     9       S          1.82030000  *  124.1014000  *  143.1877000  *     5     4     3
    10       C          1.45800000  *  126.7981000  *  179.4068000  *     8     7     6
    11       C          1.34770000  *  126.7857000  * -178.8595000  *    10     8     7
    12       C          1.48660000  *  115.8596000  *  179.5298000  *    11    10     8
    13       C          1.35020000  *  116.1903000  *    0.0496000  *    12    11    10
    14       S          1.81980000  *  126.1589000  *    0.6238000  *    10     8     7
    15       C          1.47220000  *  127.3905000  * -179.5170000  *    13    12    11
    16       C          1.48870000  *  120.5514000  *  -13.8273000  *    15    13    12
    17       C          1.34750000  *  121.4338000  *  179.1320000  *    16    15    13
    18       C          1.46040000  *  118.3713000  *    0.1930000  *    17    16    15
    19       C          1.34190000  *  120.4193000  *    0.9000000  *    18    17    16
    20       C          1.35150000  *  120.2218000  *  166.2254000  *    15    13    12
    21       C          1.45820000  *  107.5477000  *  179.1165000  *    19    18    17
    22       C          1.46090000  *  130.6612000  *  178.7639000  *    21    19    18
    23       C          1.34750000  *  117.9591000  * -178.6244000  *    22    21    19
    24       C          1.47940000  *  120.6763000  *    0.2057000  *    23    22    21
    25       C          1.34760000  *  120.7777000  *   -0.1648000  *    24    23    22
    26       C          1.34350000  *  107.6728000  *   -0.1299000  *    21    19    18
    27       N          1.41890000  *  130.2250000  *  179.0182000  *    18    17    16
    28       C          1.41120000  *  126.6208000  * -167.6494000  *    27    18    19
    29       C          1.35080000  *  120.7493000  *   51.0638000  *    28    27    18
    30       C          1.47270000  *  120.7547000  *  179.1340000  *    29    28    27
    31       C          1.34110000  *  118.0765000  *   -0.2258000  *    30    29    28
    32       C          1.46510000  *  121.9325000  *    0.2243000  *    31    30    29
    33       C          1.34390000  *  119.9923000  *    0.0000000  *    32    31    30
    34       C          1.52560000  *  112.2281000  * -179.7385000  *    32    31    30
    35       C          1.55280000  *  110.8419000  *  -62.3697000  *    34    32    33
    36       C          1.55260000  *  111.0082000  *   62.8612000  *    34    32    33
    37       C          1.52580000  *  100.3110000  * -179.7081000  *    34    32    33
    38       C          1.45390000  *  130.4102000  * -179.5212000  *    31    30    29
    39       C          1.34160000  *  130.3573000  *   -0.1632000  *    38    31    30
    40       C          1.47320000  *  118.0051000  *  179.7450000  *    39    38    31
    41       C          1.34830000  *  120.5073000  *    0.0000000  *    40    39    38
    42       C          1.34460000  *  127.8714000  *  179.7746000  *    37    34    32
    43       C          1.47530000  *  117.5746000  *  178.0686000  *     3     2     4
    44       O          1.23230000  *  121.1643000  *   -1.1774000  *    43     3     4
    45       O          1.35550000  *  119.8695000  *  179.8021000  *    43     3     4
    46       H          1.05320000  *  118.5343000  *  176.3145000  *     4     3     2
    47       H          1.04850000  *  122.8246000  *    0.7249000  *     6     5     4
    48       H          1.04900000  *  121.5178000  * -179.2824000  *     7     6     5
    49       H          1.04880000  *  122.6520000  *   -0.1888000  *    11    10     8
    50       H          1.04850000  *  120.9516000  * -179.1929000  *    12    11    10
    51       H          1.05080000  *  120.0498000  *  178.4214000  *    16    15    20
    52       H          1.05000000  *  120.7394000  *  179.4912000  *    17    16    15
    53       H          1.04990000  *  121.4713000  *   -0.2606000  *    20    15    13
    54       H          1.05000000  *  121.0951000  * -179.8569000  *    22    21    26
    55       H          1.05110000  *  119.7991000  * -179.9793000  *    23    22    21
    56       H          1.05110000  *  119.4810000  *  179.6204000  *    24    23    22
    57       H          1.04970000  *  120.6739000  *  179.6227000  *    25    24    23
    58       H          1.05150000  *  120.1375000  *    0.0000000  *    29    28    27
    59       H          1.04980000  *  120.5563000  * -179.7834000  *    30    29    28
    60       H          1.05060000  *  120.6892000  *  179.8574000  *    33    32    31
    61       H          1.09120000  *  110.1669000  * -175.6118000  *    35    34    32
    62       H          1.09180000  *  110.1247000  *  -55.5465000  *    35    34    32
    63       H          1.09120000  *  110.1314000  *   64.4687000  *    35    34    32
    64       H          1.09160000  *  110.1334000  *   55.2607000  *    36    34    32
    65       H          1.09120000  *  110.1374000  *  175.3076000  *    36    34    32
    66       H          1.09130000  *  110.1530000  *  -64.7967000  *    36    34    32
    67       H          1.04980000  *  121.4142000  *   -0.1344000  *    39    38    31
    68       H          1.05100000  *  119.6252000  * -179.9401000  *    40    39    38
    69       H          1.05130000  *  119.7794000  * -179.9475000  *    41    40    39
    70       H          1.05020000  *  121.0203000  *  179.9054000  *    42    37    38
    71       H          0.94080000  *  121.0852000  *    0.8005000  *    45    43    44
 


          CARTESIAN COORDINATES 

    NO.       ATOM           X           Y           Z

     1         N          0.0000      0.0000      0.0000
     2         C          1.1584      0.0000      0.0000
     3         C          2.5880      0.0092      0.0000
     4         C          3.3027     -1.1353     -0.0051
     5         C          2.7256     -2.4829      0.0208
     6         C          1.6838     -2.9379      0.7476
     7         C          1.3710     -4.3837      0.5960
     8         C          2.1808     -5.0759     -0.2304
     9         S          3.4126     -3.9049     -0.8844
    10         C          2.1009     -6.4978     -0.5426
    11         C          2.9234     -7.1939     -1.3521
    12         C          2.6236     -8.6434     -1.4899
    13         C          1.5626     -9.1015     -0.7917
    14         S          0.8699     -7.6716      0.1044
    15         C          1.0552    -10.4825     -0.7401
    16         C          1.5151    -11.4952     -1.7296
    17         C          1.0756    -12.7683     -1.6882
    18         C          0.1244    -13.1405     -0.6444
    19         C         -0.3099    -12.2261      0.2365
    20         C          0.1633    -10.8445      0.2087
    21         C         -1.2543    -12.8887      1.1284
    22         C         -2.0021    -12.3759      2.2739
    23         C         -2.7966    -13.2330      2.9446
    24         C         -2.8991    -14.6493      2.5297
    25         C         -2.2032    -15.1100      1.4716
    26         C         -1.3482    -14.1721      0.7423
    27         N         -0.5071    -14.3835     -0.3810
    28         C         -0.1493    -15.6395     -0.9159
    29         C          1.1272    -16.0772     -0.8563
    30         C          1.4972    -17.3960     -1.3975
    31         C          0.5305    -18.1475     -1.9447
    32         C         -0.8592    -17.6894     -2.0180
    33         C         -1.1959    -16.4840     -1.5283
    34         C         -1.7723    -18.7192     -2.6760
    35         C         -2.8579    -19.2112     -1.6806
    36         C         -2.3919    -18.1583     -3.9845
    37         C         -0.7648    -19.8248     -2.9772
    38         C          0.5903    -19.4721     -2.5411
    39         C          1.6301    -20.3030     -2.7093
    40         C          1.3787    -21.6043     -3.3524
    41         C          0.1367    -21.9397     -3.7560
    42         C         -0.9938    -21.0129     -3.5636
    43         C          3.2625      1.3207     -0.0383
    44         O          4.4918      1.4053     -0.0541
    45         O          2.5262      2.4588     -0.0366
    46         H          4.3523     -1.0727     -0.0643
    47         H          1.1392     -2.3279      1.4039
    48         H          0.5728     -4.8289      1.1107
    49         H          3.7305     -6.7512     -1.8547
    50         H          3.2201     -9.2628     -2.0898
    51         H          2.1892    -11.2216     -2.4878
    52         H          1.4011    -13.4717     -2.3965
    53         H         -0.1824    -10.1599      0.9257
    54         H         -1.9238    -11.3705      2.5665
    55         H         -3.3480    -12.8947      3.7731
    56         H         -3.5200    -15.3030      3.0701
    57         H         -2.2726    -16.1166      1.1823
    58         H          1.8691    -15.4819     -0.4082
    59         H          2.4896    -17.7345     -1.3465
    60         H         -2.1887    -16.1437     -1.5771
    61         H         -3.4554    -20.0023     -2.1364
    62         H         -2.3883    -19.6010     -0.7753
    63         H         -3.5183    -18.3866     -1.4075
    64         H         -1.6031    -17.8191     -4.6584
    65         H         -2.9750    -18.9324     -4.4860
    66         H         -3.0487    -17.3165     -3.7588
    67         H          2.5963    -20.0414     -2.3929
    68         H          2.1748    -22.2753     -3.4960
    69         H         -0.0299    -22.8717     -4.2130
    70         H         -1.9578    -21.2830     -3.8808
    71         H          2.9386      3.3041     -0.0585

  H: (RM1): G.B. ROCHA, R.O. FREIRE, A.M.SIMAS, J.J.P. STEWART, J. COMP. CHEM. 27, 1101 (2006)
  C: (RM1): G.B. ROCHA, R.O. FREIRE, A.M.SIMAS, J.J.P. STEWART, J. COMP. CHEM. 27, 1101 (2006)
  N: (RM1): G.B. ROCHA, R.O. FREIRE, A.M.SIMAS, J.J.P. STEWART, J. COMP. CHEM. 27, 1101 (2006)
  O: (RM1): G.B. ROCHA, R.O. FREIRE, A.M.SIMAS, J.J.P. STEWART, J. COMP. CHEM. 27, 1101 (2006)
  S: (RM1): G.B. ROCHA, R.O. FREIRE, A.M.SIMAS, J.J.P. STEWART, J. COMP. CHEM. 27, 1101 (2006)

           Empirical Formula: C39 H26 N2 O2 S2  =    71 atoms



      MOLECULAR POINT GROUP   :   C1  


      RHF CALCULATION, NO. OF DOUBLY OCCUPIED LEVELS = 108


          Geometry optimization using L-BFGS
 CYCLE:     1 TIME:   0.453 TIME LEFT:  2.00D  GRAD.:   661.659 HEAT:  179.0343
 CYCLE:     2 TIME:   0.227 TIME LEFT:  2.00D  GRAD.:   507.856 HEAT:  175.2400
 CYCLE:     3 TIME:   0.266 TIME LEFT:  2.00D  GRAD.:   494.838 HEAT:  165.5444
 CYCLE:     4 TIME:   0.227 TIME LEFT:  2.00D  GRAD.:   510.582 HEAT:  175.2400
 CYCLE:     5 TIME:   0.219 TIME LEFT:  2.00D  GRAD.:   498.376 HEAT:  165.5428
 CYCLE:     6 TIME:   0.180 TIME LEFT:  2.00D  GRAD.:   413.327 HEAT:  160.1570
 CYCLE:     7 TIME:   0.188 TIME LEFT:  2.00D  GRAD.:   429.762 HEAT:  149.3384
 CYCLE:     8 TIME:   0.172 TIME LEFT:  2.00D  GRAD.:   413.579 HEAT:  134.4143
 CYCLE:     9 TIME:   0.180 TIME LEFT:  2.00D  GRAD.:   668.763 HEAT:  128.4012
 CYCLE:    10 TIME:   0.203 TIME LEFT:  2.00D  GRAD.:   157.605 HEAT:  118.1662
 CYCLE:    11 TIME:   0.180 TIME LEFT:  2.00D  GRAD.:    96.318 HEAT:  117.3703
 CYCLE:    12 TIME:   0.180 TIME LEFT:  2.00D  GRAD.:   127.165 HEAT:  116.4071
 CYCLE:    13 TIME:   0.188 TIME LEFT:  2.00D  GRAD.:   141.507 HEAT:  115.1067
 CYCLE:    14 TIME:   0.172 TIME LEFT:  2.00D  GRAD.:   147.496 HEAT:  113.2511
 CYCLE:    15 TIME:   0.219 TIME LEFT:  2.00D  GRAD.:   323.415 HEAT:  114.3321
 CYCLE:    16 TIME:   0.188 TIME LEFT:  2.00D  GRAD.:    58.194 HEAT:  112.2939
 CYCLE:    17 TIME:   0.133 TIME LEFT:  2.00D  GRAD.:    48.770 HEAT:  112.1135
 CYCLE:    18 TIME:   0.156 TIME LEFT:  2.00D  GRAD.:   232.517 HEAT:  111.6590
 CYCLE:    19 TIME:   0.164 TIME LEFT:  2.00D  GRAD.:    76.249 HEAT:  111.1337
 CYCLE:    20 TIME:   0.172 TIME LEFT:  2.00D  GRAD.:    45.092 HEAT:  110.8661
 CYCLE:    21 TIME:   0.188 TIME LEFT:  2.00D  GRAD.:    36.959 HEAT:  110.6638
 CYCLE:    22 TIME:   0.180 TIME LEFT:  2.00D  GRAD.:    35.707 HEAT:  110.4699
 CYCLE:    23 TIME:   0.211 TIME LEFT:  2.00D  GRAD.:   128.173 HEAT:  110.3697
 CYCLE:    24 TIME:   0.195 TIME LEFT:  2.00D  GRAD.:    26.646 HEAT:  109.9809
 CYCLE:    25 TIME:   0.156 TIME LEFT:  2.00D  GRAD.:    23.409 HEAT:  109.9315
 CYCLE:    26 TIME:   0.164 TIME LEFT:  2.00D  GRAD.:    27.243 HEAT:  109.8001
 CYCLE:    27 TIME:   0.188 TIME LEFT:  2.00D  GRAD.:    45.671 HEAT:  109.6803
 CYCLE:    28 TIME:   0.180 TIME LEFT:  2.00D  GRAD.:    26.819 HEAT:  109.5951
 CYCLE:    29 TIME:   0.133 TIME LEFT:  2.00D  GRAD.:    17.368 HEAT:  109.5532
 CYCLE:    30 TIME:   0.141 TIME LEFT:  2.00D  GRAD.:    24.904 HEAT:  109.4964
 CYCLE:    31 TIME:   0.172 TIME LEFT:  2.00D  GRAD.:    39.509 HEAT:  109.4638
 CYCLE:    32 TIME:   0.188 TIME LEFT:  2.00D  GRAD.:    31.429 HEAT:  109.4240
 CYCLE:    33 TIME:   0.172 TIME LEFT:  2.00D  GRAD.:    18.325 HEAT:  109.3975
 CYCLE:    34 TIME:   0.180 TIME LEFT:  2.00D  GRAD.:    13.265 HEAT:  109.3789
 CYCLE:    35 TIME:   0.164 TIME LEFT:  2.00D  GRAD.:    11.626 HEAT:  109.3614
 CYCLE:    36 TIME:   0.180 TIME LEFT:  2.00D  GRAD.:     9.272 HEAT:  109.3471
 CYCLE:    37 TIME:   0.156 TIME LEFT:  2.00D  GRAD.:    15.904 HEAT:  109.3319
 CYCLE:    38 TIME:   0.172 TIME LEFT:  2.00D  GRAD.:    10.004 HEAT:  109.3190
 CYCLE:    39 TIME:   0.141 TIME LEFT:  2.00D  GRAD.:     9.364 HEAT:  109.3112
 CYCLE:    40 TIME:   0.148 TIME LEFT:  2.00D  GRAD.:    10.230 HEAT:  109.2952
 CYCLE:    41 TIME:   0.141 TIME LEFT:  2.00D  GRAD.:    23.784 HEAT:  109.2872
 CYCLE:    42 TIME:   0.148 TIME LEFT:  2.00D  GRAD.:     8.355 HEAT:  109.2719
 CYCLE:    43 TIME:   0.141 TIME LEFT:  2.00D  GRAD.:     7.864 HEAT:  109.2638
 CYCLE:    44 TIME:   0.172 TIME LEFT:  2.00D  GRAD.:    10.648 HEAT:  109.2502
 CYCLE:    45 TIME:   0.172 TIME LEFT:  2.00D  GRAD.:    31.030 HEAT:  109.2348
 CYCLE:    46 TIME:   0.156 TIME LEFT:  2.00D  GRAD.:    12.606 HEAT:  109.2186
 CYCLE:    47 TIME:   0.148 TIME LEFT:  2.00D  GRAD.:     8.079 HEAT:  109.2107
 CYCLE:    48 TIME:   0.148 TIME LEFT:  2.00D  GRAD.:    11.151 HEAT:  109.2017
 CYCLE:    49 TIME:   0.125 TIME LEFT:  2.00D  GRAD.:     8.616 HEAT:  109.1927
 CYCLE:    50 TIME:   0.148 TIME LEFT:  2.00D  GRAD.:     9.267 HEAT:  109.1745
 CYCLE:    51 TIME:   0.141 TIME LEFT:  2.00D  GRAD.:    20.961 HEAT:  109.1708
 CYCLE:    52 TIME:   0.133 TIME LEFT:  2.00D  GRAD.:     7.308 HEAT:  109.1631
 CYCLE:    53 TIME:   0.148 TIME LEFT:  2.00D  GRAD.:     5.459 HEAT:  109.1583
 CYCLE:    54 TIME:   0.156 TIME LEFT:  2.00D  GRAD.:     6.638 HEAT:  109.1522
 CYCLE:    55 TIME:   0.156 TIME LEFT:  2.00D  GRAD.:    12.046 HEAT:  109.1452
 CYCLE:    56 TIME:   0.133 TIME LEFT:  2.00D  GRAD.:    32.332 HEAT:  109.1452
 CYCLE:    57 TIME:   0.148 TIME LEFT:  2.00D  GRAD.:    15.870 HEAT:  109.1249
 CYCLE:    58 TIME:   0.188 TIME LEFT:  2.00D  GRAD.:    17.739 HEAT:  109.1264
 CYCLE:    59 TIME:   0.156 TIME LEFT:  2.00D  GRAD.:     5.816 HEAT:  109.1151
 CYCLE:    60 TIME:   0.172 TIME LEFT:  2.00D  GRAD.:     9.699 HEAT:  109.1122
 CYCLE:    61 TIME:   0.188 TIME LEFT:  2.00D  GRAD.:     7.128 HEAT:  109.1056
 CYCLE:    62 TIME:   0.195 TIME LEFT:  2.00D  GRAD.:     8.630 HEAT:  109.0979
 CYCLE:    63 TIME:   0.164 TIME LEFT:  2.00D  GRAD.:    30.005 HEAT:  109.0945
 CYCLE:    64 TIME:   0.180 TIME LEFT:  2.00D  GRAD.:     8.300 HEAT:  109.0850
 CYCLE:    65 TIME:   0.156 TIME LEFT:  2.00D  GRAD.:     6.045 HEAT:  109.0820
 CYCLE:    66 TIME:   0.141 TIME LEFT:  2.00D  GRAD.:     5.495 HEAT:  109.0788
 CYCLE:    67 TIME:   0.156 TIME LEFT:  2.00D  GRAD.:     7.495 HEAT:  109.0697
 CYCLE:    68 TIME:   0.195 TIME LEFT:  2.00D  GRAD.:    28.406 HEAT:  109.0691
 CYCLE:    69 TIME:   0.172 TIME LEFT:  2.00D  GRAD.:     6.234 HEAT:  109.0577
 CYCLE:    70 TIME:   0.188 TIME LEFT:  2.00D  GRAD.:    11.134 HEAT:  109.0546
 CYCLE:    71 TIME:   0.172 TIME LEFT:  2.00D  GRAD.:     7.146 HEAT:  109.0485
 CYCLE:    72 TIME:   0.180 TIME LEFT:  2.00D  GRAD.:    12.924 HEAT:  109.0354
 CYCLE:    73 TIME:   0.141 TIME LEFT:  2.00D  GRAD.:    11.026 HEAT:  109.0297
 CYCLE:    74 TIME:   0.133 TIME LEFT:  2.00D  GRAD.:     7.280 HEAT:  109.0226
 CYCLE:    75 TIME:   0.141 TIME LEFT:  2.00D  GRAD.:    10.245 HEAT:  109.0140
 CYCLE:    76 TIME:   0.141 TIME LEFT:  2.00D  GRAD.:    14.244 HEAT:  109.0015
 CYCLE:    77 TIME:   0.141 TIME LEFT:  2.00D  GRAD.:    20.937 HEAT:  108.9912
 CYCLE:    78 TIME:   0.188 TIME LEFT:  2.00D  GRAD.:    19.426 HEAT:  108.9804
 CYCLE:    79 TIME:   0.164 TIME LEFT:  2.00D  GRAD.:     6.274 HEAT:  108.9746
 CYCLE:    80 TIME:   0.141 TIME LEFT:  2.00D  GRAD.:     6.776 HEAT:  108.9720
 CYCLE:    81 TIME:   0.148 TIME LEFT:  2.00D  GRAD.:    11.032 HEAT:  108.9676
 CYCLE:    82 TIME:   0.156 TIME LEFT:  2.00D  GRAD.:    17.624 HEAT:  108.9616
 CYCLE:    83 TIME:   0.164 TIME LEFT:  2.00D  GRAD.:    10.839 HEAT:  108.9533
 CYCLE:    84 TIME:   0.164 TIME LEFT:  2.00D  GRAD.:     8.399 HEAT:  108.9424
 CYCLE:    85 TIME:   0.180 TIME LEFT:  2.00D  GRAD.:     8.403 HEAT:  108.9360
 CYCLE:    86 TIME:   0.188 TIME LEFT:  2.00D  GRAD.:    13.163 HEAT:  108.9282
 CYCLE:    87 TIME:   0.195 TIME LEFT:  2.00D  GRAD.:    12.305 HEAT:  108.9124
 CYCLE:    88 TIME:   0.203 TIME LEFT:  2.00D  GRAD.:    25.240 HEAT:  108.9002
 CYCLE:    89 TIME:   0.125 TIME LEFT:  2.00D  GRAD.:     9.136 HEAT:  108.8895
 CYCLE:    90 TIME:   0.172 TIME LEFT:  2.00D  GRAD.:    24.154 HEAT:  108.8851
 CYCLE:    91 TIME:   0.188 TIME LEFT:  2.00D  GRAD.:    13.500 HEAT:  108.8779
 CYCLE:    92 TIME:   0.172 TIME LEFT:  2.00D  GRAD.:     8.753 HEAT:  108.8691
 CYCLE:    93 TIME:   0.172 TIME LEFT:  2.00D  GRAD.:    11.336 HEAT:  108.8475
 CYCLE:    94 TIME:   0.156 TIME LEFT:  2.00D  GRAD.:    15.840 HEAT:  108.8325
 CYCLE:    95 TIME:   0.156 TIME LEFT:  2.00D  GRAD.:    21.969 HEAT:  108.8204
 CYCLE:    96 TIME:   0.164 TIME LEFT:  2.00D  GRAD.:    12.206 HEAT:  108.7962
 CYCLE:    97 TIME:   0.156 TIME LEFT:  2.00D  GRAD.:    10.538 HEAT:  108.7814
 CYCLE:    98 TIME:   0.156 TIME LEFT:  2.00D  GRAD.:    27.282 HEAT:  108.7736
 CYCLE:    99 TIME:   0.156 TIME LEFT:  2.00D  GRAD.:    10.254 HEAT:  108.7504
 CYCLE:   100 TIME:   0.164 TIME LEFT:  2.00D  GRAD.:     7.959 HEAT:  108.7430
 CYCLE:   101 TIME:   0.148 TIME LEFT:  2.00D  GRAD.:    14.413 HEAT:  108.7342
 CYCLE:   102 TIME:   0.141 TIME LEFT:  2.00D  GRAD.:    24.579 HEAT:  108.7258
 CYCLE:   103 TIME:   0.141 TIME LEFT:  2.00D  GRAD.:    16.527 HEAT:  108.7122
 CYCLE:   104 TIME:   0.148 TIME LEFT:  2.00D  GRAD.:    16.022 HEAT:  108.7085
 CYCLE:   105 TIME:   0.148 TIME LEFT:  2.00D  GRAD.:    55.559 HEAT:  108.7302
 CYCLE:   106 TIME:   0.180 TIME LEFT:  2.00D  GRAD.:    10.362 HEAT:  108.6922
 CYCLE:   107 TIME:   0.195 TIME LEFT:  2.00D  GRAD.:     7.814 HEAT:  108.6861
 CYCLE:   108 TIME:   0.188 TIME LEFT:  2.00D  GRAD.:     8.688 HEAT:  108.6716
 CYCLE:   109 TIME:   0.188 TIME LEFT:  2.00D  GRAD.:    19.506 HEAT:  108.6548
 CYCLE:   110 TIME:   0.148 TIME LEFT:  2.00D  GRAD.:    13.264 HEAT:  108.6362
 CYCLE:   111 TIME:   0.180 TIME LEFT:  2.00D  GRAD.:    10.190 HEAT:  108.6264
 CYCLE:   112 TIME:   0.188 TIME LEFT:  2.00D  GRAD.:    13.349 HEAT:  108.6056
 CYCLE:   113 TIME:   0.195 TIME LEFT:  2.00D  GRAD.:    49.719 HEAT:  108.6478
 CYCLE:   114 TIME:   0.195 TIME LEFT:  2.00D  GRAD.:     9.287 HEAT:  108.5744
 CYCLE:   115 TIME:   0.203 TIME LEFT:  2.00D  GRAD.:     6.856 HEAT:  108.5683
 CYCLE:   116 TIME:   0.195 TIME LEFT:  2.00D  GRAD.:    15.940 HEAT:  108.5544
 CYCLE:   117 TIME:   0.180 TIME LEFT:  2.00D  GRAD.:    49.987 HEAT:  108.5617
 CYCLE:   118 TIME:   0.180 TIME LEFT:  2.00D  GRAD.:     9.381 HEAT:  108.5395
 CYCLE:   119 TIME:   0.188 TIME LEFT:  2.00D  GRAD.:     8.162 HEAT:  108.5346
 CYCLE:   120 TIME:   0.188 TIME LEFT:  2.00D  GRAD.:     6.491 HEAT:  108.5265
 CYCLE:   121 TIME:   0.195 TIME LEFT:  2.00D  GRAD.:    14.713 HEAT:  108.5103
 CYCLE:   122 TIME:   0.141 TIME LEFT:  2.00D  GRAD.:    33.181 HEAT:  108.5253
 CYCLE:   123 TIME:   0.180 TIME LEFT:  2.00D  GRAD.:     7.079 HEAT:  108.5014
 CYCLE:   124 TIME:   0.148 TIME LEFT:  2.00D  GRAD.:     5.976 HEAT:  108.4982
 CYCLE:   125 TIME:   0.133 TIME LEFT:  2.00D  GRAD.:     9.627 HEAT:  108.4885
 CYCLE:   126 TIME:   0.148 TIME LEFT:  2.00D  GRAD.:    13.268 HEAT:  108.4807
 CYCLE:   127 TIME:   0.164 TIME LEFT:  2.00D  GRAD.:     7.997 HEAT:  108.4743
 CYCLE:   128 TIME:   0.172 TIME LEFT:  2.00D  GRAD.:     6.813 HEAT:  108.4663
 CYCLE:   129 TIME:   0.148 TIME LEFT:  2.00D  GRAD.:     6.656 HEAT:  108.4597
 CYCLE:   130 TIME:   0.141 TIME LEFT:  2.00D  GRAD.:     6.536 HEAT:  108.4496
 CYCLE:   131 TIME:   0.133 TIME LEFT:  2.00D  GRAD.:    20.832 HEAT:  108.4524
 CYCLE:   132 TIME:   0.148 TIME LEFT:  2.00D  GRAD.:     8.491 HEAT:  108.4422
 CYCLE:   133 TIME:   0.133 TIME LEFT:  2.00D  GRAD.:    10.319 HEAT:  108.4390
 CYCLE:   134 TIME:   0.141 TIME LEFT:  2.00D  GRAD.:     6.627 HEAT:  108.4356
 CYCLE:   135 TIME:   0.133 TIME LEFT:  2.00D  GRAD.:     5.954 HEAT:  108.4299
 CYCLE:   136 TIME:   0.141 TIME LEFT:  2.00D  GRAD.:     9.938 HEAT:  108.4253
 CYCLE:   137 TIME:   0.133 TIME LEFT:  2.00D  GRAD.:     5.936 HEAT:  108.4210
 CYCLE:   138 TIME:   0.148 TIME LEFT:  2.00D  GRAD.:     5.587 HEAT:  108.4167
 CYCLE:   139 TIME:   0.141 TIME LEFT:  2.00D  GRAD.:    12.406 HEAT:  108.4118
 CYCLE:   140 TIME:   0.133 TIME LEFT:  2.00D  GRAD.:     4.955 HEAT:  108.4083
 CYCLE:   141 TIME:   0.156 TIME LEFT:  2.00D  GRAD.:     4.560 HEAT:  108.4057
 CYCLE:   142 TIME:   0.180 TIME LEFT:  2.00D  GRAD.:     5.460 HEAT:  108.4036
 CYCLE:   143 TIME:   0.180 TIME LEFT:  2.00D  GRAD.:     8.191 HEAT:  108.4013
 CYCLE:   144 TIME:   0.172 TIME LEFT:  2.00D  GRAD.:     3.781 HEAT:  108.3982
 CYCLE:   145 TIME:   0.180 TIME LEFT:  2.00D  GRAD.:     7.503 HEAT:  108.3950
 CYCLE:   146 TIME:   0.148 TIME LEFT:  2.00D  GRAD.:     5.261 HEAT:  108.3925
 CYCLE:   147 TIME:   0.125 TIME LEFT:  2.00D  GRAD.:     7.791 HEAT:  108.3900
 CYCLE:   148 TIME:   0.141 TIME LEFT:  2.00D  GRAD.:     6.453 HEAT:  108.3882
 CYCLE:   149 TIME:   0.141 TIME LEFT:  2.00D  GRAD.:     6.226 HEAT:  108.3867
 CYCLE:   150 TIME:   0.156 TIME LEFT:  2.00D  GRAD.:     5.888 HEAT:  108.3853
 CYCLE:   151 TIME:   0.180 TIME LEFT:  2.00D  GRAD.:     3.214 HEAT:  108.3825
 CYCLE:   152 TIME:   0.172 TIME LEFT:  2.00D  GRAD.:     3.661 HEAT:  108.3806
 CYCLE:   153 TIME:   0.141 TIME LEFT:  2.00D  GRAD.:     9.099 HEAT:  108.3789
 CYCLE:   154 TIME:   0.156 TIME LEFT:  2.00D  GRAD.:     5.084 HEAT:  108.3768
 CYCLE:   155 TIME:   0.117 TIME LEFT:  2.00D  GRAD.:     3.422 HEAT:  108.3747
 CYCLE:   156 TIME:   0.148 TIME LEFT:  2.00D  GRAD.:     3.746 HEAT:  108.3732
 CYCLE:   157 TIME:   0.141 TIME LEFT:  2.00D  GRAD.:     4.254 HEAT:  108.3709
 CYCLE:   158 TIME:   0.133 TIME LEFT:  2.00D  GRAD.:     9.568 HEAT:  108.3693
 CYCLE:   159 TIME:   0.125 TIME LEFT:  2.00D  GRAD.:     4.266 HEAT:  108.3664
 CYCLE:   160 TIME:   0.133 TIME LEFT:  2.00D  GRAD.:     2.864 HEAT:  108.3656
 CYCLE:   161 TIME:   0.141 TIME LEFT:  2.00D  GRAD.:     9.423 HEAT:  108.3639
 CYCLE:   162 TIME:   0.133 TIME LEFT:  2.00D  GRAD.:     3.627 HEAT:  108.3624
 CYCLE:   163 TIME:   0.141 TIME LEFT:  2.00D  GRAD.:     2.294 HEAT:  108.3612
 CYCLE:   164 TIME:   0.148 TIME LEFT:  2.00D  GRAD.:     4.865 HEAT:  108.3592
 CYCLE:   165 TIME:   0.141 TIME LEFT:  2.00D  GRAD.:     3.624 HEAT:  108.3577
 CYCLE:   166 TIME:   0.141 TIME LEFT:  2.00D  GRAD.:     2.524 HEAT:  108.3566
 CYCLE:   167 TIME:   0.148 TIME LEFT:  2.00D  GRAD.:    14.798 HEAT:  108.3573
 CYCLE:   168 TIME:   0.148 TIME LEFT:  2.00D  GRAD.:     2.226 HEAT:  108.3546
 CYCLE:   169 TIME:   0.133 TIME LEFT:  2.00D  GRAD.:     1.993 HEAT:  108.3540
 CYCLE:   170 TIME:   0.148 TIME LEFT:  2.00D  GRAD.:     4.241 HEAT:  108.3528
 CYCLE:   171 TIME:   0.164 TIME LEFT:  2.00D  GRAD.:    13.033 HEAT:  108.3542
 CYCLE:   172 TIME:   0.188 TIME LEFT:  2.00D  GRAD.:     2.333 HEAT:  108.3515
 CYCLE:   173 TIME:   0.195 TIME LEFT:  2.00D  GRAD.:     2.387 HEAT:  108.3508
 CYCLE:   174 TIME:   0.164 TIME LEFT:  2.00D  GRAD.:     1.814 HEAT:  108.3499
 CYCLE:   175 TIME:   0.148 TIME LEFT:  2.00D  GRAD.:     3.596 HEAT:  108.3492
 CYCLE:   176 TIME:   0.141 TIME LEFT:  2.00D  GRAD.:     4.280 HEAT:  108.3487
 CYCLE:   177 TIME:   0.141 TIME LEFT:  2.00D  GRAD.:     1.930 HEAT:  108.3484
 CYCLE:   178 TIME:   0.148 TIME LEFT:  2.00D  GRAD.:     2.788 HEAT:  108.3480
 CYCLE:   179 TIME:   0.164 TIME LEFT:  2.00D  GRAD.:     2.581 HEAT:  108.3474
 CYCLE:   180 TIME:   0.156 TIME LEFT:  2.00D  GRAD.:     1.555 HEAT:  108.3469
 CYCLE:   181 TIME:   0.172 TIME LEFT:  2.00D  GRAD.:     3.799 HEAT:  108.3464
 CYCLE:   182 TIME:   0.164 TIME LEFT:  2.00D  GRAD.:     2.957 HEAT:  108.3459
 CYCLE:   183 TIME:   0.133 TIME LEFT:  2.00D  GRAD.:     1.915 HEAT:  108.3456
 CYCLE:   184 TIME:   0.172 TIME LEFT:  2.00D  GRAD.:     3.777 HEAT:  108.3450
 CYCLE:   185 TIME:   0.172 TIME LEFT:  2.00D  GRAD.:     1.694 HEAT:  108.3444
 CYCLE:   186 TIME:   0.141 TIME LEFT:  2.00D  GRAD.:     1.626 HEAT:  108.3441
 CYCLE:   187 TIME:   0.141 TIME LEFT:  2.00D  GRAD.:     1.709 HEAT:  108.3433
 CYCLE:   188 TIME:   0.133 TIME LEFT:  2.00D  GRAD.:     4.420 HEAT:  108.3428
 CYCLE:   189 TIME:   0.133 TIME LEFT:  2.00D  GRAD.:     2.866 HEAT:  108.3421
 CYCLE:   190 TIME:   0.148 TIME LEFT:  2.00D  GRAD.:     1.459 HEAT:  108.3418
 CYCLE:   191 TIME:   0.164 TIME LEFT:  2.00D  GRAD.:     2.418 HEAT:  108.3415
 CYCLE:   192 TIME:   0.133 TIME LEFT:  2.00D  GRAD.:     1.912 HEAT:  108.3412
 CYCLE:   193 TIME:   0.125 TIME LEFT:  2.00D  GRAD.:     1.577 HEAT:  108.3409
 CYCLE:   194 TIME:   0.125 TIME LEFT:  2.00D  GRAD.:     1.454 HEAT:  108.3405
 CYCLE:   195 TIME:   0.133 TIME LEFT:  2.00D  GRAD.:     2.528 HEAT:  108.3398
 CYCLE:   196 TIME:   0.133 TIME LEFT:  2.00D  GRAD.:     2.235 HEAT:  108.3392
 CYCLE:   197 TIME:   0.133 TIME LEFT:  2.00D  GRAD.:     2.662 HEAT:  108.3387
 CYCLE:   198 TIME:   0.148 TIME LEFT:  2.00D  GRAD.:     1.679 HEAT:  108.3382
 CYCLE:   199 TIME:   0.133 TIME LEFT:  2.00D  GRAD.:     1.531 HEAT:  108.3379
 CYCLE:   200 TIME:   0.141 TIME LEFT:  2.00D  GRAD.:     2.940 HEAT:  108.3372
 CYCLE:   201 TIME:   0.133 TIME LEFT:  2.00D  GRAD.:     2.294 HEAT:  108.3366
 CYCLE:   202 TIME:   0.141 TIME LEFT:  2.00D  GRAD.:     1.728 HEAT:  108.3363
 CYCLE:   203 TIME:   0.141 TIME LEFT:  2.00D  GRAD.:     4.422 HEAT:  108.3362
 CYCLE:   204 TIME:   0.125 TIME LEFT:  2.00D  GRAD.:     1.761 HEAT:  108.3356
 CYCLE:   205 TIME:   0.164 TIME LEFT:  2.00D  GRAD.:     2.461 HEAT:  108.3352
 CYCLE:   206 TIME:   0.141 TIME LEFT:  2.00D  GRAD.:     3.198 HEAT:  108.3348
 CYCLE:   207 TIME:   0.141 TIME LEFT:  2.00D  GRAD.:     1.722 HEAT:  108.3341
 CYCLE:   208 TIME:   0.141 TIME LEFT:  2.00D  GRAD.:     1.468 HEAT:  108.3337
 CYCLE:   209 TIME:   0.156 TIME LEFT:  2.00D  GRAD.:     2.328 HEAT:  108.3334
 CYCLE:   210 TIME:   0.156 TIME LEFT:  2.00D  GRAD.:     9.452 HEAT:  108.3339
 CYCLE:   211 TIME:   0.141 TIME LEFT:  2.00D  GRAD.:     1.287 HEAT:  108.3327
 CYCLE:   212 TIME:   0.148 TIME LEFT:  2.00D  GRAD.:     1.241 HEAT:  108.3326
 CYCLE:   213 TIME:   0.148 TIME LEFT:  2.00D  GRAD.:     3.502 HEAT:  108.3325
 CYCLE:   214 TIME:   0.156 TIME LEFT:  2.00D  GRAD.:     4.839 HEAT:  108.3321
 CYCLE:   215 TIME:   0.148 TIME LEFT:  2.00D  GRAD.:     2.146 HEAT:  108.3317
 CYCLE:   216 TIME:   0.164 TIME LEFT:  2.00D  GRAD.:     1.086 HEAT:  108.3315
 CYCLE:   217 TIME:   0.180 TIME LEFT:  2.00D  GRAD.:     4.113 HEAT:  108.3312
 CYCLE:   218 TIME:   0.172 TIME LEFT:  2.00D  GRAD.:     2.223 HEAT:  108.3310
 CYCLE:   219 TIME:   0.180 TIME LEFT:  2.00D  GRAD.:     2.202 HEAT:  108.3306
 CYCLE:   220 TIME:   0.141 TIME LEFT:  2.00D  GRAD.:     1.681 HEAT:  108.3305
 CYCLE:   221 TIME:   0.172 TIME LEFT:  2.00D  GRAD.:     1.284 HEAT:  108.3303
 CYCLE:   222 TIME:   0.188 TIME LEFT:  2.00D  GRAD.:     1.066 HEAT:  108.3300
 CYCLE:   223 TIME:   0.195 TIME LEFT:  2.00D  GRAD.:     2.302 HEAT:  108.3295
 CYCLE:   224 TIME:   0.172 TIME LEFT:  2.00D  GRAD.:     3.634 HEAT:  108.3294
 CYCLE:   225 TIME:   0.172 TIME LEFT:  2.00D  GRAD.:     1.545 HEAT:  108.3291
 CYCLE:   226 TIME:   0.180 TIME LEFT:  2.00D  GRAD.:     3.126 HEAT:  108.3289
 CYCLE:   227 TIME:   0.172 TIME LEFT:  2.00D  GRAD.:     1.520 HEAT:  108.3287
 CYCLE:   228 TIME:   0.148 TIME LEFT:  2.00D  GRAD.:     1.762 HEAT:  108.3283
 CYCLE:   229 TIME:   0.164 TIME LEFT:  2.00D  GRAD.:     1.722 HEAT:  108.3280
 CYCLE:   230 TIME:   0.133 TIME LEFT:  2.00D  GRAD.:     5.976 HEAT:  108.3280
 CYCLE:   231 TIME:   0.141 TIME LEFT:  2.00D  GRAD.:     1.229 HEAT:  108.3275
 CYCLE:   232 TIME:   0.133 TIME LEFT:  2.00D  GRAD.:     2.053 HEAT:  108.3273
 CYCLE:   233 TIME:   0.133 TIME LEFT:  2.00D  GRAD.:     2.160 HEAT:  108.3270
 CYCLE:   234 TIME:   0.141 TIME LEFT:  2.00D  GRAD.:     4.348 HEAT:  108.3266
 CYCLE:   235 TIME:   0.180 TIME LEFT:  2.00D  GRAD.:     2.145 HEAT:  108.3260
 CYCLE:   236 TIME:   0.219 TIME LEFT:  2.00D  GRAD.:     3.443 HEAT:  108.3265
 CYCLE:   237 TIME:   0.203 TIME LEFT:  2.00D  GRAD.:     2.393 HEAT:  108.3259
 CYCLE:   238 TIME:   0.195 TIME LEFT:  2.00D  GRAD.:     3.855 HEAT:  108.3254
 CYCLE:   239 TIME:   0.148 TIME LEFT:  2.00D  GRAD.:     1.433 HEAT:  108.3253
 CYCLE:   240 TIME:   0.156 TIME LEFT:  2.00D  GRAD.:     5.039 HEAT:  108.3254
 CYCLE:   241 TIME:   0.125 TIME LEFT:  2.00D  GRAD.:     1.655 HEAT:  108.3250
 CYCLE:   242 TIME:   0.141 TIME LEFT:  2.00D  GRAD.:     1.157 HEAT:  108.3249
 CYCLE:   243 TIME:   0.148 TIME LEFT:  2.00D  GRAD.:     1.005 HEAT:  108.3247
 CYCLE:   244 TIME:   0.180 TIME LEFT:  2.00D  GRAD.:     2.554 HEAT:  108.3241
 CYCLE:   245 TIME:   0.148 TIME LEFT:  2.00D  GRAD.:     5.757 HEAT:  108.3241
 CYCLE:   246 TIME:   0.156 TIME LEFT:  2.00D  GRAD.:     1.538 HEAT:  108.3238
 CYCLE:   247 TIME:   0.133 TIME LEFT:  2.00D  GRAD.:     1.678 HEAT:  108.3237
 CYCLE:   248 TIME:   0.148 TIME LEFT:  2.00D  GRAD.:     1.134 HEAT:  108.3235
 CYCLE:   249 TIME:   0.148 TIME LEFT:  2.00D  GRAD.:     1.600 HEAT:  108.3231
 CYCLE:   250 TIME:   0.141 TIME LEFT:  2.00D  GRAD.:     2.852 HEAT:  108.3228
 CYCLE:   251 TIME:   0.133 TIME LEFT:  2.00D  GRAD.:     1.828 HEAT:  108.3224
 CYCLE:   252 TIME:   0.125 TIME LEFT:  2.00D  GRAD.:     1.551 HEAT:  108.3221
 CYCLE:   253 TIME:   0.156 TIME LEFT:  2.00D  GRAD.:     2.053 HEAT:  108.3217
 CYCLE:   254 TIME:   0.141 TIME LEFT:  2.00D  GRAD.:     1.730 HEAT:  108.3212
 CYCLE:   255 TIME:   0.156 TIME LEFT:  2.00D  GRAD.:     2.748 HEAT:  108.3208
 CYCLE:   256 TIME:   0.133 TIME LEFT:  2.00D  GRAD.:     4.035 HEAT:  108.3204
 CYCLE:   257 TIME:   0.164 TIME LEFT:  2.00D  GRAD.:     1.566 HEAT:  108.3202
 CYCLE:   258 TIME:   0.148 TIME LEFT:  2.00D  GRAD.:     9.394 HEAT:  108.3209
 CYCLE:   259 TIME:   0.125 TIME LEFT:  2.00D  GRAD.:     1.842 HEAT:  108.3199
 CYCLE:   260 TIME:   0.156 TIME LEFT:  2.00D  GRAD.:     1.555 HEAT:  108.3197
 CYCLE:   261 TIME:   0.141 TIME LEFT:  2.00D  GRAD.:     1.542 HEAT:  108.3195
 CYCLE:   262 TIME:   0.172 TIME LEFT:  2.00D  GRAD.:    10.396 HEAT:  108.3198
 CYCLE:   263 TIME:   0.148 TIME LEFT:  2.00D  GRAD.:     1.393 HEAT:  108.3189
 CYCLE:   264 TIME:   0.172 TIME LEFT:  2.00D  GRAD.:     1.510 HEAT:  108.3189
 CYCLE:   265 TIME:   0.180 TIME LEFT:  2.00D  GRAD.:     2.355 HEAT:  108.3186
 CYCLE:   266 TIME:   0.172 TIME LEFT:  2.00D  GRAD.:     1.516 HEAT:  108.3183
 CYCLE:   267 TIME:   0.180 TIME LEFT:  2.00D  GRAD.:     0.898 HEAT:  108.3181
 CYCLE:   268 TIME:   0.180 TIME LEFT:  2.00D  GRAD.:     1.657 HEAT:  108.3177
 CYCLE:   269 TIME:   0.148 TIME LEFT:  2.00D  GRAD.:     1.932 HEAT:  108.3174
 CYCLE:   270 TIME:   0.164 TIME LEFT:  2.00D  GRAD.:     1.744 HEAT:  108.3170
 CYCLE:   271 TIME:   0.164 TIME LEFT:  2.00D  GRAD.:     2.146 HEAT:  108.3166
 CYCLE:   272 TIME:   0.156 TIME LEFT:  2.00D  GRAD.:     1.366 HEAT:  108.3162
 CYCLE:   273 TIME:   0.133 TIME LEFT:  2.00D  GRAD.:     2.457 HEAT:  108.3160
 CYCLE:   274 TIME:   0.141 TIME LEFT:  2.00D  GRAD.:     1.391 HEAT:  108.3158
 CYCLE:   275 TIME:   0.133 TIME LEFT:  2.00D  GRAD.:     3.137 HEAT:  108.3160
 CYCLE:   276 TIME:   0.148 TIME LEFT:  2.00D  GRAD.:     2.351 HEAT:  108.3157
 CYCLE:   277 TIME:   0.156 TIME LEFT:  2.00D  GRAD.:     1.023 HEAT:  108.3155
 CYCLE:   278 TIME:   0.148 TIME LEFT:  2.00D  GRAD.:     0.963 HEAT:  108.3153
 CYCLE:   279 TIME:   0.156 TIME LEFT:  2.00D  GRAD.:     1.096 HEAT:  108.3150
 CYCLE:   280 TIME:   0.188 TIME LEFT:  2.00D  GRAD.:     2.020 HEAT:  108.3147
 CYCLE:   281 TIME:   0.227 TIME LEFT:  2.00D  GRAD.:     1.355 HEAT:  108.3145
 CYCLE:   282 TIME:   0.164 TIME LEFT:  2.00D  GRAD.:     1.057 HEAT:  108.3142
 CYCLE:   283 TIME:   0.172 TIME LEFT:  2.00D  GRAD.:     1.256 HEAT:  108.3141
 CYCLE:   284 TIME:   0.156 TIME LEFT:  2.00D  GRAD.:     1.657 HEAT:  108.3139
 CYCLE:   285 TIME:   0.148 TIME LEFT:  2.00D  GRAD.:     6.938 HEAT:  108.3149
 CYCLE:   286 TIME:   0.141 TIME LEFT:  2.00D  GRAD.:     1.218 HEAT:  108.3136
 CYCLE:   287 TIME:   0.164 TIME LEFT:  2.00D  GRAD.:     1.008 HEAT:  108.3134
 CYCLE:   288 TIME:   0.141 TIME LEFT:  2.00D  GRAD.:     2.247 HEAT:  108.3132
 CYCLE:   289 TIME:   0.156 TIME LEFT:  2.00D  GRAD.:     2.775 HEAT:  108.3131
 CYCLE:   290 TIME:   0.141 TIME LEFT:  2.00D  GRAD.:     1.268 HEAT:  108.3130
 CYCLE:   291 TIME:   0.156 TIME LEFT:  2.00D  GRAD.:     1.842 HEAT:  108.3128
 CYCLE:   292 TIME:   0.156 TIME LEFT:  2.00D  GRAD.:     2.768 HEAT:  108.3126
 CYCLE:   293 TIME:   0.141 TIME LEFT:  2.00D  GRAD.:     2.721 HEAT:  108.3123
 CYCLE:   294 TIME:   0.125 TIME LEFT:  2.00D  GRAD.:     3.936 HEAT:  108.3120
 CYCLE:   295 TIME:   0.133 TIME LEFT:  2.00D  GRAD.:     1.409 HEAT:  108.3115
 CYCLE:   296 TIME:   0.141 TIME LEFT:  2.00D  GRAD.:     1.092 HEAT:  108.3114
 CYCLE:   297 TIME:   0.141 TIME LEFT:  2.00D  GRAD.:     1.814 HEAT:  108.3112
 CYCLE:   298 TIME:   0.148 TIME LEFT:  2.00D  GRAD.:     2.354 HEAT:  108.3109
 CYCLE:   299 TIME:   0.141 TIME LEFT:  2.00D  GRAD.:     3.990 HEAT:  108.3106
 CYCLE:   300 TIME:   0.117 TIME LEFT:  2.00D  GRAD.:     1.477 HEAT:  108.3101
 CYCLE:   301 TIME:   0.133 TIME LEFT:  2.00D  GRAD.:     0.728 HEAT:  108.3099
 CYCLE:   302 TIME:   0.148 TIME LEFT:  2.00D  GRAD.:     4.313 HEAT:  108.3099
 CYCLE:   303 TIME:   0.133 TIME LEFT:  2.00D  GRAD.:     2.109 HEAT:  108.3095
 CYCLE:   304 TIME:   0.141 TIME LEFT:  2.00D  GRAD.:     3.603 HEAT:  108.3093
 CYCLE:   305 TIME:   0.133 TIME LEFT:  2.00D  GRAD.:     1.116 HEAT:  108.3091
 CYCLE:   306 TIME:   0.141 TIME LEFT:  2.00D  GRAD.:     1.042 HEAT:  108.3091
 CYCLE:   307 TIME:   0.133 TIME LEFT:  2.00D  GRAD.:     1.795 HEAT:  108.3089
 CYCLE:   308 TIME:   0.141 TIME LEFT:  2.00D  GRAD.:     0.964 HEAT:  108.3086
 CYCLE:   309 TIME:   0.141 TIME LEFT:  2.00D  GRAD.:     1.079 HEAT:  108.3082
 CYCLE:   310 TIME:   0.141 TIME LEFT:  2.00D  GRAD.:     4.408 HEAT:  108.3081
 CYCLE:   311 TIME:   0.125 TIME LEFT:  2.00D  GRAD.:     1.583 HEAT:  108.3077
 CYCLE:   312 TIME:   0.133 TIME LEFT:  2.00D  GRAD.:     0.993 HEAT:  108.3076
 CYCLE:   313 TIME:   0.195 TIME LEFT:  2.00D  GRAD.:     1.775 HEAT:  108.3071
 CYCLE:   314 TIME:   0.188 TIME LEFT:  2.00D  GRAD.:     2.242 HEAT:  108.3068
 CYCLE:   315 TIME:   0.188 TIME LEFT:  2.00D  GRAD.:     3.246 HEAT:  108.3064
 CYCLE:   316 TIME:   0.180 TIME LEFT:  2.00D  GRAD.:     2.107 HEAT:  108.3059
 CYCLE:   317 TIME:   0.211 TIME LEFT:  2.00D  GRAD.:     2.170 HEAT:  108.3055
 CYCLE:   318 TIME:   0.219 TIME LEFT:  2.00D  GRAD.:    16.457 HEAT:  108.3077
 CYCLE:   319 TIME:   0.203 TIME LEFT:  2.00D  GRAD.:     1.935 HEAT:  108.3052
 CYCLE:   320 TIME:   0.219 TIME LEFT:  2.00D  GRAD.:     2.064 HEAT:  108.3051
 CYCLE:   321 TIME:   0.242 TIME LEFT:  2.00D  GRAD.:    11.278 HEAT:  108.3095
 CYCLE:   322 TIME:   0.195 TIME LEFT:  2.00D  GRAD.:     7.443 HEAT:  108.3051
 CYCLE:   323 TIME:   0.180 TIME LEFT:  2.00D  GRAD.:     4.062 HEAT:  108.3045
 CYCLE:   324 TIME:   0.195 TIME LEFT:  2.00D  GRAD.:     1.420 HEAT:  108.3043
 CYCLE:   325 TIME:   0.203 TIME LEFT:  2.00D  GRAD.:     8.257 HEAT:  108.3052
 CYCLE:   326 TIME:   0.180 TIME LEFT:  2.00D  GRAD.:     2.370 HEAT:  108.3038
 CYCLE:   327 TIME:   0.195 TIME LEFT:  2.00D  GRAD.:     1.341 HEAT:  108.3033
 CYCLE:   328 TIME:   0.180 TIME LEFT:  2.00D  GRAD.:     1.258 HEAT:  108.3030
 CYCLE:   329 TIME:   0.203 TIME LEFT:  2.00D  GRAD.:     2.665 HEAT:  108.3024
 CYCLE:   330 TIME:   0.188 TIME LEFT:  2.00D  GRAD.:     6.004 HEAT:  108.3020
 CYCLE:   331 TIME:   0.188 TIME LEFT:  2.00D  GRAD.:     2.141 HEAT:  108.3015
 CYCLE:   332 TIME:   0.172 TIME LEFT:  2.00D  GRAD.:    11.253 HEAT:  108.3020
 CYCLE:   333 TIME:   0.156 TIME LEFT:  2.00D  GRAD.:     2.092 HEAT:  108.3009
 CYCLE:   334 TIME:   0.188 TIME LEFT:  2.00D  GRAD.:     1.458 HEAT:  108.3004
 CYCLE:   335 TIME:   0.188 TIME LEFT:  2.00D  GRAD.:     2.323 HEAT:  108.3001
 CYCLE:   336 TIME:   0.188 TIME LEFT:  2.00D  GRAD.:     2.974 HEAT:  108.2997
 CYCLE:   337 TIME:   0.188 TIME LEFT:  2.00D  GRAD.:     4.303 HEAT:  108.2986
 CYCLE:   338 TIME:   0.180 TIME LEFT:  2.00D  GRAD.:     2.897 HEAT:  108.2972
 CYCLE:   339 TIME:   0.180 TIME LEFT:  2.00D  GRAD.:     2.734 HEAT:  108.2960
 CYCLE:   340 TIME:   0.172 TIME LEFT:  2.00D  GRAD.:     4.896 HEAT:  108.2944
 CYCLE:   341 TIME:   0.164 TIME LEFT:  2.00D  GRAD.:     2.320 HEAT:  108.2932
 CYCLE:   342 TIME:   0.188 TIME LEFT:  2.00D  GRAD.:     4.912 HEAT:  108.2923
 CYCLE:   343 TIME:   0.180 TIME LEFT:  2.00D  GRAD.:     7.501 HEAT:  108.2938
 CYCLE:   344 TIME:   0.203 TIME LEFT:  2.00D  GRAD.:     3.051 HEAT:  108.2909
 CYCLE:   345 TIME:   0.172 TIME LEFT:  2.00D  GRAD.:     8.442 HEAT:  108.2923
 CYCLE:   346 TIME:   0.188 TIME LEFT:  2.00D  GRAD.:     1.256 HEAT:  108.2906
 CYCLE:   347 TIME:   0.195 TIME LEFT:  2.00D  GRAD.:     1.265 HEAT:  108.2901
 CYCLE:   348 TIME:   0.211 TIME LEFT:  2.00D  GRAD.:     1.950 HEAT:  108.2874
 CYCLE:   349 TIME:   0.203 TIME LEFT:  2.00D  GRAD.:     4.339 HEAT:  108.2847
 CYCLE:   350 TIME:   0.203 TIME LEFT:  2.00D  GRAD.:     4.411 HEAT:  108.2821
 CYCLE:   351 TIME:   0.188 TIME LEFT:  2.00D  GRAD.:     4.265 HEAT:  108.2845
 CYCLE:   352 TIME:   0.203 TIME LEFT:  2.00D  GRAD.:    31.247 HEAT:  108.2942
 CYCLE:   353 TIME:   0.195 TIME LEFT:  2.00D  GRAD.:    82.001 HEAT:  108.3582
 CYCLE:   354 TIME:   0.188 TIME LEFT:  2.00D  GRAD.:    11.713 HEAT:  108.2847
 CYCLE:   355 TIME:   0.203 TIME LEFT:  2.00D  GRAD.:    15.903 HEAT:  108.2823
 CYCLE:   356 TIME:   0.188 TIME LEFT:  2.00D  GRAD.:    17.914 HEAT:  108.2846
 CYCLE:   357 TIME:   0.203 TIME LEFT:  2.00D  GRAD.:     1.931 HEAT:  108.2769
 CYCLE:   358 TIME:   0.195 TIME LEFT:  2.00D  GRAD.:     8.476 HEAT:  108.2785
 CYCLE:   359 TIME:   0.188 TIME LEFT:  2.00D  GRAD.:     1.554 HEAT:  108.2769
 CYCLE:   360 TIME:   0.180 TIME LEFT:  2.00D  GRAD.:     1.587 HEAT:  108.2764
 CYCLE:   361 TIME:   0.195 TIME LEFT:  2.00D  GRAD.:     1.555 HEAT:  108.2759
 CYCLE:   362 TIME:   0.211 TIME LEFT:  2.00D  GRAD.:    10.055 HEAT:  108.2693
 CYCLE:   363 TIME:   0.203 TIME LEFT:  2.00D  GRAD.:    12.834 HEAT:  108.2643
 CYCLE:   364 TIME:   0.195 TIME LEFT:  2.00D  GRAD.:     7.360 HEAT:  108.2682
 CYCLE:   365 TIME:   0.164 TIME LEFT:  2.00D  GRAD.:    29.299 HEAT:  108.2709
 CYCLE:   366 TIME:   0.242 TIME LEFT:  2.00D  GRAD.:    12.778 HEAT:  108.2582
 CYCLE:   367 TIME:   0.195 TIME LEFT:  2.00D  GRAD.:     4.459 HEAT:  108.2585
 CYCLE:   368 TIME:   0.195 TIME LEFT:  2.00D  GRAD.:    18.514 HEAT:  108.2571
 CYCLE:   369 TIME:   0.188 TIME LEFT:  2.00D  GRAD.:     7.546 HEAT:  108.2554
 CYCLE:   370 TIME:   0.180 TIME LEFT:  2.00D  GRAD.:     3.992 HEAT:  108.2541
 CYCLE:   371 TIME:   0.180 TIME LEFT:  2.00D  GRAD.:     4.005 HEAT:  108.2531
 CYCLE:   372 TIME:   0.188 TIME LEFT:  2.00D  GRAD.:     4.200 HEAT:  108.2515
 CYCLE:   373 TIME:   0.195 TIME LEFT:  2.00D  GRAD.:    20.568 HEAT:  108.2699
 CYCLE:   374 TIME:   0.195 TIME LEFT:  2.00D  GRAD.:    16.921 HEAT:  108.2504
 CYCLE:   375 TIME:   0.188 TIME LEFT:  2.00D  GRAD.:     7.089 HEAT:  108.2463
 CYCLE:   376 TIME:   0.180 TIME LEFT:  2.00D  GRAD.:     6.653 HEAT:  108.2455
 CYCLE:   377 TIME:   0.195 TIME LEFT:  2.00D  GRAD.:    37.575 HEAT:  108.2645
 CYCLE:   378 TIME:   0.180 TIME LEFT:  2.00D  GRAD.:     2.869 HEAT:  108.2435
 CYCLE:   379 TIME:   0.188 TIME LEFT:  2.00D  GRAD.:     2.466 HEAT:  108.2428
 CYCLE:   380 TIME:   0.188 TIME LEFT:  2.00D  GRAD.:    15.943 HEAT:  108.2459
 CYCLE:   381 TIME:   0.180 TIME LEFT:  2.00D  GRAD.:     2.419 HEAT:  108.2409
 CYCLE:   382 TIME:   0.180 TIME LEFT:  2.00D  GRAD.:     2.272 HEAT:  108.2404
 CYCLE:   383 TIME:   0.188 TIME LEFT:  2.00D  GRAD.:     1.918 HEAT:  108.2396
 CYCLE:   384 TIME:   0.195 TIME LEFT:  2.00D  GRAD.:     6.666 HEAT:  108.2380
 CYCLE:   385 TIME:   0.188 TIME LEFT:  2.00D  GRAD.:    12.158 HEAT:  108.2372
 CYCLE:   386 TIME:   0.172 TIME LEFT:  2.00D  GRAD.:     3.439 HEAT:  108.2359
 CYCLE:   387 TIME:   0.195 TIME LEFT:  2.00D  GRAD.:     2.043 HEAT:  108.2348
 CYCLE:   388 TIME:   0.172 TIME LEFT:  2.00D  GRAD.:     2.068 HEAT:  108.2344
 CYCLE:   389 TIME:   0.203 TIME LEFT:  2.00D  GRAD.:    14.924 HEAT:  108.2366
 CYCLE:   390 TIME:   0.180 TIME LEFT:  2.00D  GRAD.:     4.945 HEAT:  108.2345
 CYCLE:   391 TIME:   0.195 TIME LEFT:  2.00D  GRAD.:     3.316 HEAT:  108.2320
 CYCLE:   392 TIME:   0.172 TIME LEFT:  2.00D  GRAD.:     2.341 HEAT:  108.2316
 CYCLE:   393 TIME:   0.195 TIME LEFT:  2.00D  GRAD.:     6.162 HEAT:  108.2308
 CYCLE:   394 TIME:   0.172 TIME LEFT:  2.00D  GRAD.:     3.668 HEAT:  108.2299
 CYCLE:   395 TIME:   0.180 TIME LEFT:  2.00D  GRAD.:     2.407 HEAT:  108.2291
 CYCLE:   396 TIME:   0.156 TIME LEFT:  2.00D  GRAD.:     2.313 HEAT:  108.2285
 CYCLE:   397 TIME:   0.172 TIME LEFT:  2.00D  GRAD.:     3.930 HEAT:  108.2275
 CYCLE:   398 TIME:   0.172 TIME LEFT:  2.00D  GRAD.:     3.972 HEAT:  108.2261
 CYCLE:   399 TIME:   0.188 TIME LEFT:  2.00D  GRAD.:    13.366 HEAT:  108.2254
 CYCLE:   400 TIME:   0.148 TIME LEFT:  2.00D  GRAD.:     3.319 HEAT:  108.2240
 CYCLE:   401 TIME:   0.195 TIME LEFT:  2.00D  GRAD.:    11.732 HEAT:  108.2237
 CYCLE:   402 TIME:   0.164 TIME LEFT:  2.00D  GRAD.:     3.115 HEAT:  108.2225
 CYCLE:   403 TIME:   0.180 TIME LEFT:  2.00D  GRAD.:     4.133 HEAT:  108.2215
 CYCLE:   404 TIME:   0.164 TIME LEFT:  2.00D  GRAD.:     2.528 HEAT:  108.2209
 CYCLE:   405 TIME:   0.203 TIME LEFT:  2.00D  GRAD.:     1.813 HEAT:  108.2201
 CYCLE:   406 TIME:   0.195 TIME LEFT:  2.00D  GRAD.:     6.079 HEAT:  108.2192
 CYCLE:   407 TIME:   0.172 TIME LEFT:  2.00D  GRAD.:     3.075 HEAT:  108.2188
 CYCLE:   408 TIME:   0.180 TIME LEFT:  2.00D  GRAD.:     2.860 HEAT:  108.2176
 CYCLE:   409 TIME:   0.195 TIME LEFT:  2.00D  GRAD.:    16.273 HEAT:  108.2220
 CYCLE:   410 TIME:   0.180 TIME LEFT:  2.00D  GRAD.:     2.689 HEAT:  108.2149
 CYCLE:   411 TIME:   0.211 TIME LEFT:  2.00D  GRAD.:     3.401 HEAT:  108.2134
 CYCLE:   412 TIME:   0.180 TIME LEFT:  2.00D  GRAD.:     9.537 HEAT:  108.2132
 CYCLE:   413 TIME:   0.180 TIME LEFT:  2.00D  GRAD.:     2.973 HEAT:  108.2108
 CYCLE:   414 TIME:   0.180 TIME LEFT:  2.00D  GRAD.:     2.034 HEAT:  108.2101
 CYCLE:   415 TIME:   0.195 TIME LEFT:  2.00D  GRAD.:     8.568 HEAT:  108.2087
 CYCLE:   416 TIME:   0.180 TIME LEFT:  2.00D  GRAD.:     2.506 HEAT:  108.2085
 CYCLE:   417 TIME:   0.188 TIME LEFT:  2.00D  GRAD.:     2.861 HEAT:  108.2068
 CYCLE:   418 TIME:   0.188 TIME LEFT:  2.00D  GRAD.:    34.232 HEAT:  108.2130
 CYCLE:   419 TIME:   0.172 TIME LEFT:  2.00D  GRAD.:     2.482 HEAT:  108.2054
 CYCLE:   420 TIME:   0.188 TIME LEFT:  2.00D  GRAD.:     2.109 HEAT:  108.2043
 CYCLE:   421 TIME:   0.188 TIME LEFT:  2.00D  GRAD.:     2.825 HEAT:  108.2017
 CYCLE:   422 TIME:   0.195 TIME LEFT:  2.00D  GRAD.:    11.374 HEAT:  108.2006
 CYCLE:   423 TIME:   0.164 TIME LEFT:  2.00D  GRAD.:     3.501 HEAT:  108.1994
 CYCLE:   424 TIME:   0.188 TIME LEFT:  2.00D  GRAD.:     6.820 HEAT:  108.1982
 CYCLE:   425 TIME:   0.172 TIME LEFT:  2.00D  GRAD.:     4.740 HEAT:  108.1967
 CYCLE:   426 TIME:   0.188 TIME LEFT:  2.00D  GRAD.:     4.668 HEAT:  108.1947
 CYCLE:   427 TIME:   0.164 TIME LEFT:  2.00D  GRAD.:     3.225 HEAT:  108.1943
 CYCLE:   428 TIME:   0.180 TIME LEFT:  2.00D  GRAD.:     7.172 HEAT:  108.1934
 CYCLE:   429 TIME:   0.148 TIME LEFT:  2.00D  GRAD.:     3.199 HEAT:  108.1920
 CYCLE:   430 TIME:   0.172 TIME LEFT:  2.00D  GRAD.:     2.108 HEAT:  108.1909
 CYCLE:   431 TIME:   0.180 TIME LEFT:  2.00D  GRAD.:     5.545 HEAT:  108.1886
 CYCLE:   432 TIME:   0.188 TIME LEFT:  2.00D  GRAD.:     4.200 HEAT:  108.1871
 CYCLE:   433 TIME:   0.188 TIME LEFT:  2.00D  GRAD.:     3.155 HEAT:  108.1839
 CYCLE:   434 TIME:   0.188 TIME LEFT:  2.00D  GRAD.:    50.060 HEAT:  108.1985
 CYCLE:   435 TIME:   0.188 TIME LEFT:  2.00D  GRAD.:     2.822 HEAT:  108.1844
 CYCLE:   436 TIME:   0.188 TIME LEFT:  2.00D  GRAD.:     8.458 HEAT:  108.1835
 CYCLE:   437 TIME:   0.188 TIME LEFT:  2.00D  GRAD.:     6.305 HEAT:  108.1826
 CYCLE:   438 TIME:   0.180 TIME LEFT:  2.00D  GRAD.:     3.446 HEAT:  108.1810
 CYCLE:   439 TIME:   0.188 TIME LEFT:  2.00D  GRAD.:     2.027 HEAT:  108.1803
 CYCLE:   440 TIME:   0.180 TIME LEFT:  2.00D  GRAD.:     6.036 HEAT:  108.1781
 CYCLE:   441 TIME:   0.164 TIME LEFT:  2.00D  GRAD.:     5.102 HEAT:  108.1779
 CYCLE:   442 TIME:   0.188 TIME LEFT:  2.00D  GRAD.:     6.749 HEAT:  108.1769
 CYCLE:   443 TIME:   0.180 TIME LEFT:  2.00D  GRAD.:    18.272 HEAT:  108.1855
 CYCLE:   444 TIME:   0.164 TIME LEFT:  2.00D  GRAD.:     1.659 HEAT:  108.1755
 CYCLE:   445 TIME:   0.203 TIME LEFT:  2.00D  GRAD.:     2.048 HEAT:  108.1747
 CYCLE:   446 TIME:   0.180 TIME LEFT:  2.00D  GRAD.:     2.196 HEAT:  108.1740
 CYCLE:   447 TIME:   0.203 TIME LEFT:  2.00D  GRAD.:     8.301 HEAT:  108.1732
 CYCLE:   448 TIME:   0.242 TIME LEFT:  2.00D  GRAD.:     4.913 HEAT:  108.1718
 CYCLE:   449 TIME:   0.219 TIME LEFT:  2.00D  GRAD.:     2.339 HEAT:  108.1707
 CYCLE:   450 TIME:   0.219 TIME LEFT:  2.00D  GRAD.:     4.118 HEAT:  108.1698
 CYCLE:   451 TIME:   0.164 TIME LEFT:  2.00D  GRAD.:     2.489 HEAT:  108.1689
 CYCLE:   452 TIME:   0.203 TIME LEFT:  2.00D  GRAD.:     2.348 HEAT:  108.1680
 CYCLE:   453 TIME:   0.195 TIME LEFT:  2.00D  GRAD.:     6.139 HEAT:  108.1676
 CYCLE:   454 TIME:   0.172 TIME LEFT:  2.00D  GRAD.:     2.117 HEAT:  108.1666
 CYCLE:   455 TIME:   0.195 TIME LEFT:  2.00D  GRAD.:     1.351 HEAT:  108.1663
 CYCLE:   456 TIME:   0.203 TIME LEFT:  2.00D  GRAD.:    10.499 HEAT:  108.1669
 CYCLE:   457 TIME:   0.188 TIME LEFT:  2.00D  GRAD.:     3.006 HEAT:  108.1666
 CYCLE:   458 TIME:   0.180 TIME LEFT:  2.00D  GRAD.:    10.146 HEAT:  108.1665
 CYCLE:   459 TIME:   0.180 TIME LEFT:  2.00D  GRAD.:     5.170 HEAT:  108.1669
 CYCLE:   460 TIME:   0.195 TIME LEFT:  2.00D  GRAD.:    11.576 HEAT:  108.1666
 CYCLE:   461 TIME:   0.164 TIME LEFT:  2.00D  GRAD.:     2.265 HEAT:  108.1651
 CYCLE:   462 TIME:   0.133 TIME LEFT:  2.00D  GRAD.:     3.851 HEAT:  108.1647
 CYCLE:   463 TIME:   0.133 TIME LEFT:  2.00D  GRAD.:     2.428 HEAT:  108.1643
 CYCLE:   464 TIME:   0.180 TIME LEFT:  2.00D  GRAD.:     4.274 HEAT:  108.1631
 CYCLE:   465 TIME:   0.141 TIME LEFT:  2.00D  GRAD.:     4.542 HEAT:  108.1627
 CYCLE:   466 TIME:   0.133 TIME LEFT:  2.00D  GRAD.:     2.492 HEAT:  108.1623
 CYCLE:   467 TIME:   0.133 TIME LEFT:  2.00D  GRAD.:     0.940 HEAT:  108.1620
 CYCLE:   468 TIME:   0.148 TIME LEFT:  2.00D  GRAD.:     1.644 HEAT:  108.1614
 CYCLE:   469 TIME:   0.180 TIME LEFT:  2.00D  GRAD.:     4.687 HEAT:  108.1609
 CYCLE:   470 TIME:   0.133 TIME LEFT:  2.00D  GRAD.:     3.550 HEAT:  108.1605
 CYCLE:   471 TIME:   0.156 TIME LEFT:  2.00D  GRAD.:     2.613 HEAT:  108.1604
 CYCLE:   472 TIME:   0.133 TIME LEFT:  2.00D  GRAD.:     1.833 HEAT:  108.1598
 CYCLE:   473 TIME:   0.141 TIME LEFT:  2.00D  GRAD.:     1.974 HEAT:  108.1593
 CYCLE:   474 TIME:   0.180 TIME LEFT:  2.00D  GRAD.:     2.041 HEAT:  108.1584
 CYCLE:   475 TIME:   0.188 TIME LEFT:  2.00D  GRAD.:     2.354 HEAT:  108.1576
 CYCLE:   476 TIME:   0.180 TIME LEFT:  2.00D  GRAD.:     1.811 HEAT:  108.1570
 CYCLE:   477 TIME:   0.148 TIME LEFT:  2.00D  GRAD.:     1.967 HEAT:  108.1565
 CYCLE:   478 TIME:   0.148 TIME LEFT:  2.00D  GRAD.:     4.107 HEAT:  108.1556
 CYCLE:   479 TIME:   0.141 TIME LEFT:  2.00D  GRAD.:    16.056 HEAT:  108.1631
 CYCLE:   480 TIME:   0.148 TIME LEFT:  2.00D  GRAD.:     7.391 HEAT:  108.1557
 CYCLE:   481 TIME:   0.148 TIME LEFT:  2.00D  GRAD.:     3.134 HEAT:  108.1571
 CYCLE:   482 TIME:   0.133 TIME LEFT:  2.00D  GRAD.:     7.578 HEAT:  108.1552
 CYCLE:   483 TIME:   0.156 TIME LEFT:  2.00D  GRAD.:    43.975 HEAT:  108.1743
 CYCLE:   484 TIME:   0.133 TIME LEFT:  2.00D  GRAD.:    46.784 HEAT:  108.1698
 CYCLE:   485 TIME:   0.141 TIME LEFT:  2.00D  GRAD.:    44.970 HEAT:  108.1752
 CYCLE:   486 TIME:   0.297 TIME LEFT:  2.00D  GRAD.:    38.389 HEAT:  108.1851
 CYCLE:   487 TIME:   0.164 TIME LEFT:  2.00D  GRAD.:    33.089 HEAT:  108.1690
 CYCLE:   488 TIME:   0.148 TIME LEFT:  2.00D  GRAD.:    20.308 HEAT:  108.1657
 CYCLE:   489 TIME:   0.133 TIME LEFT:  2.00D  GRAD.:    26.801 HEAT:  108.1821
 CYCLE:   490 TIME:   0.156 TIME LEFT:  2.00D  GRAD.:    10.719 HEAT:  108.1565
 CYCLE:   491 TIME:   0.125 TIME LEFT:  2.00D  GRAD.:     9.244 HEAT:  108.1547
 CYCLE:   492 TIME:   0.141 TIME LEFT:  2.00D  GRAD.:     1.550 HEAT:  108.1532
 CYCLE:   493 TIME:   0.148 TIME LEFT:  2.00D  GRAD.:     6.712 HEAT:  108.1532
 CYCLE:   494 TIME:   0.133 TIME LEFT:  2.00D  GRAD.:     1.398 HEAT:  108.1526
 CYCLE:   495 TIME:   0.133 TIME LEFT:  2.00D  GRAD.:     2.111 HEAT:  108.1525
 CYCLE:   496 TIME:   0.141 TIME LEFT:  2.00D  GRAD.:     1.533 HEAT:  108.1523
 CYCLE:   497 TIME:   0.133 TIME LEFT:  2.00D  GRAD.:     2.019 HEAT:  108.1521
 CYCLE:   498 TIME:   0.141 TIME LEFT:  2.00D  GRAD.:     2.530 HEAT:  108.1517
 CYCLE:   499 TIME:   0.180 TIME LEFT:  2.00D  GRAD.:     2.843 HEAT:  108.1514
 CYCLE:   500 TIME:   0.180 TIME LEFT:  2.00D  GRAD.:     2.750 HEAT:  108.1508
 CYCLE:   501 TIME:   0.133 TIME LEFT:  2.00D  GRAD.:     6.621 HEAT:  108.1507
 CYCLE:   502 TIME:   0.164 TIME LEFT:  2.00D  GRAD.:     1.746 HEAT:  108.1503
 CYCLE:   503 TIME:   0.164 TIME LEFT:  2.00D  GRAD.:     1.862 HEAT:  108.1500
 CYCLE:   504 TIME:   0.156 TIME LEFT:  2.00D  GRAD.:     1.359 HEAT:  108.1497
 CYCLE:   505 TIME:   0.188 TIME LEFT:  2.00D  GRAD.:     1.953 HEAT:  108.1491
 CYCLE:   506 TIME:   0.180 TIME LEFT:  2.00D  GRAD.:     1.379 HEAT:  108.1488
 CYCLE:   507 TIME:   0.164 TIME LEFT:  2.00D  GRAD.:     1.536 HEAT:  108.1482
 CYCLE:   508 TIME:   0.172 TIME LEFT:  2.00D  GRAD.:    10.891 HEAT:  108.1499
 CYCLE:   509 TIME:   0.180 TIME LEFT:  2.00D  GRAD.:     7.891 HEAT:  108.1496
 CYCLE:   510 TIME:   0.180 TIME LEFT:  2.00D  GRAD.:     6.065 HEAT:  108.1485
 CYCLE:   511 TIME:   0.156 TIME LEFT:  2.00D  GRAD.:    27.537 HEAT:  108.1569
 CYCLE:   512 TIME:   0.133 TIME LEFT:  2.00D  GRAD.:     2.494 HEAT:  108.1476
 CYCLE:   513 TIME:   0.164 TIME LEFT:  2.00D  GRAD.:     1.535 HEAT:  108.1476
 CYCLE:   514 TIME:   0.188 TIME LEFT:  2.00D  GRAD.:     2.878 HEAT:  108.1472
 CYCLE:   515 TIME:   0.133 TIME LEFT:  2.00D  GRAD.:     2.526 HEAT:  108.1471
 CYCLE:   516 TIME:   0.141 TIME LEFT:  2.00D  GRAD.:     0.981 HEAT:  108.1470
 CYCLE:   517 TIME:   0.141 TIME LEFT:  2.00D  GRAD.:     1.023 HEAT:  108.1468
 CYCLE:   518 TIME:   0.148 TIME LEFT:  2.00D  GRAD.:     3.274 HEAT:  108.1465
 CYCLE:   519 TIME:   0.156 TIME LEFT:  2.00D  GRAD.:     1.373 HEAT:  108.1465
 CYCLE:   520 TIME:   0.148 TIME LEFT:  2.00D  GRAD.:     0.962 HEAT:  108.1463
 CYCLE:   521 TIME:   0.141 TIME LEFT:  2.00D  GRAD.:     2.164 HEAT:  108.1461
 CYCLE:   522 TIME:   0.172 TIME LEFT:  2.00D  GRAD.:     1.976 HEAT:  108.1458
 CYCLE:   523 TIME:   0.156 TIME LEFT:  2.00D  GRAD.:     2.646 HEAT:  108.1456
 CYCLE:   524 TIME:   0.164 TIME LEFT:  2.00D  GRAD.:     1.125 HEAT:  108.1454
 CYCLE:   525 TIME:   0.180 TIME LEFT:  2.00D  GRAD.:     1.463 HEAT:  108.1454
 CYCLE:   526 TIME:   0.188 TIME LEFT:  2.00D  GRAD.:     1.408 HEAT:  108.1452
 CYCLE:   527 TIME:   0.188 TIME LEFT:  2.00D  GRAD.:     1.783 HEAT:  108.1450
 CYCLE:   528 TIME:   0.141 TIME LEFT:  2.00D  GRAD.:     2.483 HEAT:  108.1447
 CYCLE:   529 TIME:   0.141 TIME LEFT:  2.00D  GRAD.:     1.365 HEAT:  108.1445
 CYCLE:   530 TIME:   0.156 TIME LEFT:  2.00D  GRAD.:     1.056 HEAT:  108.1444
 CYCLE:   531 TIME:   0.188 TIME LEFT:  2.00D  GRAD.:     1.294 HEAT:  108.1442
 CYCLE:   532 TIME:   0.180 TIME LEFT:  2.00D  GRAD.:     1.588 HEAT:  108.1438
 CYCLE:   533 TIME:   0.156 TIME LEFT:  2.00D  GRAD.:     2.743 HEAT:  108.1436
 CYCLE:   534 TIME:   0.133 TIME LEFT:  2.00D  GRAD.:     1.320 HEAT:  108.1434
 CYCLE:   535 TIME:   0.164 TIME LEFT:  2.00D  GRAD.:     2.787 HEAT:  108.1436
 CYCLE:   536 TIME:   0.148 TIME LEFT:  2.00D  GRAD.:     0.970 HEAT:  108.1433
 CYCLE:   537 TIME:   0.156 TIME LEFT:  2.00D  GRAD.:     0.923 HEAT:  108.1432
 CYCLE:   538 TIME:   0.133 TIME LEFT:  2.00D  GRAD.:     1.009 HEAT:  108.1430
 CYCLE:   539 TIME:   0.148 TIME LEFT:  2.00D  GRAD.:     1.748 HEAT:  108.1428
 CYCLE:   540 TIME:   0.148 TIME LEFT:  2.00D  GRAD.:     0.890 HEAT:  108.1425
 CYCLE:   541 TIME:   0.148 TIME LEFT:  2.00D  GRAD.:     0.639 HEAT:  108.1424
 CYCLE:   542 TIME:   0.172 TIME LEFT:  2.00D  GRAD.:     0.880 HEAT:  108.1424
 CYCLE:   543 TIME:   0.141 TIME LEFT:  2.00D  GRAD.:     0.863 HEAT:  108.1423
 CYCLE:   544 TIME:   0.141 TIME LEFT:  2.00D  GRAD.:     7.337 HEAT:  108.1427
 CYCLE:   545 TIME:   0.141 TIME LEFT:  2.00D  GRAD.:     1.371 HEAT:  108.1422
 CYCLE:   546 TIME:   0.148 TIME LEFT:  2.00D  GRAD.:     0.667 HEAT:  108.1421
 CYCLE:   547 TIME:   0.125 TIME LEFT:  2.00D  GRAD.:     0.968 HEAT:  108.1420
 CYCLE:   548 TIME:   0.125 TIME LEFT:  2.00D  GRAD.:     1.152 HEAT:  108.1419
 CYCLE:   549 TIME:   0.125 TIME LEFT:  2.00D  GRAD.:     0.731 HEAT:  108.1419
 CYCLE:   550 TIME:   0.125 TIME LEFT:  2.00D  GRAD.:     0.902 HEAT:  108.1417
 CYCLE:   551 TIME:   0.133 TIME LEFT:  2.00D  GRAD.:     0.851 HEAT:  108.1415
 CYCLE:   552 TIME:   0.141 TIME LEFT:  2.00D  GRAD.:     1.709 HEAT:  108.1414
 CYCLE:   553 TIME:   0.156 TIME LEFT:  2.00D  GRAD.:     1.594 HEAT:  108.1412
 CYCLE:   554 TIME:   0.156 TIME LEFT:  2.00D  GRAD.:     0.714 HEAT:  108.1412
 CYCLE:   555 TIME:   0.156 TIME LEFT:  2.00D  GRAD.:     3.646 HEAT:  108.1413
 CYCLE:   556 TIME:   0.133 TIME LEFT:  2.00D  GRAD.:     1.035 HEAT:  108.1411
 CYCLE:   557 TIME:   0.164 TIME LEFT:  2.00D  GRAD.:     0.620 HEAT:  108.1410
 CYCLE:   558 TIME:   0.141 TIME LEFT:  2.00D  GRAD.:     2.856 HEAT:  108.1409
 CYCLE:   559 TIME:   0.133 TIME LEFT:  2.00D  GRAD.:     0.678 HEAT:  108.1408
 CYCLE:   560 TIME:   0.164 TIME LEFT:  2.00D  GRAD.:     0.509 HEAT:  108.1408
 CYCLE:   561 TIME:   0.180 TIME LEFT:  2.00D  GRAD.:     3.588 HEAT:  108.1410
 CYCLE:   562 TIME:   0.141 TIME LEFT:  2.00D  GRAD.:     0.953 HEAT:  108.1407
 CYCLE:   563 TIME:   0.125 TIME LEFT:  2.00D  GRAD.:     0.877 HEAT:  108.1407
 CYCLE:   564 TIME:   0.164 TIME LEFT:  2.00D  GRAD.:     0.566 HEAT:  108.1406
 CYCLE:   565 TIME:   0.156 TIME LEFT:  2.00D  GRAD.:     0.991 HEAT:  108.1405
 CYCLE:   566 TIME:   0.133 TIME LEFT:  2.00D  GRAD.:     3.409 HEAT:  108.1406
 CYCLE:   567 TIME:   0.117 TIME LEFT:  2.00D  GRAD.:     1.041 HEAT:  108.1404
 CYCLE:   568 TIME:   0.125 TIME LEFT:  2.00D  GRAD.:     0.872 HEAT:  108.1404
 CYCLE:   569 TIME:   0.125 TIME LEFT:  2.00D  GRAD.:     0.497 HEAT:  108.1403
 CYCLE:   570 TIME:   0.141 TIME LEFT:  2.00D  GRAD.:     0.970 HEAT:  108.1402
 CYCLE:   571 TIME:   0.133 TIME LEFT:  2.00D  GRAD.:     1.077 HEAT:  108.1401
 CYCLE:   572 TIME:   0.133 TIME LEFT:  2.00D  GRAD.:     0.973 HEAT:  108.1399
 CYCLE:   573 TIME:   0.141 TIME LEFT:  2.00D  GRAD.:     0.701 HEAT:  108.1397
 CYCLE:   574 TIME:   0.133 TIME LEFT:  2.00D  GRAD.:     1.230 HEAT:  108.1396
 CYCLE:   575 TIME:   0.156 TIME LEFT:  2.00D  GRAD.:     0.635 HEAT:  108.1396
 CYCLE:   576 TIME:   0.164 TIME LEFT:  2.00D  GRAD.:     5.561 HEAT:  108.1397
 CYCLE:   577 TIME:   0.141 TIME LEFT:  2.00D  GRAD.:     1.141 HEAT:  108.1395
 CYCLE:   578 TIME:   0.164 TIME LEFT:  2.00D  GRAD.:     0.861 HEAT:  108.1394
 CYCLE:   579 TIME:   0.141 TIME LEFT:  2.00D  GRAD.:     2.178 HEAT:  108.1395
 CYCLE:   580 TIME:   0.133 TIME LEFT:  2.00D  GRAD.:     0.513 HEAT:  108.1393
 CYCLE:   581 TIME:   0.172 TIME LEFT:  2.00D  GRAD.:     0.436 HEAT:  108.1392
 CYCLE:   582 TIME:   0.172 TIME LEFT:  2.00D  GRAD.:     1.531 HEAT:  108.1392
 CYCLE:   583 TIME:   0.172 TIME LEFT:  2.00D  GRAD.:     0.626 HEAT:  108.1391
 CYCLE:   584 TIME:   0.133 TIME LEFT:  2.00D  GRAD.:     0.594 HEAT:  108.1390
 CYCLE:   585 TIME:   0.148 TIME LEFT:  2.00D  GRAD.:     0.787 HEAT:  108.1390
 CYCLE:   586 TIME:   0.141 TIME LEFT:  2.00D  GRAD.:     1.043 HEAT:  108.1389
 CYCLE:   587 TIME:   0.156 TIME LEFT:  2.00D  GRAD.:     1.619 HEAT:  108.1388
 CYCLE:   588 TIME:   0.133 TIME LEFT:  2.00D  GRAD.:     0.648 HEAT:  108.1388
 CYCLE:   589 TIME:   0.180 TIME LEFT:  2.00D  GRAD.:     3.002 HEAT:  108.1388
 CYCLE:   590 TIME:   0.164 TIME LEFT:  2.00D  GRAD.:     0.723 HEAT:  108.1387
 CYCLE:   591 TIME:   0.141 TIME LEFT:  2.00D  GRAD.:     0.580 HEAT:  108.1386
 CYCLE:   592 TIME:   0.133 TIME LEFT:  2.00D  GRAD.:     0.569 HEAT:  108.1386
 CYCLE:   593 TIME:   0.156 TIME LEFT:  2.00D  GRAD.:     1.677 HEAT:  108.1386
 CYCLE:   594 TIME:   0.141 TIME LEFT:  2.00D  GRAD.:     0.685 HEAT:  108.1386
 CYCLE:   595 TIME:   0.133 TIME LEFT:  2.00D  GRAD.:     0.356 HEAT:  108.1386
 CYCLE:   596 TIME:   0.125 TIME LEFT:  2.00D  GRAD.:     0.271 HEAT:  108.1386
 CYCLE:   597 TIME:   0.133 TIME LEFT:  2.00D  GRAD.:     0.981 HEAT:  108.1385
 CYCLE:   598 TIME:   0.133 TIME LEFT:  2.00D  GRAD.:     2.443 HEAT:  108.1385
 CYCLE:   599 TIME:   0.141 TIME LEFT:  2.00D  GRAD.:     0.729 HEAT:  108.1384
 CYCLE:   600 TIME:   0.141 TIME LEFT:  2.00D  GRAD.:     2.163 HEAT:  108.1384
 CYCLE:   601 TIME:   0.156 TIME LEFT:  2.00D  GRAD.:     0.754 HEAT:  108.1383
 CYCLE:   602 TIME:   0.156 TIME LEFT:  2.00D  GRAD.:     1.107 HEAT:  108.1383
 CYCLE:   603 TIME:   0.148 TIME LEFT:  2.00D  GRAD.:     0.574 HEAT:  108.1383
 CYCLE:   604 TIME:   0.164 TIME LEFT:  2.00D  GRAD.:     1.077 HEAT:  108.1382
 CYCLE:   605 TIME:   0.148 TIME LEFT:  2.00D  GRAD.:     0.611 HEAT:  108.1382
 CYCLE:   606 TIME:   0.156 TIME LEFT:  2.00D  GRAD.:     1.052 HEAT:  108.1382
 CYCLE:   607 TIME:   0.164 TIME LEFT:  2.00D  GRAD.:     0.413 HEAT:  108.1382
 CYCLE:   608 TIME:   0.156 TIME LEFT:  2.00D  GRAD.:     0.636 HEAT:  108.1382
 CYCLE:   609 TIME:   0.172 TIME LEFT:  2.00D  GRAD.:     0.481 HEAT:  108.1381
 CYCLE:   610 TIME:   0.156 TIME LEFT:  2.00D  GRAD.:     0.851 HEAT:  108.1381
 CYCLE:   611 TIME:   0.164 TIME LEFT:  2.00D  GRAD.:     0.798 HEAT:  108.1380
 CYCLE:   612 TIME:   0.156 TIME LEFT:  2.00D  GRAD.:     0.848 HEAT:  108.1379
 CYCLE:   613 TIME:   0.164 TIME LEFT:  2.00D  GRAD.:     0.743 HEAT:  108.1379
 CYCLE:   614 TIME:   0.164 TIME LEFT:  2.00D  GRAD.:     2.073 HEAT:  108.1380
 CYCLE:   615 TIME:   0.195 TIME LEFT:  2.00D  GRAD.:     0.546 HEAT:  108.1379
 CYCLE:   616 TIME:   0.203 TIME LEFT:  2.00D  GRAD.:     0.304 HEAT:  108.1378
 CYCLE:   617 TIME:   0.172 TIME LEFT:  2.00D  GRAD.:     0.306 HEAT:  108.1378
 CYCLE:   618 TIME:   0.477 TIME LEFT:  2.00D  GRAD.:     1.256 HEAT:  108.1378
 CYCLE:   619 TIME:   0.180 TIME LEFT:  2.00D  GRAD.:     0.954 HEAT:  108.1377
 CYCLE:   620 TIME:   0.148 TIME LEFT:  2.00D  GRAD.:     0.444 HEAT:  108.1377
 CYCLE:   621 TIME:   0.125 TIME LEFT:  2.00D  GRAD.:     1.040 HEAT:  108.1377
 CYCLE:   622 TIME:   0.148 TIME LEFT:  2.00D  GRAD.:     0.600 HEAT:  108.1377
 CYCLE:   623 TIME:   0.164 TIME LEFT:  2.00D  GRAD.:     0.390 HEAT:  108.1377
 CYCLE:   624 TIME:   0.156 TIME LEFT:  2.00D  GRAD.:     0.403 HEAT:  108.1376
 CYCLE:   625 TIME:   0.164 TIME LEFT:  2.00D  GRAD.:     0.366 HEAT:  108.1376
 CYCLE:   626 TIME:   0.156 TIME LEFT:  2.00D  GRAD.:     0.608 HEAT:  108.1375
 CYCLE:   627 TIME:   0.141 TIME LEFT:  2.00D  GRAD.:     1.045 HEAT:  108.1375
 CYCLE:   628 TIME:   0.141 TIME LEFT:  2.00D  GRAD.:     0.502 HEAT:  108.1375
 CYCLE:   629 TIME:   0.148 TIME LEFT:  2.00D  GRAD.:     1.410 HEAT:  108.1375
 CYCLE:   630 TIME:   0.133 TIME LEFT:  2.00D  GRAD.:     0.515 HEAT:  108.1374
 CYCLE:   631 TIME:   0.133 TIME LEFT:  2.00D  GRAD.:     0.508 HEAT:  108.1374
 CYCLE:   632 TIME:   0.141 TIME LEFT:  2.00D  GRAD.:     0.371 HEAT:  108.1374
 CYCLE:   633 TIME:   0.156 TIME LEFT:  2.00D  GRAD.:     0.472 HEAT:  108.1373
 CYCLE:   634 TIME:   0.156 TIME LEFT:  2.00D  GRAD.:     0.537 HEAT:  108.1373
 CYCLE:   635 TIME:   0.172 TIME LEFT:  2.00D  GRAD.:     2.269 HEAT:  108.1373
 CYCLE:   636 TIME:   0.188 TIME LEFT:  2.00D  GRAD.:     0.866 HEAT:  108.1372
 CYCLE:   637 TIME:   0.188 TIME LEFT:  2.00D  GRAD.:     0.401 HEAT:  108.1372
 CYCLE:   638 TIME:   0.211 TIME LEFT:  2.00D  GRAD.:     0.430 HEAT:  108.1372
 CYCLE:   639 TIME:   0.203 TIME LEFT:  2.00D  GRAD.:     0.672 HEAT:  108.1372
 CYCLE:   640 TIME:   0.195 TIME LEFT:  2.00D  GRAD.:     0.425 HEAT:  108.1372
 CYCLE:   641 TIME:   0.156 TIME LEFT:  2.00D  GRAD.:     0.443 HEAT:  108.1371
 CYCLE:   642 TIME:   0.188 TIME LEFT:  2.00D  GRAD.:     0.582 HEAT:  108.1371
 CYCLE:   643 TIME:   0.180 TIME LEFT:  2.00D  GRAD.:     1.328 HEAT:  108.1370
 CYCLE:   644 TIME:   0.148 TIME LEFT:  2.00D  GRAD.:     0.403 HEAT:  108.1370
 CYCLE:   645 TIME:   0.180 TIME LEFT:  2.00D  GRAD.:     0.487 HEAT:  108.1370
 CYCLE:   646 TIME:   0.164 TIME LEFT:  2.00D  GRAD.:     0.393 HEAT:  108.1369
 CYCLE:   647 TIME:   0.164 TIME LEFT:  2.00D  GRAD.:     0.962 HEAT:  108.1369
 CYCLE:   648 TIME:   0.383 TIME LEFT:  2.00D  GRAD.:     0.689 HEAT:  108.1369
 CYCLE:   649 TIME:   0.195 TIME LEFT:  2.00D  GRAD.:     0.749 HEAT:  108.1369
 CYCLE:   650 TIME:   0.195 TIME LEFT:  2.00D  GRAD.:     1.243 HEAT:  108.1368
 CYCLE:   651 TIME:   0.188 TIME LEFT:  2.00D  GRAD.:     0.347 HEAT:  108.1368
 CYCLE:   652 TIME:   0.195 TIME LEFT:  2.00D  GRAD.:     0.323 HEAT:  108.1368
 CYCLE:   653 TIME:   0.195 TIME LEFT:  2.00D  GRAD.:     0.510 HEAT:  108.1368
 CYCLE:   654 TIME:   0.180 TIME LEFT:  2.00D  GRAD.:     0.471 HEAT:  108.1367
 CYCLE:   655 TIME:   0.195 TIME LEFT:  2.00D  GRAD.:     0.486 HEAT:  108.1367
 CYCLE:   656 TIME:   0.172 TIME LEFT:  2.00D  GRAD.:     3.132 HEAT:  108.1369
 CYCLE:   657 TIME:   0.180 TIME LEFT:  2.00D  GRAD.:     0.876 HEAT:  108.1367
 CYCLE:   658 TIME:   0.172 TIME LEFT:  2.00D  GRAD.:     0.549 HEAT:  108.1367
 CYCLE:   659 TIME:   0.188 TIME LEFT:  2.00D  GRAD.:     0.900 HEAT:  108.1366
 CYCLE:   660 TIME:   0.188 TIME LEFT:  2.00D  GRAD.:     0.590 HEAT:  108.1366
 CYCLE:   661 TIME:   0.203 TIME LEFT:  2.00D  GRAD.:     0.256 HEAT:  108.1366
 CYCLE:   662 TIME:   0.164 TIME LEFT:  2.00D  GRAD.:     0.328 HEAT:  108.1366
 CYCLE:   663 TIME:   0.133 TIME LEFT:  2.00D  GRAD.:     0.655 HEAT:  108.1366
 CYCLE:   664 TIME:   0.133 TIME LEFT:  2.00D  GRAD.:     1.625 HEAT:  108.1366
 CYCLE:   665 TIME:   0.125 TIME LEFT:  2.00D  GRAD.:     0.445 HEAT:  108.1365
 CYCLE:   666 TIME:   0.141 TIME LEFT:  2.00D  GRAD.:     0.451 HEAT:  108.1365
 CYCLE:   667 TIME:   0.133 TIME LEFT:  2.00D  GRAD.:     0.628 HEAT:  108.1365
 CYCLE:   668 TIME:   0.133 TIME LEFT:  2.00D  GRAD.:     0.623 HEAT:  108.1365
 CYCLE:   669 TIME:   0.141 TIME LEFT:  2.00D  GRAD.:     0.366 HEAT:  108.1364
 CYCLE:   670 TIME:   0.133 TIME LEFT:  2.00D  GRAD.:     0.685 HEAT:  108.1364
 CYCLE:   671 TIME:   0.133 TIME LEFT:  2.00D  GRAD.:     0.508 HEAT:  108.1364
 CYCLE:   672 TIME:   0.141 TIME LEFT:  2.00D  GRAD.:     1.225 HEAT:  108.1364
 CYCLE:   673 TIME:   0.156 TIME LEFT:  2.00D  GRAD.:     0.789 HEAT:  108.1363
 CYCLE:   674 TIME:   0.172 TIME LEFT:  2.00D  GRAD.:     0.277 HEAT:  108.1363
 CYCLE:   675 TIME:   0.172 TIME LEFT:  2.00D  GRAD.:     0.358 HEAT:  108.1363
 CYCLE:   676 TIME:   0.844 TIME LEFT:  2.00D  GRAD.:     0.272 HEAT:  108.1362
 CYCLE:   677 TIME:   0.125 TIME LEFT:  2.00D  GRAD.:     0.361 HEAT:  108.1362
 CYCLE:   678 TIME:   0.141 TIME LEFT:  2.00D  GRAD.:     1.117 HEAT:  108.1362
 CYCLE:   679 TIME:   0.125 TIME LEFT:  2.00D  GRAD.:     0.784 HEAT:  108.1361
 CYCLE:   680 TIME:   0.133 TIME LEFT:  2.00D  GRAD.:     0.395 HEAT:  108.1361
 CYCLE:   681 TIME:   0.133 TIME LEFT:  2.00D  GRAD.:     0.924 HEAT:  108.1361
 CYCLE:   682 TIME:   0.125 TIME LEFT:  2.00D  GRAD.:     0.438 HEAT:  108.1361
 CYCLE:   683 TIME:   0.141 TIME LEFT:  2.00D  GRAD.:     0.793 HEAT:  108.1360
 CYCLE:   684 TIME:   0.133 TIME LEFT:  2.00D  GRAD.:     0.476 HEAT:  108.1360
 CYCLE:   685 TIME:   0.125 TIME LEFT:  2.00D  GRAD.:     0.661 HEAT:  108.1360
 CYCLE:   686 TIME:   0.148 TIME LEFT:  2.00D  GRAD.:     0.384 HEAT:  108.1360
 CYCLE:   687 TIME:   0.133 TIME LEFT:  2.00D  GRAD.:     0.365 HEAT:  108.1360
 CYCLE:   688 TIME:   0.172 TIME LEFT:  2.00D  GRAD.:     0.503 HEAT:  108.1359
 CYCLE:   689 TIME:   0.148 TIME LEFT:  2.00D  GRAD.:     1.081 HEAT:  108.1359
 CYCLE:   690 TIME:   0.117 TIME LEFT:  2.00D  GRAD.:     0.435 HEAT:  108.1358
 CYCLE:   691 TIME:   0.133 TIME LEFT:  2.00D  GRAD.:     0.451 HEAT:  108.1358
 CYCLE:   692 TIME:   0.172 TIME LEFT:  2.00D  GRAD.:     0.462 HEAT:  108.1358
 CYCLE:   693 TIME:   0.164 TIME LEFT:  2.00D  GRAD.:     0.478 HEAT:  108.1358
 CYCLE:   694 TIME:   0.133 TIME LEFT:  2.00D  GRAD.:     1.276 HEAT:  108.1358
 CYCLE:   695 TIME:   0.125 TIME LEFT:  2.00D  GRAD.:     0.393 HEAT:  108.1358
 CYCLE:   696 TIME:   0.133 TIME LEFT:  2.00D  GRAD.:     0.274 HEAT:  108.1357
 CYCLE:   697 TIME:   0.172 TIME LEFT:  2.00D  GRAD.:     0.333 HEAT:  108.1357
 CYCLE:   698 TIME:   0.172 TIME LEFT:  2.00D  GRAD.:     0.378 HEAT:  108.1357
 CYCLE:   699 TIME:   0.156 TIME LEFT:  2.00D  GRAD.:     0.305 HEAT:  108.1357
 CYCLE:   700 TIME:   0.141 TIME LEFT:  2.00D  GRAD.:     0.335 HEAT:  108.1356
 CYCLE:   701 TIME:   0.148 TIME LEFT:  2.00D  GRAD.:     1.472 HEAT:  108.1357
 CYCLE:   702 TIME:   0.133 TIME LEFT:  2.00D  GRAD.:     0.532 HEAT:  108.1356
 CYCLE:   703 TIME:   0.125 TIME LEFT:  2.00D  GRAD.:     0.333 HEAT:  108.1356
 CYCLE:   704 TIME:   0.141 TIME LEFT:  2.00D  GRAD.:     0.390 HEAT:  108.1356
 CYCLE:   705 TIME:   0.125 TIME LEFT:  2.00D  GRAD.:     0.328 HEAT:  108.1355
 CYCLE:   706 TIME:   0.148 TIME LEFT:  2.00D  GRAD.:     0.296 HEAT:  108.1355
 CYCLE:   707 TIME:   0.125 TIME LEFT:  2.00D  GRAD.:     0.224 HEAT:  108.1355
 CYCLE:   708 TIME:   0.141 TIME LEFT:  2.00D  GRAD.:     0.180 HEAT:  108.1355
 CYCLE:   709 TIME:   0.148 TIME LEFT:  2.00D  GRAD.:     0.484 HEAT:  108.1354
 CYCLE:   710 TIME:   0.117 TIME LEFT:  2.00D  GRAD.:     1.353 HEAT:  108.1354
 CYCLE:   711 TIME:   0.117 TIME LEFT:  2.00D  GRAD.:     0.362 HEAT:  108.1354
 CYCLE:   712 TIME:   0.133 TIME LEFT:  2.00D  GRAD.:     0.534 HEAT:  108.1354
 CYCLE:   713 TIME:   0.117 TIME LEFT:  2.00D  GRAD.:     0.512 HEAT:  108.1354
 CYCLE:   714 TIME:   0.133 TIME LEFT:  2.00D  GRAD.:     1.029 HEAT:  108.1354
 CYCLE:   715 TIME:   0.125 TIME LEFT:  2.00D  GRAD.:     1.391 HEAT:  108.1354
 CYCLE:   716 TIME:   0.133 TIME LEFT:  2.00D  GRAD.:     0.196 HEAT:  108.1354
 CYCLE:   717 TIME:   0.133 TIME LEFT:  2.00D  GRAD.:     0.355 HEAT:  108.1354
 CYCLE:   718 TIME:   0.125 TIME LEFT:  2.00D  GRAD.:     0.198 HEAT:  108.1353
 CYCLE:   719 TIME:   0.125 TIME LEFT:  2.00D  GRAD.:     0.166 HEAT:  108.1353
 CYCLE:   720 TIME:   0.125 TIME LEFT:  2.00D  GRAD.:     0.317 HEAT:  108.1353
 CYCLE:   721 TIME:   0.133 TIME LEFT:  2.00D  GRAD.:     0.433 HEAT:  108.1353
 CYCLE:   722 TIME:   0.148 TIME LEFT:  2.00D  GRAD.:     0.347 HEAT:  108.1353
 CYCLE:   723 TIME:   0.133 TIME LEFT:  2.00D  GRAD.:     0.384 HEAT:  108.1353
 CYCLE:   724 TIME:   0.133 TIME LEFT:  2.00D  GRAD.:     0.819 HEAT:  108.1353
 CYCLE:   725 TIME:   0.156 TIME LEFT:  2.00D  GRAD.:     0.316 HEAT:  108.1353
 CYCLE:   726 TIME:   0.148 TIME LEFT:  2.00D  GRAD.:     0.319 HEAT:  108.1353
 CYCLE:   727 TIME:   0.133 TIME LEFT:  2.00D  GRAD.:     0.350 HEAT:  108.1352
 CYCLE:   728 TIME:   0.133 TIME LEFT:  2.00D  GRAD.:     0.378 HEAT:  108.1352
 CYCLE:   729 TIME:   0.141 TIME LEFT:  2.00D  GRAD.:     0.978 HEAT:  108.1352
 CYCLE:   730 TIME:   0.117 TIME LEFT:  2.00D  GRAD.:     0.368 HEAT:  108.1352
 CYCLE:   731 TIME:   0.133 TIME LEFT:  2.00D  GRAD.:     0.650 HEAT:  108.1352
 CYCLE:   732 TIME:   0.133 TIME LEFT:  2.00D  GRAD.:     0.407 HEAT:  108.1352
 CYCLE:   733 TIME:   0.148 TIME LEFT:  2.00D  GRAD.:     0.319 HEAT:  108.1352
 CYCLE:   734 TIME:   0.133 TIME LEFT:  2.00D  GRAD.:     0.668 HEAT:  108.1352
 CYCLE:   735 TIME:   0.125 TIME LEFT:  2.00D  GRAD.:     0.211 HEAT:  108.1351
 CYCLE:   736 TIME:   0.125 TIME LEFT:  2.00D  GRAD.:     0.195 HEAT:  108.1351
 CYCLE:   737 TIME:   0.141 TIME LEFT:  2.00D  GRAD.:     0.309 HEAT:  108.1351
 CYCLE:   738 TIME:   0.148 TIME LEFT:  2.00D  GRAD.:     0.266 HEAT:  108.1351
 CYCLE:   739 TIME:   0.141 TIME LEFT:  2.00D  GRAD.:     1.618 HEAT:  108.1352
 CYCLE:   740 TIME:   0.133 TIME LEFT:  2.00D  GRAD.:     1.701 HEAT:  108.1351
 CYCLE:   741 TIME:   0.133 TIME LEFT:  2.00D  GRAD.:     0.793 HEAT:  108.1351
 CYCLE:   742 TIME:   0.133 TIME LEFT:  2.00D  GRAD.:     0.317 HEAT:  108.1351
 CYCLE:   743 TIME:   0.164 TIME LEFT:  2.00D  GRAD.:     0.305 HEAT:  108.1351
 CYCLE:   744 TIME:   0.164 TIME LEFT:  2.00D  GRAD.:     0.324 HEAT:  108.1351
 CYCLE:   745 TIME:   0.180 TIME LEFT:  2.00D  GRAD.:     0.123 HEAT:  108.1351
 CYCLE:   746 TIME:   0.125 TIME LEFT:  2.00D  GRAD.:     0.172 HEAT:  108.1351
 CYCLE:   747 TIME:   0.133 TIME LEFT:  2.00D  GRAD.:     0.199 HEAT:  108.1351
 CYCLE:   748 TIME:   0.141 TIME LEFT:  2.00D  GRAD.:     0.216 HEAT:  108.1351
 CYCLE:   749 TIME:   0.164 TIME LEFT:  2.00D  GRAD.:     0.797 HEAT:  108.1350
 CYCLE:   750 TIME:   0.180 TIME LEFT:  2.00D  GRAD.:     2.143 HEAT:  108.1351
 CYCLE:   751 TIME:   0.148 TIME LEFT:  2.00D  GRAD.:     1.946 HEAT:  108.1351
 CYCLE:   752 TIME:   0.172 TIME LEFT:  2.00D  GRAD.:     8.857 HEAT:  108.1369
 CYCLE:   753 TIME:   0.164 TIME LEFT:  2.00D  GRAD.:     0.601 HEAT:  108.1350
 CYCLE:   754 TIME:   0.195 TIME LEFT:  2.00D  GRAD.:     0.540 HEAT:  108.1351
 CYCLE:   755 TIME:   0.195 TIME LEFT:  2.00D  GRAD.:     2.300 HEAT:  108.1351
 CYCLE:   756 TIME:   0.172 TIME LEFT:  2.00D  GRAD.:     0.716 HEAT:  108.1350
 CYCLE:   757 TIME:   0.156 TIME LEFT:  2.00D  GRAD.:     0.632 HEAT:  108.1350
 CYCLE:   758 TIME:   0.156 TIME LEFT:  2.00D  GRAD.:     0.739 HEAT:  108.1350
 CYCLE:   759 TIME:   0.188 TIME LEFT:  2.00D  GRAD.:     2.041 HEAT:  108.1350
 CYCLE:   760 TIME:   0.164 TIME LEFT:  2.00D  GRAD.:     0.194 HEAT:  108.1350
 CYCLE:   761 TIME:   0.164 TIME LEFT:  2.00D  GRAD.:     0.194 HEAT:  108.1350
 CYCLE:   762 TIME:   0.180 TIME LEFT:  2.00D  GRAD.:     0.326 HEAT:  108.1349
 CYCLE:   763 TIME:   0.172 TIME LEFT:  2.00D  GRAD.:     0.463 HEAT:  108.1349
 CYCLE:   764 TIME:   0.164 TIME LEFT:  2.00D  GRAD.:     0.782 HEAT:  108.1349
 CYCLE:   765 TIME:   0.180 TIME LEFT:  2.00D  GRAD.:     0.908 HEAT:  108.1349
 CYCLE:   766 TIME:   0.164 TIME LEFT:  2.00D  GRAD.:     0.240 HEAT:  108.1349
 CYCLE:   767 TIME:   0.188 TIME LEFT:  2.00D  GRAD.:     0.246 HEAT:  108.1349
 CYCLE:   768 TIME:   0.188 TIME LEFT:  2.00D  GRAD.:     0.148 HEAT:  108.1349
 CYCLE:   769 TIME:   0.156 TIME LEFT:  2.00D  GRAD.:     0.197 HEAT:  108.1348
 CYCLE:   770 TIME:   0.180 TIME LEFT:  2.00D  GRAD.:     0.702 HEAT:  108.1348
 CYCLE:   771 TIME:   0.164 TIME LEFT:  2.00D  GRAD.:     0.686 HEAT:  108.1348
 CYCLE:   772 TIME:   0.172 TIME LEFT:  2.00D  GRAD.:     1.606 HEAT:  108.1348
 CYCLE:   773 TIME:   0.164 TIME LEFT:  2.00D  GRAD.:     0.240 HEAT:  108.1348
 CYCLE:   774 TIME:   0.172 TIME LEFT:  2.00D  GRAD.:     0.321 HEAT:  108.1348
 CYCLE:   775 TIME:   0.164 TIME LEFT:  2.00D  GRAD.:     0.182 HEAT:  108.1348
 CYCLE:   776 TIME:   0.180 TIME LEFT:  2.00D  GRAD.:     2.141 HEAT:  108.1348
 CYCLE:   777 TIME:   0.164 TIME LEFT:  2.00D  GRAD.:     0.284 HEAT:  108.1348
 CYCLE:   778 TIME:   0.156 TIME LEFT:  2.00D  GRAD.:     0.215 HEAT:  108.1347
 CYCLE:   779 TIME:   0.180 TIME LEFT:  2.00D  GRAD.:     0.150 HEAT:  108.1347
 CYCLE:   780 TIME:   0.180 TIME LEFT:  2.00D  GRAD.:     0.722 HEAT:  108.1347
 CYCLE:   781 TIME:   0.188 TIME LEFT:  2.00D  GRAD.:     0.647 HEAT:  108.1347
 CYCLE:   782 TIME:   0.180 TIME LEFT:  2.00D  GRAD.:     0.764 HEAT:  108.1347
 CYCLE:   783 TIME:   0.188 TIME LEFT:  2.00D  GRAD.:     0.471 HEAT:  108.1347
 CYCLE:   784 TIME:   0.188 TIME LEFT:  2.00D  GRAD.:     1.777 HEAT:  108.1347
 CYCLE:   785 TIME:   0.188 TIME LEFT:  2.00D  GRAD.:     7.371 HEAT:  108.1356
 CYCLE:   786 TIME:   0.180 TIME LEFT:  2.00D  GRAD.:     2.637 HEAT:  108.1348
 CYCLE:   787 TIME:   0.188 TIME LEFT:  2.00D  GRAD.:     2.870 HEAT:  108.1348
 CYCLE:   788 TIME:   0.180 TIME LEFT:  2.00D  GRAD.:     2.854 HEAT:  108.1348
 CYCLE:   789 TIME:   0.188 TIME LEFT:  2.00D  GRAD.:     9.307 HEAT:  108.1357
 CYCLE:   790 TIME:   0.188 TIME LEFT:  2.00D  GRAD.:    16.356 HEAT:  108.1383
 CYCLE:   791 TIME:   0.172 TIME LEFT:  2.00D  GRAD.:    11.161 HEAT:  108.1383
 CYCLE:   792 TIME:   0.164 TIME LEFT:  2.00D  GRAD.:    27.460 HEAT:  108.1504
 CYCLE:   793 TIME:   0.133 TIME LEFT:  2.00D  GRAD.:    17.815 HEAT:  108.1426
 CYCLE:   794 TIME:   0.188 TIME LEFT:  2.00D  GRAD.:     5.056 HEAT:  108.1351
 CYCLE:   795 TIME:   0.180 TIME LEFT:  2.00D  GRAD.:    30.629 HEAT:  108.1457
 CYCLE:   796 TIME:   0.172 TIME LEFT:  2.00D  GRAD.:     5.773 HEAT:  108.1352
 CYCLE:   797 TIME:   0.156 TIME LEFT:  2.00D  GRAD.:    11.989 HEAT:  108.1385
 CYCLE:   798 TIME:   0.156 TIME LEFT:  2.00D  GRAD.:     5.368 HEAT:  108.1352
 CYCLE:   799 TIME:   0.156 TIME LEFT:  2.00D  GRAD.:    66.674 HEAT:  108.1935
 CYCLE:   800 TIME:   0.172 TIME LEFT:  2.00D  GRAD.:     8.348 HEAT:  108.1358
 CYCLE:   801 TIME:   0.188 TIME LEFT:  2.00D  GRAD.:    11.419 HEAT:  108.1364
 CYCLE:   802 TIME:   0.164 TIME LEFT:  2.00D  GRAD.:     7.507 HEAT:  108.1353
 CYCLE:   803 TIME:   0.148 TIME LEFT:  2.00D  GRAD.:     4.547 HEAT:  108.1350
 CYCLE:   804 TIME:   0.180 TIME LEFT:  2.00D  GRAD.:     1.366 HEAT:  108.1347
 CYCLE:   805 TIME:   0.188 TIME LEFT:  2.00D  GRAD.:     0.458 HEAT:  108.1347
 CYCLE:   806 TIME:   0.188 TIME LEFT:  2.00D  GRAD.:     2.417 HEAT:  108.1348
 CYCLE:   807 TIME:   0.180 TIME LEFT:  2.00D  GRAD.:     0.313 HEAT:  108.1346
 CYCLE:   808 TIME:   0.188 TIME LEFT:  2.00D  GRAD.:     0.193 HEAT:  108.1346
 CYCLE:   809 TIME:   0.172 TIME LEFT:  2.00D  GRAD.:     0.292 HEAT:  108.1346
 CYCLE:   810 TIME:   0.172 TIME LEFT:  2.00D  GRAD.:     0.296 HEAT:  108.1346
 CYCLE:   811 TIME:   0.188 TIME LEFT:  2.00D  GRAD.:     0.548 HEAT:  108.1346
 CYCLE:   812 TIME:   0.172 TIME LEFT:  2.00D  GRAD.:     0.183 HEAT:  108.1346
 CYCLE:   813 TIME:   0.180 TIME LEFT:  2.00D  GRAD.:     0.348 HEAT:  108.1346
 CYCLE:   814 TIME:   0.172 TIME LEFT:  2.00D  GRAD.:     0.262 HEAT:  108.1346
 CYCLE:   815 TIME:   0.172 TIME LEFT:  2.00D  GRAD.:     0.699 HEAT:  108.1346
 CYCLE:   816 TIME:   0.172 TIME LEFT:  2.00D  GRAD.:     0.435 HEAT:  108.1346
 CYCLE:   817 TIME:   0.180 TIME LEFT:  2.00D  GRAD.:     0.451 HEAT:  108.1346
 CYCLE:   818 TIME:   0.195 TIME LEFT:  2.00D  GRAD.:     0.201 HEAT:  108.1346
 CYCLE:   819 TIME:   0.195 TIME LEFT:  2.00D  GRAD.:     1.035 HEAT:  108.1345
 CYCLE:   820 TIME:   0.195 TIME LEFT:  2.00D  GRAD.:     0.297 HEAT:  108.1346
 CYCLE:   821 TIME:   0.281 TIME LEFT:  2.00D  GRAD.:     0.987 HEAT:  108.1345
 CYCLE:   822 TIME:   0.227 TIME LEFT:  2.00D  GRAD.:     0.549 HEAT:  108.1345
 CYCLE:   823 TIME:   0.227 TIME LEFT:  2.00D  GRAD.:     0.344 HEAT:  108.1345
 CYCLE:   824 TIME:   0.211 TIME LEFT:  2.00D  GRAD.:     0.209 HEAT:  108.1345
 CYCLE:   825 TIME:   0.195 TIME LEFT:  2.00D  GRAD.:     0.114 HEAT:  108.1345
 CYCLE:   826 TIME:   0.195 TIME LEFT:  2.00D  GRAD.:     0.133 HEAT:  108.1345
 CYCLE:   827 TIME:   0.195 TIME LEFT:  2.00D  GRAD.:     0.380 HEAT:  108.1345
 CYCLE:   828 TIME:   0.195 TIME LEFT:  2.00D  GRAD.:     0.508 HEAT:  108.1345
 CYCLE:   829 TIME:   0.180 TIME LEFT:  2.00D  GRAD.:     3.355 HEAT:  108.1347
 CYCLE:   830 TIME:   0.156 TIME LEFT:  2.00D  GRAD.:     1.899 HEAT:  108.1345
 CYCLE:   831 TIME:   0.172 TIME LEFT:  2.00D  GRAD.:     1.161 HEAT:  108.1345
 CYCLE:   832 TIME:   0.164 TIME LEFT:  2.00D  GRAD.:     2.476 HEAT:  108.1346
 CYCLE:   833 TIME:   0.172 TIME LEFT:  2.00D  GRAD.:     6.291 HEAT:  108.1351
 CYCLE:   834 TIME:   0.156 TIME LEFT:  2.00D  GRAD.:     3.454 HEAT:  108.1346
 CYCLE:   835 TIME:   0.172 TIME LEFT:  2.00D  GRAD.:     0.706 HEAT:  108.1345
 CYCLE:   836 TIME:   0.188 TIME LEFT:  2.00D  GRAD.:     2.029 HEAT:  108.1345
 CYCLE:   837 TIME:   0.195 TIME LEFT:  2.00D  GRAD.:     0.616 HEAT:  108.1345
 CYCLE:   838 TIME:   0.156 TIME LEFT:  2.00D  GRAD.:     0.337 HEAT:  108.1345
 CYCLE:   839 TIME:   0.180 TIME LEFT:  2.00D  GRAD.:     0.812 HEAT:  108.1344
 CYCLE:   840 TIME:   0.156 TIME LEFT:  2.00D  GRAD.:     0.286 HEAT:  108.1344
[...]
   5.33151   5.35593   5.40512   5.42464   5.48417   5.60506   5.64361   5.64367
   5.74335   5.78816   5.79757   5.85920   5.91162   5.91804   6.00407   6.03780
   6.11143   6.25736   6.26332   6.38331   6.55993   6.63428


              NET ATOMIC CHARGES AND DIPOLE CONTRIBUTIONS

  ATOM NO.   TYPE          CHARGE      No. of ELECS.   s-Pop       p-Pop
   44          O          -0.377420        6.3774     1.91039     4.46703
   43          C           0.402152        3.5978     1.18046     2.41738
   45          O          -0.310764        6.3108     1.83993     4.47084
   71          H           0.245061        0.7549     0.75494
    2          C           0.052950        3.9470     1.19471     2.75234
    1          N          -0.148930        5.1489     1.84821     3.30072
    3          C          -0.143564        4.1436     1.14222     3.00134
    4          C           0.139038        3.8610     1.17186     2.68910
    5          C          -0.418961        4.4190     1.21497     3.20399
    6          C          -0.012582        4.0126     1.18400     2.82858
    7          C          -0.142910        4.1429     1.18408     2.95883
    8          C          -0.205429        4.2054     1.20359     3.00184
    9          S           0.490053        5.5099     1.88542     3.62453
   10          C          -0.295457        4.2955     1.20128     3.09417
   11          C          -0.080603        4.0806     1.18187     2.89873
   12          C          -0.122318        4.1223     1.18126     2.94106
   13          C          -0.264488        4.2645     1.21481     3.04967
   14          S           0.466347        5.5337     1.88599     3.64766
   15          C          -0.048924        4.0489     1.14883     2.90009
   16          C          -0.046104        4.0461     1.17684     2.86926
   17          C          -0.170189        4.1702     1.17207     2.99812
   18          C           0.130692        3.8693     1.15125     2.71806
   19          C          -0.090653        4.0907     1.15837     2.93229
   20          C          -0.032790        4.0328     1.16920     2.86359
   21          C          -0.093045        4.0930     1.15873     2.93431
   22          C          -0.034274        4.0343     1.16949     2.86478
   23          C          -0.156657        4.1567     1.17841     2.97825
   24          C          -0.052886        4.0529     1.17667     2.87621
   25          C          -0.168446        4.1684     1.17213     2.99632
   26          C           0.124966        3.8750     1.15126     2.72378
   27          N          -0.258681        5.2587     1.47963     3.77905
   28          C           0.130865        3.8691     1.14320     2.72593
   29          C          -0.146254        4.1463     1.18180     2.96445
   30          C          -0.065632        4.0656     1.17184     2.89379
   31          C          -0.038802        4.0388     1.16371     2.87510
   32          C          -0.040545        4.0405     1.18458     2.85596
   33          C          -0.130877        4.1309     1.17610     2.95477
   34          C           0.069872        3.9301     1.15979     2.77033
   35          C          -0.177604        4.1776     1.15715     3.02045
   36          C          -0.177891        4.1779     1.15713     3.02076
   37          C          -0.064775        4.0648     1.18442     2.88036
   38          C          -0.028414        4.0284     1.16186     2.86656
   39          C          -0.086030        4.0860     1.17305     2.91298
   40          C          -0.106182        4.1062     1.17924     2.92695
   41          C          -0.099255        4.0993     1.17983     2.91943
   42          C          -0.093107        4.0931     1.17311     2.91999
   43          C           0.402152        3.5978     1.18046     2.41738
   44          O          -0.377420        6.3774     1.91039     4.46703
   46          H           0.133339        0.8667     0.86666
   47          H           0.136673        0.8633     0.86333
   48          H           0.139942        0.8601     0.86006
   49          H           0.126259        0.8737     0.87374
   50          H           0.130761        0.8692     0.86924
   51          H           0.109827        0.8902     0.89017
   52          H           0.126956        0.8730     0.87304
   53          H           0.115466        0.8845     0.88453
   54          H           0.108515        0.8915     0.89148
   55          H           0.109449        0.8906     0.89055
   56          H           0.102258        0.8977     0.89774
   57          H           0.124534        0.8755     0.87547
   58          H           0.127508        0.8725     0.87249
   59          H           0.114791        0.8852     0.88521
   60          H           0.133427        0.8666     0.86657
   61          H           0.066294        0.9337     0.93371
   62          H           0.071562        0.9284     0.92844
   63          H           0.064349        0.9357     0.93565
   64          H           0.072506        0.9275     0.92749
   65          H           0.065888        0.9341     0.93411
   66          H           0.065766        0.9342     0.93423
   67          H           0.110476        0.8895     0.88952
   68          H           0.106094        0.8939     0.89391
   69          H           0.105411        0.8946     0.89459
   70          H           0.111396        0.8886     0.88860
   
 DIPOLE           X         Y         Z       TOTAL
 POINT-CHG.    -0.106    -5.361    -2.140     5.773
 HYBRID         1.134     0.157     0.975     1.503
 SUM            1.027    -5.204    -1.165     5.431


          ATOMIC ORBITAL ELECTRON POPULATIONS

     Atom    s        px        py        pz   
    1  N   1.84821   1.11247   1.08765   1.10060
    2  C   1.19471   0.91160   0.91943   0.92131
    3  C   1.14222   0.89048   0.93499   1.17588
    4  C   1.17186   0.98943   0.88693   0.81274
    5  C   1.21497   1.05952   1.00129   1.14318
    6  C   1.18400   0.92455   0.95373   0.95030
    7  C   1.18408   1.00642   0.94111   1.01130
    8  C   1.20359   1.01717   0.95862   1.02605
    9  S   1.88542   1.23805   0.90133   1.48515
   10  C   1.20128   1.00112   0.95922   1.13384
   11  C   1.18187   0.97327   0.93179   0.99367
   12  C   1.18126   0.94852   0.96536   1.02719
   13  C   1.21481   0.98204   0.98917   1.07847
   14  S   1.88599   1.01967   0.94076   1.68723
   15  C   1.14883   0.96535   0.93559   0.99915
   16  C   1.17684   0.98138   0.93262   0.95526
   17  C   1.17207   0.97336   0.99251   1.03225
   18  C   1.15125   0.92077   0.84266   0.95462
   19  C   1.15837   0.96659   0.96328   1.00242
   20  C   1.16920   0.94050   0.94772   0.97537
   21  C   1.15873   0.97011   0.95477   1.00943
   22  C   1.16949   0.93070   0.97895   0.95513
   23  C   1.17841   0.99806   0.96037   1.01982
   24  C   1.17667   0.96953   0.96099   0.94570
   25  C   1.17213   0.96622   0.99822   1.03188
   26  C   1.15126   0.87123   0.95129   0.90126
   27  N   1.47963   1.23271   1.18420   1.36214
   28  C   1.14320   0.94086   0.88412   0.90095
   29  C   1.18180   0.97151   0.98153   1.01142
   30  C   1.17184   0.98328   0.96045   0.95006
   31  C   1.16371   0.94176   0.96667   0.96666
   32  C   1.18458   0.94831   0.95065   0.95700
   33  C   1.17610   0.99971   0.99228   0.96279
   34  C   1.15979   0.92522   0.92324   0.92187
   35  C   1.15715   0.97744   1.02081   1.02220
   36  C   1.15713   1.03195   0.99565   0.99317
   37  C   1.18442   0.94787   0.96667   0.96582
   38  C   1.16186   0.94499   0.95975   0.96182
   39  C   1.17305   0.97995   0.95905   0.97398
   40  C   1.17924   0.97005   0.98652   0.97038
   41  C   1.17983   0.94020   0.98634   0.99288
   42  C   1.17311   0.98667   0.96112   0.97220
   43  C   1.18046   0.84457   0.84985   0.72296
   44  O   1.91039   1.15952   1.85374   1.45378
   45  O   1.83993   1.41997   1.18793   1.86294
   46  H   0.86666
   47  H   0.86333
   48  H   0.86006
   49  H   0.87374
   50  H   0.86924
   51  H   0.89017
   52  H   0.87304
   53  H   0.88453
   54  H   0.89148
   55  H   0.89055
   56  H   0.89774
   57  H   0.87547
   58  H   0.87249
   59  H   0.88521
   60  H   0.86657
   61  H   0.93371
   62  H   0.92844
   63  H   0.93565
   64  H   0.92749
   65  H   0.93411
   66  H   0.93423
   67  H   0.88952
   68  H   0.89391
   69  H   0.89459
   70  H   0.88860
   71  H   0.75494
 ******************** TDHF POLARIZABILITIES ********************



          MOLECULAR WEIGHT =  618.77



          ROTATIONAL CONSTANTS IN CM(-1)

          A =    0.00566631   B =    0.00055365   C =    0.00053129



           PRINCIPAL MOMENTS OF INERTIA IN UNITS OF 10**(-40)*GRAM-CM**2

          A =     4940.2136   B =    50560.5180   C =    52688.7266


 ROTATION MATRIX FOR ORIENTATION OF MOLECULE:

         0.211843   -0.748062    0.628908
         0.928881   -0.045932   -0.367520
         0.303814    0.662037    0.685130


          CARTESIAN COORDINATES 

    NO.       ATOM         X         Y         Z

     1         N        9.6574    1.3433   -2.5467
     2         C        9.9024    0.4782   -1.8194
     3         C       10.2208   -0.5825   -0.9356
     4         C        9.3573   -1.0587   -0.0168
     5         C        8.0528   -0.5076    0.2019
     6         C        7.6866    0.8102    0.1299
     7         C        6.3035    0.9976    0.4370
     8         C        5.6775   -0.1843    0.7290
     9         S        6.7446   -1.5189    0.6441
    10         C        4.3018   -0.3616    1.0631
    11         C        3.7958   -1.1892    2.0269
    12         C        2.3682   -1.1173    2.0991
    13         C        1.8520   -0.2393    1.1896
    14         S        3.0685    0.4982    0.2382
    15         C        0.4508    0.0528    0.9995
    16         C       -0.4624   -1.0136    0.9946
    17         C       -1.8213   -0.8027    0.8317
    18         C       -2.2498    0.5138    0.6823
    19         C       -1.3304    1.5991    0.6698
    20         C        0.0238    1.3675    0.8323
    21         C       -2.0958    2.8033    0.4662
    22         C       -1.7404    4.1392    0.3739
    23         C       -2.7452    5.0765    0.1856
    24         C       -4.0871    4.6912    0.1003
    25         C       -4.4716    3.3623    0.1900
    26         C       -3.4604    2.4213    0.3615
    27         N       -3.5490    1.0203    0.4942
    28         C       -4.7394    0.2558    0.4387
    29         C       -5.0053   -0.6699    1.4479
    30         C       -6.1718   -1.4357    1.4008
    31         C       -7.0456   -1.2429    0.3526
    32         C       -6.7704   -0.2992   -0.6589
    33         C       -5.6225    0.4545   -0.6387
    34         C       -7.8770   -0.2837   -1.6855
    35         C       -8.5481    1.0808   -1.7346
    36         C       -7.3502   -0.6867   -3.0547
    37         C       -8.8206   -1.3284   -1.1434
    38         C       -8.3171   -1.8805    0.0521
    39         C       -9.0119   -2.8587    0.7304
    40         C      -10.2310   -3.2880    0.1987
    41         C      -10.7265   -2.7448   -0.9776
    42         C      -10.0201   -1.7520   -1.6651
    43         C       11.5494   -1.1960   -1.0655
    44         O       11.9807   -2.1409   -0.4199
    45         O       12.3295   -0.6194   -2.0015
    46         H        9.6358   -1.9191    0.6121
    47         H        8.3498    1.6425   -0.0996
    48         H        5.8279    1.9757    0.4373
    49         H        4.3857   -1.8260    2.6818
    50         H        1.7851   -1.6937    2.8131
    51         H       -0.0921   -2.0375    1.1118
    52         H       -2.5233   -1.6389    0.8072
    53         H        0.7274    2.2041    0.8338
    54         H       -0.6918    4.4372    0.4507
    55         H       -2.4880    6.1365    0.1067
    56         H       -4.8538    5.4603   -0.0382
    57         H       -5.5231    3.0720    0.1422
    58         H       -4.3141   -0.7943    2.2878
    59         H       -6.3865   -2.1665    2.1847
    60         H       -5.3996    1.1689   -1.4364
    61         H       -9.3997    1.0909   -2.4299
    62         H       -8.9351    1.3852   -0.7517
    63         H       -7.8527    1.8667   -2.0627
    64         H       -6.8587   -1.6699   -3.0337
    65         H       -8.1569   -0.7490   -3.7991
    66         H       -6.6115    0.0321   -3.4370
    67         H       -8.6232   -3.2873    1.6569
    68         H      -10.7995   -4.0635    0.7206
    69         H      -11.6830   -3.0950   -1.3769
    70         H      -10.4142   -1.3271   -2.5915
    71         H       13.1920   -1.0566   -2.0532


 ENERGY OF "REORIENTED" SYSTEM WITHOUT FIELD:      108.1340637360


  NFREQ=  3  IWFLB=  0  IBET=  1  IGAM=  1
  ATOL= 0.10000D-02  BTOL= 0.10000D-02    MAXITU=  500    MAXITA=  150


 *****************************************************************
 CALCULATION OF STATIC FIELD QUANTITIES
 *****************************************************************

 +++++ ALPHA AT       0.00000 EV.

                           COMPONENTS OF ALPHA

                     *X           *Y           *Z
           *=X:     769.4219      27.5516      -3.1118
           *=Y:      27.5578     411.8863     -92.0472
           *=Z:      -3.1411     -92.0446     238.2975

  ISOTROPIC AVERAGE ALPHA =     473.20193 A.U. =     70.12129 ANG.**3

 +++++ BETA (SECOND HARMONIC GENERATION) AT       0.00000 EV.

                              COMPONENTS OF BETA
            *XX         *XY         *YY         *XZ         *YZ         *ZZ
   *=X -8020.45231  2428.98565   305.75077   902.17308  -128.81609  -159.42801
   *=Y  2429.02642   305.70748  -671.03493  -128.83257    60.58648    49.46418
   *=Z   902.99969  -128.99651    60.48306  -159.56262    49.49118  -104.67770


 AVERAGE BETAX(SHG) VALUE AT   0.00000 EV =      -4724.5489 a.u. = -0.408174E-28 ESU
 AVERAGE BETAY(SHG) VALUE AT   0.00000 EV =       1084.4679 a.u. =  0.936917E-29 ESU
 AVERAGE BETAZ(SHG) VALUE AT   0.00000 EV =        514.9938 a.u. =  0.444925E-29 ESU



 AVERAGE BETA (SHG) VALUE AT   0.00000 EV =       4874.6950 a.u. =  0.421145E-28 ESU
   (1 a.u. = 8.639418X10-33 esu)



 +++++ ALPHA AT       0.00000 EV.

                           COMPONENTS OF ALPHA

                     *X           *Y           *Z
           *=X:     769.4219      27.5516      -3.1118
           *=Y:      27.5578     411.8863     -92.0472
           *=Z:      -3.1411     -92.0446     238.2975

  ISOTROPIC AVERAGE ALPHA =     473.20193 A.U. =     70.12129 ANG.**3


 GAMMA (THIRD HARMONIC GENERATION) AT    0.00000 EV.


 GAMMA(X,X,X,X) =       3279048.73346
 GAMMA(Y,Y,Y,Y) =        100318.72595
 GAMMA(Z,Z,Z,Z) =         10991.89932
 GAMMA(X,X,Y,Y) =        162710.49695
 GAMMA(X,X,Z,Z) =         60719.44180
 GAMMA(Y,Y,X,X) =        162710.20924
 GAMMA(Y,Y,Z,Z) =          6416.87928
 GAMMA(Z,Z,X,X) =         60720.20769
 GAMMA(Z,Z,Y,Y) =          6416.82700


 AVERAGE GAMMA VALUE AT    0.00000 =        770010.68414 a.u. =       387831.47994 ESU (X10-39)




 **********************************************************************
 CALCULATION FOR A FREQUENCY OF    0.25000 EV  =       0.00919 A.U. 
                  WAVELENGTH OF    4959.37 NM  =    2016.38525 CM(-1)
 **********************************************************************

 +++++ ALPHA AT       0.25000 EV.

                           COMPONENTS OF ALPHA

                     *X           *Y           *Z
           *=X:     772.9840      27.5852      -3.3404
           *=Y:      27.5904     412.7047     -92.1284
           *=Z:      -3.3656     -92.1262     238.6974

  ISOTROPIC AVERAGE ALPHA =     474.79538 A.U. =     70.35742 ANG.**3

 +++++ BETA (SECOND HARMONIC GENERATION) AT       0.25000 EV.

                              COMPONENTS OF BETA
            *XX         *XY         *YY         *XZ         *YZ         *ZZ
   *=X -8401.49686  2534.61726   323.61418   955.95068  -135.15061  -169.77826
   *=Y  2508.91682   315.85980  -685.92456  -130.14545    62.76779    50.12739
   *=Z   956.23326  -135.04659    61.80531  -171.26045    52.13036  -103.07168


 AVERAGE BETAX(SHG) VALUE AT   0.25000 EV =      -4952.2912 a.u. = -0.427849E-28 ESU
 AVERAGE BETAY(SHG) VALUE AT   0.25000 EV =       1134.9532 a.u. =  0.980533E-29 ESU
 AVERAGE BETAZ(SHG) VALUE AT   0.25000 EV =        549.2521 a.u. =  0.474522E-29 ESU



 AVERAGE BETA (SHG) VALUE AT   0.25000 EV =       5110.2822 a.u. =  0.441499E-28 ESU
   (1 a.u. = 8.639418X10-33 esu)



 +++++ ALPHA AT       0.75000 EV.

                           COMPONENTS OF ALPHA

                     *X           *Y           *Z
           *=X:     803.5492      27.8326      -5.3316
           *=Y:      27.8357     419.4652     -92.7716
           *=Z:      -5.3569     -92.7698     242.0014

  ISOTROPIC AVERAGE ALPHA =     488.33858 A.U. =     72.36431 ANG.**3


 GAMMA (THIRD HARMONIC GENERATION) AT    0.25000 EV.


 GAMMA(X,X,X,X) =       3646230.96352
 GAMMA(Y,Y,Y,Y) =        106415.87948
 GAMMA(Z,Z,Z,Z) =         11540.13744
 GAMMA(X,X,Y,Y) =        176651.60011
 GAMMA(X,X,Z,Z) =         67279.61860
 GAMMA(Y,Y,X,X) =        176983.24377
 GAMMA(Y,Y,Z,Z) =          6673.09901
 GAMMA(Z,Z,X,X) =         68458.46167
 GAMMA(Z,Z,Y,Y) =          6728.56206


 AVERAGE GAMMA VALUE AT    0.25000 =        853392.31313 a.u. =       429828.32652 ESU (X10-39)




 **********************************************************************
 CALCULATION FOR A FREQUENCY OF    0.50000 EV  =       0.01837 A.U. 
                  WAVELENGTH OF    2479.68 NM  =    4032.77050 CM(-1)
 **********************************************************************

 +++++ ALPHA AT       0.50000 EV.

                           COMPONENTS OF ALPHA

                     *X           *Y           *Z
           *=X:     783.9957      27.6818      -4.0477
           *=Y:      27.6857     415.1931     -92.3718
           *=Z:      -4.0697     -92.3700     239.9130

  ISOTROPIC AVERAGE ALPHA =     479.70058 A.U. =     71.08429 ANG.**3

 +++++ BETA (SECOND HARMONIC GENERATION) AT       0.50000 EV.

                              COMPONENTS OF BETA
            *XX         *XY         *YY         *XZ         *YZ         *ZZ
   *=X -9749.91204  2905.74796   388.05561  1148.14442  -157.81583  -206.68026
   *=Y  2779.32912   349.80698  -734.41852  -134.47016    70.22104    52.24463
   *=Z  1146.81788  -157.02674    65.79152  -212.57172    61.25986   -96.93452


 AVERAGE BETAX(SHG) VALUE AT   0.50000 EV =      -5758.7781 a.u. = -0.497525E-28 ESU
 AVERAGE BETAY(SHG) VALUE AT   0.50000 EV =       1312.4668 a.u. =  0.113389E-28 ESU
 AVERAGE BETAZ(SHG) VALUE AT   0.50000 EV =        671.7074 a.u. =  0.580316E-29 ESU



 AVERAGE BETA (SHG) VALUE AT   0.50000 EV =       5944.5172 a.u. =  0.513572E-28 ESU
   (1 a.u. = 8.639418X10-33 esu)



 +++++ ALPHA AT       1.50000 EV.

                           COMPONENTS OF ALPHA

                     *X           *Y           *Z
           *=X:     947.2551      28.2846     -16.0140
           *=Y:      28.2821     445.9459     -94.6170
           *=Z:     -16.0602     -94.6170     255.0794

  ISOTROPIC AVERAGE ALPHA =     549.42678 A.U. =     81.41665 ANG.**3


 GAMMA (THIRD HARMONIC GENERATION) AT    0.50000 EV.


 GAMMA(X,X,X,X) =       5305673.13624
 GAMMA(Y,Y,Y,Y) =        129230.38857
 GAMMA(Z,Z,Z,Z) =         13737.53988
 GAMMA(X,X,Y,Y) =        234854.02540
 GAMMA(X,X,Z,Z) =         96985.38471
 GAMMA(Y,Y,X,X) =        234993.05526
 GAMMA(Y,Y,Z,Z) =          7605.74935
 GAMMA(Z,Z,X,X) =        102672.38511
 GAMMA(Z,Z,Y,Y) =          7902.17196


 AVERAGE GAMMA VALUE AT    0.50000 =       1226730.76730 a.u. =       617867.80205 ESU (X10-39)



 **********************
 *                    *
 * JOB ENDED NORMALLY *
 *                    *
 **********************



 TOTAL JOB TIME:           265.74 SECONDS

 == MOPAC DONE ==
