 *******************************************************************************
 ** Site#: 4824         For non-commercial use only    Version 21.013L 64BITS **
 *******************************************************************************
 ** Cite this program as: MOPAC2016, Version: 21.013L, James J. P. Stewart,   **
 ** Stewart Computational Chemistry, web: HTTP://OpenMOPAC.net. Days left:  88**
 *******************************************************************************
 **                                                                           **
 **                                MOPAC2016                                  **
 **                                                                           **
 *******************************************************************************

                              RM1 CALCULATION RESULTS

 *******************************************************************************
 *  CALCULATION DONE:                                Sun Oct 17 20:24:08 2021  *
 *  RM1        - The RM1 Hamiltonian to be used
 *  POLAR      - CALCULATE FIRST, SECOND AND THIRD-ORDER POLARIZABILITIES
 *  PRECISE    - TIGHTER CRITERIA TO BE USED
 *  T=         - A TIME OF 172800.0 SECONDS REQUESTED
 *  DUMP=N     - RESTART FILE WRITTEN EVERY 7200.0 SECONDS REQUESTED
 *  GNORM      - EXIT WHEN GRADIENT NORM DROPS BELOW 0.100
 *******************************************************************************
RM1 PRECISE POLAR GNORM=0.1


  ATOM    CHEMICAL      BOND LENGTH      BOND ANGLE     TWIST ANGLE 
 NUMBER    SYMBOL       (ANGSTROMS)      (DEGREES)       (DEGREES) 
   (I)                     NA:I           NB:NA:I       NC:NB:NA:I       NA    NB    NC 
     1       N          0.00000000       0.0000000       0.0000000        0     0     0
     2       C          1.15790000  *    0.0000000       0.0000000        1     0     0
     3       C          1.42980000  *  179.7419000  *    0.0000000        2     1     0
     4       C          1.34880000  *  121.3461000  * -179.8306000  *     3     2     1
     5       C          1.46480000  *  124.4008000  *   -1.1818000  *     4     3     2
     6       C          1.34870000  *  128.3796000  *  -46.0555000  *     5     4     3
     7       C          1.48720000  *  115.6952000  * -177.6138000  *     6     5     4
     8       C          1.34850000  *  115.8490000  *    0.9344000  *     7     6     5
     9       S          1.81940000  *  124.1472000  *  138.1295000  *     5     4     3
    10       C          1.46460000  *  125.8076000  *  179.2429000  *     8     7     6
    11       C          1.34540000  *  121.8438000  * -177.5046000  *    10     8     7
    12       C          1.46420000  *  123.5167000  *  179.0497000  *    11    10     8
    13       C          1.34840000  *  129.1303000  *    0.8784000  *    12    11    10
    14       C          1.48720000  *  115.7823000  *  179.9849000  *    13    12    11
    15       C          1.35030000  *  116.2266000  *    0.0000000  *    14    13    12
    16       S          1.81900000  *  123.8034000  * -179.0011000  *    12    11    10
    17       C          1.47180000  *  127.5603000  * -179.2757000  *    15    14    13
    18       C          1.48830000  *  120.5885000  *  -10.5610000  *    17    15    14
    19       C          1.34730000  *  121.3948000  *  179.4308000  *    18    17    15
    20       C          1.46040000  *  118.3638000  *   -0.1017000  *    19    18    17
    21       C          1.34200000  *  120.4771000  *    0.7527000  *    20    19    18
    22       C          1.35180000  *  120.1424000  *  169.3286000  *    17    15    14
    23       C          1.45830000  *  107.6039000  *  179.4922000  *    21    20    19
    24       C          1.46100000  *  130.7326000  *  178.4917000  *    23    21    20
    25       C          1.34750000  *  117.9815000  * -178.9403000  *    24    23    21
    26       C          1.47940000  *  120.6698000  *    0.3838000  *    25    24    23
    27       C          1.34750000  *  120.7820000  *   -0.0318000  *    26    25    24
    28       C          1.34350000  *  107.6184000  *   -0.3551000  *    23    21    20
    29       N          1.41840000  *  130.1951000  *  179.0600000  *    20    19    18
    30       C          1.41100000  *  126.6123000  * -166.8211000  *    29    20    21
    31       C          1.35080000  *  120.8421000  *   48.1895000  *    30    29    20
    32       C          1.47220000  *  120.7383000  *  177.9703000  *    31    30    29
    33       C          1.34110000  *  118.0224000  *   -0.5168000  *    32    31    30
    34       C          1.46480000  *  121.9915000  *    0.6064000  *    33    32    31
    35       C          1.34340000  *  119.9786000  *    0.1323000  *    34    33    32
    36       C          1.52530000  *  112.2751000  * -179.4420000  *    34    33    32
    37       C          1.55290000  *  110.9674000  *   63.3378000  *    36    34    35
    38       C          1.55340000  *  110.8563000  *  -61.7946000  *    36    34    35
    39       C          1.52630000  *  100.2662000  * -179.2265000  *    36    34    35
    40       C          1.45300000  *  130.3647000  * -178.7702000  *    33    32    31
    41       C          1.34150000  *  130.2652000  *   -0.5286000  *    40    33    32
    42       C          1.47260000  *  117.9838000  *  179.2212000  *    41    40    33
    43       C          1.34840000  *  120.4833000  *   -0.1156000  *    42    41    40
    44       C          1.34450000  *  127.9301000  *  179.1368000  *    39    36    34
    45       C          1.47490000  *  117.7995000  *  177.7531000  *     3     2     4
    46       O          1.23230000  *  121.0857000  *   -3.0811000  *    45     3     4
    47       O          1.35550000  *  119.9102000  *  177.2783000  *    45     3     4
    48       H          1.05300000  *  118.7840000  *  176.2036000  *     4     3     2
    49       H          1.05120000  *  118.2832000  *    1.9194000  *    10     8     7
    50       H          1.05190000  *  119.1883000  *   -0.4328000  *    11    10     8
    51       H          1.04880000  *  122.7155000  *    0.6632000  *     6     5     4
    52       H          1.04910000  *  121.6409000  * -179.6969000  *     7     6     5
    53       H          1.04850000  *  123.0024000  *    0.1970000  *    13    12    11
    54       H          1.04840000  *  120.8908000  * -179.3060000  *    14    13    12
    55       H          1.05070000  *  120.0784000  *  179.0656000  *    18    17    22
    56       H          1.04990000  *  120.6879000  *  179.5976000  *    19    18    17
    57       H          1.04990000  *  121.5105000  *   -0.0852000  *    22    17    15
    58       H          1.04990000  *  121.0558000  *  179.6883000  *    24    23    28
    59       H          1.05130000  *  119.7976000  * -179.9596000  *    25    24    23
    60       H          1.05140000  *  119.4753000  *  179.6630000  *    26    25    24
    61       H          1.04970000  *  120.5982000  *  179.5679000  *    27    26    25
    62       H          1.05150000  *  120.1762000  *   -0.5915000  *    31    30    29
    63       H          1.04980000  *  120.5459000  * -179.4953000  *    32    31    30
    64       H          1.05060000  *  120.6868000  *  179.6275000  *    35    34    33
    65       H          1.09180000  *  110.1509000  *   56.2807000  *    37    36    34
    66       H          1.09150000  *  110.1006000  *  176.3138000  *    37    36    34
    67       H          1.09130000  *  110.1867000  *  -63.7974000  *    37    36    34
    68       H          1.09160000  *  110.2000000  *   63.6658000  *    38    36    34
    69       H          1.09140000  *  110.1482000  * -176.4278000  *    38    36    34
    70       H          1.09190000  *  110.1099000  *  -56.3782000  *    38    36    34
    71       H          1.05000000  *  121.4083000  *   -0.3943000  *    41    40    33
    72       H          1.05100000  *  119.6195000  * -179.8576000  *    42    41    40
    73       H          1.05100000  *  119.7590000  * -179.7386000  *    43    42    41
    74       H          1.05010000  *  120.9907000  *  179.7367000  *    44    39    40
    75       H          0.94090000  *  120.9885000  *    0.1418000  *    47    45    46
 


          CARTESIAN COORDINATES 

    NO.       ATOM           X           Y           Z

     1         N          0.0000      0.0000      0.0000
     2         C          1.1579      0.0000      0.0000
     3         C          2.5877      0.0064      0.0000
     4         C          3.2945     -1.1423     -0.0034
     5         C          2.6991     -2.4805      0.0176
     6         C          1.7018     -2.9411      0.8001
     7         C          1.3522     -4.3755      0.6216
     8         C          2.0856     -5.0508     -0.2865
     9         S          3.2905     -3.8773     -0.9870
    10         C          1.9387     -6.4686     -0.6232
    11         C          2.7488     -7.0752     -1.5097
    12         C          2.6478     -8.4937     -1.8583
    13         C          1.7758     -9.4199     -1.4111
    14         C          1.9427    -10.7883     -1.9692
    15         C          2.9453    -10.9517     -2.8589
    16         S          3.7552     -9.3278     -3.0360
    17         C          3.3214    -12.1839     -3.5704
    18         C          2.7290    -13.4931     -3.1830
    19         C          3.0531    -14.6293     -3.8305
    20         C          4.0063    -14.5511     -4.9342
    21         C          4.5533    -13.3752     -5.2791
    22         C          4.2105    -12.1359     -4.5876
    23         C          5.4615    -13.6212     -6.3932
    24         C          6.2881    -12.7007     -7.1705
    25         C          7.0274    -13.2098     -8.1755
    26         C          6.9908    -14.6568     -8.4813
    27         C          6.2187    -15.4944     -7.7616
    28         C          5.4262    -14.9366     -6.6639
    29         N          4.5316    -15.5743     -5.7643
    30         C          4.0328    -16.8872     -5.8995
    31         C          2.7162    -17.1103     -6.1030
    32         C          2.2046    -18.4783     -6.2881
    33         C          3.0849    -19.4895     -6.2589
    34         C          4.5157    -19.2668     -6.0376
    35         C          4.9803    -18.0198     -5.8537
    36         C          5.3136    -20.5665     -6.0608
    37         C          5.9842    -20.8314     -4.6854
    38         C          6.3468    -20.5607     -7.2207
    39         C          4.1935    -21.5686     -6.3273
    40         C          2.8834    -20.9180     -6.4323
    41         C          1.7591    -21.6137     -6.6596
    42         C          1.8691    -23.0744     -6.8109
    43         C          3.0693    -23.6826     -6.7239
    44         C          4.2940    -22.9017     -6.4701
    45         C          3.2697      1.3133     -0.0473
    46         O          4.4995      1.3901     -0.0343
    47         O          2.5404      2.4548     -0.0988
    48         H          4.3445     -1.0914     -0.0644
    49         H          1.1809     -7.0182     -0.1451
    50         H          3.5051     -6.5156     -1.9801
    51         H          1.2167     -2.3421      1.5114
    52         H          0.5879     -4.8292      1.1789
    53         H          1.0202     -9.2047     -0.7168
    54         H          1.3015    -11.5675     -1.6849
    55         H          2.0479    -13.5473     -2.3848
    56         H          2.6332    -15.5478     -3.5438
    57         H          4.6476    -11.2313     -4.8921
    58         H          6.3050    -11.6735     -6.9541
    59         H          7.6331    -12.5733     -8.7528
    60         H          7.5712    -15.0330     -9.2731
    61         H          6.1897    -16.5196     -7.9854
    62         H          2.0449    -16.3026     -6.1536
    63         H          1.1819    -18.6476     -6.4539
    64         H          6.0035    -17.8477     -5.6884
    65         H          5.2307    -20.8425     -3.8954
    66         H          6.4965    -21.7951     -4.6973
    67         H          6.7137    -20.0501     -4.4654
    68         H          7.0835    -19.7703     -7.0653
    69         H          6.8666    -21.5192     -7.2660
    70         H          5.8411    -20.3884     -8.1730
    71         H          0.8265    -21.1372     -6.7347
    72         H          1.0048    -23.6444     -6.9920
    73         H          3.1352    -24.7254     -6.8378
    74         H          5.2242    -23.3842     -6.4022
    75         H          2.9597      3.2967     -0.1265

  H: (RM1): G.B. ROCHA, R.O. FREIRE, A.M.SIMAS, J.J.P. STEWART, J. COMP. CHEM. 27, 1101 (2006)
  C: (RM1): G.B. ROCHA, R.O. FREIRE, A.M.SIMAS, J.J.P. STEWART, J. COMP. CHEM. 27, 1101 (2006)
  N: (RM1): G.B. ROCHA, R.O. FREIRE, A.M.SIMAS, J.J.P. STEWART, J. COMP. CHEM. 27, 1101 (2006)
  O: (RM1): G.B. ROCHA, R.O. FREIRE, A.M.SIMAS, J.J.P. STEWART, J. COMP. CHEM. 27, 1101 (2006)
  S: (RM1): G.B. ROCHA, R.O. FREIRE, A.M.SIMAS, J.J.P. STEWART, J. COMP. CHEM. 27, 1101 (2006)

           Empirical Formula: C41 H28 N2 O2 S2  =    75 atoms



      MOLECULAR POINT GROUP   :   C1  


      RHF CALCULATION, NO. OF DOUBLY OCCUPIED LEVELS = 113


          Geometry optimization using L-BFGS
 CYCLE:     1 TIME:   0.648 TIME LEFT:  2.00D  GRAD.:   662.751 HEAT:  193.7264
 CYCLE:     2 TIME:   0.281 TIME LEFT:  2.00D  GRAD.:   507.653 HEAT:  189.9214
 CYCLE:     3 TIME:   0.250 TIME LEFT:  2.00D  GRAD.:   493.573 HEAT:  180.2277
 CYCLE:     4 TIME:   0.398 TIME LEFT:  2.00D  GRAD.:   511.619 HEAT:  189.9214
 CYCLE:     5 TIME:   0.422 TIME LEFT:  2.00D  GRAD.:   497.714 HEAT:  180.2099
 CYCLE:     6 TIME:   0.461 TIME LEFT:  2.00D  GRAD.:   415.217 HEAT:  174.7218
 CYCLE:     7 TIME:   0.383 TIME LEFT:  2.00D  GRAD.:   436.679 HEAT:  163.6432
 CYCLE:     8 TIME:   0.352 TIME LEFT:  2.00D  GRAD.:   422.321 HEAT:  148.2765
 CYCLE:     9 TIME:   0.391 TIME LEFT:  2.00D  GRAD.:   699.209 HEAT:  142.9623
 CYCLE:    10 TIME:   0.391 TIME LEFT:  2.00D  GRAD.:   150.751 HEAT:  131.7126
 CYCLE:    11 TIME:   0.320 TIME LEFT:  2.00D  GRAD.:    94.606 HEAT:  130.9619
 CYCLE:    12 TIME:   0.305 TIME LEFT:  2.00D  GRAD.:   121.568 HEAT:  129.9780
 CYCLE:    13 TIME:   0.258 TIME LEFT:  2.00D  GRAD.:   135.126 HEAT:  128.6737
 CYCLE:    14 TIME:   0.305 TIME LEFT:  2.00D  GRAD.:   145.373 HEAT:  126.9238
 CYCLE:    15 TIME:   0.469 TIME LEFT:  2.00D  GRAD.:   299.035 HEAT:  127.7961
 CYCLE:    16 TIME:   0.258 TIME LEFT:  2.00D  GRAD.:    58.247 HEAT:  126.0117
 CYCLE:    17 TIME:   0.219 TIME LEFT:  2.00D  GRAD.:    48.932 HEAT:  125.8203
 CYCLE:    18 TIME:   0.289 TIME LEFT:  2.00D  GRAD.:   263.439 HEAT:  125.4840
 CYCLE:    19 TIME:   0.469 TIME LEFT:  2.00D  GRAD.:    92.436 HEAT:  124.8745
 CYCLE:    20 TIME:   0.234 TIME LEFT:  2.00D  GRAD.:    41.808 HEAT:  124.5884
 CYCLE:    21 TIME:   0.297 TIME LEFT:  2.00D  GRAD.:    41.133 HEAT:  124.4207
 CYCLE:    22 TIME:   0.219 TIME LEFT:  2.00D  GRAD.:    39.701 HEAT:  124.1834
 CYCLE:    23 TIME:   0.312 TIME LEFT:  2.00D  GRAD.:    73.986 HEAT:  123.8571
 CYCLE:    24 TIME:   0.398 TIME LEFT:  2.00D  GRAD.:    55.052 HEAT:  123.6689
 CYCLE:    25 TIME:   0.258 TIME LEFT:  2.00D  GRAD.:    25.163 HEAT:  123.5570
 CYCLE:    26 TIME:   0.281 TIME LEFT:  2.00D  GRAD.:    19.448 HEAT:  123.4842
 CYCLE:    27 TIME:   0.367 TIME LEFT:  2.00D  GRAD.:    27.537 HEAT:  123.3549
 CYCLE:    28 TIME:   0.320 TIME LEFT:  2.00D  GRAD.:    39.129 HEAT:  123.2849
 CYCLE:    29 TIME:   0.414 TIME LEFT:  2.00D  GRAD.:    22.151 HEAT:  123.2114
 CYCLE:    30 TIME:   0.211 TIME LEFT:  2.00D  GRAD.:    18.643 HEAT:  123.1653
 CYCLE:    31 TIME:   0.234 TIME LEFT:  2.00D  GRAD.:    18.572 HEAT:  123.1130
 CYCLE:    32 TIME:   0.227 TIME LEFT:  2.00D  GRAD.:    84.514 HEAT:  123.1451
 CYCLE:    33 TIME:   0.367 TIME LEFT:  2.00D  GRAD.:    22.605 HEAT:  123.0639
 CYCLE:    34 TIME:   0.242 TIME LEFT:  2.00D  GRAD.:    10.722 HEAT:  123.0550
 CYCLE:    35 TIME:   0.234 TIME LEFT:  2.00D  GRAD.:     9.675 HEAT:  123.0484
 CYCLE:    36 TIME:   0.219 TIME LEFT:  2.00D  GRAD.:    11.311 HEAT:  123.0403
 CYCLE:    37 TIME:   0.297 TIME LEFT:  2.00D  GRAD.:     9.155 HEAT:  123.0267
 CYCLE:    38 TIME:   0.328 TIME LEFT:  2.00D  GRAD.:     7.347 HEAT:  123.0147
 CYCLE:    39 TIME:   0.352 TIME LEFT:  2.00D  GRAD.:    10.428 HEAT:  123.0030
 CYCLE:    40 TIME:   0.281 TIME LEFT:  2.00D  GRAD.:    13.200 HEAT:  122.9925
 CYCLE:    41 TIME:   0.312 TIME LEFT:  2.00D  GRAD.:     7.997 HEAT:  122.9839
 CYCLE:    42 TIME:   0.297 TIME LEFT:  2.00D  GRAD.:     8.004 HEAT:  122.9765
 CYCLE:    43 TIME:   0.391 TIME LEFT:  2.00D  GRAD.:    10.738 HEAT:  122.9646
 CYCLE:    44 TIME:   0.406 TIME LEFT:  2.00D  GRAD.:    10.769 HEAT:  122.9472
 CYCLE:    45 TIME:   0.312 TIME LEFT:  2.00D  GRAD.:    16.142 HEAT:  122.9335
 CYCLE:    46 TIME:   0.305 TIME LEFT:  2.00D  GRAD.:    15.917 HEAT:  122.9154
 CYCLE:    47 TIME:   0.375 TIME LEFT:  2.00D  GRAD.:    51.846 HEAT:  122.9272
 CYCLE:    48 TIME:   0.320 TIME LEFT:  2.00D  GRAD.:    18.312 HEAT:  122.9056
 CYCLE:    49 TIME:   0.273 TIME LEFT:  2.00D  GRAD.:    11.205 HEAT:  122.9006
 CYCLE:    50 TIME:   0.219 TIME LEFT:  2.00D  GRAD.:    14.880 HEAT:  122.8938
 CYCLE:    51 TIME:   0.203 TIME LEFT:  2.00D  GRAD.:    10.256 HEAT:  122.8866
 CYCLE:    52 TIME:   0.242 TIME LEFT:  2.00D  GRAD.:     8.052 HEAT:  122.8735
 CYCLE:    53 TIME:   0.297 TIME LEFT:  2.00D  GRAD.:    10.460 HEAT:  122.8647
 CYCLE:    54 TIME:   0.234 TIME LEFT:  2.00D  GRAD.:     8.214 HEAT:  122.8524
 CYCLE:    55 TIME:   0.234 TIME LEFT:  2.00D  GRAD.:    13.553 HEAT:  122.8430
 CYCLE:    56 TIME:   0.211 TIME LEFT:  2.00D  GRAD.:     8.193 HEAT:  122.8306
 CYCLE:    57 TIME:   0.203 TIME LEFT:  2.00D  GRAD.:     6.761 HEAT:  122.8171
 CYCLE:    58 TIME:   0.312 TIME LEFT:  2.00D  GRAD.:    13.347 HEAT:  122.8068
 CYCLE:    59 TIME:   0.234 TIME LEFT:  2.00D  GRAD.:     7.540 HEAT:  122.7965
 CYCLE:    60 TIME:   0.219 TIME LEFT:  2.00D  GRAD.:     7.001 HEAT:  122.7904
 CYCLE:    61 TIME:   0.383 TIME LEFT:  2.00D  GRAD.:     7.494 HEAT:  122.7838
 CYCLE:    62 TIME:   0.289 TIME LEFT:  2.00D  GRAD.:     8.808 HEAT:  122.7764
 CYCLE:    63 TIME:   0.242 TIME LEFT:  2.00D  GRAD.:    33.302 HEAT:  122.7771
 CYCLE:    64 TIME:   0.242 TIME LEFT:  2.00D  GRAD.:     6.253 HEAT:  122.7681
 CYCLE:    65 TIME:   0.281 TIME LEFT:  2.00D  GRAD.:     6.529 HEAT:  122.7665
 CYCLE:    66 TIME:   0.227 TIME LEFT:  2.00D  GRAD.:     6.194 HEAT:  122.7631
 CYCLE:    67 TIME:   0.383 TIME LEFT:  2.00D  GRAD.:    26.491 HEAT:  122.7563
 CYCLE:    68 TIME:   0.398 TIME LEFT:  2.00D  GRAD.:     9.331 HEAT:  122.7434
 CYCLE:    69 TIME:   0.312 TIME LEFT:  2.00D  GRAD.:     6.842 HEAT:  122.7377
 CYCLE:    70 TIME:   0.344 TIME LEFT:  2.00D  GRAD.:     7.508 HEAT:  122.7306
 CYCLE:    71 TIME:   0.297 TIME LEFT:  2.00D  GRAD.:     9.482 HEAT:  122.7183
 CYCLE:    72 TIME:   0.289 TIME LEFT:  2.00D  GRAD.:     9.272 HEAT:  122.7035
 CYCLE:    73 TIME:   0.211 TIME LEFT:  2.00D  GRAD.:    20.089 HEAT:  122.6940
 CYCLE:    74 TIME:   0.359 TIME LEFT:  2.00D  GRAD.:    15.621 HEAT:  122.6857
 CYCLE:    75 TIME:   0.391 TIME LEFT:  2.00D  GRAD.:    12.172 HEAT:  122.6780
 CYCLE:    76 TIME:   0.359 TIME LEFT:  2.00D  GRAD.:    11.576 HEAT:  122.6638
 CYCLE:    77 TIME:   0.359 TIME LEFT:  2.00D  GRAD.:    12.509 HEAT:  122.6540
 CYCLE:    78 TIME:   0.219 TIME LEFT:  2.00D  GRAD.:    66.800 HEAT:  122.6798
 CYCLE:    79 TIME:   0.250 TIME LEFT:  2.00D  GRAD.:     6.956 HEAT:  122.6481
 CYCLE:    80 TIME:   0.375 TIME LEFT:  2.00D  GRAD.:     7.164 HEAT:  122.6462
 CYCLE:    81 TIME:   0.289 TIME LEFT:  2.00D  GRAD.:    15.019 HEAT:  122.6353
 CYCLE:    82 TIME:   0.219 TIME LEFT:  2.00D  GRAD.:    28.807 HEAT:  122.6354
 CYCLE:    83 TIME:   0.188 TIME LEFT:  2.00D  GRAD.:     7.504 HEAT:  122.6251
 CYCLE:    84 TIME:   0.195 TIME LEFT:  2.00D  GRAD.:     5.742 HEAT:  122.6218
 CYCLE:    85 TIME:   0.258 TIME LEFT:  2.00D  GRAD.:     6.610 HEAT:  122.6153
 CYCLE:    86 TIME:   0.266 TIME LEFT:  2.00D  GRAD.:    11.471 HEAT:  122.6068
 CYCLE:    87 TIME:   0.234 TIME LEFT:  2.00D  GRAD.:    11.097 HEAT:  122.5955
 CYCLE:    88 TIME:   0.266 TIME LEFT:  2.00D  GRAD.:     9.126 HEAT:  122.5791
 CYCLE:    89 TIME:   0.414 TIME LEFT:  2.00D  GRAD.:    14.228 HEAT:  122.5656
 CYCLE:    90 TIME:   0.273 TIME LEFT:  2.00D  GRAD.:    11.900 HEAT:  122.5501
 CYCLE:    91 TIME:   0.305 TIME LEFT:  2.00D  GRAD.:    11.792 HEAT:  122.5336
 CYCLE:    92 TIME:   0.242 TIME LEFT:  2.00D  GRAD.:    16.122 HEAT:  122.5095
 CYCLE:    93 TIME:   0.219 TIME LEFT:  2.00D  GRAD.:    66.115 HEAT:  122.5013
 CYCLE:    94 TIME:   0.297 TIME LEFT:  2.00D  GRAD.:    54.367 HEAT:  122.4924
 CYCLE:    95 TIME:   0.281 TIME LEFT:  2.00D  GRAD.:    32.913 HEAT:  122.4707
 CYCLE:    96 TIME:   0.258 TIME LEFT:  2.00D  GRAD.:   139.770 HEAT:  122.6511
 CYCLE:    97 TIME:   0.383 TIME LEFT:  2.00D  GRAD.:    14.368 HEAT:  122.4512
 CYCLE:    98 TIME:   0.250 TIME LEFT:  2.00D  GRAD.:    49.202 HEAT:  122.5350
 CYCLE:    99 TIME:   0.266 TIME LEFT:  2.00D  GRAD.:    16.207 HEAT:  122.4443
 CYCLE:   100 TIME:   0.367 TIME LEFT:  2.00D  GRAD.:    41.316 HEAT:  122.4613
 CYCLE:   101 TIME:   0.383 TIME LEFT:  2.00D  GRAD.:     7.636 HEAT:  122.4347
 CYCLE:   102 TIME:   0.297 TIME LEFT:  2.00D  GRAD.:     8.960 HEAT:  122.4306
 CYCLE:   103 TIME:   0.258 TIME LEFT:  2.00D  GRAD.:    27.071 HEAT:  122.4204
 CYCLE:   104 TIME:   0.219 TIME LEFT:  2.00D  GRAD.:    16.523 HEAT:  122.4082
 CYCLE:   105 TIME:   0.414 TIME LEFT:  2.00D  GRAD.:    25.760 HEAT:  122.3910
 CYCLE:   106 TIME:   0.297 TIME LEFT:  2.00D  GRAD.:    10.621 HEAT:  122.3758
 CYCLE:   107 TIME:   0.250 TIME LEFT:  2.00D  GRAD.:     8.937 HEAT:  122.3631
 CYCLE:   108 TIME:   0.250 TIME LEFT:  2.00D  GRAD.:    10.520 HEAT:  122.3491
 CYCLE:   109 TIME:   0.352 TIME LEFT:  2.00D  GRAD.:    27.765 HEAT:  122.3267
 CYCLE:   110 TIME:   0.359 TIME LEFT:  2.00D  GRAD.:    24.634 HEAT:  122.3116
 CYCLE:   111 TIME:   0.266 TIME LEFT:  2.00D  GRAD.:    10.696 HEAT:  122.3040
 CYCLE:   112 TIME:   0.352 TIME LEFT:  2.00D  GRAD.:    34.534 HEAT:  122.3023
 CYCLE:   113 TIME:   0.219 TIME LEFT:  2.00D  GRAD.:    10.117 HEAT:  122.2866
 CYCLE:   114 TIME:   0.203 TIME LEFT:  2.00D  GRAD.:     7.793 HEAT:  122.2774
 CYCLE:   115 TIME:   0.242 TIME LEFT:  2.00D  GRAD.:    12.247 HEAT:  122.2586
 CYCLE:   116 TIME:   0.391 TIME LEFT:  2.00D  GRAD.:    27.151 HEAT:  122.2439
 CYCLE:   117 TIME:   0.266 TIME LEFT:  2.00D  GRAD.:    15.165 HEAT:  122.2277
 CYCLE:   118 TIME:   0.383 TIME LEFT:  2.00D  GRAD.:    12.093 HEAT:  122.2215
 CYCLE:   119 TIME:   0.406 TIME LEFT:  2.00D  GRAD.:    27.674 HEAT:  122.2110
 CYCLE:   120 TIME:   0.250 TIME LEFT:  2.00D  GRAD.:    15.961 HEAT:  122.2140
 CYCLE:   121 TIME:   0.289 TIME LEFT:  2.00D  GRAD.:    18.521 HEAT:  122.1953
 CYCLE:   122 TIME:   0.297 TIME LEFT:  2.00D  GRAD.:    10.351 HEAT:  122.1845
 CYCLE:   123 TIME:   0.234 TIME LEFT:  2.00D  GRAD.:    12.127 HEAT:  122.1686
 CYCLE:   124 TIME:   0.203 TIME LEFT:  2.00D  GRAD.:    12.860 HEAT:  122.1602
 CYCLE:   125 TIME:   0.242 TIME LEFT:  2.00D  GRAD.:    18.251 HEAT:  122.1501
 CYCLE:   126 TIME:   0.273 TIME LEFT:  2.00D  GRAD.:     9.794 HEAT:  122.1407
 CYCLE:   127 TIME:   0.305 TIME LEFT:  2.00D  GRAD.:     8.878 HEAT:  122.1314
 CYCLE:   128 TIME:   0.219 TIME LEFT:  2.00D  GRAD.:     7.061 HEAT:  122.1278
 CYCLE:   129 TIME:   0.266 TIME LEFT:  2.00D  GRAD.:    15.083 HEAT:  122.1156
 CYCLE:   130 TIME:   0.219 TIME LEFT:  2.00D  GRAD.:    33.619 HEAT:  122.1169
 CYCLE:   131 TIME:   0.258 TIME LEFT:  2.00D  GRAD.:     7.657 HEAT:  122.1059
 CYCLE:   132 TIME:   0.320 TIME LEFT:  2.00D  GRAD.:     6.414 HEAT:  122.1039
 CYCLE:   133 TIME:   0.344 TIME LEFT:  2.00D  GRAD.:    25.133 HEAT:  122.1066
 CYCLE:   134 TIME:   0.297 TIME LEFT:  2.00D  GRAD.:     7.394 HEAT:  122.0948
 CYCLE:   135 TIME:   0.273 TIME LEFT:  2.00D  GRAD.:     5.438 HEAT:  122.0913
 CYCLE:   136 TIME:   0.328 TIME LEFT:  2.00D  GRAD.:     7.206 HEAT:  122.0812
 CYCLE:   137 TIME:   0.430 TIME LEFT:  2.00D  GRAD.:    10.711 HEAT:  122.0689
 CYCLE:   138 TIME:   0.367 TIME LEFT:  2.00D  GRAD.:    40.122 HEAT:  122.0788
 CYCLE:   139 TIME:   0.438 TIME LEFT:  2.00D  GRAD.:     9.121 HEAT:  122.0578
 CYCLE:   140 TIME:   0.477 TIME LEFT:  2.00D  GRAD.:     7.371 HEAT:  122.0517
 CYCLE:   141 TIME:   0.430 TIME LEFT:  2.00D  GRAD.:    11.928 HEAT:  122.0419
 CYCLE:   142 TIME:   0.406 TIME LEFT:  2.00D  GRAD.:     6.128 HEAT:  122.0330
 CYCLE:   143 TIME:   0.398 TIME LEFT:  2.00D  GRAD.:     5.379 HEAT:  122.0288
 CYCLE:   144 TIME:   0.281 TIME LEFT:  2.00D  GRAD.:    13.068 HEAT:  122.0226
 CYCLE:   145 TIME:   0.367 TIME LEFT:  2.00D  GRAD.:     9.407 HEAT:  122.0184
 CYCLE:   146 TIME:   0.453 TIME LEFT:  2.00D  GRAD.:    14.080 HEAT:  122.0144
 CYCLE:   147 TIME:   0.438 TIME LEFT:  2.00D  GRAD.:    22.504 HEAT:  122.0143
 CYCLE:   148 TIME:   0.406 TIME LEFT:  2.00D  GRAD.:     5.446 HEAT:  122.0062
 CYCLE:   149 TIME:   0.383 TIME LEFT:  2.00D  GRAD.:     4.622 HEAT:  122.0046
 CYCLE:   150 TIME:   0.359 TIME LEFT:  2.00D  GRAD.:     5.620 HEAT:  122.0003
 CYCLE:   151 TIME:   0.398 TIME LEFT:  2.00D  GRAD.:     7.929 HEAT:  121.9940
 CYCLE:   152 TIME:   0.367 TIME LEFT:  2.00D  GRAD.:    13.842 HEAT:  121.9890
 CYCLE:   153 TIME:   0.320 TIME LEFT:  2.00D  GRAD.:     5.533 HEAT:  121.9838
 CYCLE:   154 TIME:   0.367 TIME LEFT:  2.00D  GRAD.:     4.853 HEAT:  121.9810
 CYCLE:   155 TIME:   0.359 TIME LEFT:  2.00D  GRAD.:     4.900 HEAT:  121.9768
 CYCLE:   156 TIME:   0.438 TIME LEFT:  2.00D  GRAD.:    10.630 HEAT:  121.9711
 CYCLE:   157 TIME:   0.375 TIME LEFT:  2.00D  GRAD.:     5.870 HEAT:  121.9676
 CYCLE:   158 TIME:   0.383 TIME LEFT:  2.00D  GRAD.:     4.296 HEAT:  121.9664
 CYCLE:   159 TIME:   0.320 TIME LEFT:  2.00D  GRAD.:     9.300 HEAT:  121.9648
 CYCLE:   160 TIME:   0.398 TIME LEFT:  2.00D  GRAD.:    12.059 HEAT:  121.9625
 CYCLE:   161 TIME:   0.359 TIME LEFT:  2.00D  GRAD.:     3.547 HEAT:  121.9599
 CYCLE:   162 TIME:   0.344 TIME LEFT:  2.00D  GRAD.:     3.495 HEAT:  121.9588
 CYCLE:   163 TIME:   0.414 TIME LEFT:  2.00D  GRAD.:     4.934 HEAT:  121.9546
 CYCLE:   164 TIME:   0.539 TIME LEFT:  2.00D  GRAD.:    10.990 HEAT:  121.9512
 CYCLE:   165 TIME:   0.312 TIME LEFT:  2.00D  GRAD.:     4.752 HEAT:  121.9464
 CYCLE:   166 TIME:   0.219 TIME LEFT:  2.00D  GRAD.:     4.116 HEAT:  121.9438
 CYCLE:   167 TIME:   0.289 TIME LEFT:  2.00D  GRAD.:     5.625 HEAT:  121.9426
 CYCLE:   168 TIME:   0.344 TIME LEFT:  2.00D  GRAD.:     4.560 HEAT:  121.9402
 CYCLE:   169 TIME:   0.258 TIME LEFT:  2.00D  GRAD.:    28.567 HEAT:  121.9427
 CYCLE:   170 TIME:   0.320 TIME LEFT:  2.00D  GRAD.:     4.832 HEAT:  121.9339
 CYCLE:   171 TIME:   0.273 TIME LEFT:  2.00D  GRAD.:     3.723 HEAT:  121.9326
 CYCLE:   172 TIME:   0.312 TIME LEFT:  2.00D  GRAD.:     7.814 HEAT:  121.9306
 CYCLE:   173 TIME:   0.250 TIME LEFT:  2.00D  GRAD.:     3.881 HEAT:  121.9294
 CYCLE:   174 TIME:   0.242 TIME LEFT:  2.00D  GRAD.:     9.654 HEAT:  121.9280
 CYCLE:   175 TIME:   0.242 TIME LEFT:  2.00D  GRAD.:     4.908 HEAT:  121.9269
 CYCLE:   176 TIME:   0.398 TIME LEFT:  2.00D  GRAD.:     3.511 HEAT:  121.9253
 CYCLE:   177 TIME:   0.281 TIME LEFT:  2.00D  GRAD.:     5.260 HEAT:  121.9240
 CYCLE:   178 TIME:   0.352 TIME LEFT:  2.00D  GRAD.:     4.435 HEAT:  121.9224
 CYCLE:   179 TIME:   0.250 TIME LEFT:  2.00D  GRAD.:     6.283 HEAT:  121.9213
 CYCLE:   180 TIME:   0.234 TIME LEFT:  2.00D  GRAD.:     2.649 HEAT:  121.9204
 CYCLE:   181 TIME:   0.312 TIME LEFT:  2.00D  GRAD.:     8.107 HEAT:  121.9196
 CYCLE:   182 TIME:   0.297 TIME LEFT:  2.00D  GRAD.:     5.148 HEAT:  121.9188
 CYCLE:   183 TIME:   0.375 TIME LEFT:  2.00D  GRAD.:     3.002 HEAT:  121.9169
 CYCLE:   184 TIME:   0.336 TIME LEFT:  2.00D  GRAD.:     3.283 HEAT:  121.9162
 CYCLE:   185 TIME:   0.336 TIME LEFT:  2.00D  GRAD.:     3.893 HEAT:  121.9143
 CYCLE:   186 TIME:   0.250 TIME LEFT:  2.00D  GRAD.:    22.860 HEAT:  121.9162
 CYCLE:   187 TIME:   0.211 TIME LEFT:  2.00D  GRAD.:     8.734 HEAT:  121.9134
 CYCLE:   188 TIME:   0.328 TIME LEFT:  2.00D  GRAD.:     3.451 HEAT:  121.9114
 CYCLE:   189 TIME:   0.352 TIME LEFT:  2.00D  GRAD.:     5.303 HEAT:  121.9109
 CYCLE:   190 TIME:   0.312 TIME LEFT:  2.00D  GRAD.:     2.358 HEAT:  121.9093
 CYCLE:   191 TIME:   0.273 TIME LEFT:  2.00D  GRAD.:     3.094 HEAT:  121.9078
 CYCLE:   192 TIME:   0.328 TIME LEFT:  2.00D  GRAD.:     6.571 HEAT:  121.9064
 CYCLE:   193 TIME:   0.266 TIME LEFT:  2.00D  GRAD.:     4.954 HEAT:  121.9055
 CYCLE:   194 TIME:   0.211 TIME LEFT:  2.00D  GRAD.:     2.490 HEAT:  121.9046
 CYCLE:   195 TIME:   0.289 TIME LEFT:  2.00D  GRAD.:     5.454 HEAT:  121.9038
 CYCLE:   196 TIME:   0.336 TIME LEFT:  2.00D  GRAD.:     3.217 HEAT:  121.9028
 CYCLE:   197 TIME:   0.297 TIME LEFT:  2.00D  GRAD.:     3.271 HEAT:  121.9017
 CYCLE:   198 TIME:   0.289 TIME LEFT:  2.00D  GRAD.:     6.912 HEAT:  121.8993
 CYCLE:   199 TIME:   0.391 TIME LEFT:  2.00D  GRAD.:     5.263 HEAT:  121.8971
 CYCLE:   200 TIME:   0.398 TIME LEFT:  2.00D  GRAD.:     7.042 HEAT:  121.8955
 CYCLE:   201 TIME:   0.336 TIME LEFT:  2.00D  GRAD.:     7.419 HEAT:  121.8938
 CYCLE:   202 TIME:   0.328 TIME LEFT:  2.00D  GRAD.:     5.506 HEAT:  121.8930
 CYCLE:   203 TIME:   0.398 TIME LEFT:  2.00D  GRAD.:     3.232 HEAT:  121.8922
 CYCLE:   204 TIME:   0.305 TIME LEFT:  2.00D  GRAD.:     4.425 HEAT:  121.8909
 CYCLE:   205 TIME:   0.391 TIME LEFT:  2.00D  GRAD.:     2.566 HEAT:  121.8894
 CYCLE:   206 TIME:   0.422 TIME LEFT:  2.00D  GRAD.:     3.572 HEAT:  121.8868
 CYCLE:   207 TIME:   0.391 TIME LEFT:  2.00D  GRAD.:     4.925 HEAT:  121.8850
 CYCLE:   208 TIME:   0.203 TIME LEFT:  2.00D  GRAD.:     6.557 HEAT:  121.8847
 CYCLE:   209 TIME:   0.289 TIME LEFT:  2.00D  GRAD.:     2.486 HEAT:  121.8840
 CYCLE:   210 TIME:   0.297 TIME LEFT:  2.00D  GRAD.:     3.930 HEAT:  121.8835
 CYCLE:   211 TIME:   0.289 TIME LEFT:  2.00D  GRAD.:     2.073 HEAT:  121.8826
 CYCLE:   212 TIME:   0.250 TIME LEFT:  2.00D  GRAD.:     3.121 HEAT:  121.8814
 CYCLE:   213 TIME:   0.266 TIME LEFT:  2.00D  GRAD.:     6.112 HEAT:  121.8799
 CYCLE:   214 TIME:   0.234 TIME LEFT:  2.00D  GRAD.:    11.205 HEAT:  121.8800
 CYCLE:   215 TIME:   0.258 TIME LEFT:  2.00D  GRAD.:     2.818 HEAT:  121.8787
 CYCLE:   216 TIME:   0.242 TIME LEFT:  2.00D  GRAD.:     6.412 HEAT:  121.8782
 CYCLE:   217 TIME:   0.281 TIME LEFT:  2.00D  GRAD.:     2.465 HEAT:  121.8774
 CYCLE:   218 TIME:   0.219 TIME LEFT:  2.00D  GRAD.:     4.435 HEAT:  121.8766
 CYCLE:   219 TIME:   0.242 TIME LEFT:  2.00D  GRAD.:     4.086 HEAT:  121.8762
 CYCLE:   220 TIME:   0.344 TIME LEFT:  2.00D  GRAD.:     3.350 HEAT:  121.8748
 CYCLE:   221 TIME:   0.203 TIME LEFT:  2.00D  GRAD.:     3.231 HEAT:  121.8741
 CYCLE:   222 TIME:   0.188 TIME LEFT:  2.00D  GRAD.:     2.429 HEAT:  121.8735
 CYCLE:   223 TIME:   0.250 TIME LEFT:  2.00D  GRAD.:     3.052 HEAT:  121.8726
 CYCLE:   224 TIME:   0.281 TIME LEFT:  2.00D  GRAD.:     2.640 HEAT:  121.8718
 CYCLE:   225 TIME:   0.359 TIME LEFT:  2.00D  GRAD.:     3.834 HEAT:  121.8709
 CYCLE:   226 TIME:   0.258 TIME LEFT:  2.00D  GRAD.:     4.110 HEAT:  121.8703
 CYCLE:   227 TIME:   0.234 TIME LEFT:  2.00D  GRAD.:     2.243 HEAT:  121.8700
 CYCLE:   228 TIME:   0.383 TIME LEFT:  2.00D  GRAD.:     1.981 HEAT:  121.8696
 CYCLE:   229 TIME:   0.336 TIME LEFT:  2.00D  GRAD.:     2.928 HEAT:  121.8691
 CYCLE:   230 TIME:   0.250 TIME LEFT:  2.00D  GRAD.:     2.696 HEAT:  121.8683
 CYCLE:   231 TIME:   0.281 TIME LEFT:  2.00D  GRAD.:    14.870 HEAT:  121.8690
 CYCLE:   232 TIME:   0.234 TIME LEFT:  2.00D  GRAD.:     2.294 HEAT:  121.8671
 CYCLE:   233 TIME:   0.312 TIME LEFT:  2.00D  GRAD.:     2.174 HEAT:  121.8670
 CYCLE:   234 TIME:   0.219 TIME LEFT:  2.00D  GRAD.:     2.343 HEAT:  121.8663
 CYCLE:   235 TIME:   0.258 TIME LEFT:  2.00D  GRAD.:     2.514 HEAT:  121.8656
 CYCLE:   236 TIME:   0.203 TIME LEFT:  2.00D  GRAD.:     3.011 HEAT:  121.8651
 CYCLE:   237 TIME:   0.328 TIME LEFT:  2.00D  GRAD.:     2.175 HEAT:  121.8647
 CYCLE:   238 TIME:   0.258 TIME LEFT:  2.00D  GRAD.:     1.934 HEAT:  121.8640
 CYCLE:   239 TIME:   0.250 TIME LEFT:  2.00D  GRAD.:     3.341 HEAT:  121.8634
 CYCLE:   240 TIME:   0.219 TIME LEFT:  2.00D  GRAD.:     5.027 HEAT:  121.8629
 CYCLE:   241 TIME:   0.227 TIME LEFT:  2.00D  GRAD.:     2.724 HEAT:  121.8622
 CYCLE:   242 TIME:   0.359 TIME LEFT:  2.00D  GRAD.:     3.210 HEAT:  121.8623
 CYCLE:   243 TIME:   0.305 TIME LEFT:  2.00D  GRAD.:     1.403 HEAT:  121.8618
 CYCLE:   244 TIME:   0.281 TIME LEFT:  2.00D  GRAD.:     1.385 HEAT:  121.8616
 CYCLE:   245 TIME:   0.477 TIME LEFT:  2.00D  GRAD.:     4.447 HEAT:  121.8615
 CYCLE:   246 TIME:   0.422 TIME LEFT:  2.00D  GRAD.:     5.739 HEAT:  121.8612
 CYCLE:   247 TIME:   0.383 TIME LEFT:  2.00D  GRAD.:     1.460 HEAT:  121.8608
 CYCLE:   248 TIME:   0.773 TIME LEFT:  2.00D  GRAD.:     1.367 HEAT:  121.8608
 CYCLE:   249 TIME:   0.273 TIME LEFT:  2.00D  GRAD.:     7.358 HEAT:  121.8615
 CYCLE:   250 TIME:   0.227 TIME LEFT:  2.00D  GRAD.:     1.955 HEAT:  121.8607
 CYCLE:   251 TIME:   0.430 TIME LEFT:  2.00D  GRAD.:     4.670 HEAT:  121.8606
 CYCLE:   252 TIME:   0.305 TIME LEFT:  2.00D  GRAD.:     1.901 HEAT:  121.8602
 CYCLE:   253 TIME:   0.266 TIME LEFT:  2.00D  GRAD.:     1.473 HEAT:  121.8600
 CYCLE:   254 TIME:   0.352 TIME LEFT:  2.00D  GRAD.:     1.513 HEAT:  121.8597
 CYCLE:   255 TIME:   0.273 TIME LEFT:  2.00D  GRAD.:     2.431 HEAT:  121.8594
 CYCLE:   256 TIME:   0.211 TIME LEFT:  2.00D  GRAD.:     2.707 HEAT:  121.8590
 CYCLE:   257 TIME:   0.328 TIME LEFT:  2.00D  GRAD.:     2.480 HEAT:  121.8582
 CYCLE:   258 TIME:   0.234 TIME LEFT:  2.00D  GRAD.:     2.666 HEAT:  121.8575
 CYCLE:   259 TIME:   0.398 TIME LEFT:  2.00D  GRAD.:     1.761 HEAT:  121.8570
 CYCLE:   260 TIME:   0.359 TIME LEFT:  2.00D  GRAD.:     2.485 HEAT:  121.8568
 CYCLE:   261 TIME:   0.219 TIME LEFT:  2.00D  GRAD.:     2.473 HEAT:  121.8565
 CYCLE:   262 TIME:   0.234 TIME LEFT:  2.00D  GRAD.:     1.611 HEAT:  121.8563
 CYCLE:   263 TIME:   0.289 TIME LEFT:  2.00D  GRAD.:     1.629 HEAT:  121.8560
 CYCLE:   264 TIME:   0.906 TIME LEFT:  2.00D  GRAD.:     1.709 HEAT:  121.8557
 CYCLE:   265 TIME:   0.234 TIME LEFT:  2.00D  GRAD.:     2.465 HEAT:  121.8552
 CYCLE:   266 TIME:   0.203 TIME LEFT:  2.00D  GRAD.:     1.377 HEAT:  121.8549
 CYCLE:   267 TIME:   0.258 TIME LEFT:  2.00D  GRAD.:     1.213 HEAT:  121.8548
 CYCLE:   268 TIME:   0.461 TIME LEFT:  2.00D  GRAD.:     2.415 HEAT:  121.8545
 CYCLE:   269 TIME:   0.367 TIME LEFT:  2.00D  GRAD.:     1.984 HEAT:  121.8542
 CYCLE:   270 TIME:   0.391 TIME LEFT:  2.00D  GRAD.:     4.140 HEAT:  121.8540
 CYCLE:   271 TIME:   0.367 TIME LEFT:  2.00D  GRAD.:     0.804 HEAT:  121.8538
 CYCLE:   272 TIME:   0.258 TIME LEFT:  2.00D  GRAD.:     0.807 HEAT:  121.8537
 CYCLE:   273 TIME:   0.273 TIME LEFT:  2.00D  GRAD.:     1.593 HEAT:  121.8535
 CYCLE:   274 TIME:   0.250 TIME LEFT:  2.00D  GRAD.:     1.450 HEAT:  121.8533
 CYCLE:   275 TIME:   0.359 TIME LEFT:  2.00D  GRAD.:     1.944 HEAT:  121.8530
 CYCLE:   276 TIME:   0.359 TIME LEFT:  2.00D  GRAD.:     7.649 HEAT:  121.8533
 CYCLE:   277 TIME:   0.234 TIME LEFT:  2.00D  GRAD.:     6.413 HEAT:  121.8532
 CYCLE:   278 TIME:   0.250 TIME LEFT:  2.00D  GRAD.:     1.247 HEAT:  121.8526
 CYCLE:   279 TIME:   0.211 TIME LEFT:  2.00D  GRAD.:     4.804 HEAT:  121.8528
 CYCLE:   280 TIME:   0.320 TIME LEFT:  2.00D  GRAD.:     1.009 HEAT:  121.8525
 CYCLE:   281 TIME:   0.344 TIME LEFT:  2.00D  GRAD.:     2.140 HEAT:  121.8526
 CYCLE:   282 TIME:   0.219 TIME LEFT:  2.00D  GRAD.:     1.011 HEAT:  121.8524
 CYCLE:   283 TIME:   0.336 TIME LEFT:  2.00D  GRAD.:     0.974 HEAT:  121.8524
 CYCLE:   284 TIME:   0.320 TIME LEFT:  2.00D  GRAD.:     5.067 HEAT:  121.8528
 CYCLE:   285 TIME:   0.227 TIME LEFT:  2.00D  GRAD.:     3.725 HEAT:  121.8520
 CYCLE:   286 TIME:   0.234 TIME LEFT:  2.00D  GRAD.:     2.196 HEAT:  121.8517
 CYCLE:   287 TIME:   0.328 TIME LEFT:  2.00D  GRAD.:     0.915 HEAT:  121.8516
 CYCLE:   288 TIME:   0.297 TIME LEFT:  2.00D  GRAD.:     2.664 HEAT:  121.8515
 CYCLE:   289 TIME:   0.195 TIME LEFT:  2.00D  GRAD.:     1.045 HEAT:  121.8515
 CYCLE:   290 TIME:   0.266 TIME LEFT:  2.00D  GRAD.:     0.903 HEAT:  121.8514
 CYCLE:   291 TIME:   0.203 TIME LEFT:  2.00D  GRAD.:     1.160 HEAT:  121.8514
 CYCLE:   292 TIME:   0.250 TIME LEFT:  2.00D  GRAD.:     1.433 HEAT:  121.8512
 CYCLE:   293 TIME:   0.234 TIME LEFT:  2.00D  GRAD.:     1.331 HEAT:  121.8511
 CYCLE:   294 TIME:   0.234 TIME LEFT:  2.00D  GRAD.:     0.761 HEAT:  121.8510
 CYCLE:   295 TIME:   0.234 TIME LEFT:  2.00D  GRAD.:     0.897 HEAT:  121.8509
 CYCLE:   296 TIME:   0.242 TIME LEFT:  2.00D  GRAD.:     1.583 HEAT:  121.8508
 CYCLE:   297 TIME:   0.219 TIME LEFT:  2.00D  GRAD.:     1.206 HEAT:  121.8507
 CYCLE:   298 TIME:   0.312 TIME LEFT:  2.00D  GRAD.:     1.232 HEAT:  121.8506
 CYCLE:   299 TIME:   0.250 TIME LEFT:  2.00D  GRAD.:     0.993 HEAT:  121.8505
 CYCLE:   300 TIME:   0.367 TIME LEFT:  2.00D  GRAD.:     1.370 HEAT:  121.8504
 CYCLE:   301 TIME:   0.227 TIME LEFT:  2.00D  GRAD.:     1.207 HEAT:  121.8503
 CYCLE:   302 TIME:   0.211 TIME LEFT:  2.00D  GRAD.:     0.780 HEAT:  121.8503
 CYCLE:   303 TIME:   0.203 TIME LEFT:  2.00D  GRAD.:     0.600 HEAT:  121.8502
 CYCLE:   304 TIME:   0.273 TIME LEFT:  2.00D  GRAD.:     1.171 HEAT:  121.8501
 CYCLE:   305 TIME:   0.367 TIME LEFT:  2.00D  GRAD.:     5.475 HEAT:  121.8502
 CYCLE:   306 TIME:   0.234 TIME LEFT:  2.00D  GRAD.:     0.857 HEAT:  121.8500
 CYCLE:   307 TIME:   0.211 TIME LEFT:  2.00D  GRAD.:     1.516 HEAT:  121.8500
 CYCLE:   308 TIME:   0.289 TIME LEFT:  2.00D  GRAD.:     0.619 HEAT:  121.8499
 CYCLE:   309 TIME:   0.250 TIME LEFT:  2.00D  GRAD.:     1.177 HEAT:  121.8499
 CYCLE:   310 TIME:   0.242 TIME LEFT:  2.00D  GRAD.:     1.197 HEAT:  121.8498
 CYCLE:   311 TIME:   0.219 TIME LEFT:  2.00D  GRAD.:     0.969 HEAT:  121.8497
 CYCLE:   312 TIME:   0.297 TIME LEFT:  2.00D  GRAD.:     0.965 HEAT:  121.8496
 CYCLE:   313 TIME:   0.203 TIME LEFT:  2.00D  GRAD.:     0.757 HEAT:  121.8495
 CYCLE:   314 TIME:   0.203 TIME LEFT:  2.00D  GRAD.:     0.739 HEAT:  121.8493
 CYCLE:   315 TIME:   0.359 TIME LEFT:  2.00D  GRAD.:     0.974 HEAT:  121.8492
 CYCLE:   316 TIME:   0.250 TIME LEFT:  2.00D  GRAD.:     1.042 HEAT:  121.8490
 CYCLE:   317 TIME:   0.242 TIME LEFT:  2.00D  GRAD.:     1.015 HEAT:  121.8489
 CYCLE:   318 TIME:   0.234 TIME LEFT:  2.00D  GRAD.:     1.578 HEAT:  121.8488
 CYCLE:   319 TIME:   0.359 TIME LEFT:  2.00D  GRAD.:     1.866 HEAT:  121.8488
 CYCLE:   320 TIME:   0.242 TIME LEFT:  2.00D  GRAD.:     1.329 HEAT:  121.8486
 CYCLE:   321 TIME:   0.250 TIME LEFT:  2.00D  GRAD.:     4.446 HEAT:  121.8487
 CYCLE:   322 TIME:   0.203 TIME LEFT:  2.00D  GRAD.:     0.782 HEAT:  121.8485
 CYCLE:   323 TIME:   0.219 TIME LEFT:  2.00D  GRAD.:     1.795 HEAT:  121.8486
 CYCLE:   324 TIME:   0.367 TIME LEFT:  2.00D  GRAD.:     0.444 HEAT:  121.8485
 CYCLE:   325 TIME:   0.289 TIME LEFT:  2.00D  GRAD.:     0.520 HEAT:  121.8485
 CYCLE:   326 TIME:   0.266 TIME LEFT:  2.00D  GRAD.:     1.030 HEAT:  121.8485
 CYCLE:   327 TIME:   0.258 TIME LEFT:  2.00D  GRAD.:     0.689 HEAT:  121.8484
 CYCLE:   328 TIME:   0.242 TIME LEFT:  2.00D  GRAD.:     0.962 HEAT:  121.8483
 CYCLE:   329 TIME:   0.227 TIME LEFT:  2.00D  GRAD.:     1.463 HEAT:  121.8483
 CYCLE:   330 TIME:   0.219 TIME LEFT:  2.00D  GRAD.:     1.266 HEAT:  121.8482
 CYCLE:   331 TIME:   0.242 TIME LEFT:  2.00D  GRAD.:     0.745 HEAT:  121.8481
 CYCLE:   332 TIME:   0.227 TIME LEFT:  2.00D  GRAD.:     0.621 HEAT:  121.8480
 CYCLE:   333 TIME:   0.273 TIME LEFT:  2.00D  GRAD.:     1.353 HEAT:  121.8480
 CYCLE:   334 TIME:   0.242 TIME LEFT:  2.00D  GRAD.:     1.075 HEAT:  121.8479
 CYCLE:   335 TIME:   0.414 TIME LEFT:  2.00D  GRAD.:     1.392 HEAT:  121.8477
 CYCLE:   336 TIME:   0.383 TIME LEFT:  2.00D  GRAD.:     0.745 HEAT:  121.8476
 CYCLE:   337 TIME:   0.250 TIME LEFT:  2.00D  GRAD.:     0.577 HEAT:  121.8476
 CYCLE:   338 TIME:   0.320 TIME LEFT:  2.00D  GRAD.:     1.019 HEAT:  121.8475
 CYCLE:   339 TIME:   0.242 TIME LEFT:  2.00D  GRAD.:     1.054 HEAT:  121.8474
 CYCLE:   340 TIME:   0.227 TIME LEFT:  2.00D  GRAD.:     2.920 HEAT:  121.8473
 CYCLE:   341 TIME:   0.188 TIME LEFT:  2.00D  GRAD.:     0.740 HEAT:  121.8472
 CYCLE:   342 TIME:   0.281 TIME LEFT:  2.00D  GRAD.:     0.454 HEAT:  121.8471
 CYCLE:   343 TIME:   0.258 TIME LEFT:  2.00D  GRAD.:     0.847 HEAT:  121.8471
 CYCLE:   344 TIME:   0.250 TIME LEFT:  2.00D  GRAD.:     2.564 HEAT:  121.8471
 CYCLE:   345 TIME:   0.203 TIME LEFT:  2.00D  GRAD.:     0.668 HEAT:  121.8470
 CYCLE:   346 TIME:   0.234 TIME LEFT:  2.00D  GRAD.:     0.449 HEAT:  121.8469
 CYCLE:   347 TIME:   0.289 TIME LEFT:  2.00D  GRAD.:     1.098 HEAT:  121.8469
 CYCLE:   348 TIME:   0.328 TIME LEFT:  2.00D  GRAD.:     0.534 HEAT:  121.8468
 CYCLE:   349 TIME:   0.289 TIME LEFT:  2.00D  GRAD.:     4.062 HEAT:  121.8469
 CYCLE:   350 TIME:   0.266 TIME LEFT:  2.00D  GRAD.:     1.756 HEAT:  121.8468
 CYCLE:   351 TIME:   0.258 TIME LEFT:  2.00D  GRAD.:     1.601 HEAT:  121.8467
 CYCLE:   352 TIME:   0.273 TIME LEFT:  2.00D  GRAD.:     0.944 HEAT:  121.8467
 CYCLE:   353 TIME:   0.266 TIME LEFT:  2.00D  GRAD.:     1.126 HEAT:  121.8466
 CYCLE:   354 TIME:   0.281 TIME LEFT:  2.00D  GRAD.:     0.700 HEAT:  121.8466
 CYCLE:   355 TIME:   0.219 TIME LEFT:  2.00D  GRAD.:     3.994 HEAT:  121.8466
 CYCLE:   356 TIME:   0.203 TIME LEFT:  2.00D  GRAD.:     1.250 HEAT:  121.8465
 CYCLE:   357 TIME:   0.297 TIME LEFT:  2.00D  GRAD.:     1.693 HEAT:  121.8464
 CYCLE:   358 TIME:   0.258 TIME LEFT:  2.00D  GRAD.:     3.521 HEAT:  121.8465
 CYCLE:   359 TIME:   0.258 TIME LEFT:  2.00D  GRAD.:     0.925 HEAT:  121.8464
 CYCLE:   360 TIME:   0.273 TIME LEFT:  2.00D  GRAD.:     0.549 HEAT:  121.8464
 CYCLE:   361 TIME:   0.305 TIME LEFT:  2.00D  GRAD.:     0.897 HEAT:  121.8463
 CYCLE:   362 TIME:   0.227 TIME LEFT:  2.00D  GRAD.:     0.690 HEAT:  121.8462
 CYCLE:   363 TIME:   0.195 TIME LEFT:  2.00D  GRAD.:     0.818 HEAT:  121.8462
 CYCLE:   364 TIME:   0.352 TIME LEFT:  2.00D  GRAD.:     0.739 HEAT:  121.8461
 CYCLE:   365 TIME:   0.266 TIME LEFT:  2.00D  GRAD.:     1.310 HEAT:  121.8459
 CYCLE:   366 TIME:   0.258 TIME LEFT:  2.00D  GRAD.:     0.539 HEAT:  121.8458
 CYCLE:   367 TIME:   0.258 TIME LEFT:  2.00D  GRAD.:     0.642 HEAT:  121.8457
 CYCLE:   368 TIME:   0.281 TIME LEFT:  2.00D  GRAD.:     1.015 HEAT:  121.8457
 CYCLE:   369 TIME:   0.297 TIME LEFT:  2.00D  GRAD.:     1.126 HEAT:  121.8456
 CYCLE:   370 TIME:   0.242 TIME LEFT:  2.00D  GRAD.:     2.482 HEAT:  121.8456
 CYCLE:   371 TIME:   0.297 TIME LEFT:  2.00D  GRAD.:     0.746 HEAT:  121.8455
 CYCLE:   372 TIME:   0.289 TIME LEFT:  2.00D  GRAD.:     1.847 HEAT:  121.8454
 CYCLE:   373 TIME:   1.172 TIME LEFT:  2.00D  GRAD.:     1.057 HEAT:  121.8454
 CYCLE:   374 TIME:   0.258 TIME LEFT:  2.00D  GRAD.:     0.642 HEAT:  121.8453
 CYCLE:   375 TIME:   0.320 TIME LEFT:  2.00D  GRAD.:     3.747 HEAT:  121.8453
 CYCLE:   376 TIME:   0.289 TIME LEFT:  2.00D  GRAD.:     0.705 HEAT:  121.8452
 CYCLE:   377 TIME:   0.273 TIME LEFT:  2.00D  GRAD.:     3.443 HEAT:  121.8452
 CYCLE:   378 TIME:   0.211 TIME LEFT:  2.00D  GRAD.:     0.842 HEAT:  121.8451
 CYCLE:   379 TIME:   0.211 TIME LEFT:  2.00D  GRAD.:     1.377 HEAT:  121.8451
 CYCLE:   380 TIME:   0.188 TIME LEFT:  2.00D  GRAD.:     0.569 HEAT:  121.8451
 CYCLE:   381 TIME:   0.320 TIME LEFT:  2.00D  GRAD.:     0.930 HEAT:  121.8450
 CYCLE:   382 TIME:   0.367 TIME LEFT:  2.00D  GRAD.:     0.862 HEAT:  121.8450
 CYCLE:   383 TIME:   0.352 TIME LEFT:  2.00D  GRAD.:     0.915 HEAT:  121.8450
 CYCLE:   384 TIME:   0.320 TIME LEFT:  2.00D  GRAD.:     1.053 HEAT:  121.8448
 CYCLE:   385 TIME:   0.273 TIME LEFT:  2.00D  GRAD.:     2.516 HEAT:  121.8447
 CYCLE:   386 TIME:   0.266 TIME LEFT:  2.00D  GRAD.:     1.775 HEAT:  121.8446
 CYCLE:   387 TIME:   0.203 TIME LEFT:  2.00D  GRAD.:     1.021 HEAT:  121.8444
 CYCLE:   388 TIME:   0.227 TIME LEFT:  2.00D  GRAD.:     1.164 HEAT:  121.8445
 CYCLE:   389 TIME:   0.219 TIME LEFT:  2.00D  GRAD.:     0.949 HEAT:  121.8444
 CYCLE:   390 TIME:   0.344 TIME LEFT:  2.00D  GRAD.:     3.366 HEAT:  121.8445
 CYCLE:   391 TIME:   0.281 TIME LEFT:  2.00D  GRAD.:     0.492 HEAT:  121.8443
 CYCLE:   392 TIME:   0.281 TIME LEFT:  2.00D  GRAD.:     0.465 HEAT:  121.8442
 CYCLE:   393 TIME:   0.297 TIME LEFT:  2.00D  GRAD.:     1.138 HEAT:  121.8441
 CYCLE:   394 TIME:   0.195 TIME LEFT:  2.00D  GRAD.:     1.085 HEAT:  121.8441
 CYCLE:   395 TIME:   0.211 TIME LEFT:  2.00D  GRAD.:     0.907 HEAT:  121.8440
 CYCLE:   396 TIME:   0.227 TIME LEFT:  2.00D  GRAD.:     1.427 HEAT:  121.8439
 CYCLE:   397 TIME:   0.188 TIME LEFT:  2.00D  GRAD.:     0.511 HEAT:  121.8439
 CYCLE:   398 TIME:   0.203 TIME LEFT:  2.00D  GRAD.:     5.023 HEAT:  121.8439
 CYCLE:   399 TIME:   0.266 TIME LEFT:  2.00D  GRAD.:     1.303 HEAT:  121.8438
 CYCLE:   400 TIME:   0.242 TIME LEFT:  2.00D  GRAD.:     1.515 HEAT:  121.8437
 CYCLE:   401 TIME:   0.195 TIME LEFT:  2.00D  GRAD.:     0.881 HEAT:  121.8437
 CYCLE:   402 TIME:   0.195 TIME LEFT:  2.00D  GRAD.:     0.644 HEAT:  121.8436
 CYCLE:   403 TIME:   0.234 TIME LEFT:  2.00D  GRAD.:     0.748 HEAT:  121.8435
 CYCLE:   404 TIME:   0.312 TIME LEFT:  2.00D  GRAD.:     1.222 HEAT:  121.8433
 CYCLE:   405 TIME:   0.219 TIME LEFT:  2.00D  GRAD.:     3.142 HEAT:  121.8432
 CYCLE:   406 TIME:   0.250 TIME LEFT:  2.00D  GRAD.:     1.408 HEAT:  121.8430
 CYCLE:   407 TIME:   0.297 TIME LEFT:  2.00D  GRAD.:     2.355 HEAT:  121.8433
 CYCLE:   408 TIME:   0.211 TIME LEFT:  2.00D  GRAD.:     1.167 HEAT:  121.8429
 CYCLE:   409 TIME:   0.234 TIME LEFT:  2.00D  GRAD.:     0.746 HEAT:  121.8428
 CYCLE:   410 TIME:   0.219 TIME LEFT:  2.00D  GRAD.:     2.271 HEAT:  121.8427
 CYCLE:   411 TIME:   0.211 TIME LEFT:  2.00D  GRAD.:     1.394 HEAT:  121.8426
 CYCLE:   412 TIME:   0.281 TIME LEFT:  2.00D  GRAD.:     1.784 HEAT:  121.8424
 CYCLE:   413 TIME:   0.375 TIME LEFT:  2.00D  GRAD.:     1.914 HEAT:  121.8422
 CYCLE:   414 TIME:   0.305 TIME LEFT:  2.00D  GRAD.:     0.886 HEAT:  121.8421
 CYCLE:   415 TIME:   0.375 TIME LEFT:  2.00D  GRAD.:     2.787 HEAT:  121.8420
 CYCLE:   416 TIME:   0.203 TIME LEFT:  2.00D  GRAD.:     2.447 HEAT:  121.8418
 CYCLE:   417 TIME:   0.203 TIME LEFT:  2.00D  GRAD.:     0.766 HEAT:  121.8418
 CYCLE:   418 TIME:   0.266 TIME LEFT:  2.00D  GRAD.:     3.653 HEAT:  121.8417
 CYCLE:   419 TIME:   0.203 TIME LEFT:  2.00D  GRAD.:     1.013 HEAT:  121.8416
 CYCLE:   420 TIME:   0.328 TIME LEFT:  2.00D  GRAD.:     0.470 HEAT:  121.8415
 CYCLE:   421 TIME:   0.227 TIME LEFT:  2.00D  GRAD.:     3.886 HEAT:  121.8413
 CYCLE:   422 TIME:   0.227 TIME LEFT:  2.00D  GRAD.:     1.974 HEAT:  121.8413
 CYCLE:   423 TIME:   0.211 TIME LEFT:  2.00D  GRAD.:     5.768 HEAT:  121.8413
 CYCLE:   424 TIME:   0.188 TIME LEFT:  2.00D  GRAD.:     1.281 HEAT:  121.8411
 CYCLE:   425 TIME:   0.219 TIME LEFT:  2.00D  GRAD.:     1.827 HEAT:  121.8410
 CYCLE:   426 TIME:   0.312 TIME LEFT:  2.00D  GRAD.:     0.650 HEAT:  121.8409
 CYCLE:   427 TIME:   0.281 TIME LEFT:  2.00D  GRAD.:     1.045 HEAT:  121.8408
 CYCLE:   428 TIME:   0.289 TIME LEFT:  2.00D  GRAD.:     2.888 HEAT:  121.8405
 CYCLE:   429 TIME:   0.289 TIME LEFT:  2.00D  GRAD.:     2.426 HEAT:  121.8404
 CYCLE:   430 TIME:   0.328 TIME LEFT:  2.00D  GRAD.:     1.295 HEAT:  121.8403
 CYCLE:   431 TIME:   0.281 TIME LEFT:  2.00D  GRAD.:     2.993 HEAT:  121.8402
 CYCLE:   432 TIME:   0.203 TIME LEFT:  2.00D  GRAD.:     0.964 HEAT:  121.8401
 CYCLE:   433 TIME:   0.195 TIME LEFT:  2.00D  GRAD.:     0.635 HEAT:  121.8400
 CYCLE:   434 TIME:   0.203 TIME LEFT:  2.00D  GRAD.:     0.618 HEAT:  121.8398
 CYCLE:   435 TIME:   0.211 TIME LEFT:  2.00D  GRAD.:     0.639 HEAT:  121.8397
 CYCLE:   436 TIME:   0.211 TIME LEFT:  2.00D  GRAD.:     1.052 HEAT:  121.8393
 CYCLE:   437 TIME:   0.297 TIME LEFT:  2.00D  GRAD.:     0.854 HEAT:  121.8389
 CYCLE:   438 TIME:   0.336 TIME LEFT:  2.00D  GRAD.:     1.319 HEAT:  121.8385
 CYCLE:   439 TIME:   0.258 TIME LEFT:  2.00D  GRAD.:     1.601 HEAT:  121.8381
 CYCLE:   440 TIME:   0.227 TIME LEFT:  2.00D  GRAD.:     4.938 HEAT:  121.8380
 CYCLE:   441 TIME:   0.234 TIME LEFT:  2.00D  GRAD.:    14.630 HEAT:  121.8423
 CYCLE:   442 TIME:   0.289 TIME LEFT:  2.00D  GRAD.:    13.299 HEAT:  121.8411
 CYCLE:   443 TIME:   0.281 TIME LEFT:  2.00D  GRAD.:    32.490 HEAT:  121.8579
 CYCLE:   444 TIME:   0.258 TIME LEFT:  2.00D  GRAD.:     9.259 HEAT:  121.8386
 CYCLE:   445 TIME:   0.320 TIME LEFT:  2.00D  GRAD.:    20.510 HEAT:  121.8450
 CYCLE:   446 TIME:   0.234 TIME LEFT:  2.00D  GRAD.:    29.300 HEAT:  121.8513
 CYCLE:   447 TIME:   0.352 TIME LEFT:  2.00D  GRAD.:    13.484 HEAT:  121.8399
 CYCLE:   448 TIME:   0.234 TIME LEFT:  2.00D  GRAD.:     9.896 HEAT:  121.8390
 CYCLE:   449 TIME:   0.219 TIME LEFT:  2.00D  GRAD.:    21.606 HEAT:  121.8442
 CYCLE:   450 TIME:   0.242 TIME LEFT:  2.00D  GRAD.:   124.831 HEAT:  122.0488
 CYCLE:   451 TIME:   0.234 TIME LEFT:  2.00D  GRAD.:    99.731 HEAT:  121.9452
 CYCLE:   452 TIME:   0.234 TIME LEFT:  2.00D  GRAD.:   302.594 HEAT:  122.6618
 CYCLE:   453 TIME:   0.258 TIME LEFT:  2.00D  GRAD.:   470.268 HEAT:  123.5108
 CYCLE:   454 TIME:   0.227 TIME LEFT:  2.00D  GRAD.:   145.680 HEAT:  122.1210
 CYCLE:   455 TIME:   0.352 TIME LEFT:  2.00D  GRAD.:    43.166 HEAT:  121.9152
 CYCLE:   456 TIME:   0.219 TIME LEFT:  2.00D  GRAD.:   241.074 HEAT:  123.0706
 CYCLE:   457 TIME:   0.234 TIME LEFT:  2.00D  GRAD.:    67.795 HEAT:  121.9543
 CYCLE:   458 TIME:   0.406 TIME LEFT:  2.00D  GRAD.:    94.396 HEAT:  122.0382
 CYCLE:   459 TIME:   0.414 TIME LEFT:  2.00D  GRAD.:   112.304 HEAT:  122.1403
 CYCLE:   460 TIME:   0.281 TIME LEFT:  2.00D  GRAD.:    10.239 HEAT:  121.8463
 CYCLE:   461 TIME:   0.344 TIME LEFT:  2.00D  GRAD.:    16.675 HEAT:  121.8400
 CYCLE:   462 TIME:   0.359 TIME LEFT:  2.00D  GRAD.:     2.044 HEAT:  121.8406
 CYCLE:   463 TIME:   0.398 TIME LEFT:  2.00D  GRAD.:     9.155 HEAT:  121.8383
 CYCLE:   464 TIME:   0.273 TIME LEFT:  2.00D  GRAD.:     6.631 HEAT:  121.8378
 CYCLE:   465 TIME:   0.297 TIME LEFT:  2.00D  GRAD.:     1.061 HEAT:  121.8370
 CYCLE:   466 TIME:   0.391 TIME LEFT:  2.00D  GRAD.:     1.128 HEAT:  121.8373
 CYCLE:   467 TIME:   0.297 TIME LEFT:  2.00D  GRAD.:     1.664 HEAT:  121.8371
 CYCLE:   468 TIME:   0.359 TIME LEFT:  2.00D  GRAD.:     5.259 HEAT:  121.8369
 CYCLE:   469 TIME:   0.328 TIME LEFT:  2.00D  GRAD.:     1.141 HEAT:  121.8367
 CYCLE:   470 TIME:   0.258 TIME LEFT:  2.00D  GRAD.:     0.695 HEAT:  121.8365
 CYCLE:   471 TIME:   0.320 TIME LEFT:  2.00D  GRAD.:     6.734 HEAT:  121.8353
 CYCLE:   472 TIME:   0.289 TIME LEFT:  2.00D  GRAD.:     2.447 HEAT:  121.8353
 CYCLE:   473 TIME:   0.383 TIME LEFT:  2.00D  GRAD.:     2.086 HEAT:  121.8347
 CYCLE:   474 TIME:   0.352 TIME LEFT:  2.00D  GRAD.:     2.441 HEAT:  121.8347
 CYCLE:   475 TIME:   0.195 TIME LEFT:  2.00D  GRAD.:     1.034 HEAT:  121.8344
 CYCLE:   476 TIME:   0.211 TIME LEFT:  2.00D  GRAD.:     0.736 HEAT:  121.8342
 CYCLE:   477 TIME:   0.234 TIME LEFT:  2.00D  GRAD.:     2.390 HEAT:  121.8333
 CYCLE:   478 TIME:   0.281 TIME LEFT:  2.00D  GRAD.:     5.165 HEAT:  121.8330
 CYCLE:   479 TIME:   0.352 TIME LEFT:  2.00D  GRAD.:     1.240 HEAT:  121.8328
 CYCLE:   480 TIME:   0.305 TIME LEFT:  2.00D  GRAD.:     5.922 HEAT:  121.8327
 CYCLE:   481 TIME:   0.203 TIME LEFT:  2.00D  GRAD.:     1.548 HEAT:  121.8321
 CYCLE:   482 TIME:   0.234 TIME LEFT:  2.00D  GRAD.:     8.827 HEAT:  121.8328
 CYCLE:   483 TIME:   0.336 TIME LEFT:  2.00D  GRAD.:     2.036 HEAT:  121.8315
 CYCLE:   484 TIME:   0.266 TIME LEFT:  2.00D  GRAD.:     1.656 HEAT:  121.8311
 CYCLE:   485 TIME:   0.227 TIME LEFT:  2.00D  GRAD.:     4.125 HEAT:  121.8311
 CYCLE:   486 TIME:   0.242 TIME LEFT:  2.00D  GRAD.:     0.826 HEAT:  121.8310
 CYCLE:   487 TIME:   0.250 TIME LEFT:  2.00D  GRAD.:     0.661 HEAT:  121.8309
 CYCLE:   488 TIME:   0.219 TIME LEFT:  2.00D  GRAD.:     0.687 HEAT:  121.8308
 CYCLE:   489 TIME:   0.352 TIME LEFT:  2.00D  GRAD.:     2.456 HEAT:  121.8304
 CYCLE:   490 TIME:   0.234 TIME LEFT:  2.00D  GRAD.:     2.247 HEAT:  121.8298
 CYCLE:   491 TIME:   0.234 TIME LEFT:  2.00D  GRAD.:     5.107 HEAT:  121.8294
 CYCLE:   492 TIME:   0.258 TIME LEFT:  2.00D  GRAD.:     1.322 HEAT:  121.8290
 CYCLE:   493 TIME:   0.320 TIME LEFT:  2.00D  GRAD.:     6.442 HEAT:  121.8293
 CYCLE:   494 TIME:   0.273 TIME LEFT:  2.00D  GRAD.:     2.293 HEAT:  121.8288
 CYCLE:   495 TIME:   0.180 TIME LEFT:  2.00D  GRAD.:     0.834 HEAT:  121.8284
 CYCLE:   496 TIME:   0.148 TIME LEFT:  2.00D  GRAD.:     0.730 HEAT:  121.8282
 CYCLE:   497 TIME:   0.188 TIME LEFT:  2.00D  GRAD.:     4.388 HEAT:  121.8282
 CYCLE:   498 TIME:   0.172 TIME LEFT:  2.00D  GRAD.:     6.503 HEAT:  121.8293
 CYCLE:   499 TIME:   0.211 TIME LEFT:  2.00D  GRAD.:     8.960 HEAT:  121.8294
 CYCLE:   500 TIME:   0.211 TIME LEFT:  2.00D  GRAD.:    17.512 HEAT:  121.8351
 CYCLE:   501 TIME:   0.211 TIME LEFT:  2.00D  GRAD.:    18.808 HEAT:  121.8342
 CYCLE:   502 TIME:   0.211 TIME LEFT:  2.00D  GRAD.:     8.848 HEAT:  121.8314
 CYCLE:   503 TIME:   0.219 TIME LEFT:  2.00D  GRAD.:     9.381 HEAT:  121.8295
 CYCLE:   504 TIME:   0.195 TIME LEFT:  2.00D  GRAD.:    72.596 HEAT:  121.8609
 CYCLE:   505 TIME:   0.180 TIME LEFT:  2.00D  GRAD.:    10.309 HEAT:  121.8280
 CYCLE:   506 TIME:   0.195 TIME LEFT:  2.00D  GRAD.:     4.995 HEAT:  121.8281
 CYCLE:   507 TIME:   0.203 TIME LEFT:  2.00D  GRAD.:     5.169 HEAT:  121.8275
 CYCLE:   508 TIME:   0.180 TIME LEFT:  2.00D  GRAD.:     2.041 HEAT:  121.8272
 CYCLE:   509 TIME:   0.195 TIME LEFT:  2.00D  GRAD.:     1.495 HEAT:  121.8270
 CYCLE:   510 TIME:   0.242 TIME LEFT:  2.00D  GRAD.:     1.690 HEAT:  121.8269
 CYCLE:   511 TIME:   0.188 TIME LEFT:  2.00D  GRAD.:     1.286 HEAT:  121.8268
 CYCLE:   512 TIME:   0.203 TIME LEFT:  2.00D  GRAD.:     2.436 HEAT:  121.8266
 CYCLE:   513 TIME:   0.195 TIME LEFT:  2.00D  GRAD.:     2.024 HEAT:  121.8264
 CYCLE:   514 TIME:   0.211 TIME LEFT:  2.00D  GRAD.:     2.437 HEAT:  121.8256
 CYCLE:   515 TIME:   0.211 TIME LEFT:  2.00D  GRAD.:     6.089 HEAT:  121.8261
 CYCLE:   516 TIME:   0.203 TIME LEFT:  2.00D  GRAD.:     2.110 HEAT:  121.8248
 CYCLE:   517 TIME:   0.219 TIME LEFT:  2.00D  GRAD.:     2.790 HEAT:  121.8244
 CYCLE:   518 TIME:   0.203 TIME LEFT:  2.00D  GRAD.:     6.751 HEAT:  121.8252
 CYCLE:   519 TIME:   0.211 TIME LEFT:  2.00D  GRAD.:     2.227 HEAT:  121.8232
 CYCLE:   520 TIME:   0.219 TIME LEFT:  2.00D  GRAD.:     2.690 HEAT:  121.8239
 CYCLE:   521 TIME:   0.219 TIME LEFT:  2.00D  GRAD.:     3.924 HEAT:  121.8231
 CYCLE:   522 TIME:   0.195 TIME LEFT:  2.00D  GRAD.:    21.664 HEAT:  121.8271
 CYCLE:   523 TIME:   0.203 TIME LEFT:  2.00D  GRAD.:     1.205 HEAT:  121.8230
 CYCLE:   524 TIME:   0.219 TIME LEFT:  2.00D  GRAD.:     4.272 HEAT:  121.8226
 CYCLE:   525 TIME:   0.195 TIME LEFT:  2.00D  GRAD.:     1.819 HEAT:  121.8223
 CYCLE:   526 TIME:   0.203 TIME LEFT:  2.00D  GRAD.:     2.021 HEAT:  121.8221
 CYCLE:   527 TIME:   0.195 TIME LEFT:  2.00D  GRAD.:     1.908 HEAT:  121.8219
 CYCLE:   528 TIME:   0.211 TIME LEFT:  2.00D  GRAD.:     2.237 HEAT:  121.8217
 CYCLE:   529 TIME:   0.688 TIME LEFT:  2.00D  GRAD.:     2.034 HEAT:  121.8212
 CYCLE:   530 TIME:   0.211 TIME LEFT:  2.00D  GRAD.:     1.698 HEAT:  121.8203
 CYCLE:   531 TIME:   0.203 TIME LEFT:  2.00D  GRAD.:     0.984 HEAT:  121.8202
 CYCLE:   532 TIME:   0.234 TIME LEFT:  2.00D  GRAD.:    13.490 HEAT:  121.8241
 CYCLE:   533 TIME:   0.234 TIME LEFT:  2.00D  GRAD.:     4.796 HEAT:  121.8209
 CYCLE:   534 TIME:   0.219 TIME LEFT:  2.00D  GRAD.:     1.975 HEAT:  121.8197
 CYCLE:   535 TIME:   0.211 TIME LEFT:  2.00D  GRAD.:     1.346 HEAT:  121.8196
 CYCLE:   536 TIME:   0.234 TIME LEFT:  2.00D  GRAD.:     1.495 HEAT:  121.8190
 CYCLE:   537 TIME:   0.234 TIME LEFT:  2.00D  GRAD.:     2.007 HEAT:  121.8184
 CYCLE:   538 TIME:   0.242 TIME LEFT:  2.00D  GRAD.:     7.279 HEAT:  121.8186
 CYCLE:   539 TIME:   0.219 TIME LEFT:  2.00D  GRAD.:     1.721 HEAT:  121.8179
 CYCLE:   540 TIME:   0.242 TIME LEFT:  2.00D  GRAD.:     8.628 HEAT:  121.8185
 CYCLE:   541 TIME:   0.219 TIME LEFT:  2.00D  GRAD.:     1.704 HEAT:  121.8174
 CYCLE:   542 TIME:   0.227 TIME LEFT:  2.00D  GRAD.:     1.694 HEAT:  121.8171
 CYCLE:   543 TIME:   0.234 TIME LEFT:  2.00D  GRAD.:     3.444 HEAT:  121.8168
 CYCLE:   544 TIME:   0.227 TIME LEFT:  2.00D  GRAD.:     2.277 HEAT:  121.8164
 CYCLE:   545 TIME:   0.234 TIME LEFT:  2.00D  GRAD.:     4.141 HEAT:  121.8154
 CYCLE:   546 TIME:   0.242 TIME LEFT:  2.00D  GRAD.:     3.134 HEAT:  121.8165
 CYCLE:   547 TIME:   0.234 TIME LEFT:  2.00D  GRAD.:     4.586 HEAT:  121.8151
 CYCLE:   548 TIME:   0.234 TIME LEFT:  2.00D  GRAD.:     6.364 HEAT:  121.8171
 CYCLE:   549 TIME:   0.234 TIME LEFT:  2.00D  GRAD.:     9.128 HEAT:  121.8163
 CYCLE:   550 TIME:   0.219 TIME LEFT:  2.00D  GRAD.:    17.512 HEAT:  121.8201
 CYCLE:   551 TIME:   0.219 TIME LEFT:  2.00D  GRAD.:     2.282 HEAT:  121.8154
 CYCLE:   552 TIME:   0.234 TIME LEFT:  2.00D  GRAD.:     5.672 HEAT:  121.8143
 CYCLE:   553 TIME:   0.203 TIME LEFT:  2.00D  GRAD.:     5.513 HEAT:  121.8141
 CYCLE:   554 TIME:   0.203 TIME LEFT:  2.00D  GRAD.:     3.373 HEAT:  121.8140
 CYCLE:   555 TIME:   0.211 TIME LEFT:  2.00D  GRAD.:     4.922 HEAT:  121.8142
 CYCLE:   556 TIME:   0.203 TIME LEFT:  2.00D  GRAD.:     1.504 HEAT:  121.8136
 CYCLE:   557 TIME:   0.219 TIME LEFT:  2.00D  GRAD.:     2.016 HEAT:  121.8133
 CYCLE:   558 TIME:   0.219 TIME LEFT:  2.00D  GRAD.:     5.831 HEAT:  121.8132
 CYCLE:   559 TIME:   0.195 TIME LEFT:  2.00D  GRAD.:     1.884 HEAT:  121.8129
 CYCLE:   560 TIME:   0.211 TIME LEFT:  2.00D  GRAD.:     0.873 HEAT:  121.8128
 CYCLE:   561 TIME:   0.227 TIME LEFT:  2.00D  GRAD.:    24.381 HEAT:  121.8167
 CYCLE:   562 TIME:   0.227 TIME LEFT:  2.00D  GRAD.:     3.220 HEAT:  121.8125
 CYCLE:   563 TIME:   0.211 TIME LEFT:  2.00D  GRAD.:    24.060 HEAT:  121.8165
 CYCLE:   564 TIME:   0.227 TIME LEFT:  2.00D  GRAD.:     1.596 HEAT:  121.8128
 CYCLE:   565 TIME:   0.227 TIME LEFT:  2.00D  GRAD.:    28.216 HEAT:  121.8184
 CYCLE:   566 TIME:   0.219 TIME LEFT:  2.00D  GRAD.:     6.535 HEAT:  121.8137
 CYCLE:   567 TIME:   0.203 TIME LEFT:  2.00D  GRAD.:    34.115 HEAT:  121.8217
 CYCLE:   568 TIME:   0.164 TIME LEFT:  2.00D  GRAD.:    14.349 HEAT:  121.8160
 CYCLE:   569 TIME:   0.172 TIME LEFT:  2.00D  GRAD.:    41.899 HEAT:  121.8274
 CYCLE:   570 TIME:   0.188 TIME LEFT:  2.00D  GRAD.:    24.919 HEAT:  121.8213
 CYCLE:   571 TIME:   0.203 TIME LEFT:  2.00D  GRAD.:    13.779 HEAT:  121.8132
 CYCLE:   572 TIME:   0.188 TIME LEFT:  2.00D  GRAD.:     1.294 HEAT:  121.8124
 CYCLE:   573 TIME:   0.172 TIME LEFT:  2.00D  GRAD.:     5.485 HEAT:  121.8121
 CYCLE:   574 TIME:   0.148 TIME LEFT:  2.00D  GRAD.:     4.955 HEAT:  121.8119
 CYCLE:   575 TIME:   0.172 TIME LEFT:  2.00D  GRAD.:     1.983 HEAT:  121.8119
 CYCLE:   576 TIME:   0.195 TIME LEFT:  2.00D  GRAD.:     1.901 HEAT:  121.8118
 CYCLE:   577 TIME:   0.188 TIME LEFT:  2.00D  GRAD.:     1.106 HEAT:  121.8116
 CYCLE:   578 TIME:   0.195 TIME LEFT:  2.00D  GRAD.:     1.911 HEAT:  121.8114
 CYCLE:   579 TIME:   0.195 TIME LEFT:  2.00D  GRAD.:     3.154 HEAT:  121.8109
 CYCLE:   580 TIME:   0.203 TIME LEFT:  2.00D  GRAD.:     3.669 HEAT:  121.8103
 CYCLE:   581 TIME:   0.188 TIME LEFT:  2.00D  GRAD.:     2.699 HEAT:  121.8100
 CYCLE:   582 TIME:   0.180 TIME LEFT:  2.00D  GRAD.:     2.431 HEAT:  121.8095
 CYCLE:   583 TIME:   0.164 TIME LEFT:  2.00D  GRAD.:     1.314 HEAT:  121.8093
 CYCLE:   584 TIME:   0.188 TIME LEFT:  2.00D  GRAD.:     1.900 HEAT:  121.8090
 CYCLE:   585 TIME:   0.203 TIME LEFT:  2.00D  GRAD.:     2.087 HEAT:  121.8085
 CYCLE:   586 TIME:   0.188 TIME LEFT:  2.00D  GRAD.:     3.512 HEAT:  121.8079
 CYCLE:   587 TIME:   0.156 TIME LEFT:  2.00D  GRAD.:     1.366 HEAT:  121.8074
 CYCLE:   588 TIME:   0.180 TIME LEFT:  2.00D  GRAD.:     1.831 HEAT:  121.8069
 CYCLE:   589 TIME:   0.211 TIME LEFT:  2.00D  GRAD.:     2.084 HEAT:  121.8069
 CYCLE:   590 TIME:   0.195 TIME LEFT:  2.00D  GRAD.:     5.524 HEAT:  121.8064
 CYCLE:   591 TIME:   0.164 TIME LEFT:  2.00D  GRAD.:     9.978 HEAT:  121.8069
 CYCLE:   592 TIME:   0.148 TIME LEFT:  2.00D  GRAD.:     1.413 HEAT:  121.8060
 CYCLE:   593 TIME:   0.172 TIME LEFT:  2.00D  GRAD.:     1.324 HEAT:  121.8057
 CYCLE:   594 TIME:   0.156 TIME LEFT:  2.00D  GRAD.:     0.976 HEAT:  121.8053
 CYCLE:   595 TIME:   0.148 TIME LEFT:  2.00D  GRAD.:     1.563 HEAT:  121.8043
 CYCLE:   596 TIME:   0.195 TIME LEFT:  2.00D  GRAD.:     3.013 HEAT:  121.8033
 CYCLE:   597 TIME:   0.180 TIME LEFT:  2.00D  GRAD.:     7.030 HEAT:  121.8038
 CYCLE:   598 TIME:   0.172 TIME LEFT:  2.00D  GRAD.:     1.657 HEAT:  121.8027
 CYCLE:   599 TIME:   0.211 TIME LEFT:  2.00D  GRAD.:     6.642 HEAT:  121.8044
 CYCLE:   600 TIME:   1.008 TIME LEFT:  2.00D  GRAD.:     3.435 HEAT:  121.8026
 CYCLE:   601 TIME:   0.164 TIME LEFT:  2.00D  GRAD.:     6.463 HEAT:  121.8044
 CYCLE:   602 TIME:   0.195 TIME LEFT:  2.00D  GRAD.:     0.907 HEAT:  121.8026
 CYCLE:   603 TIME:   0.172 TIME LEFT:  2.00D  GRAD.:     0.677 HEAT:  121.8026
 CYCLE:   604 TIME:   0.148 TIME LEFT:  2.00D  GRAD.:     1.548 HEAT:  121.8025
 CYCLE:   605 TIME:   0.164 TIME LEFT:  2.00D  GRAD.:     4.083 HEAT:  121.8023
 CYCLE:   606 TIME:   0.141 TIME LEFT:  2.00D  GRAD.:     1.651 HEAT:  121.8021
 CYCLE:   607 TIME:   0.180 TIME LEFT:  2.00D  GRAD.:     1.330 HEAT:  121.8021
 CYCLE:   608 TIME:   0.156 TIME LEFT:  2.00D  GRAD.:     2.057 HEAT:  121.8020
 CYCLE:   609 TIME:   0.180 TIME LEFT:  2.00D  GRAD.:     0.869 HEAT:  121.8019
 CYCLE:   610 TIME:   0.195 TIME LEFT:  2.00D  GRAD.:     1.125 HEAT:  121.8017
 CYCLE:   611 TIME:   0.195 TIME LEFT:  2.00D  GRAD.:     2.835 HEAT:  121.8014
 CYCLE:   612 TIME:   0.188 TIME LEFT:  2.00D  GRAD.:     2.169 HEAT:  121.8013
 CYCLE:   613 TIME:   0.188 TIME LEFT:  2.00D  GRAD.:     2.210 HEAT:  121.8012
 CYCLE:   614 TIME:   0.148 TIME LEFT:  2.00D  GRAD.:     1.187 HEAT:  121.8010
 CYCLE:   615 TIME:   0.141 TIME LEFT:  2.00D  GRAD.:     0.684 HEAT:  121.8009
 CYCLE:   616 TIME:   0.148 TIME LEFT:  2.00D  GRAD.:     7.574 HEAT:  121.8012
 CYCLE:   617 TIME:   0.148 TIME LEFT:  2.00D  GRAD.:     2.550 HEAT:  121.8010
 CYCLE:   618 TIME:   0.133 TIME LEFT:  2.00D  GRAD.:     3.097 HEAT:  121.8007
 CYCLE:   619 TIME:   0.133 TIME LEFT:  2.00D  GRAD.:     1.673 HEAT:  121.8007
 CYCLE:   620 TIME:   0.141 TIME LEFT:  2.00D  GRAD.:     0.587 HEAT:  121.8006
 CYCLE:   621 TIME:   0.141 TIME LEFT:  2.00D  GRAD.:     0.696 HEAT:  121.8005
 CYCLE:   622 TIME:   0.148 TIME LEFT:  2.00D  GRAD.:     4.028 HEAT:  121.8002
 CYCLE:   623 TIME:   0.148 TIME LEFT:  2.00D  GRAD.:     2.946 HEAT:  121.8002
 CYCLE:   624 TIME:   0.148 TIME LEFT:  2.00D  GRAD.:     1.845 HEAT:  121.7999
 CYCLE:   625 TIME:   0.156 TIME LEFT:  2.00D  GRAD.:     8.551 HEAT:  121.8003
 CYCLE:   626 TIME:   0.133 TIME LEFT:  2.00D  GRAD.:     0.560 HEAT:  121.7997
 CYCLE:   627 TIME:   0.133 TIME LEFT:  2.00D  GRAD.:     0.814 HEAT:  121.7997
 CYCLE:   628 TIME:   0.141 TIME LEFT:  2.00D  GRAD.:     0.718 HEAT:  121.7996
 CYCLE:   629 TIME:   0.148 TIME LEFT:  2.00D  GRAD.:     0.867 HEAT:  121.7993
 CYCLE:   630 TIME:   0.172 TIME LEFT:  2.00D  GRAD.:     0.999 HEAT:  121.7989
 CYCLE:   631 TIME:   0.164 TIME LEFT:  2.00D  GRAD.:     3.006 HEAT:  121.7986
 CYCLE:   632 TIME:   0.148 TIME LEFT:  2.00D  GRAD.:     2.697 HEAT:  121.7982
 CYCLE:   633 TIME:   0.148 TIME LEFT:  2.00D  GRAD.:     0.986 HEAT:  121.7982
 CYCLE:   634 TIME:   0.195 TIME LEFT:  2.00D  GRAD.:     7.020 HEAT:  121.7988
 CYCLE:   635 TIME:   0.141 TIME LEFT:  2.00D  GRAD.:     7.202 HEAT:  121.7995
 CYCLE:   636 TIME:   0.148 TIME LEFT:  2.00D  GRAD.:     0.762 HEAT:  121.7976
 CYCLE:   637 TIME:   0.156 TIME LEFT:  2.00D  GRAD.:     0.721 HEAT:  121.7976
 CYCLE:   638 TIME:   0.195 TIME LEFT:  2.00D  GRAD.:     4.683 HEAT:  121.7978
 CYCLE:   639 TIME:   0.164 TIME LEFT:  2.00D  GRAD.:     1.720 HEAT:  121.7975
 CYCLE:   640 TIME:   0.180 TIME LEFT:  2.00D  GRAD.:     0.663 HEAT:  121.7973
 CYCLE:   641 TIME:   0.172 TIME LEFT:  2.00D  GRAD.:     2.118 HEAT:  121.7973
 CYCLE:   642 TIME:   0.203 TIME LEFT:  2.00D  GRAD.:     2.004 HEAT:  121.7971
 CYCLE:   643 TIME:   0.180 TIME LEFT:  2.00D  GRAD.:     1.095 HEAT:  121.7970
 CYCLE:   644 TIME:   0.195 TIME LEFT:  2.00D  GRAD.:     1.686 HEAT:  121.7969
 CYCLE:   645 TIME:   0.195 TIME LEFT:  2.00D  GRAD.:     1.760 HEAT:  121.7967
 CYCLE:   646 TIME:   0.180 TIME LEFT:  2.00D  GRAD.:     1.354 HEAT:  121.7966
 CYCLE:   647 TIME:   0.195 TIME LEFT:  2.00D  GRAD.:     1.053 HEAT:  121.7964
 CYCLE:   648 TIME:   0.227 TIME LEFT:  2.00D  GRAD.:     1.527 HEAT:  121.7962
 CYCLE:   649 TIME:   0.180 TIME LEFT:  2.00D  GRAD.:     1.414 HEAT:  121.7961
 CYCLE:   650 TIME:   0.195 TIME LEFT:  2.00D  GRAD.:     0.932 HEAT:  121.7959
 CYCLE:   651 TIME:   0.219 TIME LEFT:  2.00D  GRAD.:     1.180 HEAT:  121.7958
 CYCLE:   652 TIME:   0.211 TIME LEFT:  2.00D  GRAD.:     1.483 HEAT:  121.7955
 CYCLE:   653 TIME:   0.188 TIME LEFT:  2.00D  GRAD.:     1.646 HEAT:  121.7952
 CYCLE:   654 TIME:   0.211 TIME LEFT:  2.00D  GRAD.:     2.721 HEAT:  121.7949
 CYCLE:   655 TIME:   0.203 TIME LEFT:  2.00D  GRAD.:     1.351 HEAT:  121.7949
 CYCLE:   656 TIME:   0.180 TIME LEFT:  2.00D  GRAD.:     8.930 HEAT:  121.7953
 CYCLE:   657 TIME:   0.172 TIME LEFT:  2.00D  GRAD.:     3.768 HEAT:  121.7950
 CYCLE:   658 TIME:   0.141 TIME LEFT:  2.00D  GRAD.:     1.516 HEAT:  121.7947
 CYCLE:   659 TIME:   0.133 TIME LEFT:  2.00D  GRAD.:     0.898 HEAT:  121.7947
 CYCLE:   660 TIME:   0.180 TIME LEFT:  2.00D  GRAD.:     4.348 HEAT:  121.7946
 CYCLE:   661 TIME:   0.148 TIME LEFT:  2.00D  GRAD.:     1.539 HEAT:  121.7945
 CYCLE:   662 TIME:   0.156 TIME LEFT:  2.00D  GRAD.:     0.757 HEAT:  121.7945
 CYCLE:   663 TIME:   0.141 TIME LEFT:  2.00D  GRAD.:     0.687 HEAT:  121.7944
 CYCLE:   664 TIME:   0.156 TIME LEFT:  2.00D  GRAD.:     1.453 HEAT:  121.7943
 CYCLE:   665 TIME:   0.133 TIME LEFT:  2.00D  GRAD.:     0.862 HEAT:  121.7943
 CYCLE:   666 TIME:   0.148 TIME LEFT:  2.00D  GRAD.:     0.501 HEAT:  121.7942
 CYCLE:   667 TIME:   0.578 TIME LEFT:  2.00D  GRAD.:     0.704 HEAT:  121.7941
 CYCLE:   668 TIME:   2.305 TIME LEFT:  2.00D  GRAD.:     0.587 HEAT:  121.7940
 CYCLE:   669 TIME:   0.188 TIME LEFT:  2.00D  GRAD.:     0.853 HEAT:  121.7939
 CYCLE:   670 TIME:   0.211 TIME LEFT:  2.00D  GRAD.:     0.692 HEAT:  121.7938
 CYCLE:   671 TIME:   0.203 TIME LEFT:  2.00D  GRAD.:     0.831 HEAT:  121.7937
 CYCLE:   672 TIME:   0.188 TIME LEFT:  2.00D  GRAD.:     1.483 HEAT:  121.7937
 CYCLE:   673 TIME:   0.172 TIME LEFT:  2.00D  GRAD.:     1.776 HEAT:  121.7936
 CYCLE:   674 TIME:   0.180 TIME LEFT:  2.00D  GRAD.:     1.166 HEAT:  121.7935
 CYCLE:   675 TIME:   0.148 TIME LEFT:  2.00D  GRAD.:     2.517 HEAT:  121.7936
 CYCLE:   676 TIME:   0.164 TIME LEFT:  2.00D  GRAD.:     1.029 HEAT:  121.7934
 CYCLE:   677 TIME:   0.156 TIME LEFT:  2.00D  GRAD.:     0.560 HEAT:  121.7934
 CYCLE:   678 TIME:   0.164 TIME LEFT:  2.00D  GRAD.:     1.544 HEAT:  121.7933
 CYCLE:   679 TIME:   0.148 TIME LEFT:  2.00D  GRAD.:     0.966 HEAT:  121.7932
 CYCLE:   680 TIME:   0.172 TIME LEFT:  2.00D  GRAD.:     0.619 HEAT:  121.7931
 CYCLE:   681 TIME:   0.188 TIME LEFT:  2.00D  GRAD.:     1.131 HEAT:  121.7931
 CYCLE:   682 TIME:   0.172 TIME LEFT:  2.00D  GRAD.:     0.765 HEAT:  121.7930
 CYCLE:   683 TIME:   0.188 TIME LEFT:  2.00D  GRAD.:     0.639 HEAT:  121.7929
 CYCLE:   684 TIME:   0.164 TIME LEFT:  2.00D  GRAD.:     1.240 HEAT:  121.7927
 CYCLE:   685 TIME:   0.172 TIME LEFT:  2.00D  GRAD.:     0.934 HEAT:  121.7927
 CYCLE:   686 TIME:   0.188 TIME LEFT:  2.00D  GRAD.:     2.810 HEAT:  121.7931
 CYCLE:   687 TIME:   0.172 TIME LEFT:  2.00D  GRAD.:     1.275 HEAT:  121.7927
 CYCLE:   688 TIME:   0.156 TIME LEFT:  2.00D  GRAD.:     3.271 HEAT:  121.7929
 CYCLE:   689 TIME:   0.148 TIME LEFT:  2.00D  GRAD.:     2.460 HEAT:  121.7925
 CYCLE:   690 TIME:   0.164 TIME LEFT:  2.00D  GRAD.:     0.858 HEAT:  121.7924
 CYCLE:   691 TIME:   0.188 TIME LEFT:  2.00D  GRAD.:     0.582 HEAT:  121.7924
 CYCLE:   692 TIME:   0.195 TIME LEFT:  2.00D  GRAD.:     0.483 HEAT:  121.7923
 CYCLE:   693 TIME:   0.180 TIME LEFT:  2.00D  GRAD.:     0.364 HEAT:  121.7923
 CYCLE:   694 TIME:   0.195 TIME LEFT:  2.00D  GRAD.:     0.778 HEAT:  121.7922
 CYCLE:   695 TIME:   0.188 TIME LEFT:  2.00D  GRAD.:     6.461 HEAT:  121.7924
 CYCLE:   696 TIME:   0.148 TIME LEFT:  2.00D  GRAD.:     0.828 HEAT:  121.7921
 CYCLE:   697 TIME:   0.180 TIME LEFT:  2.00D  GRAD.:     3.155 HEAT:  121.7922
 CYCLE:   698 TIME:   0.188 TIME LEFT:  2.00D  GRAD.:     0.620 HEAT:  121.7920
 CYCLE:   699 TIME:   0.141 TIME LEFT:  2.00D  GRAD.:     0.955 HEAT:  121.7920
 CYCLE:   700 TIME:   0.156 TIME LEFT:  2.00D  GRAD.:     0.507 HEAT:  121.7920
 CYCLE:   701 TIME:   0.156 TIME LEFT:  2.00D  GRAD.:     1.244 HEAT:  121.7919
 CYCLE:   702 TIME:   0.141 TIME LEFT:  2.00D  GRAD.:     0.608 HEAT:  121.7919
 CYCLE:   703 TIME:   0.141 TIME LEFT:  2.00D  GRAD.:     0.763 HEAT:  121.7918
 CYCLE:   704 TIME:   0.133 TIME LEFT:  2.00D  GRAD.:     0.522 HEAT:  121.7918
 CYCLE:   705 TIME:   0.164 TIME LEFT:  2.00D  GRAD.:     0.877 HEAT:  121.7917
 CYCLE:   706 TIME:   0.148 TIME LEFT:  2.00D  GRAD.:     0.591 HEAT:  121.7917
 CYCLE:   707 TIME:   0.141 TIME LEFT:  2.00D  GRAD.:     1.298 HEAT:  121.7916
 CYCLE:   708 TIME:   0.266 TIME LEFT:  2.00D  GRAD.:     0.374 HEAT:  121.7916
 CYCLE:   709 TIME:   0.180 TIME LEFT:  2.00D  GRAD.:     1.710 HEAT:  121.7916
 CYCLE:   710 TIME:   0.188 TIME LEFT:  2.00D  GRAD.:     0.719 HEAT:  121.7915
 CYCLE:   711 TIME:   0.195 TIME LEFT:  2.00D  GRAD.:     1.890 HEAT:  121.7915
 CYCLE:   712 TIME:   0.188 TIME LEFT:  2.00D  GRAD.:     0.629 HEAT:  121.7915
 CYCLE:   713 TIME:   0.305 TIME LEFT:  2.00D  GRAD.:     0.636 HEAT:  121.7914
 CYCLE:   714 TIME:   0.164 TIME LEFT:  2.00D  GRAD.:     0.350 HEAT:  121.7914
 CYCLE:   715 TIME:   0.195 TIME LEFT:  2.00D  GRAD.:     0.682 HEAT:  121.7914
 CYCLE:   716 TIME:   0.211 TIME LEFT:  2.00D  GRAD.:     0.594 HEAT:  121.7913
 CYCLE:   717 TIME:   0.227 TIME LEFT:  2.00D  GRAD.:     1.025 HEAT:  121.7913
 CYCLE:   718 TIME:   0.211 TIME LEFT:  2.00D  GRAD.:     0.547 HEAT:  121.7912
 CYCLE:   719 TIME:   0.219 TIME LEFT:  2.00D  GRAD.:     0.670 HEAT:  121.7912
 CYCLE:   720 TIME:   0.227 TIME LEFT:  2.00D  GRAD.:     1.935 HEAT:  121.7912
 CYCLE:   721 TIME:   0.219 TIME LEFT:  2.00D  GRAD.:     1.330 HEAT:  121.7912
 CYCLE:   722 TIME:   0.234 TIME LEFT:  2.00D  GRAD.:     0.364 HEAT:  121.7911
 CYCLE:   723 TIME:   0.211 TIME LEFT:  2.00D  GRAD.:     0.270 HEAT:  121.7911
 CYCLE:   724 TIME:   0.195 TIME LEFT:  2.00D  GRAD.:     0.280 HEAT:  121.7910
 CYCLE:   725 TIME:   0.227 TIME LEFT:  2.00D  GRAD.:     0.354 HEAT:  121.7908
 CYCLE:   726 TIME:   0.172 TIME LEFT:  2.00D  GRAD.:     0.810 HEAT:  121.7907
 CYCLE:   727 TIME:   0.203 TIME LEFT:  2.00D  GRAD.:     1.036 HEAT:  121.7906
 CYCLE:   728 TIME:   0.211 TIME LEFT:  2.00D  GRAD.:     1.645 HEAT:  121.7908
 CYCLE:   729 TIME:   0.195 TIME LEFT:  2.00D  GRAD.:     3.938 HEAT:  121.7909
 CYCLE:   730 TIME:   0.227 TIME LEFT:  2.00D  GRAD.:     5.131 HEAT:  121.7914
 CYCLE:   731 TIME:   0.180 TIME LEFT:  2.00D  GRAD.:     1.036 HEAT:  121.7905
 CYCLE:   732 TIME:   0.172 TIME LEFT:  2.00D  GRAD.:     4.639 HEAT:  121.7907
 CYCLE:   733 TIME:   0.156 TIME LEFT:  2.00D  GRAD.:     0.795 HEAT:  121.7905
 CYCLE:   734 TIME:   0.219 TIME LEFT:  2.00D  GRAD.:     4.021 HEAT:  121.7907
 CYCLE:   735 TIME:   0.211 TIME LEFT:  2.00D  GRAD.:     1.290 HEAT:  121.7906
 CYCLE:   736 TIME:   0.180 TIME LEFT:  2.00D  GRAD.:     0.440 HEAT:  121.7906
 CYCLE:   737 TIME:   0.227 TIME LEFT:  2.00D  GRAD.:     0.949 HEAT:  121.7906
 CYCLE:   738 TIME:   0.156 TIME LEFT:  2.00D  GRAD.:     0.335 HEAT:  121.7906
 CYCLE:   739 TIME:   0.180 TIME LEFT:  2.00D  GRAD.:     0.323 HEAT:  121.7906
 CYCLE:   740 TIME:   0.195 TIME LEFT:  2.00D  GRAD.:     1.000 HEAT:  121.7905
 CYCLE:   741 TIME:   0.195 TIME LEFT:  2.00D  GRAD.:     0.573 HEAT:  121.7905
 CYCLE:   742 TIME:   0.156 TIME LEFT:  2.00D  GRAD.:     2.167 HEAT:  121.7905
 CYCLE:   743 TIME:   0.148 TIME LEFT:  2.00D  GRAD.:     0.826 HEAT:  121.7905
 CYCLE:   744 TIME:   0.141 TIME LEFT:  2.00D  GRAD.:     0.578 HEAT:  121.7904
 CYCLE:   745 TIME:   0.148 TIME LEFT:  2.00D  GRAD.:     1.096 HEAT:  121.7904
 CYCLE:   746 TIME:   0.180 TIME LEFT:  2.00D  GRAD.:     0.441 HEAT:  121.7904
 CYCLE:   747 TIME:   0.148 TIME LEFT:  2.00D  GRAD.:     0.452 HEAT:  121.7903
 CYCLE:   748 TIME:   0.148 TIME LEFT:  2.00D  GRAD.:     0.271 HEAT:  121.7903
 CYCLE:   749 TIME:   0.148 TIME LEFT:  2.00D  GRAD.:     0.330 HEAT:  121.7903
 CYCLE:   750 TIME:   0.148 TIME LEFT:  2.00D  GRAD.:     1.195 HEAT:  121.7903
 CYCLE:   751 TIME:   0.156 TIME LEFT:  2.00D  GRAD.:     0.508 HEAT:  121.7902
 CYCLE:   752 TIME:   0.172 TIME LEFT:  2.00D  GRAD.:     0.390 HEAT:  121.7901
 CYCLE:   753 TIME:   0.164 TIME LEFT:  2.00D  GRAD.:     1.282 HEAT:  121.7900
 CYCLE:   754 TIME:   0.164 TIME LEFT:  2.00D  GRAD.:     1.095 HEAT:  121.7900
 CYCLE:   755 TIME:   0.180 TIME LEFT:  2.00D  GRAD.:     3.040 HEAT:  121.7901
 CYCLE:   756 TIME:   0.156 TIME LEFT:  2.00D  GRAD.:     1.417 HEAT:  121.7900
 CYCLE:   757 TIME:   0.164 TIME LEFT:  2.00D  GRAD.:     0.776 HEAT:  121.7899
 CYCLE:   758 TIME:   0.148 TIME LEFT:  2.00D  GRAD.:     0.409 HEAT:  121.7899
 CYCLE:   759 TIME:   0.156 TIME LEFT:  2.00D  GRAD.:     3.311 HEAT:  121.7900
 CYCLE:   760 TIME:   0.156 TIME LEFT:  2.00D  GRAD.:     0.837 HEAT:  121.7899
 CYCLE:   761 TIME:   0.164 TIME LEFT:  2.00D  GRAD.:     0.368 HEAT:  121.7898
 CYCLE:   762 TIME:   0.148 TIME LEFT:  2.00D  GRAD.:     0.271 HEAT:  121.7898
 CYCLE:   763 TIME:   0.156 TIME LEFT:  2.00D  GRAD.:     1.597 HEAT:  121.7898
 CYCLE:   764 TIME:   0.141 TIME LEFT:  2.00D  GRAD.:     0.858 HEAT:  121.7898
 CYCLE:   765 TIME:   0.141 TIME LEFT:  2.00D  GRAD.:     0.516 HEAT:  121.7898
 CYCLE:   766 TIME:   0.141 TIME LEFT:  2.00D  GRAD.:     0.249 HEAT:  121.7897
 CYCLE:   767 TIME:   0.148 TIME LEFT:  2.00D  GRAD.:     0.283 HEAT:  121.7897
 CYCLE:   768 TIME:   0.156 TIME LEFT:  2.00D  GRAD.:     1.595 HEAT:  121.7897
 CYCLE:   769 TIME:   0.148 TIME LEFT:  2.00D  GRAD.:     0.525 HEAT:  121.7897
 CYCLE:   770 TIME:   0.156 TIME LEFT:  2.00D  GRAD.:     0.649 HEAT:  121.7897
 CYCLE:   771 TIME:   0.156 TIME LEFT:  2.00D  GRAD.:     0.305 HEAT:  121.7896
 CYCLE:   772 TIME:   0.141 TIME LEFT:  2.00D  GRAD.:     0.343 HEAT:  121.7896
 CYCLE:   773 TIME:   0.133 TIME LEFT:  2.00D  GRAD.:     0.355 HEAT:  121.7896
 CYCLE:   774 TIME:   0.156 TIME LEFT:  2.00D  GRAD.:     0.903 HEAT:  121.7896
 CYCLE:   775 TIME:   0.156 TIME LEFT:  2.00D  GRAD.:     0.244 HEAT:  121.7895
 CYCLE:   776 TIME:   0.156 TIME LEFT:  2.00D  GRAD.:     0.981 HEAT:  121.7895
 CYCLE:   777 TIME:   0.141 TIME LEFT:  2.00D  GRAD.:     0.608 HEAT:  121.7895
 CYCLE:   778 TIME:   0.141 TIME LEFT:  2.00D  GRAD.:     0.170 HEAT:  121.7895
 CYCLE:   779 TIME:   0.148 TIME LEFT:  2.00D  GRAD.:     0.251 HEAT:  121.7895
 CYCLE:   780 TIME:   0.250 TIME LEFT:  2.00D  GRAD.:     0.738 HEAT:  121.7895
 CYCLE:   781 TIME:   0.195 TIME LEFT:  2.00D  GRAD.:     0.548 HEAT:  121.7895
 CYCLE:   782 TIME:   0.211 TIME LEFT:  2.00D  GRAD.:     0.311 HEAT:  121.7894
 CYCLE:   783 TIME:   0.195 TIME LEFT:  2.00D  GRAD.:     0.281 HEAT:  121.7894
 CYCLE:   784 TIME:   0.164 TIME LEFT:  2.00D  GRAD.:     0.825 HEAT:  121.7894
 CYCLE:   785 TIME:   0.195 TIME LEFT:  2.00D  GRAD.:     0.461 HEAT:  121.7894
 CYCLE:   786 TIME:   0.156 TIME LEFT:  2.00D  GRAD.:     0.264 HEAT:  121.7893
 CYCLE:   787 TIME:   0.195 TIME LEFT:  2.00D  GRAD.:     1.088 HEAT:  121.7893
 CYCLE:   788 TIME:   0.195 TIME LEFT:  2.00D  GRAD.:     0.499 HEAT:  121.7893
 CYCLE:   789 TIME:   0.203 TIME LEFT:  2.00D  GRAD.:     1.275 HEAT:  121.7893
 CYCLE:   790 TIME:   0.195 TIME LEFT:  2.00D  GRAD.:     0.657 HEAT:  121.7893
 CYCLE:   791 TIME:   0.195 TIME LEFT:  2.00D  GRAD.:     1.581 HEAT:  121.7893
 CYCLE:   792 TIME:   0.188 TIME LEFT:  2.00D  GRAD.:     0.886 HEAT:  121.7894
 CYCLE:   793 TIME:   0.188 TIME LEFT:  2.00D  GRAD.:     2.028 HEAT:  121.7893
 CYCLE:   794 TIME:   0.180 TIME LEFT:  2.00D  GRAD.:     1.437 HEAT:  121.7893
 CYCLE:   795 TIME:   0.188 TIME LEFT:  2.00D  GRAD.:     5.282 HEAT:  121.7900
 CYCLE:   796 TIME:   0.195 TIME LEFT:  2.00D  GRAD.:     1.337 HEAT:  121.7893
 CYCLE:   797 TIME:   0.180 TIME LEFT:  2.00D  GRAD.:     0.939 HEAT:  121.7894
 CYCLE:   798 TIME:   0.172 TIME LEFT:  2.00D  GRAD.:     1.200 HEAT:  121.7893
 CYCLE:   799 TIME:   0.180 TIME LEFT:  2.00D  GRAD.:     9.606 HEAT:  121.7899
 CYCLE:   800 TIME:   0.188 TIME LEFT:  2.00D  GRAD.:     1.039 HEAT:  121.7893
 CYCLE:   801 TIME:   0.172 TIME LEFT:  2.00D  GRAD.:     1.148 HEAT:  121.7893
 CYCLE:   802 TIME:   0.203 TIME LEFT:  2.00D  GRAD.:     1.002 HEAT:  121.7893
 CYCLE:   803 TIME:   0.195 TIME LEFT:  2.00D  GRAD.:     0.302 HEAT:  121.7892
 CYCLE:   804 TIME:   0.148 TIME LEFT:  2.00D  GRAD.:     0.207 HEAT:  121.7892
 CYCLE:   805 TIME:   0.156 TIME LEFT:  2.00D  GRAD.:     0.246 HEAT:  121.7892
 CYCLE:   806 TIME:   0.148 TIME LEFT:  2.00D  GRAD.:     0.354 HEAT:  121.7892
 CYCLE:   807 TIME:   0.148 TIME LEFT:  2.00D  GRAD.:     0.190 HEAT:  121.7892
 CYCLE:   808 TIME:   0.180 TIME LEFT:  2.00D  GRAD.:     1.716 HEAT:  121.7892
 CYCLE:   809 TIME:   0.164 TIME LEFT:  2.00D  GRAD.:     0.475 HEAT:  121.7892
 CYCLE:   810 TIME:   0.156 TIME LEFT:  2.00D  GRAD.:     1.513 HEAT:  121.7891
 CYCLE:   811 TIME:   0.141 TIME LEFT:  2.00D  GRAD.:     0.782 HEAT:  121.7891
 CYCLE:   812 TIME:   0.195 TIME LEFT:  2.00D  GRAD.:     0.331 HEAT:  121.7891
 CYCLE:   813 TIME:   0.188 TIME LEFT:  2.00D  GRAD.:     0.247 HEAT:  121.7891
 CYCLE:   814 TIME:   0.188 TIME LEFT:  2.00D  GRAD.:     0.853 HEAT:  121.7890
 CYCLE:   815 TIME:   0.188 TIME LEFT:  2.00D  GRAD.:     0.839 HEAT:  121.7890
 CYCLE:   816 TIME:   0.180 TIME LEFT:  2.00D  GRAD.:     2.075 HEAT:  121.7890
 CYCLE:   817 TIME:   0.125 TIME LEFT:  2.00D  GRAD.:     0.491 HEAT:  121.7890
 CYCLE:   818 TIME:   0.164 TIME LEFT:  2.00D  GRAD.:     0.617 HEAT:  121.7890
 CYCLE:   819 TIME:   0.156 TIME LEFT:  2.00D  GRAD.:     0.280 HEAT:  121.7890
 CYCLE:   820 TIME:   0.148 TIME LEFT:  2.00D  GRAD.:     0.347 HEAT:  121.7890
 CYCLE:   821 TIME:   0.180 TIME LEFT:  2.00D  GRAD.:     0.333 HEAT:  121.7889
 CYCLE:   822 TIME:   0.172 TIME LEFT:  2.00D  GRAD.:     0.241 HEAT:  121.7889
 CYCLE:   823 TIME:   0.156 TIME LEFT:  2.00D  GRAD.:     0.196 HEAT:  121.7888
 CYCLE:   824 TIME:   0.164 TIME LEFT:  2.00D  GRAD.:     1.164 HEAT:  121.7888
 CYCLE:   825 TIME:   0.156 TIME LEFT:  2.00D  GRAD.:     0.385 HEAT:  121.7888
 CYCLE:   826 TIME:   0.172 TIME LEFT:  2.00D  GRAD.:     1.170 HEAT:  121.7888
 CYCLE:   827 TIME:   0.188 TIME LEFT:  2.00D  GRAD.:     0.677 HEAT:  121.7888
 CYCLE:   828 TIME:   0.203 TIME LEFT:  2.00D  GRAD.:     1.197 HEAT:  121.7888
 CYCLE:   829 TIME:   0.211 TIME LEFT:  2.00D  GRAD.:     0.574 HEAT:  121.7888
 CYCLE:   830 TIME:   0.219 TIME LEFT:  2.00D  GRAD.:     0.304 HEAT:  121.7887
 CYCLE:   831 TIME:   0.195 TIME LEFT:  2.00D  GRAD.:     2.812 HEAT:  121.7888
 CYCLE:   832 TIME:   0.195 TIME LEFT:  2.00D  GRAD.:     0.283 HEAT:  121.7887
[...]
   45          C           0.402068        3.5979     1.18045     2.41748
   47          O          -0.310764        6.3108     1.83992     4.47084
   75          H           0.245126        0.7549     0.75487
    2          C           0.052889        3.9471     1.19473     2.75238
    1          N          -0.148943        5.1489     1.84822     3.30073
    3          C          -0.143227        4.1432     1.14221     3.00101
    4          C           0.138262        3.8617     1.17183     2.68991
    5          C          -0.415615        4.4156     1.21468     3.20093
    6          C          -0.015588        4.0156     1.18420     2.83139
    7          C          -0.135688        4.1357     1.18447     2.95122
    8          C          -0.260020        4.2600     1.21951     3.04051
    9          S           0.486463        5.5135     1.88336     3.63018
   10          C          -0.083623        4.0836     1.16850     2.91513
   11          C          -0.036634        4.0366     1.16709     2.86954
   12          C          -0.316530        4.3165     1.21287     3.10366
   13          C          -0.080432        4.0804     1.18115     2.89929
   14          C          -0.122647        4.1226     1.18189     2.94075
   15          C          -0.258673        4.2587     1.21336     3.04531
   16          S           0.432956        5.5670     1.88570     3.68134
   17          C          -0.047122        4.0471     1.14899     2.89813
   18          C          -0.046779        4.0468     1.17696     2.86982
   19          C          -0.170268        4.1703     1.17203     2.99824
   20          C           0.129846        3.8702     1.15121     2.71894
   21          C          -0.090901        4.0909     1.15838     2.93252
   22          C          -0.033095        4.0331     1.16928     2.86382
   23          C          -0.092763        4.0928     1.15877     2.93399
   24          C          -0.034489        4.0345     1.16948     2.86501
   25          C          -0.157108        4.1571     1.17834     2.97877
   26          C          -0.053136        4.0531     1.17661     2.87653
   27          C          -0.168703        4.1687     1.17210     2.99660
   28          C           0.125029        3.8750     1.15125     2.72373
   29          N          -0.259030        5.2590     1.47963     3.77940
   30          C           0.131496        3.8685     1.14318     2.72532
   31          C          -0.146510        4.1465     1.18186     2.96465
   32          C          -0.065342        4.0653     1.17184     2.89350
   33          C          -0.039297        4.0393     1.16368     2.87562
   34          C          -0.040519        4.0405     1.18453     2.85599
   35          C          -0.131201        4.1312     1.17607     2.95513
   36          C           0.069882        3.9301     1.15978     2.77033
   37          C          -0.177795        4.1778     1.15713     3.02067
   38          C          -0.177558        4.1776     1.15715     3.02041
   39          C          -0.064947        4.0649     1.18441     2.88053
   40          C          -0.028077        4.0281     1.16187     2.86621
   41          C          -0.086184        4.0862     1.17306     2.91312
   42          C          -0.106083        4.1061     1.17923     2.92685
   43          C          -0.099460        4.0995     1.17981     2.91965
   44          C          -0.093103        4.0931     1.17309     2.92001
   48          H           0.133469        0.8665     0.86653
   49          H           0.121203        0.8788     0.87880
   50          H           0.108306        0.8917     0.89169
   51          H           0.136700        0.8633     0.86330
   52          H           0.136520        0.8635     0.86348
   53          H           0.124496        0.8755     0.87550
   54          H           0.129300        0.8707     0.87070
   55          H           0.109906        0.8901     0.89009
   56          H           0.126628        0.8734     0.87337
   57          H           0.115758        0.8842     0.88424
   58          H           0.108396        0.8916     0.89160
   59          H           0.109126        0.8909     0.89087
   60          H           0.102028        0.8980     0.89797
   61          H           0.124401        0.8756     0.87560
   62          H           0.127709        0.8723     0.87229
   63          H           0.114765        0.8852     0.88524
   64          H           0.133264        0.8667     0.86674
   65          H           0.072465        0.9275     0.92754
   66          H           0.065754        0.9342     0.93425
   67          H           0.065626        0.9344     0.93437
   68          H           0.064274        0.9357     0.93573
   69          H           0.066179        0.9338     0.93382
   70          H           0.071608        0.9284     0.92839
   71          H           0.110534        0.8895     0.88947
   72          H           0.106063        0.8939     0.89394
   73          H           0.105348        0.8947     0.89465
   74          H           0.111286        0.8887     0.88871
   
 DIPOLE           X         Y         Z       TOTAL
 POINT-CHG.     4.666    -5.588    -1.148     7.370
 HYBRID        -2.290    -0.036     0.864     2.448
 SUM            2.376    -5.623    -0.284     6.111


          ATOMIC ORBITAL ELECTRON POPULATIONS

     Atom    s        px        py        pz   
    1  N   1.84822   1.11248   1.08792   1.10032
    2  C   1.19473   0.91164   0.91929   0.92145
    3  C   1.14221   0.89046   0.93501   1.17555
    4  C   1.17183   0.98949   0.88742   0.81300
    5  C   1.21468   1.05888   1.00685   1.13520
    6  C   1.18420   0.92536   0.94712   0.95891
    7  C   1.18447   1.00161   0.95143   0.99819
    8  C   1.21951   1.01614   0.99341   1.03096
    9  S   1.88336   1.23449   0.94562   1.45007
   10  C   1.16850   0.99489   0.92275   0.99749
   11  C   1.16709   0.97824   0.92535   0.96595
   12  C   1.21287   0.99176   0.99731   1.11458
   13  C   1.18115   0.97786   0.93297   0.98845
   14  C   1.18189   0.94307   0.97375   1.02394
   15  C   1.21336   0.97764   0.99546   1.07221
   16  S   1.88570   1.01734   1.01805   1.64595
   17  C   1.14899   0.97162   0.91191   1.01461
   18  C   1.17696   0.98016   0.91469   0.97497
   19  C   1.17203   0.98104   0.99540   1.02180
   20  C   1.15121   0.91700   0.85276   0.94919
   21  C   1.15838   0.97805   0.92781   1.02666
   22  C   1.16928   0.93925   0.96954   0.95503
   23  C   1.15877   0.97966   0.92509   1.02924
   24  C   1.16948   0.93614   0.98060   0.94827
   25  C   1.17834   0.99959   0.95463   1.02454
   26  C   1.17661   0.97288   0.93571   0.96794
   27  C   1.17210   0.97714   0.99931   1.02016
   28  C   1.15125   0.89132   0.90490   0.92750
   29  N   1.47963   1.27474   1.04617   1.45849
   30  C   1.14318   0.94128   0.79199   0.99205
   31  C   1.18186   0.97516   0.95977   1.02971
   32  C   1.17184   0.97889   0.93423   0.98038
   33  C   1.16368   0.93911   0.93228   1.00422
   34  C   1.18453   0.94937   0.93585   0.97077
   35  C   1.17607   0.99136   0.94424   1.01953
   36  C   1.15978   0.92361   0.90180   0.94492
   37  C   1.15713   1.02791   1.03097   0.96178
   38  C   1.15715   0.98374   1.03458   1.00209
   39  C   1.18441   0.94567   0.94424   0.99062
   40  C   1.16187   0.94270   0.92181   1.00170
   41  C   1.17306   0.98320   0.93261   0.99731
   42  C   1.17923   0.96358   0.96588   0.99740
   43  C   1.17981   0.94077   0.98417   0.99471
   44  C   1.17309   0.98856   0.93003   1.00142
   45  C   1.18045   0.84444   0.84946   0.72358
   46  O   1.91039   1.16003   1.84913   1.45772
   47  O   1.83992   1.41971   1.19295   1.85818
   48  H   0.86653
   49  H   0.87880
   50  H   0.89169
   51  H   0.86330
   52  H   0.86348
   53  H   0.87550
   54  H   0.87070
   55  H   0.89009
   56  H   0.87337
   57  H   0.88424
   58  H   0.89160
   59  H   0.89087
   60  H   0.89797
   61  H   0.87560
   62  H   0.87229
   63  H   0.88524
   64  H   0.86674
   65  H   0.92754
   66  H   0.93425
   67  H   0.93437
   68  H   0.93573
   69  H   0.93382
   70  H   0.92839
   71  H   0.88947
   72  H   0.89394
   73  H   0.89465
   74  H   0.88871
   75  H   0.75487
 ******************** TDHF POLARIZABILITIES ********************



          MOLECULAR WEIGHT =  644.80



          ROTATIONAL CONSTANTS IN CM(-1)

          A =    0.00613849   B =    0.00042797   C =    0.00041220



           PRINCIPAL MOMENTS OF INERTIA IN UNITS OF 10**(-40)*GRAM-CM**2

          A =     4560.2020   B =    65408.8017   C =    67911.2710


 ROTATION MATRIX FOR ORIENTATION OF MOLECULE:

         0.267507    0.762451    0.589159
        -0.939913    0.341098   -0.014659
        -0.212138   -0.549837    0.807884


          CARTESIAN COORDINATES 

    NO.       ATOM         X         Y         Z

     1         N      -12.3619   -1.8998   -0.9168
     2         C      -12.0525   -1.0180   -0.2354
     3         C      -11.6945    0.0698    0.5989
     4         C      -10.4236    0.3291    0.9651
     5         C       -9.3116   -0.4971    0.5997
     6         C       -9.2955   -1.8613    0.4752
     7         C       -8.0014   -2.3472    0.1164
     8         C       -7.0856   -1.3359   -0.0138
     9         S       -7.7758    0.1956    0.2991
    10         C       -5.7067   -1.5198   -0.3828
    11         C       -4.7847   -0.5533   -0.2570
    12         C       -3.4132   -0.7464   -0.6391
    13         C       -2.9106   -1.6676   -1.5135
    14         C       -1.4888   -1.5590   -1.6526
    15         C       -0.9711   -0.5588   -0.8823
    16         S       -2.1822    0.2551    0.0168
    17         C        0.4239   -0.2003   -0.7851
    18         C        1.3751   -1.2278   -0.6825
    19         C        2.7303   -0.9549   -0.6005
    20         C        3.1153    0.3828   -0.6337
    21         C        2.1581    1.4311   -0.7212
    22         C        0.8083    1.1378   -0.8005
    23         C        2.8856    2.6751   -0.6999
    24         C        2.4851    3.9999   -0.7622
    25         C        3.4609    4.9851   -0.7322
    26         C        4.8182    4.6567   -0.6516
    27         C        5.2476    3.3400   -0.5890
    28         C        4.2662    2.3531   -0.6015
    29         N        4.4011    0.9502   -0.5606
    30         C        5.6200    0.2370   -0.4603
    31         C        5.8819   -0.7992   -1.3568
    32         C        7.0767   -1.5156   -1.2636
    33         C        7.9813   -1.1652   -0.2846
    34         C        7.7095   -0.1112    0.6125
    35         C        6.5349    0.5974    0.5464
    36         C        8.8524    0.0681    1.5822
    37         C        8.3922   -0.1764    3.0116
    38         C        9.4742    1.4487    1.4337
    39         C        9.8129   -1.0058    1.1352
    40         C        9.2856   -1.7194    0.0396
    41         C        9.9900   -2.7523   -0.5404
    42         C       11.2432   -3.0725   -0.0108
    43         C       11.7619   -2.3705    1.0673
    44         C       11.0457   -1.3223    1.6550
    45         C      -12.7727    0.9607    1.0489
    46         O      -12.6479    1.9630    1.7382
    47         O      -13.9999    0.5878    0.6342
    48         H      -10.1927    1.2181    1.5732
    49         H       -5.4537   -2.5159   -0.7649
    50         H       -5.0329    0.4339    0.1523
    51         H      -10.1403   -2.5253    0.6497
    52         H       -7.7894   -3.4036   -0.0320
    53         H       -3.4936   -2.3992   -2.0675
    54         H       -0.9118   -2.2021   -2.3127
    55         H        1.0385   -2.2695   -0.6565
    56         H        3.4628   -1.7587   -0.4994
    57         H        0.0748    1.9445   -0.8791
    58         H        1.4243    4.2521   -0.8352
    59         H        3.1681    6.0378   -0.7770
    60         H        5.5606    5.4611   -0.6409
    61         H        6.3100    3.0919   -0.5467
    62         H        5.1649   -1.0500   -2.1453
    63         H        7.2889   -2.3315   -1.9592
    64         H        6.3159    1.3988    1.2577
    65         H        7.9366   -1.1695    3.1332
    66         H        9.2277   -0.1192    3.7238
    67         H        7.6423    0.5609    3.3320
    68         H        8.7631    2.2470    1.6902
    69         H       10.3502    1.5731    2.0863
    70         H        9.8128    1.6394    0.4053
    71         H        9.5828   -3.3060   -1.3894
    72         H       11.8199   -3.8889   -0.4556
    73         H       12.7449   -2.6373    1.4667
    74         H       11.4584   -0.7721    2.5043
    75         H      -14.6766    1.2033    0.9519


 ENERGY OF "REORIENTED" SYSTEM WITHOUT FIELD:      121.7813164362


  NFREQ=  3  IWFLB=  0  IBET=  1  IGAM=  1
  ATOL= 0.10000D-02  BTOL= 0.10000D-02    MAXITU=  500    MAXITA=  150


 *****************************************************************
 CALCULATION OF STATIC FIELD QUANTITIES
 *****************************************************************

 +++++ ALPHA AT       0.00000 EV.

                           COMPONENTS OF ALPHA

                     *X           *Y           *Z
           *=X:     913.5589      -5.2033      24.0478
           *=Y:      -5.2057     446.9648      75.2711
           *=Z:      24.0109      75.2648     200.6115

  ISOTROPIC AVERAGE ALPHA =     520.37841 A.U. =     77.11212 ANG.**3

 +++++ BETA (SECOND HARMONIC GENERATION) AT       0.00000 EV.

                              COMPONENTS OF BETA
            *XX         *XY         *YY         *XZ         *YZ         *ZZ
   *=X 10387.97513   980.80769   -20.00526 -1355.32028   205.80473   144.12939
   *=Y   981.09135   -19.97122  -506.50885   205.82146    86.91629    50.10130
   *=Z -1356.17000   205.94363    87.07201   144.24763    50.07903    92.65617


 AVERAGE BETAX(SHG) VALUE AT   0.00000 EV =       6307.3205 a.u. =  0.544916E-28 ESU
 AVERAGE BETAY(SHG) VALUE AT   0.00000 EV =        314.6879 a.u. =  0.271872E-29 ESU
 AVERAGE BETAZ(SHG) VALUE AT   0.00000 EV =       -705.5875 a.u. = -0.609587E-29 ESU



 AVERAGE BETA (SHG) VALUE AT   0.00000 EV =       6354.4609 a.u. =  0.548988E-28 ESU
   (1 a.u. = 8.639418X10-33 esu)



 +++++ ALPHA AT       0.00000 EV.

                           COMPONENTS OF ALPHA

                     *X           *Y           *Z
           *=X:     913.5589      -5.2033      24.0478
           *=Y:      -5.2057     446.9648      75.2711
           *=Z:      24.0109      75.2648     200.6115

  ISOTROPIC AVERAGE ALPHA =     520.37841 A.U. =     77.11212 ANG.**3


 GAMMA (THIRD HARMONIC GENERATION) AT    0.00000 EV.


 GAMMA(X,X,X,X) =       5286309.89549
 GAMMA(Y,Y,Y,Y) =         97334.28131
 GAMMA(Z,Z,Z,Z) =          8235.97409
 GAMMA(X,X,Y,Y) =        191746.32194
 GAMMA(X,X,Z,Z) =         62814.04322
 GAMMA(Y,Y,X,X) =        191745.78082
 GAMMA(Y,Y,Z,Z) =          6907.34435
 GAMMA(Z,Z,X,X) =         62814.50935
 GAMMA(Z,Z,Y,Y) =          6907.37617


 AVERAGE GAMMA VALUE AT    0.00000 =       1182963.10535 a.u. =       595823.33246 ESU (X10-39)




 **********************************************************************
 CALCULATION FOR A FREQUENCY OF    0.25000 EV  =       0.00919 A.U. 
                  WAVELENGTH OF    4959.37 NM  =    2016.38525 CM(-1)
 **********************************************************************

 +++++ ALPHA AT       0.25000 EV.

                           COMPONENTS OF ALPHA

                     *X           *Y           *Z
           *=X:     918.6280      -5.1173      23.9587
           *=Y:      -5.1189     447.8393      75.3043
           *=Z:      23.9267      75.2989     200.8793

  ISOTROPIC AVERAGE ALPHA =     522.44887 A.U. =     77.41893 ANG.**3

 +++++ BETA (SECOND HARMONIC GENERATION) AT       0.25000 EV.

                              COMPONENTS OF BETA
            *XX         *XY         *YY         *XZ         *YZ         *ZZ
   *=X 10986.01964  1017.76561   -29.98686 -1432.58584   214.71172   152.00102
   *=Y  1047.23495   -23.50158  -520.21366   208.99733    88.51787    50.88039
   *=Z -1408.24575   213.35054    89.54606   149.88032    50.27759    92.88014


 AVERAGE BETAX(SHG) VALUE AT   0.25000 EV =       6666.5661 a.u. =  0.575953E-28 ESU
 AVERAGE BETAY(SHG) VALUE AT   0.25000 EV =        334.7121 a.u. =  0.289172E-29 ESU
 AVERAGE BETAZ(SHG) VALUE AT   0.25000 EV =       -745.6390 a.u. = -0.644189E-29 ESU



 AVERAGE BETA (SHG) VALUE AT   0.25000 EV =       6716.4807 a.u. =  0.580265E-28 ESU
   (1 a.u. = 8.639418X10-33 esu)



 +++++ ALPHA AT       0.75000 EV.

                           COMPONENTS OF ALPHA

                     *X           *Y           *Z
           *=X:     962.6329      -4.3420      23.1565
           *=Y:      -4.3393     455.0618      75.5576
           *=Z:      23.1218      75.5540     203.0714

  ISOTROPIC AVERAGE ALPHA =     540.25539 A.U. =     80.05759 ANG.**3


 GAMMA (THIRD HARMONIC GENERATION) AT    0.25000 EV.


 GAMMA(X,X,X,X) =       5962908.91754
 GAMMA(Y,Y,Y,Y) =        102933.32126
 GAMMA(Z,Z,Z,Z) =          8456.38940
 GAMMA(X,X,Y,Y) =        209404.60693
 GAMMA(X,X,Z,Z) =         69982.93656
 GAMMA(Y,Y,X,X) =        208728.87528
 GAMMA(Y,Y,Z,Z) =          7225.19773
 GAMMA(Z,Z,X,X) =         68909.56273
 GAMMA(Z,Z,Y,Y) =          7242.50546


 AVERAGE GAMMA VALUE AT    0.25000 =       1329158.46258 a.u. =       669457.58576 ESU (X10-39)




 **********************************************************************
 CALCULATION FOR A FREQUENCY OF    0.50000 EV  =       0.01837 A.U. 
                  WAVELENGTH OF    2479.68 NM  =    4032.77050 CM(-1)
 **********************************************************************

 +++++ ALPHA AT       0.50000 EV.

                           COMPONENTS OF ALPHA

                     *X           *Y           *Z
           *=X:     934.3701      -4.8450      23.6915
           *=Y:      -4.8451     450.4969      75.4049
           *=Z:      23.6538      75.3993     201.6884

  ISOTROPIC AVERAGE ALPHA =     528.85181 A.U. =     78.36775 ANG.**3

 +++++ BETA (SECOND HARMONIC GENERATION) AT       0.50000 EV.

                              COMPONENTS OF BETA
            *XX         *XY         *YY         *XZ         *YZ         *ZZ
   *=X 13157.08659  1146.14819   -67.97436 -1711.94827   246.22956   180.33626
   *=Y  1282.31304   -35.92916  -565.10051   218.13766    93.64790    53.55773
   *=Z -1591.11599   238.48392    97.89686   169.59913    50.76463    93.30992


 AVERAGE BETAX(SHG) VALUE AT   0.50000 EV =       7970.1923 a.u. =  0.688578E-28 ESU
 AVERAGE BETAY(SHG) VALUE AT   0.50000 EV =        406.8790 a.u. =  0.351520E-29 ESU
 AVERAGE BETAZ(SHG) VALUE AT   0.50000 EV =       -889.9780 a.u. = -0.768889E-29 ESU



 AVERAGE BETA (SHG) VALUE AT   0.50000 EV =       8030.0422 a.u. =  0.693749E-28 ESU
   (1 a.u. = 8.639418X10-33 esu)



 +++++ ALPHA AT       1.50000 EV.

                           COMPONENTS OF ALPHA

                     *X           *Y           *Z
           *=X:    1182.1346       0.0861      17.5576
           *=Y:       0.1246     483.2775      75.9726
           *=Z:      17.4893      75.9726     211.4137

  ISOTROPIC AVERAGE ALPHA =     625.60860 A.U. =     92.70563 ANG.**3


 GAMMA (THIRD HARMONIC GENERATION) AT    0.50000 EV.


 GAMMA(X,X,X,X) =       9206622.08298
 GAMMA(Y,Y,Y,Y) =        123494.86289
 GAMMA(Z,Z,Z,Z) =          9241.80235
 GAMMA(X,X,Y,Y) =        286350.15938
 GAMMA(X,X,Z,Z) =        104029.61503
 GAMMA(Y,Y,X,X) =        276621.11376
 GAMMA(Y,Y,Z,Z) =          8378.14656
 GAMMA(Z,Z,X,X) =         95792.68952
 GAMMA(Z,Z,Y,Y) =          8560.90074


 AVERAGE GAMMA VALUE AT    0.50000 =       2023818.27464 a.u. =      1019337.07251 ESU (X10-39)



 **********************
 *                    *
 * JOB ENDED NORMALLY *
 *                    *
 **********************



 TOTAL JOB TIME:           430.12 SECONDS

 == MOPAC DONE ==
