 *******************************************************************************
 ** Site#: 4824         For non-commercial use only    Version 21.013L 64BITS **
 *******************************************************************************
 ** Cite this program as: MOPAC2016, Version: 21.013L, James J. P. Stewart,   **
 ** Stewart Computational Chemistry, web: HTTP://OpenMOPAC.net. Days left:  87**
 *******************************************************************************
 **                                                                           **
 **                                MOPAC2016                                  **
 **                                                                           **
 *******************************************************************************

                              RM1 CALCULATION RESULTS

 *******************************************************************************
 *  CALCULATION DONE:                                Mon Oct 18 08:17:38 2021  *
 *  RM1        - The RM1 Hamiltonian to be used
 *  POLAR      - CALCULATE FIRST, SECOND AND THIRD-ORDER POLARIZABILITIES
 *  PRECISE    - TIGHTER CRITERIA TO BE USED
 *  T=         - A TIME OF 172800.0 SECONDS REQUESTED
 *  DUMP=N     - RESTART FILE WRITTEN EVERY 7200.0 SECONDS REQUESTED
 *  GNORM      - EXIT WHEN GRADIENT NORM DROPS BELOW 0.100
 *******************************************************************************
RM1 PRECISE POLAR GNORM=0.1


  ATOM    CHEMICAL      BOND LENGTH      BOND ANGLE     TWIST ANGLE 
 NUMBER    SYMBOL       (ANGSTROMS)      (DEGREES)       (DEGREES) 
   (I)                     NA:I           NB:NA:I       NC:NB:NA:I       NA    NB    NC 
     1       C          0.00000000       0.0000000       0.0000000        0     0     0
     2       C          1.54760000  *    0.0000000       0.0000000        1     0     0
     3       C          1.55150000  *  111.5474000  *    0.0000000        2     1     0
     4       C          1.55150000  *  111.3159000  *  177.4222000  *     3     2     1
     5       C          1.55190000  *  111.1665000  *  179.9152000  *     4     3     2
     6       C          1.55190000  *  111.0851000  *  177.4462000  *     5     4     3
     7       C          1.51290000  *  111.9601000  *  172.8239000  *     6     5     4
     8       C          1.49400000  *  120.9700000  *   55.8939000  *     7     6     5
     9       C          1.34790000  *  116.5002000  * -179.0834000  *     8     7     6
    10       S          1.81840000  *  107.1340000  *   -0.1146000  *     9     8     7
    11       C          1.35270000  *  124.4276000  * -124.1738000  *     7     6     5
    12       C          1.46660000  *  128.3688000  *  177.4267000  *    11     7     8
    13       C          1.35150000  *  119.8569000  *  128.3840000  *    12    11     7
    14       C          1.47470000  *  121.1762000  *  178.0805000  *    13    12    11
    15       C          1.34210000  *  118.3786000  *   -0.2284000  *    14    13    12
    16       C          1.46490000  *  120.4313000  *   -0.0348000  *    15    14    13
    17       C          1.34000000  *  121.9953000  *   -0.2996000  *    16    15    14
    18       C          1.45570000  *  106.5904000  * -178.7449000  *    16    15    14
    19       C          1.34060000  *  131.4110000  *    1.9064000  *    18    16    17
    20       C          1.47450000  *  117.6732000  * -179.7141000  *    19    18    16
    21       C          1.34980000  *  120.7105000  *   -0.1325000  *    20    19    18
    22       C          1.47570000  *  120.7989000  *    0.1327000  *    21    20    19
    23       C          1.34300000  *  118.2869000  *    0.0000000  *    22    21    20
    24       N          1.42470000  *  129.6532000  * -178.7428000  *    15    14    13
    25       C          1.41270000  *  123.1977000  *   22.9997000  *    24    15    14
    26       C          1.47390000  *  120.3277000  *   95.5190000  *    25    24    15
    27       C          1.34520000  *  120.1665000  * -179.0359000  *    26    25    24
    28       C          1.46980000  *  120.0217000  *   -0.0578000  *    27    26    25
    29       C          1.34470000  *  119.9643000  *    0.4191000  *    28    27    26
    30       C          1.34700000  *  120.0555000  *  -83.0251000  *    25    24    15
    31       C          1.45800000  *  126.4744000  * -179.0692000  *     9     8     7
    32       S          1.81640000  *  125.7670000  *   -0.6973000  *    31     9     8
    33       C          1.82070000  *   94.0732000  * -179.8676000  *    32    31     9
    34       C          1.35470000  *  107.8563000  *   -0.6732000  *    33    32    31
    35       C          1.34780000  *  127.1165000  *  179.0763000  *    31     9     8
    36       C          1.51500000  *  122.7433000  * -178.3906000  *    34    33    32
    37       C          1.55190000  *  114.6810000  *  159.8713000  *    36    34    33
    38       C          1.55270000  *  111.1575000  * -175.5191000  *    37    36    34
    39       C          1.55160000  *  111.0157000  *  178.5556000  *    38    37    36
    40       C          1.55100000  *  111.3752000  *  178.8541000  *    39    38    37
    41       C          1.54740000  *  111.3916000  *  178.2158000  *    40    39    38
    42       C          1.46180000  *  123.1513000  *  179.1642000  *    33    32    31
    43       C          1.34830000  *  125.8528000  * -150.5742000  *    42    33    34
    44       C          1.48570000  *  115.9533000  * -178.1953000  *    43    42    33
    45       C          1.34890000  *  116.2216000  *    0.1008000  *    44    43    42
    46       S          1.82190000  *  127.2411000  *   33.1942000  *    42    33    34
    47       C          1.46820000  *  124.3979000  *  178.3874000  *    45    44    43
    48       C          1.34940000  *  125.9043000  *  159.9658000  *    47    45    44
    49       C          1.47600000  *  120.3654000  * -179.2185000  *    48    47    45
    50       O          1.23260000  *  121.1488000  *   -1.4097000  *    49    48    47
    51       O          1.35570000  *  120.0297000  *  178.3959000  *    49    48    47
    52       C          1.42910000  *  122.4004000  *   -0.8437000  *    48    47    45
    53       N          1.15830000  *  179.1626000  *  178.3607000  *    52    48    47
    54       H          1.05420000  *  116.1411000  *  -18.5049000  *    47    45    44
    55       H          1.09110000  *  110.1234000  *   58.7718000  *     1     2     3
    56       H          1.09130000  *  109.4378000  *  178.6067000  *     1     2     3
    57       H          1.09130000  *  109.9711000  *  -61.7606000  *     1     2     3
    58       H          1.09220000  *  108.7695000  *  179.4957000  *     2     1    55
    59       H          1.09210000  *  108.9553000  *  -62.1284000  *     2     1    55
    60       H          1.09270000  *  109.2294000  *  177.7597000  *     3     2    58
    61       H          1.09250000  *  109.1522000  *  177.6366000  *     3     2    59
    62       H          1.09230000  *  109.2586000  *  179.8320000  *     4     3    60
    63       H          1.09270000  *  109.2133000  *  179.9583000  *     4     3    61
    64       H          1.09230000  *  109.0801000  *  177.1632000  *     5     4    62
    65       H          1.09220000  *  109.2044000  *  -63.9544000  *     5     4    62
    66       H          1.09210000  *  109.7263000  *  173.3011000  *     6     5    64
    67       H          1.09000000  *  107.9667000  *  172.2943000  *     6     5    65
    68       H          1.04940000  *  121.6364000  * -178.3004000  *     8     7    11
    69       H          1.05210000  *  120.0808000  *   -1.8633000  *    13    12    11
    70       H          1.04980000  *  120.3599000  * -179.7338000  *    14    13    12
    71       H          1.04970000  *  120.8627000  *   -0.4669000  *    17    16    18
    72       H          1.04980000  *  121.6073000  *    0.3061000  *    19    18    16
    73       H          1.05110000  *  119.5291000  *  179.9988000  *    20    19    18
    74       H          1.05150000  *  119.6704000  * -179.7948000  *    21    20    19
    75       H          1.04980000  *  120.5622000  * -179.5737000  *    22    21    20
    76       H          1.05100000  *  120.0079000  *  178.9620000  *    26    25    30
    77       H          1.05140000  *  120.1458000  *  179.6777000  *    27    26    25
    78       H          1.05130000  *  119.9175000  * -179.7661000  *    28    27    26
    79       H          1.05080000  *  120.1408000  *  179.7313000  *    29    28    27
    80       H          1.05180000  *  120.2629000  *   -0.6634000  *    30    25    24
    81       H          1.04880000  *  121.4150000  *    0.1495000  *    35    31     9
    82       H          1.09290000  *  108.3212000  *  -78.3797000  *    36    34    33
    83       H          1.09280000  *  108.3767000  *   39.5043000  *    36    34    33
    84       H          1.09250000  *  109.2320000  * -176.6145000  *    37    36    82
    85       H          1.09220000  *  109.4350000  * -174.9276000  *    37    36    83
    86       H          1.09240000  *  109.1669000  *  178.7358000  *    38    37    84
    87       H          1.09300000  *  109.2637000  *  178.6723000  *    38    37    85
    88       H          1.09250000  *  109.0614000  *  178.9504000  *    39    38    86
    89       H          1.09260000  *  109.1823000  *  -62.2675000  *    39    38    86
    90       H          1.09240000  *  109.3642000  *  178.1999000  *    40    39    88
    91       H          1.09220000  *  109.4814000  *  -62.7074000  *    40    39    88
    92       H          1.09100000  *  110.1477000  *  -61.4333000  *    41    40    90
    93       H          1.09100000  *  109.5484000  *  -60.0554000  *    41    40    91
    94       H          1.09090000  *  109.9811000  *   59.6282000  *    41    40    91
    95       H          1.04930000  *  122.6149000  *    1.7162000  *    43    42    33
    96       H          1.04930000  *  121.4492000  *  179.8979000  *    44    43    42
    97       H          0.94080000  *  120.9431000  *   -0.3142000  *    51    49    50
 


          CARTESIAN COORDINATES 

    NO.       ATOM           X           Y           Z

     1         C          0.0000      0.0000      0.0000
     2         C          1.5476      0.0000      0.0000
     3         C          2.1174      1.4431      0.0000
     4         C          3.6675      1.4373      0.0650
     5         C          4.2338      2.8822      0.0627
     6         C          5.7803      2.8760      0.1921
     7         C          6.3683      4.2590      0.0178
     8         C          5.9211      5.3981      0.8748
     9         C          6.4906      6.5950      0.6296
    10         S          7.6667      6.3587     -0.7370
    11         C          7.3161      4.5778     -0.8932
    12         C          8.0004      3.6937     -1.8424
    13         C          8.0414      4.0175     -3.1539
    14         C          8.7571      3.1716     -4.1270
    15         C          9.3754      2.0677     -3.6794
    16         C          9.3355      1.7201     -2.2569
    17         C          8.6958      2.4804     -1.3579
    18         C         10.1172      0.5015     -2.1048
    19         C         10.4018     -0.2404     -1.0251
    20         C         11.2431     -1.4359     -1.2180
    21         C         11.7032     -1.7645     -2.4437
    22         C         11.3786     -0.9348     -3.6201
    23         C         10.6143      0.1546     -3.4393
    24         N         10.1463      1.1050     -4.3926
    25         C         10.7839      1.3819     -5.6224
    26         C         12.2015      1.7842     -5.6517
    27         C         12.8002      2.0659     -6.8230
    28         C         12.0412      1.9718     -8.0781
    29         C         10.7458      1.6121     -8.0543
    30         C         10.0894      1.3077     -6.7742
    31         C          6.2316      7.8403      1.3422
    32         S          5.0620      8.0543      2.7153
    33         C          5.4205      9.8282      2.9153
    34         C          6.3637     10.1667      2.0037
    35         C          6.8056      9.0393      1.1195
    36         C          6.9377     11.5648      1.8990
    37         C          8.3049     11.6511      1.1699
    38         C          8.8696     13.0970      1.2071
    39         C         10.2532     13.1722      0.5089
    40         C         10.8122     14.6189      0.5161
    41         C         12.2118     14.6865     -0.1405
    42         C          4.7578     10.6706      3.9093
    43         C          4.2818     10.2592      5.1018
    44         C          3.6088     11.2962      5.9260
    45         C          3.5455     12.5333      5.3921
    46         S          4.3300     12.4344      3.7507
    47         C          2.8933     13.6814      6.0341
    48         C          3.1180     14.9809      5.7484
    49         C          2.4030     16.0413      6.4851
    50         O          1.5722     15.7657      7.3529
    51         O          2.6579     17.3452      6.2150
    52         C          4.0656     15.3953      4.7621
    53         N          4.8294     15.7473      3.9657
    54         H          2.2065     13.4560      6.8015
    55         H         -0.3754      0.5311     -0.8761
    56         H         -0.3632     -1.0288     -0.0250
    57         H         -0.3727      0.4853      0.9036
    58         H          1.8990     -0.5283      0.8890
    59         H          1.9023     -0.5304     -0.8863
    60         H          1.7972      1.9564     -0.9099
    61         H          1.7264      1.9828      0.8656
    62         H          3.9881      0.9268      0.9759
    63         H          4.0617      0.8974     -0.7993
    64         H          3.9545      3.3737     -0.8719
    65         H          3.8020      3.4387      0.8974
    66         H          6.0664      2.4951      1.1749
    67         H          6.1786      2.2039     -0.5680
    68         H          5.2094      5.2687      1.6350
    69         H          7.5585      4.8867     -3.4979
    70         H          8.7843      3.4375     -5.1423
    71         H          8.6984      2.2271     -0.3392
    72         H         10.0420      0.0140     -0.0722
    73         H         11.4843     -2.0385     -0.3913
    74         H         12.2992     -2.6225     -2.5632
    75         H         11.7329     -1.1975     -4.5728
    76         H         12.7450      1.8600     -4.7554
    77         H         13.8101      2.3578     -6.8430
    78         H         12.5117      2.1888     -8.9929
    79         H         10.1994      1.5481     -8.9496
    80         H          9.0740      1.0336     -6.7642
    81         H          7.5246      9.1699      0.3671
    82         H          6.2163     12.1937      1.3712
    83         H          7.0744     11.9577      2.9096
    84         H          9.0152     10.9782      1.6561
    85         H          8.1806     11.3494      0.1276
    86         H          8.1714     13.7679      0.7015
    87         H          8.9751     13.4163      2.2471
    88         H         10.9521     12.5137      1.0300
    89         H         10.1528     12.8322     -0.5246
    90         H         10.1307     15.2733     -0.0322
    91         H         10.8888     14.9747      1.5459
    92         H         12.1598     14.3368     -1.1727
    93         H         12.5692     15.7173     -0.1329
    94         H         12.9147     14.0642      0.4151
    95         H          4.3742      9.2691      5.4366
    96         H          3.2053     11.0701      6.8678
    97         H          2.2084     18.0314      6.6755

  H: (RM1): G.B. ROCHA, R.O. FREIRE, A.M.SIMAS, J.J.P. STEWART, J. COMP. CHEM. 27, 1101 (2006)
  C: (RM1): G.B. ROCHA, R.O. FREIRE, A.M.SIMAS, J.J.P. STEWART, J. COMP. CHEM. 27, 1101 (2006)
  N: (RM1): G.B. ROCHA, R.O. FREIRE, A.M.SIMAS, J.J.P. STEWART, J. COMP. CHEM. 27, 1101 (2006)
  O: (RM1): G.B. ROCHA, R.O. FREIRE, A.M.SIMAS, J.J.P. STEWART, J. COMP. CHEM. 27, 1101 (2006)
  S: (RM1): G.B. ROCHA, R.O. FREIRE, A.M.SIMAS, J.J.P. STEWART, J. COMP. CHEM. 27, 1101 (2006)

           Empirical Formula: C46 H44 N2 O2 S3  =    97 atoms



      MOLECULAR POINT GROUP   :   C1  


      RHF CALCULATION, NO. OF DOUBLY OCCUPIED LEVELS = 134


          Geometry optimization using L-BFGS
 CYCLE:     1 TIME:   0.389 TIME LEFT:  2.00D  GRAD.:   533.915 HEAT:  145.3498
 CYCLE:     2 TIME:   0.232 TIME LEFT:  2.00D  GRAD.:   489.776 HEAT:  142.6173
 CYCLE:     3 TIME:   0.266 TIME LEFT:  2.00D  GRAD.:   404.924 HEAT:  120.4209
 CYCLE:     4 TIME:   0.262 TIME LEFT:  2.00D  GRAD.:   490.872 HEAT:  142.6168
 CYCLE:     5 TIME:   0.232 TIME LEFT:  2.00D  GRAD.:   406.429 HEAT:  120.4305
 CYCLE:     6 TIME:   0.238 TIME LEFT:  2.00D  GRAD.:   334.100 HEAT:  111.8042
 CYCLE:     7 TIME:   0.234 TIME LEFT:  2.00D  GRAD.:   405.783 HEAT:  91.86294
 CYCLE:     8 TIME:   0.234 TIME LEFT:  2.00D  GRAD.:   670.022 HEAT:  89.62819
 CYCLE:     9 TIME:   0.211 TIME LEFT:  2.00D  GRAD.:   163.839 HEAT:  82.20037
 CYCLE:    10 TIME:   0.203 TIME LEFT:  2.00D  GRAD.:   118.666 HEAT:  80.98012
 CYCLE:    11 TIME:   0.209 TIME LEFT:  2.00D  GRAD.:   145.535 HEAT:  78.89776
 CYCLE:    12 TIME:   0.203 TIME LEFT:  2.00D  GRAD.:   143.656 HEAT:  76.79480
 CYCLE:    13 TIME:   0.213 TIME LEFT:  2.00D  GRAD.:   267.137 HEAT:  75.55818
 CYCLE:    14 TIME:   0.209 TIME LEFT:  2.00D  GRAD.:    82.726 HEAT:  73.68705
 CYCLE:    15 TIME:   0.191 TIME LEFT:  2.00D  GRAD.:    57.941 HEAT:  73.26518
 CYCLE:    16 TIME:   0.232 TIME LEFT:  2.00D  GRAD.:    64.643 HEAT:  72.48754
 CYCLE:    17 TIME:   0.213 TIME LEFT:  2.00D  GRAD.:   107.727 HEAT:  71.75783
 CYCLE:    18 TIME:   0.205 TIME LEFT:  2.00D  GRAD.:    77.510 HEAT:  71.23081
 CYCLE:    19 TIME:   0.191 TIME LEFT:  2.00D  GRAD.:    38.107 HEAT:  70.91221
 CYCLE:    20 TIME:   0.207 TIME LEFT:  2.00D  GRAD.:    40.693 HEAT:  70.69410
 CYCLE:    21 TIME:   0.197 TIME LEFT:  2.00D  GRAD.:    44.216 HEAT:  70.41412
 CYCLE:    22 TIME:   0.205 TIME LEFT:  2.00D  GRAD.:    83.498 HEAT:  70.13105
 CYCLE:    23 TIME:   0.199 TIME LEFT:  2.00D  GRAD.:    42.127 HEAT:  69.91076
 CYCLE:    24 TIME:   0.195 TIME LEFT:  2.00D  GRAD.:    23.188 HEAT:  69.82401
 CYCLE:    25 TIME:   0.199 TIME LEFT:  2.00D  GRAD.:    22.153 HEAT:  69.73394
 CYCLE:    26 TIME:   0.205 TIME LEFT:  2.00D  GRAD.:    28.844 HEAT:  69.62437
 CYCLE:    27 TIME:   0.207 TIME LEFT:  2.00D  GRAD.:    54.303 HEAT:  69.57228
 CYCLE:    28 TIME:   0.219 TIME LEFT:  2.00D  GRAD.:    18.550 HEAT:  69.47259
 CYCLE:    29 TIME:   0.197 TIME LEFT:  2.00D  GRAD.:    13.832 HEAT:  69.43655
 CYCLE:    30 TIME:   0.195 TIME LEFT:  2.00D  GRAD.:    18.635 HEAT:  69.39655
 CYCLE:    31 TIME:   0.195 TIME LEFT:  2.00D  GRAD.:    31.338 HEAT:  69.37523
 CYCLE:    32 TIME:   0.232 TIME LEFT:  2.00D  GRAD.:    11.022 HEAT:  69.34629
 CYCLE:    33 TIME:   0.188 TIME LEFT:  2.00D  GRAD.:     8.588 HEAT:  69.33479
 CYCLE:    34 TIME:   0.193 TIME LEFT:  2.00D  GRAD.:    10.625 HEAT:  69.32202
 CYCLE:    35 TIME:   0.193 TIME LEFT:  2.00D  GRAD.:    15.058 HEAT:  69.29559
 CYCLE:    36 TIME:   0.195 TIME LEFT:  2.00D  GRAD.:    49.140 HEAT:  69.32211
 CYCLE:    37 TIME:   0.189 TIME LEFT:  2.00D  GRAD.:    10.813 HEAT:  69.26350
 CYCLE:    38 TIME:   0.186 TIME LEFT:  2.00D  GRAD.:     7.953 HEAT:  69.25473
 CYCLE:    39 TIME:   0.195 TIME LEFT:  2.00D  GRAD.:     8.619 HEAT:  69.23696
 CYCLE:    40 TIME:   0.193 TIME LEFT:  2.00D  GRAD.:    11.190 HEAT:  69.21297
 CYCLE:    41 TIME:   0.195 TIME LEFT:  2.00D  GRAD.:    38.577 HEAT:  69.20827
 CYCLE:    42 TIME:   0.191 TIME LEFT:  2.00D  GRAD.:     9.271 HEAT:  69.17262
 CYCLE:    43 TIME:   0.191 TIME LEFT:  2.00D  GRAD.:     8.504 HEAT:  69.16054
 CYCLE:    44 TIME:   0.191 TIME LEFT:  2.00D  GRAD.:    10.340 HEAT:  69.13267
 CYCLE:    45 TIME:   0.193 TIME LEFT:  2.00D  GRAD.:    26.445 HEAT:  69.11621
 CYCLE:    46 TIME:   0.186 TIME LEFT:  2.00D  GRAD.:    11.744 HEAT:  69.08540
 CYCLE:    47 TIME:   0.203 TIME LEFT:  2.00D  GRAD.:    10.478 HEAT:  69.06443
 CYCLE:    48 TIME:   0.211 TIME LEFT:  2.00D  GRAD.:    13.015 HEAT:  69.03210
 CYCLE:    49 TIME:   0.205 TIME LEFT:  2.00D  GRAD.:    32.839 HEAT:  69.01501
 CYCLE:    50 TIME:   0.209 TIME LEFT:  2.00D  GRAD.:    16.513 HEAT:  68.98047
 CYCLE:    51 TIME:   0.232 TIME LEFT:  2.00D  GRAD.:    11.325 HEAT:  68.95361
 CYCLE:    52 TIME:   0.221 TIME LEFT:  2.00D  GRAD.:    14.783 HEAT:  68.92976
 CYCLE:    53 TIME:   0.221 TIME LEFT:  2.00D  GRAD.:    22.571 HEAT:  68.89236
 CYCLE:    54 TIME:   0.229 TIME LEFT:  2.00D  GRAD.:    16.977 HEAT:  68.85906
 CYCLE:    55 TIME:   0.230 TIME LEFT:  2.00D  GRAD.:     9.055 HEAT:  68.83856
 CYCLE:    56 TIME:   0.273 TIME LEFT:  2.00D  GRAD.:    11.258 HEAT:  68.82174
 CYCLE:    57 TIME:   0.271 TIME LEFT:  2.00D  GRAD.:    19.442 HEAT:  68.80972
 CYCLE:    58 TIME:   0.275 TIME LEFT:  2.00D  GRAD.:    15.876 HEAT:  68.78919
 CYCLE:    59 TIME:   0.266 TIME LEFT:  2.00D  GRAD.:    12.310 HEAT:  68.73656
 CYCLE:    60 TIME:   0.221 TIME LEFT:  2.00D  GRAD.:    22.715 HEAT:  68.71629
 CYCLE:    61 TIME:   0.201 TIME LEFT:  2.00D  GRAD.:    13.230 HEAT:  68.69061
 CYCLE:    62 TIME:   0.205 TIME LEFT:  2.00D  GRAD.:    10.478 HEAT:  68.65838
 CYCLE:    63 TIME:   0.205 TIME LEFT:  2.00D  GRAD.:    12.918 HEAT:  68.62867
 CYCLE:    64 TIME:   0.211 TIME LEFT:  2.00D  GRAD.:    50.536 HEAT:  68.63778
 CYCLE:    65 TIME:   0.207 TIME LEFT:  2.00D  GRAD.:    11.050 HEAT:  68.58068
 CYCLE:    66 TIME:   0.191 TIME LEFT:  2.00D  GRAD.:     8.645 HEAT:  68.56980
 CYCLE:    67 TIME:   0.287 TIME LEFT:  2.00D  GRAD.:     9.316 HEAT:  68.54889
 CYCLE:    68 TIME:   0.223 TIME LEFT:  2.00D  GRAD.:    18.366 HEAT:  68.53197
 CYCLE:    69 TIME:   0.191 TIME LEFT:  2.00D  GRAD.:    10.991 HEAT:  68.51356
 CYCLE:    70 TIME:   0.238 TIME LEFT:  2.00D  GRAD.:     9.514 HEAT:  68.50060
 CYCLE:    71 TIME:   0.225 TIME LEFT:  2.00D  GRAD.:    18.505 HEAT:  68.48191
 CYCLE:    72 TIME:   0.207 TIME LEFT:  2.00D  GRAD.:    18.730 HEAT:  68.46913
 CYCLE:    73 TIME:   0.189 TIME LEFT:  2.00D  GRAD.:    11.245 HEAT:  68.45702
 CYCLE:    74 TIME:   0.193 TIME LEFT:  2.00D  GRAD.:     8.105 HEAT:  68.44122
 CYCLE:    75 TIME:   0.199 TIME LEFT:  2.00D  GRAD.:     7.816 HEAT:  68.43047
 CYCLE:    76 TIME:   0.197 TIME LEFT:  2.00D  GRAD.:    19.936 HEAT:  68.41104
 CYCLE:    77 TIME:   0.193 TIME LEFT:  2.00D  GRAD.:     9.826 HEAT:  68.39156
 CYCLE:    78 TIME:   0.215 TIME LEFT:  2.00D  GRAD.:     7.922 HEAT:  68.38187
 CYCLE:    79 TIME:   0.197 TIME LEFT:  2.00D  GRAD.:     9.800 HEAT:  68.35877
 CYCLE:    80 TIME:   0.199 TIME LEFT:  2.00D  GRAD.:    17.807 HEAT:  68.34314
 CYCLE:    81 TIME:   0.193 TIME LEFT:  2.00D  GRAD.:    11.617 HEAT:  68.32618
 CYCLE:    82 TIME:   0.199 TIME LEFT:  2.00D  GRAD.:     8.634 HEAT:  68.30700
 CYCLE:    83 TIME:   0.193 TIME LEFT:  2.00D  GRAD.:    10.344 HEAT:  68.29714
 CYCLE:    84 TIME:   0.193 TIME LEFT:  2.00D  GRAD.:     9.379 HEAT:  68.28150
 CYCLE:    85 TIME:   0.256 TIME LEFT:  2.00D  GRAD.:    23.525 HEAT:  68.26715
 CYCLE:    86 TIME:   0.275 TIME LEFT:  2.00D  GRAD.:     7.561 HEAT:  68.24963
 CYCLE:    87 TIME:   0.217 TIME LEFT:  2.00D  GRAD.:     6.842 HEAT:  68.24375
 CYCLE:    88 TIME:   0.264 TIME LEFT:  2.00D  GRAD.:     9.992 HEAT:  68.22912
 CYCLE:    89 TIME:   0.238 TIME LEFT:  2.00D  GRAD.:    31.103 HEAT:  68.22445
 CYCLE:    90 TIME:   0.191 TIME LEFT:  2.00D  GRAD.:     9.277 HEAT:  68.19810
 CYCLE:    91 TIME:   0.191 TIME LEFT:  2.00D  GRAD.:     6.972 HEAT:  68.18883
 CYCLE:    92 TIME:   0.197 TIME LEFT:  2.00D  GRAD.:    10.043 HEAT:  68.17837
 CYCLE:    93 TIME:   0.193 TIME LEFT:  2.00D  GRAD.:    10.165 HEAT:  68.16197
 CYCLE:    94 TIME:   0.203 TIME LEFT:  2.00D  GRAD.:    15.834 HEAT:  68.13795
 CYCLE:    95 TIME:   0.199 TIME LEFT:  2.00D  GRAD.:    16.170 HEAT:  68.12061
 CYCLE:    96 TIME:   0.186 TIME LEFT:  2.00D  GRAD.:    10.012 HEAT:  68.11000
 CYCLE:    97 TIME:   0.201 TIME LEFT:  2.00D  GRAD.:    10.371 HEAT:  68.09217
 CYCLE:    98 TIME:   0.191 TIME LEFT:  2.00D  GRAD.:     9.643 HEAT:  68.07815
 CYCLE:    99 TIME:   0.209 TIME LEFT:  2.00D  GRAD.:    21.231 HEAT:  68.06295
 CYCLE:   100 TIME:   0.199 TIME LEFT:  2.00D  GRAD.:    13.624 HEAT:  68.04415
 CYCLE:   101 TIME:   0.193 TIME LEFT:  2.00D  GRAD.:    10.086 HEAT:  68.02999
 CYCLE:   102 TIME:   0.197 TIME LEFT:  2.00D  GRAD.:     9.381 HEAT:  68.01119
 CYCLE:   103 TIME:   0.191 TIME LEFT:  2.00D  GRAD.:    10.457 HEAT:  67.99479
 CYCLE:   104 TIME:   0.203 TIME LEFT:  2.00D  GRAD.:    18.810 HEAT:  67.97004
 CYCLE:   105 TIME:   0.195 TIME LEFT:  2.00D  GRAD.:    12.258 HEAT:  67.94937
 CYCLE:   106 TIME:   0.186 TIME LEFT:  2.00D  GRAD.:     9.022 HEAT:  67.93911
 CYCLE:   107 TIME:   0.199 TIME LEFT:  2.00D  GRAD.:     8.889 HEAT:  67.92425
 CYCLE:   108 TIME:   0.195 TIME LEFT:  2.00D  GRAD.:    19.838 HEAT:  67.91320
 CYCLE:   109 TIME:   0.191 TIME LEFT:  2.00D  GRAD.:    12.716 HEAT:  67.89977
 CYCLE:   110 TIME:   0.201 TIME LEFT:  2.00D  GRAD.:     8.852 HEAT:  67.88054
 CYCLE:   111 TIME:   0.191 TIME LEFT:  2.00D  GRAD.:     9.649 HEAT:  67.86887
 CYCLE:   112 TIME:   0.209 TIME LEFT:  2.00D  GRAD.:    19.491 HEAT:  67.83834
 CYCLE:   113 TIME:   0.250 TIME LEFT:  2.00D  GRAD.:    15.199 HEAT:  67.81634
 CYCLE:   114 TIME:   0.203 TIME LEFT:  2.00D  GRAD.:     9.483 HEAT:  67.80311
 CYCLE:   115 TIME:   0.201 TIME LEFT:  2.00D  GRAD.:    12.721 HEAT:  67.78761
 CYCLE:   116 TIME:   0.195 TIME LEFT:  2.00D  GRAD.:    12.924 HEAT:  67.77125
 CYCLE:   117 TIME:   0.219 TIME LEFT:  2.00D  GRAD.:    23.951 HEAT:  67.75528
 CYCLE:   118 TIME:   0.203 TIME LEFT:  2.00D  GRAD.:    10.599 HEAT:  67.73440
 CYCLE:   119 TIME:   0.195 TIME LEFT:  2.00D  GRAD.:     7.910 HEAT:  67.72600
 CYCLE:   120 TIME:   0.205 TIME LEFT:  2.00D  GRAD.:     8.842 HEAT:  67.70676
 CYCLE:   121 TIME:   0.203 TIME LEFT:  2.00D  GRAD.:    19.202 HEAT:  67.69088
 CYCLE:   122 TIME:   0.205 TIME LEFT:  2.00D  GRAD.:    10.633 HEAT:  67.67458
 CYCLE:   123 TIME:   0.199 TIME LEFT:  2.00D  GRAD.:     7.969 HEAT:  67.66036
 CYCLE:   124 TIME:   0.201 TIME LEFT:  2.00D  GRAD.:    11.834 HEAT:  67.64343
 CYCLE:   125 TIME:   0.223 TIME LEFT:  2.00D  GRAD.:    15.182 HEAT:  67.62800
 CYCLE:   126 TIME:   0.197 TIME LEFT:  2.00D  GRAD.:    12.051 HEAT:  67.61080
 CYCLE:   127 TIME:   0.191 TIME LEFT:  2.00D  GRAD.:     9.466 HEAT:  67.59550
 CYCLE:   128 TIME:   0.279 TIME LEFT:  2.00D  GRAD.:    15.167 HEAT:  67.57634
 CYCLE:   129 TIME:   0.246 TIME LEFT:  2.00D  GRAD.:    12.162 HEAT:  67.56205
 CYCLE:   130 TIME:   0.191 TIME LEFT:  2.00D  GRAD.:    10.548 HEAT:  67.54623
 CYCLE:   131 TIME:   0.229 TIME LEFT:  2.00D  GRAD.:    36.244 HEAT:  67.54931
 CYCLE:   132 TIME:   0.191 TIME LEFT:  2.00D  GRAD.:     7.829 HEAT:  67.52365
 CYCLE:   133 TIME:   0.193 TIME LEFT:  2.00D  GRAD.:     6.553 HEAT:  67.52004
 CYCLE:   134 TIME:   0.254 TIME LEFT:  2.00D  GRAD.:     8.745 HEAT:  67.50538
 CYCLE:   135 TIME:   0.248 TIME LEFT:  2.00D  GRAD.:    11.132 HEAT:  67.49293
 CYCLE:   136 TIME:   0.211 TIME LEFT:  2.00D  GRAD.:    16.133 HEAT:  67.48618
 CYCLE:   137 TIME:   0.227 TIME LEFT:  2.00D  GRAD.:     6.841 HEAT:  67.47679
 CYCLE:   138 TIME:   0.268 TIME LEFT:  2.00D  GRAD.:     6.222 HEAT:  67.47023
 CYCLE:   139 TIME:   0.303 TIME LEFT:  2.00D  GRAD.:     7.692 HEAT:  67.46342
 CYCLE:   140 TIME:   0.230 TIME LEFT:  2.00D  GRAD.:    10.848 HEAT:  67.44891
 CYCLE:   141 TIME:   0.256 TIME LEFT:  2.00D  GRAD.:    37.928 HEAT:  67.46874
 CYCLE:   142 TIME:   0.199 TIME LEFT:  2.00D  GRAD.:     5.436 HEAT:  67.43611
 CYCLE:   143 TIME:   0.201 TIME LEFT:  2.00D  GRAD.:     4.478 HEAT:  67.43391
 CYCLE:   144 TIME:   0.197 TIME LEFT:  2.00D  GRAD.:     4.942 HEAT:  67.42785
 CYCLE:   145 TIME:   0.203 TIME LEFT:  2.00D  GRAD.:    12.519 HEAT:  67.42288
 CYCLE:   146 TIME:   0.193 TIME LEFT:  2.00D  GRAD.:     5.417 HEAT:  67.41641
 CYCLE:   147 TIME:   0.188 TIME LEFT:  2.00D  GRAD.:     4.383 HEAT:  67.41282
 CYCLE:   148 TIME:   0.207 TIME LEFT:  2.00D  GRAD.:     7.389 HEAT:  67.40884
 CYCLE:   149 TIME:   0.195 TIME LEFT:  2.00D  GRAD.:    11.735 HEAT:  67.40576
 CYCLE:   150 TIME:   0.188 TIME LEFT:  2.00D  GRAD.:     7.295 HEAT:  67.40148
 CYCLE:   151 TIME:   0.199 TIME LEFT:  2.00D  GRAD.:     6.656 HEAT:  67.39593
 CYCLE:   152 TIME:   0.193 TIME LEFT:  2.00D  GRAD.:     5.338 HEAT:  67.39247
 CYCLE:   153 TIME:   0.193 TIME LEFT:  2.00D  GRAD.:     7.163 HEAT:  67.38455
 CYCLE:   154 TIME:   0.225 TIME LEFT:  2.00D  GRAD.:     7.150 HEAT:  67.37920
 CYCLE:   155 TIME:   0.189 TIME LEFT:  2.00D  GRAD.:     4.136 HEAT:  67.37570
 CYCLE:   156 TIME:   0.197 TIME LEFT:  2.00D  GRAD.:     5.010 HEAT:  67.37118
 CYCLE:   157 TIME:   0.195 TIME LEFT:  2.00D  GRAD.:     6.890 HEAT:  67.36703
 CYCLE:   158 TIME:   0.197 TIME LEFT:  2.00D  GRAD.:     6.270 HEAT:  67.36304
 CYCLE:   159 TIME:   0.189 TIME LEFT:  2.00D  GRAD.:     3.749 HEAT:  67.35993
 CYCLE:   160 TIME:   0.191 TIME LEFT:  2.00D  GRAD.:     5.310 HEAT:  67.35635
 CYCLE:   161 TIME:   0.193 TIME LEFT:  2.00D  GRAD.:     6.642 HEAT:  67.35240
 CYCLE:   162 TIME:   0.230 TIME LEFT:  2.00D  GRAD.:     9.275 HEAT:  67.34789
 CYCLE:   163 TIME:   0.279 TIME LEFT:  2.00D  GRAD.:     5.729 HEAT:  67.34317
 CYCLE:   164 TIME:   0.254 TIME LEFT:  2.00D  GRAD.:     4.387 HEAT:  67.33976
 CYCLE:   165 TIME:   0.252 TIME LEFT:  2.00D  GRAD.:     4.556 HEAT:  67.33699
 CYCLE:   166 TIME:   0.217 TIME LEFT:  2.00D  GRAD.:     4.888 HEAT:  67.33333
 CYCLE:   167 TIME:   0.195 TIME LEFT:  2.00D  GRAD.:     3.148 HEAT:  67.33011
 CYCLE:   168 TIME:   0.205 TIME LEFT:  2.00D  GRAD.:     4.413 HEAT:  67.32703
 CYCLE:   169 TIME:   0.213 TIME LEFT:  2.00D  GRAD.:     5.679 HEAT:  67.32305
 CYCLE:   170 TIME:   0.215 TIME LEFT:  2.00D  GRAD.:     7.521 HEAT:  67.31950
 CYCLE:   171 TIME:   0.213 TIME LEFT:  2.00D  GRAD.:     4.133 HEAT:  67.31627
 CYCLE:   172 TIME:   0.197 TIME LEFT:  2.00D  GRAD.:     4.736 HEAT:  67.31322
 CYCLE:   173 TIME:   0.217 TIME LEFT:  2.00D  GRAD.:     5.310 HEAT:  67.31050
 CYCLE:   174 TIME:   0.227 TIME LEFT:  2.00D  GRAD.:    10.626 HEAT:  67.30749
 CYCLE:   175 TIME:   0.211 TIME LEFT:  2.00D  GRAD.:     3.986 HEAT:  67.30299
 CYCLE:   176 TIME:   0.209 TIME LEFT:  2.00D  GRAD.:     4.632 HEAT:  67.30008
 CYCLE:   177 TIME:   0.197 TIME LEFT:  2.00D  GRAD.:     6.034 HEAT:  67.29675
 CYCLE:   178 TIME:   0.201 TIME LEFT:  2.00D  GRAD.:     7.317 HEAT:  67.29001
 CYCLE:   179 TIME:   0.197 TIME LEFT:  2.00D  GRAD.:    20.833 HEAT:  67.29196
 CYCLE:   180 TIME:   0.191 TIME LEFT:  2.00D  GRAD.:     5.173 HEAT:  67.28161
 CYCLE:   181 TIME:   0.193 TIME LEFT:  2.00D  GRAD.:     4.025 HEAT:  67.27851
 CYCLE:   182 TIME:   0.199 TIME LEFT:  2.00D  GRAD.:     7.073 HEAT:  67.27186
 CYCLE:   183 TIME:   0.191 TIME LEFT:  2.00D  GRAD.:     7.559 HEAT:  67.26492
 CYCLE:   184 TIME:   0.201 TIME LEFT:  2.00D  GRAD.:    10.151 HEAT:  67.25867
 CYCLE:   185 TIME:   0.197 TIME LEFT:  2.00D  GRAD.:     7.944 HEAT:  67.25027
 CYCLE:   186 TIME:   0.193 TIME LEFT:  2.00D  GRAD.:     8.548 HEAT:  67.24443
 CYCLE:   187 TIME:   0.240 TIME LEFT:  2.00D  GRAD.:     8.854 HEAT:  67.23714
 CYCLE:   188 TIME:   0.203 TIME LEFT:  2.00D  GRAD.:    14.665 HEAT:  67.23216
 CYCLE:   189 TIME:   0.207 TIME LEFT:  2.00D  GRAD.:     6.386 HEAT:  67.22325
 CYCLE:   190 TIME:   0.209 TIME LEFT:  2.00D  GRAD.:     6.754 HEAT:  67.21820
 CYCLE:   191 TIME:   0.217 TIME LEFT:  2.00D  GRAD.:    10.428 HEAT:  67.20970
 CYCLE:   192 TIME:   0.213 TIME LEFT:  2.00D  GRAD.:     7.365 HEAT:  67.20106
 CYCLE:   193 TIME:   0.217 TIME LEFT:  2.00D  GRAD.:    10.394 HEAT:  67.19237
 CYCLE:   194 TIME:   0.221 TIME LEFT:  2.00D  GRAD.:    10.301 HEAT:  67.18495
 CYCLE:   195 TIME:   0.205 TIME LEFT:  2.00D  GRAD.:     9.815 HEAT:  67.17760
 CYCLE:   196 TIME:   0.234 TIME LEFT:  2.00D  GRAD.:     7.953 HEAT:  67.15411
 CYCLE:   197 TIME:   0.232 TIME LEFT:  2.00D  GRAD.:    10.791 HEAT:  67.14224
 CYCLE:   198 TIME:   0.193 TIME LEFT:  2.00D  GRAD.:    14.956 HEAT:  67.13153
 CYCLE:   199 TIME:   0.197 TIME LEFT:  2.00D  GRAD.:     8.838 HEAT:  67.12156
 CYCLE:   200 TIME:   0.219 TIME LEFT:  2.00D  GRAD.:     8.302 HEAT:  67.10938
 CYCLE:   201 TIME:   0.217 TIME LEFT:  2.00D  GRAD.:     8.513 HEAT:  67.09954
 CYCLE:   202 TIME:   0.215 TIME LEFT:  2.00D  GRAD.:     7.672 HEAT:  67.08556
 CYCLE:   203 TIME:   0.252 TIME LEFT:  2.00D  GRAD.:    18.475 HEAT:  67.07667
 CYCLE:   204 TIME:   0.238 TIME LEFT:  2.00D  GRAD.:     7.137 HEAT:  67.06511
 CYCLE:   205 TIME:   0.238 TIME LEFT:  2.00D  GRAD.:     7.670 HEAT:  67.05911
 CYCLE:   206 TIME:   0.219 TIME LEFT:  2.00D  GRAD.:     9.825 HEAT:  67.04617
 CYCLE:   207 TIME:   0.268 TIME LEFT:  2.00D  GRAD.:    15.245 HEAT:  67.03820
 CYCLE:   208 TIME:   0.199 TIME LEFT:  2.00D  GRAD.:     6.314 HEAT:  67.02791
 CYCLE:   209 TIME:   0.281 TIME LEFT:  2.00D  GRAD.:     5.668 HEAT:  67.02395
 CYCLE:   210 TIME:   0.252 TIME LEFT:  2.00D  GRAD.:     9.032 HEAT:  67.01675
 CYCLE:   211 TIME:   0.270 TIME LEFT:  2.00D  GRAD.:    11.833 HEAT:  67.00877
 CYCLE:   212 TIME:   0.291 TIME LEFT:  2.00D  GRAD.:     7.948 HEAT:  66.99990
 CYCLE:   213 TIME:   0.303 TIME LEFT:  2.00D  GRAD.:     6.353 HEAT:  66.98877
 CYCLE:   214 TIME:   0.305 TIME LEFT:  2.00D  GRAD.:     9.246 HEAT:  66.98085
 CYCLE:   215 TIME:   0.305 TIME LEFT:  2.00D  GRAD.:    15.625 HEAT:  66.96932
 CYCLE:   216 TIME:   0.355 TIME LEFT:  2.00D  GRAD.:    10.051 HEAT:  66.95727
 CYCLE:   217 TIME:   0.385 TIME LEFT:  2.00D  GRAD.:     6.466 HEAT:  66.94884
 CYCLE:   218 TIME:   0.375 TIME LEFT:  2.00D  GRAD.:     9.048 HEAT:  66.93995
 CYCLE:   219 TIME:   0.330 TIME LEFT:  2.00D  GRAD.:    11.105 HEAT:  66.93083
 CYCLE:   220 TIME:   0.338 TIME LEFT:  2.00D  GRAD.:     6.454 HEAT:  66.91820
 CYCLE:   221 TIME:   0.447 TIME LEFT:  2.00D  GRAD.:     6.799 HEAT:  66.91075
 CYCLE:   222 TIME:   0.338 TIME LEFT:  2.00D  GRAD.:     6.503 HEAT:  66.90334
 CYCLE:   223 TIME:   0.385 TIME LEFT:  2.00D  GRAD.:     8.516 HEAT:  66.89216
 CYCLE:   224 TIME:   0.311 TIME LEFT:  2.00D  GRAD.:    20.919 HEAT:  66.89150
 CYCLE:   225 TIME:   0.307 TIME LEFT:  2.00D  GRAD.:     6.892 HEAT:  66.88055
 CYCLE:   226 TIME:   0.406 TIME LEFT:  2.00D  GRAD.:     5.489 HEAT:  66.87631
 CYCLE:   227 TIME:   0.299 TIME LEFT:  2.00D  GRAD.:     6.952 HEAT:  66.86791
 CYCLE:   228 TIME:   0.324 TIME LEFT:  2.00D  GRAD.:    14.592 HEAT:  66.85690
 CYCLE:   229 TIME:   0.406 TIME LEFT:  2.00D  GRAD.:    11.660 HEAT:  66.84997
 CYCLE:   230 TIME:   0.295 TIME LEFT:  2.00D  GRAD.:     6.341 HEAT:  66.84486
 CYCLE:   231 TIME:   0.367 TIME LEFT:  2.00D  GRAD.:     7.007 HEAT:  66.83824
 CYCLE:   232 TIME:   0.316 TIME LEFT:  2.00D  GRAD.:     7.897 HEAT:  66.83042
 CYCLE:   233 TIME:   0.324 TIME LEFT:  2.00D  GRAD.:    27.668 HEAT:  66.82904
 CYCLE:   234 TIME:   0.381 TIME LEFT:  2.00D  GRAD.:     7.010 HEAT:  66.81113
 CYCLE:   235 TIME:   0.434 TIME LEFT:  2.00D  GRAD.:     6.073 HEAT:  66.80739
 CYCLE:   236 TIME:   0.320 TIME LEFT:  2.00D  GRAD.:     8.323 HEAT:  66.79503
 CYCLE:   237 TIME:   0.484 TIME LEFT:  2.00D  GRAD.:    15.050 HEAT:  66.78232
 CYCLE:   238 TIME:   0.322 TIME LEFT:  2.00D  GRAD.:     9.117 HEAT:  66.76952
 CYCLE:   239 TIME:   0.320 TIME LEFT:  2.00D  GRAD.:     7.085 HEAT:  66.76075
 CYCLE:   240 TIME:   0.330 TIME LEFT:  2.00D  GRAD.:     8.521 HEAT:  66.74954
 CYCLE:   241 TIME:   0.322 TIME LEFT:  2.00D  GRAD.:    15.752 HEAT:  66.73985
 CYCLE:   242 TIME:   0.285 TIME LEFT:  2.00D  GRAD.:     8.936 HEAT:  66.73106
 CYCLE:   243 TIME:   0.307 TIME LEFT:  2.00D  GRAD.:     6.828 HEAT:  66.72390
 CYCLE:   244 TIME:   0.340 TIME LEFT:  2.00D  GRAD.:     6.549 HEAT:  66.71935
 CYCLE:   245 TIME:   0.297 TIME LEFT:  2.00D  GRAD.:    15.917 HEAT:  66.70954
 CYCLE:   246 TIME:   0.305 TIME LEFT:  2.00D  GRAD.:     8.990 HEAT:  66.70017
 CYCLE:   247 TIME:   0.354 TIME LEFT:  2.00D  GRAD.:     6.174 HEAT:  66.69578
 CYCLE:   248 TIME:   0.322 TIME LEFT:  2.00D  GRAD.:     5.113 HEAT:  66.68813
 CYCLE:   249 TIME:   0.307 TIME LEFT:  2.00D  GRAD.:    14.318 HEAT:  66.67987
 CYCLE:   250 TIME:   0.414 TIME LEFT:  2.00D  GRAD.:     7.701 HEAT:  66.66946
 CYCLE:   251 TIME:   0.303 TIME LEFT:  2.00D  GRAD.:     6.314 HEAT:  66.66252
 CYCLE:   252 TIME:   0.381 TIME LEFT:  2.00D  GRAD.:    10.264 HEAT:  66.65422
 CYCLE:   253 TIME:   0.385 TIME LEFT:  2.00D  GRAD.:     7.721 HEAT:  66.64427
 CYCLE:   254 TIME:   0.420 TIME LEFT:  2.00D  GRAD.:     7.724 HEAT:  66.63126
 CYCLE:   255 TIME:   0.326 TIME LEFT:  2.00D  GRAD.:    19.847 HEAT:  66.62736
 CYCLE:   256 TIME:   0.201 TIME LEFT:  2.00D  GRAD.:     7.145 HEAT:  66.61408
 CYCLE:   257 TIME:   0.287 TIME LEFT:  2.00D  GRAD.:     5.824 HEAT:  66.60753
 CYCLE:   258 TIME:   0.232 TIME LEFT:  2.00D  GRAD.:     6.794 HEAT:  66.59679
 CYCLE:   259 TIME:   0.244 TIME LEFT:  2.00D  GRAD.:    18.001 HEAT:  66.58459
 CYCLE:   260 TIME:   0.295 TIME LEFT:  2.00D  GRAD.:     8.391 HEAT:  66.56929
 CYCLE:   261 TIME:   0.268 TIME LEFT:  2.00D  GRAD.:     6.627 HEAT:  66.56055
 CYCLE:   262 TIME:   0.264 TIME LEFT:  2.00D  GRAD.:    11.366 HEAT:  66.55270
 CYCLE:   263 TIME:   0.279 TIME LEFT:  2.00D  GRAD.:    11.068 HEAT:  66.54556
 CYCLE:   264 TIME:   0.229 TIME LEFT:  2.00D  GRAD.:     7.830 HEAT:  66.54022
 CYCLE:   265 TIME:   0.246 TIME LEFT:  2.00D  GRAD.:     7.177 HEAT:  66.52761
 CYCLE:   266 TIME:   0.246 TIME LEFT:  2.00D  GRAD.:    14.054 HEAT:  66.51985
 CYCLE:   267 TIME:   0.281 TIME LEFT:  2.00D  GRAD.:     8.897 HEAT:  66.51043
 CYCLE:   268 TIME:   0.236 TIME LEFT:  2.00D  GRAD.:     6.601 HEAT:  66.50062
 CYCLE:   269 TIME:   0.227 TIME LEFT:  2.00D  GRAD.:     9.255 HEAT:  66.49235
 CYCLE:   270 TIME:   0.266 TIME LEFT:  2.00D  GRAD.:     8.933 HEAT:  66.48131
 CYCLE:   271 TIME:   0.195 TIME LEFT:  2.00D  GRAD.:    15.286 HEAT:  66.47124
 CYCLE:   272 TIME:   0.248 TIME LEFT:  2.00D  GRAD.:     7.267 HEAT:  66.45871
 CYCLE:   273 TIME:   0.234 TIME LEFT:  2.00D  GRAD.:     6.084 HEAT:  66.44989
 CYCLE:   274 TIME:   0.205 TIME LEFT:  2.00D  GRAD.:     6.500 HEAT:  66.44141
 CYCLE:   275 TIME:   0.230 TIME LEFT:  2.00D  GRAD.:    11.814 HEAT:  66.42882
 CYCLE:   276 TIME:   0.223 TIME LEFT:  2.00D  GRAD.:    15.456 HEAT:  66.41760
 CYCLE:   277 TIME:   0.209 TIME LEFT:  2.00D  GRAD.:     8.124 HEAT:  66.40661
 CYCLE:   278 TIME:   0.211 TIME LEFT:  2.00D  GRAD.:     8.036 HEAT:  66.39860
 CYCLE:   279 TIME:   0.213 TIME LEFT:  2.00D  GRAD.:     9.036 HEAT:  66.38546
 CYCLE:   280 TIME:   0.203 TIME LEFT:  2.00D  GRAD.:    32.030 HEAT:  66.38993
 CYCLE:   281 TIME:   0.213 TIME LEFT:  2.00D  GRAD.:     8.416 HEAT:  66.37014
 CYCLE:   282 TIME:   0.205 TIME LEFT:  2.00D  GRAD.:     6.148 HEAT:  66.36455
 CYCLE:   283 TIME:   0.227 TIME LEFT:  2.00D  GRAD.:     7.254 HEAT:  66.35701
 CYCLE:   284 TIME:   0.250 TIME LEFT:  2.00D  GRAD.:     8.748 HEAT:  66.34551
 CYCLE:   285 TIME:   0.246 TIME LEFT:  2.00D  GRAD.:    32.223 HEAT:  66.35637
 CYCLE:   286 TIME:   0.244 TIME LEFT:  2.00D  GRAD.:     6.695 HEAT:  66.33349
 CYCLE:   287 TIME:   0.271 TIME LEFT:  2.00D  GRAD.:     5.547 HEAT:  66.32951
 CYCLE:   288 TIME:   0.281 TIME LEFT:  2.00D  GRAD.:     6.999 HEAT:  66.31979
 CYCLE:   289 TIME:   0.244 TIME LEFT:  2.00D  GRAD.:     7.980 HEAT:  66.30781
 CYCLE:   290 TIME:   0.221 TIME LEFT:  2.00D  GRAD.:    33.932 HEAT:  66.32483
 CYCLE:   291 TIME:   0.205 TIME LEFT:  2.00D  GRAD.:     6.201 HEAT:  66.29342
 CYCLE:   292 TIME:   0.195 TIME LEFT:  2.00D  GRAD.:     5.315 HEAT:  66.28921
 CYCLE:   293 TIME:   0.207 TIME LEFT:  2.00D  GRAD.:     8.589 HEAT:  66.27819
 CYCLE:   294 TIME:   0.229 TIME LEFT:  2.00D  GRAD.:    25.493 HEAT:  66.27640
 CYCLE:   295 TIME:   0.230 TIME LEFT:  2.00D  GRAD.:     9.117 HEAT:  66.26309
 CYCLE:   296 TIME:   0.270 TIME LEFT:  2.00D  GRAD.:     5.143 HEAT:  66.25684
 CYCLE:   297 TIME:   0.254 TIME LEFT:  2.00D  GRAD.:     6.731 HEAT:  66.25080
 CYCLE:   298 TIME:   0.258 TIME LEFT:  2.00D  GRAD.:     8.710 HEAT:  66.24237
 CYCLE:   299 TIME:   0.307 TIME LEFT:  2.00D  GRAD.:    30.438 HEAT:  66.24832
 CYCLE:   300 TIME:   0.312 TIME LEFT:  2.00D  GRAD.:     6.694 HEAT:  66.22810
 CYCLE:   301 TIME:   0.266 TIME LEFT:  2.00D  GRAD.:     5.747 HEAT:  66.22449
 CYCLE:   302 TIME:   0.281 TIME LEFT:  2.00D  GRAD.:     7.517 HEAT:  66.21756
 CYCLE:   303 TIME:   0.250 TIME LEFT:  2.00D  GRAD.:     6.596 HEAT:  66.20705
 CYCLE:   304 TIME:   0.209 TIME LEFT:  2.00D  GRAD.:    41.093 HEAT:  66.22886
 CYCLE:   305 TIME:   0.240 TIME LEFT:  2.00D  GRAD.:     5.992 HEAT:  66.19401
 CYCLE:   306 TIME:   0.320 TIME LEFT:  2.00D  GRAD.:     5.224 HEAT:  66.19214
 CYCLE:   307 TIME:   0.291 TIME LEFT:  2.00D  GRAD.:     9.648 HEAT:  66.18225
 CYCLE:   308 TIME:   0.277 TIME LEFT:  2.00D  GRAD.:     7.493 HEAT:  66.17558
 CYCLE:   309 TIME:   0.309 TIME LEFT:  2.00D  GRAD.:     6.889 HEAT:  66.16950
 CYCLE:   310 TIME:   0.277 TIME LEFT:  2.00D  GRAD.:     5.733 HEAT:  66.16518
 CYCLE:   311 TIME:   0.254 TIME LEFT:  2.00D  GRAD.:     6.363 HEAT:  66.15709
 CYCLE:   312 TIME:   0.242 TIME LEFT:  2.00D  GRAD.:    14.485 HEAT:  66.15388
 CYCLE:   313 TIME:   0.295 TIME LEFT:  2.00D  GRAD.:     6.697 HEAT:  66.14835
 CYCLE:   314 TIME:   0.361 TIME LEFT:  2.00D  GRAD.:     4.577 HEAT:  66.14361
 CYCLE:   315 TIME:   0.307 TIME LEFT:  2.00D  GRAD.:     5.523 HEAT:  66.13992
 CYCLE:   316 TIME:   0.287 TIME LEFT:  2.00D  GRAD.:     5.629 HEAT:  66.13405
 CYCLE:   317 TIME:   0.277 TIME LEFT:  2.00D  GRAD.:    14.238 HEAT:  66.12898
 CYCLE:   318 TIME:   0.303 TIME LEFT:  2.00D  GRAD.:     7.721 HEAT:  66.12166
 CYCLE:   319 TIME:   0.268 TIME LEFT:  2.00D  GRAD.:     3.969 HEAT:  66.11888
 CYCLE:   320 TIME:   0.270 TIME LEFT:  2.00D  GRAD.:     4.117 HEAT:  66.11645
 CYCLE:   321 TIME:   0.273 TIME LEFT:  2.00D  GRAD.:     5.154 HEAT:  66.11283
 CYCLE:   322 TIME:   0.305 TIME LEFT:  2.00D  GRAD.:     7.969 HEAT:  66.10661
 CYCLE:   323 TIME:   0.295 TIME LEFT:  2.00D  GRAD.:     5.359 HEAT:  66.10092
 CYCLE:   324 TIME:   0.291 TIME LEFT:  2.00D  GRAD.:     5.865 HEAT:  66.09714
 CYCLE:   325 TIME:   0.273 TIME LEFT:  2.00D  GRAD.:     5.288 HEAT:  66.09386
 CYCLE:   326 TIME:   0.285 TIME LEFT:  2.00D  GRAD.:     5.045 HEAT:  66.09086
 CYCLE:   327 TIME:   0.287 TIME LEFT:  2.00D  GRAD.:     4.781 HEAT:  66.08544
 CYCLE:   328 TIME:   0.285 TIME LEFT:  2.00D  GRAD.:    12.289 HEAT:  66.08325
 CYCLE:   329 TIME:   0.283 TIME LEFT:  2.00D  GRAD.:     5.329 HEAT:  66.07880
 CYCLE:   330 TIME:   0.287 TIME LEFT:  2.00D  GRAD.:     4.501 HEAT:  66.07550
 CYCLE:   331 TIME:   0.334 TIME LEFT:  2.00D  GRAD.:     5.700 HEAT:  66.07230
 CYCLE:   332 TIME:   0.268 TIME LEFT:  2.00D  GRAD.:     5.401 HEAT:  66.06763
 CYCLE:   333 TIME:   0.311 TIME LEFT:  2.00D  GRAD.:     4.481 HEAT:  66.05953
 CYCLE:   334 TIME:   0.299 TIME LEFT:  2.00D  GRAD.:     7.456 HEAT:  66.05377
 CYCLE:   335 TIME:   0.307 TIME LEFT:  2.00D  GRAD.:    20.107 HEAT:  66.05682
 CYCLE:   336 TIME:   0.268 TIME LEFT:  2.00D  GRAD.:     9.783 HEAT:  66.05006
 CYCLE:   337 TIME:   0.268 TIME LEFT:  2.00D  GRAD.:     3.463 HEAT:  66.04576
 CYCLE:   338 TIME:   0.230 TIME LEFT:  2.00D  GRAD.:     4.068 HEAT:  66.04409
 CYCLE:   339 TIME:   0.248 TIME LEFT:  2.00D  GRAD.:     4.635 HEAT:  66.04194
 CYCLE:   340 TIME:   0.271 TIME LEFT:  2.00D  GRAD.:    14.606 HEAT:  66.03800
 CYCLE:   341 TIME:   0.287 TIME LEFT:  2.00D  GRAD.:     5.028 HEAT:  66.03313
 CYCLE:   342 TIME:   0.289 TIME LEFT:  2.00D  GRAD.:     3.097 HEAT:  66.03208
 CYCLE:   343 TIME:   0.307 TIME LEFT:  2.00D  GRAD.:     2.973 HEAT:  66.03105
 CYCLE:   344 TIME:   0.289 TIME LEFT:  2.00D  GRAD.:     3.738 HEAT:  66.02936
 CYCLE:   345 TIME:   0.293 TIME LEFT:  2.00D  GRAD.:     8.766 HEAT:  66.02776
 CYCLE:   346 TIME:   0.297 TIME LEFT:  2.00D  GRAD.:     3.717 HEAT:  66.02564
 CYCLE:   347 TIME:   0.289 TIME LEFT:  2.00D  GRAD.:     3.131 HEAT:  66.02435
 CYCLE:   348 TIME:   0.324 TIME LEFT:  2.00D  GRAD.:     4.234 HEAT:  66.02282
 CYCLE:   349 TIME:   0.281 TIME LEFT:  2.00D  GRAD.:     4.791 HEAT:  66.02061
 CYCLE:   350 TIME:   0.287 TIME LEFT:  2.00D  GRAD.:     4.690 HEAT:  66.01769
 CYCLE:   351 TIME:   0.283 TIME LEFT:  2.00D  GRAD.:     5.118 HEAT:  66.01663
 CYCLE:   352 TIME:   0.268 TIME LEFT:  2.00D  GRAD.:     2.180 HEAT:  66.01528
 CYCLE:   353 TIME:   0.230 TIME LEFT:  2.00D  GRAD.:     2.349 HEAT:  66.01461
 CYCLE:   354 TIME:   0.236 TIME LEFT:  2.00D  GRAD.:     3.166 HEAT:  66.01348
 CYCLE:   355 TIME:   0.314 TIME LEFT:  2.00D  GRAD.:     3.510 HEAT:  66.01209
 CYCLE:   356 TIME:   0.264 TIME LEFT:  2.00D  GRAD.:     5.623 HEAT:  66.01133
 CYCLE:   357 TIME:   0.248 TIME LEFT:  2.00D  GRAD.:     2.311 HEAT:  66.01018
 CYCLE:   358 TIME:   0.266 TIME LEFT:  2.00D  GRAD.:     2.308 HEAT:  66.00962
 CYCLE:   359 TIME:   0.318 TIME LEFT:  2.00D  GRAD.:     3.128 HEAT:  66.00854
 CYCLE:   360 TIME:   0.312 TIME LEFT:  2.00D  GRAD.:     9.296 HEAT:  66.00871
 CYCLE:   361 TIME:   0.236 TIME LEFT:  2.00D  GRAD.:     2.549 HEAT:  66.00686
 CYCLE:   362 TIME:   0.252 TIME LEFT:  2.00D  GRAD.:     1.969 HEAT:  66.00631
 CYCLE:   363 TIME:   0.232 TIME LEFT:  2.00D  GRAD.:     2.210 HEAT:  66.00562
 CYCLE:   364 TIME:   0.295 TIME LEFT:  2.00D  GRAD.:     7.901 HEAT:  66.00530
 CYCLE:   365 TIME:   0.238 TIME LEFT:  2.00D  GRAD.:     2.345 HEAT:  66.00402
 CYCLE:   366 TIME:   0.285 TIME LEFT:  2.00D  GRAD.:     1.763 HEAT:  66.00382
 CYCLE:   367 TIME:   0.348 TIME LEFT:  2.00D  GRAD.:     1.846 HEAT:  66.00319
 CYCLE:   368 TIME:   0.324 TIME LEFT:  2.00D  GRAD.:     5.938 HEAT:  66.00223
 CYCLE:   369 TIME:   1.381 TIME LEFT:  2.00D  GRAD.:     2.119 HEAT:  66.00071
 CYCLE:   370 TIME:   1.857 TIME LEFT:  2.00D  GRAD.:     1.996 HEAT:  66.00019
 CYCLE:   371 TIME:   0.426 TIME LEFT:  2.00D  GRAD.:     5.759 HEAT:  65.99952
 CYCLE:   372 TIME:   0.471 TIME LEFT:  2.00D  GRAD.:     2.974 HEAT:  65.99824
 CYCLE:   373 TIME:   0.402 TIME LEFT:  2.00D  GRAD.:     1.788 HEAT:  65.99766
 CYCLE:   374 TIME:   0.434 TIME LEFT:  2.00D  GRAD.:     2.300 HEAT:  65.99664
 CYCLE:   375 TIME:   0.482 TIME LEFT:  2.00D  GRAD.:     2.321 HEAT:  65.99567
 CYCLE:   376 TIME:   0.465 TIME LEFT:  2.00D  GRAD.:     5.212 HEAT:  65.99450
 CYCLE:   377 TIME:   0.344 TIME LEFT:  2.00D  GRAD.:     3.642 HEAT:  65.99330
 CYCLE:   378 TIME:   0.367 TIME LEFT:  2.00D  GRAD.:     2.082 HEAT:  65.99263
 CYCLE:   379 TIME:   0.410 TIME LEFT:  2.00D  GRAD.:     1.831 HEAT:  65.99194
 CYCLE:   380 TIME:   0.416 TIME LEFT:  2.00D  GRAD.:     2.296 HEAT:  65.99104
 CYCLE:   381 TIME:   0.387 TIME LEFT:  2.00D  GRAD.:     4.107 HEAT:  65.98985
 CYCLE:   382 TIME:   0.500 TIME LEFT:  2.00D  GRAD.:     2.912 HEAT:  65.98872
 CYCLE:   383 TIME:   0.408 TIME LEFT:  2.00D  GRAD.:     1.723 HEAT:  65.98812
 CYCLE:   384 TIME:   0.367 TIME LEFT:  2.00D  GRAD.:     1.839 HEAT:  65.98758
 CYCLE:   385 TIME:   0.336 TIME LEFT:  2.00D  GRAD.:     2.051 HEAT:  65.98678
 CYCLE:   386 TIME:   0.342 TIME LEFT:  2.00D  GRAD.:     6.598 HEAT:  65.98612
 CYCLE:   387 TIME:   0.416 TIME LEFT:  2.00D  GRAD.:     2.387 HEAT:  65.98475
 CYCLE:   388 TIME:   0.496 TIME LEFT:  2.00D  GRAD.:     2.193 HEAT:  65.98423
 CYCLE:   389 TIME:   0.354 TIME LEFT:  2.00D  GRAD.:     2.361 HEAT:  65.98309
 CYCLE:   390 TIME:   0.334 TIME LEFT:  2.00D  GRAD.:     3.132 HEAT:  65.98164
 CYCLE:   391 TIME:   0.424 TIME LEFT:  2.00D  GRAD.:     4.844 HEAT:  65.98083
 CYCLE:   392 TIME:   0.312 TIME LEFT:  2.00D  GRAD.:     2.870 HEAT:  65.97956
 CYCLE:   393 TIME:   0.488 TIME LEFT:  2.00D  GRAD.:     2.017 HEAT:  65.97875
 CYCLE:   394 TIME:   0.582 TIME LEFT:  2.00D  GRAD.:     2.828 HEAT:  65.97800
 CYCLE:   395 TIME:   0.359 TIME LEFT:  2.00D  GRAD.:     4.516 HEAT:  65.97720
 CYCLE:   396 TIME:   0.379 TIME LEFT:  2.00D  GRAD.:     2.448 HEAT:  65.97628
 CYCLE:   397 TIME:   0.400 TIME LEFT:  2.00D  GRAD.:     2.042 HEAT:  65.97544
 CYCLE:   398 TIME:   0.404 TIME LEFT:  2.00D  GRAD.:     3.142 HEAT:  65.97484
 CYCLE:   399 TIME:   0.344 TIME LEFT:  2.00D  GRAD.:     2.691 HEAT:  65.97369
 CYCLE:   400 TIME:   0.354 TIME LEFT:  2.00D  GRAD.:     4.124 HEAT:  65.97163
 CYCLE:   401 TIME:   0.346 TIME LEFT:  2.00D  GRAD.:     9.079 HEAT:  65.97179
 CYCLE:   402 TIME:   0.312 TIME LEFT:  2.00D  GRAD.:     2.560 HEAT:  65.97002
 CYCLE:   403 TIME:   0.324 TIME LEFT:  2.00D  GRAD.:     2.056 HEAT:  65.96952
 CYCLE:   404 TIME:   0.330 TIME LEFT:  2.00D  GRAD.:     3.273 HEAT:  65.96821
 CYCLE:   405 TIME:   0.291 TIME LEFT:  2.00D  GRAD.:     3.377 HEAT:  65.96629
 CYCLE:   406 TIME:   0.400 TIME LEFT:  2.00D  GRAD.:     6.234 HEAT:  65.96544
 CYCLE:   407 TIME:   0.402 TIME LEFT:  2.00D  GRAD.:     2.694 HEAT:  65.96389
 CYCLE:   408 TIME:   0.418 TIME LEFT:  2.00D  GRAD.:     2.613 HEAT:  65.96286
 CYCLE:   409 TIME:   0.340 TIME LEFT:  2.00D  GRAD.:     2.691 HEAT:  65.96127
 CYCLE:   410 TIME:   0.443 TIME LEFT:  2.00D  GRAD.:     2.569 HEAT:  65.95998
 CYCLE:   411 TIME:   0.457 TIME LEFT:  2.00D  GRAD.:     5.296 HEAT:  65.95890
 CYCLE:   412 TIME:   0.398 TIME LEFT:  2.00D  GRAD.:     3.161 HEAT:  65.95745
 CYCLE:   413 TIME:   0.402 TIME LEFT:  2.00D  GRAD.:     2.327 HEAT:  65.95594
 CYCLE:   414 TIME:   0.527 TIME LEFT:  2.00D  GRAD.:     2.991 HEAT:  65.95452
 CYCLE:   415 TIME:   0.486 TIME LEFT:  2.00D  GRAD.:     4.863 HEAT:  65.95292
 CYCLE:   416 TIME:   0.436 TIME LEFT:  2.00D  GRAD.:     2.794 HEAT:  65.95105
 CYCLE:   417 TIME:   2.131 TIME LEFT:  2.00D  GRAD.:     2.252 HEAT:  65.95028
 CYCLE:   418 TIME:   0.340 TIME LEFT:  2.00D  GRAD.:     4.349 HEAT:  65.94894
 CYCLE:   419 TIME:   0.357 TIME LEFT:  2.00D  GRAD.:     6.287 HEAT:  65.94824
 CYCLE:   420 TIME:   0.312 TIME LEFT:  2.00D  GRAD.:     2.647 HEAT:  65.94711
 CYCLE:   421 TIME:   0.322 TIME LEFT:  2.00D  GRAD.:     2.023 HEAT:  65.94637
 CYCLE:   422 TIME:   0.439 TIME LEFT:  2.00D  GRAD.:     2.373 HEAT:  65.94541
 CYCLE:   423 TIME:   0.424 TIME LEFT:  2.00D  GRAD.:     3.431 HEAT:  65.94341
 CYCLE:   424 TIME:   0.453 TIME LEFT:  2.00D  GRAD.:    10.171 HEAT:  65.94375
 CYCLE:   425 TIME:   0.369 TIME LEFT:  2.00D  GRAD.:     2.973 HEAT:  65.94091
 CYCLE:   426 TIME:   0.293 TIME LEFT:  2.00D  GRAD.:     2.338 HEAT:  65.93982
 CYCLE:   427 TIME:   0.365 TIME LEFT:  2.00D  GRAD.:     5.481 HEAT:  65.93815
 CYCLE:   428 TIME:   0.379 TIME LEFT:  2.00D  GRAD.:     8.938 HEAT:  65.93787
 CYCLE:   429 TIME:   0.438 TIME LEFT:  2.00D  GRAD.:     2.865 HEAT:  65.93577
 CYCLE:   430 TIME:   0.354 TIME LEFT:  2.00D  GRAD.:     3.371 HEAT:  65.93499
 CYCLE:   431 TIME:   0.406 TIME LEFT:  2.00D  GRAD.:     3.473 HEAT:  65.93376
 CYCLE:   432 TIME:   0.365 TIME LEFT:  2.00D  GRAD.:     3.146 HEAT:  65.93081
 CYCLE:   433 TIME:   0.523 TIME LEFT:  2.00D  GRAD.:     7.104 HEAT:  65.92986
 CYCLE:   434 TIME:   0.539 TIME LEFT:  2.00D  GRAD.:     2.415 HEAT:  65.92836
 CYCLE:   435 TIME:   0.436 TIME LEFT:  2.00D  GRAD.:     2.430 HEAT:  65.92776
 CYCLE:   436 TIME:   0.303 TIME LEFT:  2.00D  GRAD.:     2.811 HEAT:  65.92651
 CYCLE:   437 TIME:   0.336 TIME LEFT:  2.00D  GRAD.:     4.317 HEAT:  65.92537
 CYCLE:   438 TIME:   0.412 TIME LEFT:  2.00D  GRAD.:     3.166 HEAT:  65.92399
 CYCLE:   439 TIME:   0.383 TIME LEFT:  2.00D  GRAD.:     3.286 HEAT:  65.92238
 CYCLE:   440 TIME:   0.428 TIME LEFT:  2.00D  GRAD.:     4.673 HEAT:  65.92018
 CYCLE:   441 TIME:   0.459 TIME LEFT:  2.00D  GRAD.:     7.360 HEAT:  65.91933
 CYCLE:   442 TIME:   0.396 TIME LEFT:  2.00D  GRAD.:     2.403 HEAT:  65.91772
 CYCLE:   443 TIME:   0.381 TIME LEFT:  2.00D  GRAD.:     2.708 HEAT:  65.91779
 CYCLE:   444 TIME:   0.426 TIME LEFT:  2.00D  GRAD.:     1.992 HEAT:  65.91666
 CYCLE:   445 TIME:   0.338 TIME LEFT:  2.00D  GRAD.:     2.902 HEAT:  65.91547
 CYCLE:   446 TIME:   0.334 TIME LEFT:  2.00D  GRAD.:     4.182 HEAT:  65.91458
 CYCLE:   447 TIME:   0.338 TIME LEFT:  2.00D  GRAD.:     2.642 HEAT:  65.91378
 CYCLE:   448 TIME:   0.463 TIME LEFT:  2.00D  GRAD.:     2.781 HEAT:  65.91227
 CYCLE:   449 TIME:   0.404 TIME LEFT:  2.00D  GRAD.:     3.095 HEAT:  65.91157
 CYCLE:   450 TIME:   0.471 TIME LEFT:  2.00D  GRAD.:     3.350 HEAT:  65.91020
 CYCLE:   451 TIME:   0.457 TIME LEFT:  2.00D  GRAD.:     3.983 HEAT:  65.90865
 CYCLE:   452 TIME:   0.311 TIME LEFT:  2.00D  GRAD.:     2.676 HEAT:  65.90738
 CYCLE:   453 TIME:   0.465 TIME LEFT:  2.00D  GRAD.:     2.873 HEAT:  65.90640
 CYCLE:   454 TIME:   0.430 TIME LEFT:  2.00D  GRAD.:     3.599 HEAT:  65.90555
 CYCLE:   455 TIME:   0.428 TIME LEFT:  2.00D  GRAD.:     3.628 HEAT:  65.90404
 CYCLE:   456 TIME:   0.328 TIME LEFT:  2.00D  GRAD.:     2.952 HEAT:  65.90231
 CYCLE:   457 TIME:   0.471 TIME LEFT:  2.00D  GRAD.:     3.335 HEAT:  65.90079
 CYCLE:   458 TIME:   0.400 TIME LEFT:  2.00D  GRAD.:     6.480 HEAT:  65.89895
 CYCLE:   459 TIME:   0.301 TIME LEFT:  2.00D  GRAD.:     3.212 HEAT:  65.89710
 CYCLE:   460 TIME:   0.365 TIME LEFT:  2.00D  GRAD.:     2.625 HEAT:  65.89567
 CYCLE:   461 TIME:   0.377 TIME LEFT:  2.00D  GRAD.:     4.855 HEAT:  65.89452
 CYCLE:   462 TIME:   0.352 TIME LEFT:  2.00D  GRAD.:     4.738 HEAT:  65.89279
 CYCLE:   463 TIME:   0.434 TIME LEFT:  2.00D  GRAD.:     5.352 HEAT:  65.89129
 CYCLE:   464 TIME:   0.348 TIME LEFT:  2.00D  GRAD.:    15.396 HEAT:  65.89434
 CYCLE:   465 TIME:   0.398 TIME LEFT:  2.00D  GRAD.:    13.797 HEAT:  65.89370
 CYCLE:   466 TIME:   0.309 TIME LEFT:  2.00D  GRAD.:     2.156 HEAT:  65.88733
 CYCLE:   467 TIME:   0.328 TIME LEFT:  2.00D  GRAD.:     2.837 HEAT:  65.88665
 CYCLE:   468 TIME:   0.340 TIME LEFT:  2.00D  GRAD.:     3.892 HEAT:  65.88509
 CYCLE:   469 TIME:   0.330 TIME LEFT:  2.00D  GRAD.:     7.915 HEAT:  65.88410
 CYCLE:   470 TIME:   0.504 TIME LEFT:  2.00D  GRAD.:     2.988 HEAT:  65.88262
 CYCLE:   471 TIME:   0.359 TIME LEFT:  2.00D  GRAD.:     3.323 HEAT:  65.88158
 CYCLE:   472 TIME:   0.291 TIME LEFT:  2.00D  GRAD.:     2.154 HEAT:  65.88044
 CYCLE:   473 TIME:   0.400 TIME LEFT:  2.00D  GRAD.:     3.940 HEAT:  65.87874
 CYCLE:   474 TIME:   0.312 TIME LEFT:  2.00D  GRAD.:     6.451 HEAT:  65.87792
 CYCLE:   475 TIME:   0.361 TIME LEFT:  2.00D  GRAD.:     2.900 HEAT:  65.87664
 CYCLE:   476 TIME:   0.494 TIME LEFT:  2.00D  GRAD.:     2.170 HEAT:  65.87610
 CYCLE:   477 TIME:   0.457 TIME LEFT:  2.00D  GRAD.:     1.975 HEAT:  65.87475
 CYCLE:   478 TIME:   0.447 TIME LEFT:  2.00D  GRAD.:     5.699 HEAT:  65.87272
 CYCLE:   479 TIME:   0.373 TIME LEFT:  2.00D  GRAD.:     6.427 HEAT:  65.87264
 CYCLE:   480 TIME:   0.338 TIME LEFT:  2.00D  GRAD.:     2.170 HEAT:  65.87104
 CYCLE:   481 TIME:   0.344 TIME LEFT:  2.00D  GRAD.:     1.981 HEAT:  65.87080
 CYCLE:   482 TIME:   0.426 TIME LEFT:  2.00D  GRAD.:     2.210 HEAT:  65.86872
 CYCLE:   483 TIME:   0.379 TIME LEFT:  2.00D  GRAD.:     7.280 HEAT:  65.86678
 CYCLE:   484 TIME:   0.404 TIME LEFT:  2.00D  GRAD.:     4.463 HEAT:  65.86520
 CYCLE:   485 TIME:   0.408 TIME LEFT:  2.00D  GRAD.:     2.247 HEAT:  65.86443
 CYCLE:   486 TIME:   0.465 TIME LEFT:  2.00D  GRAD.:     5.441 HEAT:  65.86628
 CYCLE:   487 TIME:   0.344 TIME LEFT:  2.00D  GRAD.:     6.323 HEAT:  65.86416
 CYCLE:   488 TIME:   0.338 TIME LEFT:  2.00D  GRAD.:     5.681 HEAT:  65.86348
 CYCLE:   489 TIME:   0.393 TIME LEFT:  2.00D  GRAD.:     1.862 HEAT:  65.86245
 CYCLE:   490 TIME:   0.559 TIME LEFT:  2.00D  GRAD.:     2.380 HEAT:  65.86220
 CYCLE:   491 TIME:   0.453 TIME LEFT:  2.00D  GRAD.:     3.527 HEAT:  65.86099
 CYCLE:   492 TIME:   0.369 TIME LEFT:  2.00D  GRAD.:     3.322 HEAT:  65.85980
 CYCLE:   493 TIME:   0.412 TIME LEFT:  2.00D  GRAD.:     3.568 HEAT:  65.85885
 CYCLE:   494 TIME:   0.518 TIME LEFT:  2.00D  GRAD.:     3.022 HEAT:  65.85730
 CYCLE:   495 TIME:   0.414 TIME LEFT:  2.00D  GRAD.:     3.932 HEAT:  65.85602
 CYCLE:   496 TIME:   0.375 TIME LEFT:  2.00D  GRAD.:     5.463 HEAT:  65.85444
 CYCLE:   497 TIME:   0.340 TIME LEFT:  2.00D  GRAD.:     4.012 HEAT:  65.85334
 CYCLE:   498 TIME:   0.414 TIME LEFT:  2.00D  GRAD.:     3.335 HEAT:  65.85313
 CYCLE:   499 TIME:   0.344 TIME LEFT:  2.00D  GRAD.:     3.924 HEAT:  65.85123
 CYCLE:   500 TIME:   0.371 TIME LEFT:  2.00D  GRAD.:     5.993 HEAT:  65.84992
 CYCLE:   501 TIME:   0.309 TIME LEFT:  2.00D  GRAD.:     4.556 HEAT:  65.84826
 CYCLE:   502 TIME:   0.336 TIME LEFT:  2.00D  GRAD.:     2.577 HEAT:  65.84700
 CYCLE:   503 TIME:   0.361 TIME LEFT:  2.00D  GRAD.:     2.783 HEAT:  65.84605
 CYCLE:   504 TIME:   0.385 TIME LEFT:  2.00D  GRAD.:     3.449 HEAT:  65.84521
 CYCLE:   505 TIME:   0.371 TIME LEFT:  2.00D  GRAD.:     3.172 HEAT:  65.84352
 CYCLE:   506 TIME:   0.322 TIME LEFT:  2.00D  GRAD.:     4.747 HEAT:  65.84174
 CYCLE:   507 TIME:   0.373 TIME LEFT:  2.00D  GRAD.:     3.960 HEAT:  65.84019
 CYCLE:   508 TIME:   0.318 TIME LEFT:  2.00D  GRAD.:     3.200 HEAT:  65.83915
 CYCLE:   509 TIME:   0.479 TIME LEFT:  2.00D  GRAD.:     3.474 HEAT:  65.83729
 CYCLE:   510 TIME:   0.389 TIME LEFT:  2.00D  GRAD.:     3.698 HEAT:  65.83560
 CYCLE:   511 TIME:   0.303 TIME LEFT:  2.00D  GRAD.:     3.973 HEAT:  65.83429
 CYCLE:   512 TIME:   0.299 TIME LEFT:  2.00D  GRAD.:     2.306 HEAT:  65.83333
 CYCLE:   513 TIME:   0.428 TIME LEFT:  2.00D  GRAD.:     3.283 HEAT:  65.83291
 CYCLE:   514 TIME:   0.525 TIME LEFT:  2.00D  GRAD.:     2.666 HEAT:  65.83191
 CYCLE:   515 TIME:   0.404 TIME LEFT:  2.00D  GRAD.:     2.621 HEAT:  65.83096
 CYCLE:   516 TIME:   0.418 TIME LEFT:  2.00D  GRAD.:     2.203 HEAT:  65.83031
 CYCLE:   517 TIME:   0.408 TIME LEFT:  2.00D  GRAD.:     2.010 HEAT:  65.82942
 CYCLE:   518 TIME:   0.346 TIME LEFT:  2.00D  GRAD.:     1.851 HEAT:  65.82850
 CYCLE:   519 TIME:   0.498 TIME LEFT:  2.00D  GRAD.:     6.089 HEAT:  65.82781
 CYCLE:   520 TIME:   0.381 TIME LEFT:  2.00D  GRAD.:     1.969 HEAT:  65.82682
 CYCLE:   521 TIME:   0.463 TIME LEFT:  2.00D  GRAD.:     2.402 HEAT:  65.82659
 CYCLE:   522 TIME:   0.395 TIME LEFT:  2.00D  GRAD.:     1.725 HEAT:  65.82577
 CYCLE:   523 TIME:   0.307 TIME LEFT:  2.00D  GRAD.:     3.357 HEAT:  65.82495
 CYCLE:   524 TIME:   0.338 TIME LEFT:  2.00D  GRAD.:     4.037 HEAT:  65.82492
 CYCLE:   525 TIME:   0.439 TIME LEFT:  2.00D  GRAD.:     1.233 HEAT:  65.82455
 CYCLE:   526 TIME:   0.498 TIME LEFT:  2.00D  GRAD.:     1.019 HEAT:  65.82448
 CYCLE:   527 TIME:   0.441 TIME LEFT:  2.00D  GRAD.:     1.103 HEAT:  65.82417
 CYCLE:   528 TIME:   0.504 TIME LEFT:  2.00D  GRAD.:     2.185 HEAT:  65.82331
 CYCLE:   529 TIME:   0.438 TIME LEFT:  2.00D  GRAD.:     5.952 HEAT:  65.82378
 CYCLE:   530 TIME:   0.418 TIME LEFT:  2.00D  GRAD.:     1.414 HEAT:  65.82288
 CYCLE:   531 TIME:   0.393 TIME LEFT:  2.00D  GRAD.:     1.098 HEAT:  65.82272
 CYCLE:   532 TIME:   0.451 TIME LEFT:  2.00D  GRAD.:     1.084 HEAT:  65.82239
 CYCLE:   533 TIME:   0.318 TIME LEFT:  2.00D  GRAD.:     4.382 HEAT:  65.82171
 CYCLE:   534 TIME:   0.330 TIME LEFT:  2.00D  GRAD.:     2.821 HEAT:  65.82124
 CYCLE:   535 TIME:   0.314 TIME LEFT:  2.00D  GRAD.:     1.422 HEAT:  65.82095
 CYCLE:   536 TIME:   0.387 TIME LEFT:  2.00D  GRAD.:     1.095 HEAT:  65.82065
 CYCLE:   537 TIME:   0.477 TIME LEFT:  2.00D  GRAD.:     2.029 HEAT:  65.82029
 CYCLE:   538 TIME:   0.350 TIME LEFT:  2.00D  GRAD.:     2.484 HEAT:  65.82002
 CYCLE:   539 TIME:   0.318 TIME LEFT:  2.00D  GRAD.:     1.259 HEAT:  65.81974
 CYCLE:   540 TIME:   0.363 TIME LEFT:  2.00D  GRAD.:     1.303 HEAT:  65.81947
 CYCLE:   541 TIME:   0.295 TIME LEFT:  2.00D  GRAD.:     1.454 HEAT:  65.81920
 CYCLE:   542 TIME:   0.314 TIME LEFT:  2.00D  GRAD.:     2.708 HEAT:  65.81832
 CYCLE:   543 TIME:   0.492 TIME LEFT:  2.00D  GRAD.:     7.772 HEAT:  65.81898
 CYCLE:   544 TIME:   0.459 TIME LEFT:  2.00D  GRAD.:     1.287 HEAT:  65.81763
 CYCLE:   545 TIME:   0.357 TIME LEFT:  2.00D  GRAD.:     1.160 HEAT:  65.81751
 CYCLE:   546 TIME:   0.402 TIME LEFT:  2.00D  GRAD.:     1.729 HEAT:  65.81715
 CYCLE:   547 TIME:   0.338 TIME LEFT:  2.00D  GRAD.:     1.909 HEAT:  65.81678
 CYCLE:   548 TIME:   0.471 TIME LEFT:  2.00D  GRAD.:     2.157 HEAT:  65.81642
 CYCLE:   549 TIME:   0.408 TIME LEFT:  2.00D  GRAD.:     0.988 HEAT:  65.81617
 CYCLE:   550 TIME:   0.352 TIME LEFT:  2.00D  GRAD.:     1.147 HEAT:  65.81597
 CYCLE:   551 TIME:   0.410 TIME LEFT:  2.00D  GRAD.:     1.632 HEAT:  65.81576
 CYCLE:   552 TIME:   0.492 TIME LEFT:  2.00D  GRAD.:     2.592 HEAT:  65.81539
 CYCLE:   553 TIME:   0.363 TIME LEFT:  2.00D  GRAD.:     2.842 HEAT:  65.81506
 CYCLE:   554 TIME:   0.455 TIME LEFT:  2.00D  GRAD.:     1.704 HEAT:  65.81471
 CYCLE:   555 TIME:   0.299 TIME LEFT:  2.00D  GRAD.:     1.259 HEAT:  65.81435
 CYCLE:   556 TIME:   0.352 TIME LEFT:  2.00D  GRAD.:     1.607 HEAT:  65.81411
 CYCLE:   557 TIME:   0.316 TIME LEFT:  2.00D  GRAD.:     1.743 HEAT:  65.81381
 CYCLE:   558 TIME:   0.494 TIME LEFT:  2.00D  GRAD.:     1.381 HEAT:  65.81351
 CYCLE:   559 TIME:   0.389 TIME LEFT:  2.00D  GRAD.:     2.399 HEAT:  65.81321
 CYCLE:   560 TIME:   0.320 TIME LEFT:  2.00D  GRAD.:     1.433 HEAT:  65.81286
 CYCLE:   561 TIME:   0.393 TIME LEFT:  2.00D  GRAD.:     1.203 HEAT:  65.81256
 CYCLE:   562 TIME:   0.484 TIME LEFT:  2.00D  GRAD.:     1.989 HEAT:  65.81226
 CYCLE:   563 TIME:   0.369 TIME LEFT:  2.00D  GRAD.:     1.167 HEAT:  65.81199
 CYCLE:   564 TIME:   0.289 TIME LEFT:  2.00D  GRAD.:     1.089 HEAT:  65.81180
 CYCLE:   565 TIME:   0.297 TIME LEFT:  2.00D  GRAD.:     1.402 HEAT:  65.81146
 CYCLE:   566 TIME:   0.381 TIME LEFT:  2.00D  GRAD.:     3.175 HEAT:  65.81132
 CYCLE:   567 TIME:   0.320 TIME LEFT:  2.00D  GRAD.:     1.084 HEAT:  65.81104
 CYCLE:   568 TIME:   0.311 TIME LEFT:  2.00D  GRAD.:     1.984 HEAT:  65.81094
 CYCLE:   569 TIME:   0.287 TIME LEFT:  2.00D  GRAD.:     1.194 HEAT:  65.81075
 CYCLE:   570 TIME:   0.367 TIME LEFT:  2.00D  GRAD.:     1.003 HEAT:  65.81055
 CYCLE:   571 TIME:   0.301 TIME LEFT:  2.00D  GRAD.:     1.058 HEAT:  65.81041
 CYCLE:   572 TIME:   0.305 TIME LEFT:  2.00D  GRAD.:     1.315 HEAT:  65.81016
 CYCLE:   573 TIME:   0.297 TIME LEFT:  2.00D  GRAD.:     2.778 HEAT:  65.81006
 CYCLE:   574 TIME:   0.275 TIME LEFT:  2.00D  GRAD.:     1.142 HEAT:  65.80984
 CYCLE:   575 TIME:   0.311 TIME LEFT:  2.00D  GRAD.:     1.267 HEAT:  65.80977
 CYCLE:   576 TIME:   0.463 TIME LEFT:  2.00D  GRAD.:     1.095 HEAT:  65.80961
 CYCLE:   577 TIME:   0.301 TIME LEFT:  2.00D  GRAD.:     1.145 HEAT:  65.80938
 CYCLE:   578 TIME:   0.346 TIME LEFT:  2.00D  GRAD.:     1.420 HEAT:  65.80919
 CYCLE:   579 TIME:   0.361 TIME LEFT:  2.00D  GRAD.:     1.030 HEAT:  65.80901
 CYCLE:   580 TIME:   0.408 TIME LEFT:  2.00D  GRAD.:     1.001 HEAT:  65.80882
 CYCLE:   581 TIME:   0.334 TIME LEFT:  2.00D  GRAD.:     1.897 HEAT:  65.80868
 CYCLE:   582 TIME:   0.287 TIME LEFT:  2.00D  GRAD.:     0.822 HEAT:  65.80853
 CYCLE:   583 TIME:   0.311 TIME LEFT:  2.00D  GRAD.:     0.746 HEAT:  65.80841
 CYCLE:   584 TIME:   0.311 TIME LEFT:  2.00D  GRAD.:     1.165 HEAT:  65.80824
 CYCLE:   585 TIME:   0.312 TIME LEFT:  2.00D  GRAD.:     5.601 HEAT:  65.80852
 CYCLE:   586 TIME:   0.381 TIME LEFT:  2.00D  GRAD.:     1.278 HEAT:  65.80802
 CYCLE:   587 TIME:   0.307 TIME LEFT:  2.00D  GRAD.:     1.106 HEAT:  65.80810
 CYCLE:   588 TIME:   0.316 TIME LEFT:  2.00D  GRAD.:     1.291 HEAT:  65.80776
 CYCLE:   589 TIME:   0.354 TIME LEFT:  2.00D  GRAD.:     1.659 HEAT:  65.80754
 CYCLE:   590 TIME:   0.299 TIME LEFT:  2.00D  GRAD.:     1.587 HEAT:  65.80734
 CYCLE:   591 TIME:   0.287 TIME LEFT:  2.00D  GRAD.:     1.074 HEAT:  65.80718
 CYCLE:   592 TIME:   0.357 TIME LEFT:  2.00D  GRAD.:     1.562 HEAT:  65.80701
 CYCLE:   593 TIME:   0.322 TIME LEFT:  2.00D  GRAD.:     1.072 HEAT:  65.80686
 CYCLE:   594 TIME:   0.340 TIME LEFT:  2.00D  GRAD.:     1.643 HEAT:  65.80672
 CYCLE:   595 TIME:   0.297 TIME LEFT:  2.00D  GRAD.:     1.206 HEAT:  65.80658
 CYCLE:   596 TIME:   0.334 TIME LEFT:  2.00D  GRAD.:     0.834 HEAT:  65.80645
 CYCLE:   597 TIME:   0.289 TIME LEFT:  2.00D  GRAD.:     0.905 HEAT:  65.80629
 CYCLE:   598 TIME:   0.396 TIME LEFT:  2.00D  GRAD.:     1.848 HEAT:  65.80602
 CYCLE:   599 TIME:   0.338 TIME LEFT:  2.00D  GRAD.:     1.314 HEAT:  65.80577
 CYCLE:   600 TIME:   0.307 TIME LEFT:  2.00D  GRAD.:     0.890 HEAT:  65.80560
 CYCLE:   601 TIME:   0.305 TIME LEFT:  2.00D  GRAD.:     1.239 HEAT:  65.80543
 CYCLE:   602 TIME:   0.293 TIME LEFT:  2.00D  GRAD.:     0.926 HEAT:  65.80526
 CYCLE:   603 TIME:   0.377 TIME LEFT:  2.00D  GRAD.:     0.964 HEAT:  65.80512
 CYCLE:   604 TIME:   0.375 TIME LEFT:  2.00D  GRAD.:     2.800 HEAT:  65.80511
 CYCLE:   605 TIME:   0.281 TIME LEFT:  2.00D  GRAD.:     0.742 HEAT:  65.80491
 CYCLE:   606 TIME:   0.289 TIME LEFT:  2.00D  GRAD.:     0.627 HEAT:  65.80486
 CYCLE:   607 TIME:   0.328 TIME LEFT:  2.00D  GRAD.:     1.319 HEAT:  65.80475
 CYCLE:   608 TIME:   0.289 TIME LEFT:  2.00D  GRAD.:     2.494 HEAT:  65.80470
 CYCLE:   609 TIME:   0.379 TIME LEFT:  2.00D  GRAD.:     1.028 HEAT:  65.80458
 CYCLE:   610 TIME:   0.303 TIME LEFT:  2.00D  GRAD.:     0.739 HEAT:  65.80451
 CYCLE:   611 TIME:   0.283 TIME LEFT:  2.00D  GRAD.:     0.832 HEAT:  65.80444
 CYCLE:   612 TIME:   0.293 TIME LEFT:  2.00D  GRAD.:     0.951 HEAT:  65.80428
 CYCLE:   613 TIME:   0.303 TIME LEFT:  2.00D  GRAD.:     1.282 HEAT:  65.80403
 CYCLE:   614 TIME:   0.332 TIME LEFT:  2.00D  GRAD.:     2.820 HEAT:  65.80404
 CYCLE:   615 TIME:   0.279 TIME LEFT:  2.00D  GRAD.:     0.628 HEAT:  65.80385
 CYCLE:   616 TIME:   0.365 TIME LEFT:  2.00D  GRAD.:     0.534 HEAT:  65.80382
 CYCLE:   617 TIME:   0.340 TIME LEFT:  2.00D  GRAD.:     0.967 HEAT:  65.80373
 CYCLE:   618 TIME:   0.326 TIME LEFT:  2.00D  GRAD.:     1.411 HEAT:  65.80364
 CYCLE:   619 TIME:   0.334 TIME LEFT:  2.00D  GRAD.:     0.825 HEAT:  65.80353
 CYCLE:   620 TIME:   0.312 TIME LEFT:  2.00D  GRAD.:     0.689 HEAT:  65.80346
 CYCLE:   621 TIME:   0.287 TIME LEFT:  2.00D  GRAD.:     0.857 HEAT:  65.80338
 CYCLE:   622 TIME:   0.355 TIME LEFT:  2.00D  GRAD.:     0.948 HEAT:  65.80324
 CYCLE:   623 TIME:   0.291 TIME LEFT:  2.00D  GRAD.:     2.805 HEAT:  65.80335
 CYCLE:   624 TIME:   0.281 TIME LEFT:  2.00D  GRAD.:     0.469 HEAT:  65.80317
 CYCLE:   625 TIME:   0.354 TIME LEFT:  2.00D  GRAD.:     0.440 HEAT:  65.80316
 CYCLE:   626 TIME:   0.385 TIME LEFT:  2.00D  GRAD.:     1.560 HEAT:  65.80321
 CYCLE:   627 TIME:   0.312 TIME LEFT:  2.00D  GRAD.:     1.291 HEAT:  65.80311
 CYCLE:   628 TIME:   0.340 TIME LEFT:  2.00D  GRAD.:     0.675 HEAT:  65.80306
 CYCLE:   629 TIME:   0.305 TIME LEFT:  2.00D  GRAD.:     0.344 HEAT:  65.80302
 CYCLE:   630 TIME:   0.422 TIME LEFT:  2.00D  GRAD.:     1.344 HEAT:  65.80301
 CYCLE:   631 TIME:   0.307 TIME LEFT:  2.00D  GRAD.:     0.533 HEAT:  65.80296
 CYCLE:   632 TIME:   0.324 TIME LEFT:  2.00D  GRAD.:     0.294 HEAT:  65.80294
 CYCLE:   633 TIME:   0.281 TIME LEFT:  2.00D  GRAD.:     0.510 HEAT:  65.80293
 CYCLE:   634 TIME:   0.348 TIME LEFT:  2.00D  GRAD.:     0.644 HEAT:  65.80290
 CYCLE:   635 TIME:   0.338 TIME LEFT:  2.00D  GRAD.:     1.435 HEAT:  65.80289
 CYCLE:   636 TIME:   0.297 TIME LEFT:  2.00D  GRAD.:     0.370 HEAT:  65.80283
 CYCLE:   637 TIME:   0.332 TIME LEFT:  2.00D  GRAD.:     0.623 HEAT:  65.80282
 CYCLE:   638 TIME:   0.307 TIME LEFT:  2.00D  GRAD.:     0.418 HEAT:  65.80280
 CYCLE:   639 TIME:   0.291 TIME LEFT:  2.00D  GRAD.:     0.466 HEAT:  65.80276
 CYCLE:   640 TIME:   0.279 TIME LEFT:  2.00D  GRAD.:     0.623 HEAT:  65.80274
 CYCLE:   641 TIME:   0.287 TIME LEFT:  2.00D  GRAD.:     0.595 HEAT:  65.80270
 CYCLE:   642 TIME:   0.301 TIME LEFT:  2.00D  GRAD.:     0.858 HEAT:  65.80265
 CYCLE:   643 TIME:   0.281 TIME LEFT:  2.00D  GRAD.:     0.868 HEAT:  65.80263
 CYCLE:   644 TIME:   0.303 TIME LEFT:  2.00D  GRAD.:     0.372 HEAT:  65.80260
 CYCLE:   645 TIME:   0.270 TIME LEFT:  2.00D  GRAD.:     0.330 HEAT:  65.80258
 CYCLE:   646 TIME:   0.301 TIME LEFT:  2.00D  GRAD.:     0.826 HEAT:  65.80257
 CYCLE:   647 TIME:   0.326 TIME LEFT:  2.00D  GRAD.:     0.562 HEAT:  65.80252
 CYCLE:   648 TIME:   0.293 TIME LEFT:  2.00D  GRAD.:     0.715 HEAT:  65.80247
 CYCLE:   649 TIME:   0.426 TIME LEFT:  2.00D  GRAD.:     0.463 HEAT:  65.80244
 CYCLE:   650 TIME:   0.416 TIME LEFT:  2.00D  GRAD.:     0.473 HEAT:  65.80242
 CYCLE:   651 TIME:   0.426 TIME LEFT:  2.00D  GRAD.:     0.453 HEAT:  65.80237
 CYCLE:   652 TIME:   0.301 TIME LEFT:  2.00D  GRAD.:     1.278 HEAT:  65.80234
 CYCLE:   653 TIME:   0.275 TIME LEFT:  2.00D  GRAD.:     0.493 HEAT:  65.80229
 CYCLE:   654 TIME:   0.336 TIME LEFT:  2.00D  GRAD.:     0.378 HEAT:  65.80226
 CYCLE:   655 TIME:   0.287 TIME LEFT:  2.00D  GRAD.:     0.521 HEAT:  65.80223
 CYCLE:   656 TIME:   0.301 TIME LEFT:  2.00D  GRAD.:     1.327 HEAT:  65.80221
 CYCLE:   657 TIME:   0.355 TIME LEFT:  2.00D  GRAD.:     0.495 HEAT:  65.80216
 CYCLE:   658 TIME:   0.307 TIME LEFT:  2.00D  GRAD.:     0.604 HEAT:  65.80213
 CYCLE:   659 TIME:   0.279 TIME LEFT:  2.00D  GRAD.:     0.474 HEAT:  65.80211
 CYCLE:   660 TIME:   0.342 TIME LEFT:  2.00D  GRAD.:     0.607 HEAT:  65.80208
 CYCLE:   661 TIME:   0.396 TIME LEFT:  2.00D  GRAD.:     0.834 HEAT:  65.80201
 CYCLE:   662 TIME:   0.285 TIME LEFT:  2.00D  GRAD.:     0.786 HEAT:  65.80198
 CYCLE:   663 TIME:   0.293 TIME LEFT:  2.00D  GRAD.:     0.529 HEAT:  65.80196
 CYCLE:   664 TIME:   0.283 TIME LEFT:  2.00D  GRAD.:     0.415 HEAT:  65.80193
 CYCLE:   665 TIME:   0.379 TIME LEFT:  2.00D  GRAD.:     0.953 HEAT:  65.80189
 CYCLE:   666 TIME:   0.289 TIME LEFT:  2.00D  GRAD.:     2.329 HEAT:  65.80191
 CYCLE:   667 TIME:   0.289 TIME LEFT:  2.00D  GRAD.:     0.653 HEAT:  65.80179
 CYCLE:   668 TIME:   0.338 TIME LEFT:  2.00D  GRAD.:     0.609 HEAT:  65.80175
 CYCLE:   669 TIME:   0.301 TIME LEFT:  2.00D  GRAD.:     0.565 HEAT:  65.80170
 CYCLE:   670 TIME:   0.355 TIME LEFT:  2.00D  GRAD.:     0.651 HEAT:  65.80165
 CYCLE:   671 TIME:   0.293 TIME LEFT:  2.00D  GRAD.:     2.108 HEAT:  65.80166
 CYCLE:   672 TIME:   0.285 TIME LEFT:  2.00D  GRAD.:     0.582 HEAT:  65.80158
 CYCLE:   673 TIME:   0.279 TIME LEFT:  2.00D  GRAD.:     0.389 HEAT:  65.80156
 CYCLE:   674 TIME:   0.281 TIME LEFT:  2.00D  GRAD.:     0.576 HEAT:  65.80153
 CYCLE:   675 TIME:   0.293 TIME LEFT:  2.00D  GRAD.:     0.583 HEAT:  65.80149
 CYCLE:   676 TIME:   0.305 TIME LEFT:  2.00D  GRAD.:     1.501 HEAT:  65.80146
 CYCLE:   677 TIME:   0.287 TIME LEFT:  2.00D  GRAD.:     0.623 HEAT:  65.80139
 CYCLE:   678 TIME:   0.373 TIME LEFT:  2.00D  GRAD.:     0.451 HEAT:  65.80137
 CYCLE:   679 TIME:   0.287 TIME LEFT:  2.00D  GRAD.:     0.389 HEAT:  65.80133
 CYCLE:   680 TIME:   0.299 TIME LEFT:  2.00D  GRAD.:     0.466 HEAT:  65.80126
 CYCLE:   681 TIME:   0.359 TIME LEFT:  2.00D  GRAD.:     0.586 HEAT:  65.80119
 CYCLE:   682 TIME:   0.305 TIME LEFT:  2.00D  GRAD.:     1.953 HEAT:  65.80119
 CYCLE:   683 TIME:   0.229 TIME LEFT:  2.00D  GRAD.:     0.625 HEAT:  65.80110
 CYCLE:   684 TIME:   0.209 TIME LEFT:  2.00D  GRAD.:     0.596 HEAT:  65.80107
 CYCLE:   685 TIME:   0.203 TIME LEFT:  2.00D  GRAD.:     1.021 HEAT:  65.80104
 CYCLE:   686 TIME:   0.287 TIME LEFT:  2.00D  GRAD.:     0.570 HEAT:  65.80100
 CYCLE:   687 TIME:   0.256 TIME LEFT:  2.00D  GRAD.:     0.776 HEAT:  65.80095
 CYCLE:   688 TIME:   0.209 TIME LEFT:  2.00D  GRAD.:     0.607 HEAT:  65.80090
 CYCLE:   689 TIME:   0.230 TIME LEFT:  2.00D  GRAD.:     0.736 HEAT:  65.80085
 CYCLE:   690 TIME:   0.268 TIME LEFT:  2.00D  GRAD.:     2.385 HEAT:  65.80083
 CYCLE:   691 TIME:   0.236 TIME LEFT:  2.00D  GRAD.:     0.845 HEAT:  65.80068
 CYCLE:   692 TIME:   0.217 TIME LEFT:  2.00D  GRAD.:     0.371 HEAT:  65.80064
 CYCLE:   693 TIME:   0.223 TIME LEFT:  2.00D  GRAD.:     0.730 HEAT:  65.80062
 CYCLE:   694 TIME:   0.211 TIME LEFT:  2.00D  GRAD.:     1.137 HEAT:  65.80056
 CYCLE:   695 TIME:   0.197 TIME LEFT:  2.00D  GRAD.:     0.448 HEAT:  65.80052
 CYCLE:   696 TIME:   0.217 TIME LEFT:  2.00D  GRAD.:     0.583 HEAT:  65.80047
 CYCLE:   697 TIME:   0.209 TIME LEFT:  2.00D  GRAD.:     0.438 HEAT:  65.80042
 CYCLE:   698 TIME:   0.203 TIME LEFT:  2.00D  GRAD.:     0.369 HEAT:  65.80037
 CYCLE:   699 TIME:   0.215 TIME LEFT:  2.00D  GRAD.:     0.933 HEAT:  65.80035
 CYCLE:   700 TIME:   0.211 TIME LEFT:  2.00D  GRAD.:     0.412 HEAT:  65.80032
 CYCLE:   701 TIME:   0.221 TIME LEFT:  2.00D  GRAD.:     0.374 HEAT:  65.80030
 CYCLE:   702 TIME:   0.219 TIME LEFT:  2.00D  GRAD.:     0.529 HEAT:  65.80027
 CYCLE:   703 TIME:   0.195 TIME LEFT:  2.00D  GRAD.:     1.274 HEAT:  65.80028
 CYCLE:   704 TIME:   0.195 TIME LEFT:  2.00D  GRAD.:     0.440 HEAT:  65.80024
 CYCLE:   705 TIME:   0.268 TIME LEFT:  2.00D  GRAD.:     0.353 HEAT:  65.80022
 CYCLE:   706 TIME:   0.240 TIME LEFT:  2.00D  GRAD.:     0.308 HEAT:  65.80019
 CYCLE:   707 TIME:   0.248 TIME LEFT:  2.00D  GRAD.:     1.346 HEAT:  65.80021
 CYCLE:   708 TIME:   0.211 TIME LEFT:  2.00D  GRAD.:     3.489 HEAT:  65.80038
 CYCLE:   709 TIME:   0.229 TIME LEFT:  2.00D  GRAD.:     5.498 HEAT:  65.80080
 CYCLE:   710 TIME:   0.191 TIME LEFT:  2.00D  GRAD.:     1.242 HEAT:  65.80017
 CYCLE:   711 TIME:   0.207 TIME LEFT:  2.00D  GRAD.:     1.231 HEAT:  65.80031
 CYCLE:   712 TIME:   0.236 TIME LEFT:  2.00D  GRAD.:     0.328 HEAT:  65.80009
 CYCLE:   713 TIME:   0.271 TIME LEFT:  2.00D  GRAD.:     0.626 HEAT:  65.80008
 CYCLE:   714 TIME:   0.213 TIME LEFT:  2.00D  GRAD.:     0.388 HEAT:  65.80007
 CYCLE:   715 TIME:   0.191 TIME LEFT:  2.00D  GRAD.:     0.333 HEAT:  65.80005
 CYCLE:   716 TIME:   0.201 TIME LEFT:  2.00D  GRAD.:     0.879 HEAT:  65.80001
 CYCLE:   717 TIME:   0.203 TIME LEFT:  2.00D  GRAD.:     0.704 HEAT:  65.79998
 CYCLE:   718 TIME:   0.215 TIME LEFT:  2.00D  GRAD.:     0.429 HEAT:  65.79995
 CYCLE:   719 TIME:   0.205 TIME LEFT:  2.00D  GRAD.:     0.378 HEAT:  65.79994
 CYCLE:   720 TIME:   0.229 TIME LEFT:  2.00D  GRAD.:     0.504 HEAT:  65.79992
 CYCLE:   721 TIME:   0.223 TIME LEFT:  2.00D  GRAD.:     0.448 HEAT:  65.79989
 CYCLE:   722 TIME:   0.211 TIME LEFT:  2.00D  GRAD.:     0.275 HEAT:  65.79986
 CYCLE:   723 TIME:   0.213 TIME LEFT:  2.00D  GRAD.:     0.362 HEAT:  65.79984
 CYCLE:   724 TIME:   0.209 TIME LEFT:  2.00D  GRAD.:     0.377 HEAT:  65.79983
 CYCLE:   725 TIME:   0.207 TIME LEFT:  2.00D  GRAD.:     0.776 HEAT:  65.79982
 CYCLE:   726 TIME:   0.203 TIME LEFT:  2.00D  GRAD.:     0.601 HEAT:  65.79979
 CYCLE:   727 TIME:   0.199 TIME LEFT:  2.00D  GRAD.:     0.342 HEAT:  65.79977
 CYCLE:   728 TIME:   0.199 TIME LEFT:  2.00D  GRAD.:     0.522 HEAT:  65.79976
 CYCLE:   729 TIME:   0.215 TIME LEFT:  2.00D  GRAD.:     0.291 HEAT:  65.79974
 CYCLE:   730 TIME:   0.201 TIME LEFT:  2.00D  GRAD.:     0.573 HEAT:  65.79972
 CYCLE:   731 TIME:   0.217 TIME LEFT:  2.00D  GRAD.:     0.379 HEAT:  65.79970
 CYCLE:   732 TIME:   0.199 TIME LEFT:  2.00D  GRAD.:     0.765 HEAT:  65.79970
 CYCLE:   733 TIME:   0.197 TIME LEFT:  2.00D  GRAD.:     0.642 HEAT:  65.79968
 CYCLE:   734 TIME:   0.258 TIME LEFT:  2.00D  GRAD.:     0.243 HEAT:  65.79967
 CYCLE:   735 TIME:   0.268 TIME LEFT:  2.00D  GRAD.:     0.190 HEAT:  65.79967
 CYCLE:   736 TIME:   0.193 TIME LEFT:  2.00D  GRAD.:     0.226 HEAT:  65.79966
 CYCLE:   737 TIME:   0.250 TIME LEFT:  2.00D  GRAD.:     0.347 HEAT:  65.79964
 CYCLE:   738 TIME:   0.285 TIME LEFT:  2.00D  GRAD.:     0.632 HEAT:  65.79965
 CYCLE:   739 TIME:   0.285 TIME LEFT:  2.00D  GRAD.:     4.605 HEAT:  65.80014
 CYCLE:   740 TIME:   0.266 TIME LEFT:  2.00D  GRAD.:     1.976 HEAT:  65.79973
 CYCLE:   741 TIME:   0.252 TIME LEFT:  2.00D  GRAD.:     0.441 HEAT:  65.79964
 CYCLE:   742 TIME:   0.234 TIME LEFT:  2.00D  GRAD.:     0.579 HEAT:  65.79962
 CYCLE:   743 TIME:   0.207 TIME LEFT:  2.00D  GRAD.:     0.170 HEAT:  65.79961
 CYCLE:   744 TIME:   0.213 TIME LEFT:  2.00D  GRAD.:     0.242 HEAT:  65.79961
 CYCLE:   745 TIME:   0.203 TIME LEFT:  2.00D  GRAD.:     0.457 HEAT:  65.79960
 CYCLE:   746 TIME:   0.199 TIME LEFT:  2.00D  GRAD.:     0.440 HEAT:  65.79959
 CYCLE:   747 TIME:   0.217 TIME LEFT:  2.00D  GRAD.:     0.408 HEAT:  65.79957
 CYCLE:   748 TIME:   0.213 TIME LEFT:  2.00D  GRAD.:     3.149 HEAT:  65.79975
 CYCLE:   749 TIME:   0.209 TIME LEFT:  2.00D  GRAD.:     0.289 HEAT:  65.79955
 CYCLE:   750 TIME:   0.221 TIME LEFT:  2.00D  GRAD.:     0.286 HEAT:  65.79955
 CYCLE:   751 TIME:   0.215 TIME LEFT:  2.00D  GRAD.:     0.447 HEAT:  65.79955
 CYCLE:   752 TIME:   0.197 TIME LEFT:  2.00D  GRAD.:     0.673 HEAT:  65.79953
 CYCLE:   753 TIME:   0.191 TIME LEFT:  2.00D  GRAD.:     0.206 HEAT:  65.79952
 CYCLE:   754 TIME:   0.189 TIME LEFT:  2.00D  GRAD.:     0.187 HEAT:  65.79952
 CYCLE:   755 TIME:   0.223 TIME LEFT:  2.00D  GRAD.:     0.608 HEAT:  65.79953
 CYCLE:   756 TIME:   0.201 TIME LEFT:  2.00D  GRAD.:     0.805 HEAT:  65.79952
 CYCLE:   757 TIME:   0.195 TIME LEFT:  2.00D  GRAD.:     0.360 HEAT:  65.79949
 CYCLE:   758 TIME:   0.189 TIME LEFT:  2.00D  GRAD.:     0.190 HEAT:  65.79948
 CYCLE:   759 TIME:   0.203 TIME LEFT:  2.00D  GRAD.:     0.605 HEAT:  65.79949
 CYCLE:   760 TIME:   0.213 TIME LEFT:  2.00D  GRAD.:     0.272 HEAT:  65.79947
 CYCLE:   761 TIME:   0.219 TIME LEFT:  2.00D  GRAD.:     0.203 HEAT:  65.79947
 CYCLE:   762 TIME:   0.201 TIME LEFT:  2.00D  GRAD.:     0.531 HEAT:  65.79947
 CYCLE:   763 TIME:   0.195 TIME LEFT:  2.00D  GRAD.:     0.226 HEAT:  65.79946
 CYCLE:   764 TIME:   0.193 TIME LEFT:  2.00D  GRAD.:     0.161 HEAT:  65.79946
 CYCLE:   765 TIME:   0.230 TIME LEFT:  2.00D  GRAD.:     1.086 HEAT:  65.79950
 CYCLE:   766 TIME:   0.229 TIME LEFT:  2.00D  GRAD.:     0.256 HEAT:  65.79945
 CYCLE:   767 TIME:   0.230 TIME LEFT:  2.00D  GRAD.:     0.248 HEAT:  65.79945
 CYCLE:   768 TIME:   0.229 TIME LEFT:  2.00D  GRAD.:     1.273 HEAT:  65.79946
 CYCLE:   769 TIME:   0.195 TIME LEFT:  2.00D  GRAD.:     0.272 HEAT:  65.79943
 CYCLE:   770 TIME:   0.275 TIME LEFT:  2.00D  GRAD.:     0.175 HEAT:  65.79943
 CYCLE:   771 TIME:   0.248 TIME LEFT:  2.00D  GRAD.:     0.196 HEAT:  65.79943
 CYCLE:   772 TIME:   0.215 TIME LEFT:  2.00D  GRAD.:     0.284 HEAT:  65.79941
 CYCLE:   773 TIME:   0.213 TIME LEFT:  2.00D  GRAD.:     0.868 HEAT:  65.79942
 CYCLE:   774 TIME:   0.238 TIME LEFT:  2.00D  GRAD.:     0.164 HEAT:  65.79940
 CYCLE:   775 TIME:   0.254 TIME LEFT:  2.00D  GRAD.:     0.156 HEAT:  65.79940
 CYCLE:   776 TIME:   0.232 TIME LEFT:  2.00D  GRAD.:     0.381 HEAT:  65.79940
 CYCLE:   777 TIME:   0.268 TIME LEFT:  2.00D  GRAD.:     0.152 HEAT:  65.79939
 CYCLE:   778 TIME:   0.248 TIME LEFT:  2.00D  GRAD.:     0.219 HEAT:  65.79939
 CYCLE:   779 TIME:   0.201 TIME LEFT:  2.00D  GRAD.:     0.214 HEAT:  65.79939
 CYCLE:   780 TIME:   0.191 TIME LEFT:  2.00D  GRAD.:     0.146 HEAT:  65.79939
 CYCLE:   781 TIME:   0.209 TIME LEFT:  2.00D  GRAD.:     0.124 HEAT:  65.79938
 CYCLE:   782 TIME:   0.189 TIME LEFT:  2.00D  GRAD.:     0.169 HEAT:  65.79938
 CYCLE:   783 TIME:   0.195 TIME LEFT:  2.00D  GRAD.:     0.276 HEAT:  65.79937
 CYCLE:   784 TIME:   0.191 TIME LEFT:  2.00D  GRAD.:     0.143 HEAT:  65.79937
 CYCLE:   785 TIME:   0.182 TIME LEFT:  2.00D  GRAD.:     0.301 HEAT:  65.79936
 CYCLE:   786 TIME:   0.186 TIME LEFT:  2.00D  GRAD.:     0.172 HEAT:  65.79936
 CYCLE:   787 TIME:   0.184 TIME LEFT:  2.00D  GRAD.:     0.220 HEAT:  65.79936
 CYCLE:   788 TIME:   0.180 TIME LEFT:  2.00D  GRAD.:     0.260 HEAT:  65.79935
 CYCLE:   789 TIME:   0.193 TIME LEFT:  2.00D  GRAD.:     0.146 HEAT:  65.79935
 CYCLE:   790 TIME:   0.209 TIME LEFT:  2.00D  GRAD.:     0.139 HEAT:  65.79935
 CYCLE:   791 TIME:   0.178 TIME LEFT:  2.00D  GRAD.:     0.154 HEAT:  65.79934
 CYCLE:   792 TIME:   0.193 TIME LEFT:  2.00D  GRAD.:     0.172 HEAT:  65.79934
[...]
   42          C          -0.227941        4.2279     1.20727     3.02067
   43          C          -0.142420        4.1424     1.18350     2.95892
   44          C          -0.020429        4.0204     1.18520     2.83523
   45          C          -0.449587        4.4496     1.21893     3.23066
   46          S           0.578629        5.4214     1.88380     3.53757
   47          C           0.158560        3.8414     1.17081     2.67063
   48          C          -0.171651        4.1717     1.14088     3.03077
   49          C           0.407246        3.5928     1.17948     2.41327
   51          O          -0.312120        6.3121     1.83999     4.47213
   54          H           0.130286        0.8697     0.86971
   55          H           0.057791        0.9422     0.94221
   56          H           0.055362        0.9446     0.94464
   57          H           0.057660        0.9423     0.94234
   58          H           0.059257        0.9407     0.94074
   59          H           0.059936        0.9401     0.94006
   60          H           0.063212        0.9368     0.93679
   61          H           0.062171        0.9378     0.93783
   62          H           0.060957        0.9390     0.93904
   63          H           0.064011        0.9360     0.93599
   64          H           0.069472        0.9305     0.93053
   65          H           0.063720        0.9363     0.93628
   66          H           0.069330        0.9307     0.93067
   67          H           0.079183        0.9208     0.92082
   68          H           0.130180        0.8698     0.86982
   69          H           0.111447        0.8886     0.88855
   70          H           0.126039        0.8740     0.87396
   71          H           0.116473        0.8835     0.88353
   72          H           0.108158        0.8918     0.89184
   73          H           0.108608        0.8914     0.89139
   74          H           0.101730        0.8983     0.89827
   75          H           0.123825        0.8762     0.87618
   76          H           0.128067        0.8719     0.87193
   77          H           0.108800        0.8912     0.89120
   78          H           0.111129        0.8889     0.88887
   79          H           0.109067        0.8909     0.89093
   80          H           0.128066        0.8719     0.87193
   81          H           0.135897        0.8641     0.86410
   82          H           0.076543        0.9235     0.92346
   83          H           0.078023        0.9220     0.92198
   84          H           0.065522        0.9345     0.93448
   85          H           0.068066        0.9319     0.93193
   86          H           0.063768        0.9362     0.93623
   87          H           0.062086        0.9379     0.93791
   88          H           0.062177        0.9378     0.93782
   89          H           0.063581        0.9364     0.93642
   90          H           0.060452        0.9395     0.93955
   91          H           0.059597        0.9404     0.94040
   92          H           0.058267        0.9417     0.94173
   93          H           0.056548        0.9435     0.94345
   94          H           0.057718        0.9423     0.94228
   95          H           0.140063        0.8599     0.85994
   96          H           0.125498        0.8745     0.87450
   97          H           0.244346        0.7557     0.75565
 DIPOLE           X         Y         Z       TOTAL
 POINT-CHG.     1.730    -1.911    -3.527     4.369
 HYBRID         1.402    -0.239     2.829     3.166
 SUM            3.132    -2.150    -0.698     3.863


          ATOMIC ORBITAL ELECTRON POPULATIONS

     Atom    s        px        py        pz   
    1  C   1.15574   0.96508   1.02730   1.02898
    2  C   1.16681   0.95233   0.96741   1.02585
    3  C   1.17067   0.95233   0.96954   1.03000
    4  C   1.17089   0.95813   0.96683   1.02936
    5  C   1.17073   0.94236   0.97096   1.03468
    6  C   1.15559   0.96047   0.92986   1.03880
    7  C   1.17647   0.98583   0.96211   0.92132
    8  C   1.18205   1.00364   0.92135   0.98916
    9  C   1.20059   1.09792   0.97094   1.00040
   10  S   1.88722   1.58229   1.05394   1.03259
   11  C   1.21125   1.08521   1.00051   0.99114
   12  C   1.14851   0.99650   0.99004   0.90641
   13  C   1.17671   0.97581   0.98068   0.91642
   14  C   1.17178   1.01536   0.99308   0.98943
   15  C   1.15115   0.95147   0.93066   0.83837
   16  C   1.15885   1.00156   1.00139   0.93218
   17  C   1.16987   0.95550   0.94488   0.95971
   18  C   1.15881   1.00624   1.00225   0.92480
   19  C   1.16946   0.94120   0.94157   0.98292
   20  C   1.17824   1.01913   1.01031   0.95017
   21  C   1.17649   0.96440   0.97061   0.94181
   22  C   1.17196   1.00665   0.99161   0.99892
   23  C   1.15118   0.89669   0.90639   0.92042
   24  N   1.47956   1.36891   1.35788   1.05432
   25  C   1.14188   0.92449   0.99698   0.80233
   26  C   1.18220   0.99583   1.02592   0.93939
   27  C   1.17796   0.96099   0.97924   0.95852
   28  C   1.17972   0.94060   1.01064   0.99041
   29  C   1.17800   0.98902   0.97819   0.93122
   30  C   1.18222   0.95331   1.03011   0.97794
   31  C   1.20109   0.98980   1.00397   1.03097
   32  S   1.88771   1.04914   1.23244   1.37625
   33  C   1.19903   0.98599   1.04865   1.07359
   34  C   1.17696   0.91893   0.95761   0.95326
   35  C   1.18247   0.98761   0.96054   0.99291
   36  C   1.15653   0.96165   0.96809   1.00770
   37  C   1.17080   0.96551   0.98257   0.99972
   38  C   1.17095   0.97082   0.98109   1.00277
   39  C   1.17070   0.96966   0.98259   0.99977
   40  C   1.16678   0.96893   0.97811   0.99856
   41  C   1.15572   0.99759   1.01660   1.00754
   42  C   1.20727   1.02337   1.02234   0.97497
   43  C   1.18350   1.01505   1.00792   0.93595
   44  C   1.18520   0.91496   0.93826   0.98200
   45  C   1.21893   1.05906   1.12359   1.04801
   46  S   1.88380   1.18065   1.34396   1.01296
   47  C   1.17081   0.85778   0.84483   0.96803
   48  C   1.14088   1.01575   1.08419   0.93083
   49  C   1.17948   0.79917   0.78688   0.82722
   50  O   1.91042   1.75612   1.51503   1.20048
   51  O   1.83999   1.37409   1.62016   1.47788
   52  C   1.19511   0.92237   0.92071   0.91334
   53  N   1.84842   1.08431   1.10216   1.11127
   54  H   0.86971
   55  H   0.94221
   56  H   0.94464
   57  H   0.94234
   58  H   0.94074
   59  H   0.94006
   60  H   0.93679
   61  H   0.93783
   62  H   0.93904
   63  H   0.93599
   64  H   0.93053
   65  H   0.93628
   66  H   0.93067
   67  H   0.92082
   68  H   0.86982
   69  H   0.88855
   70  H   0.87396
   71  H   0.88353
   72  H   0.89184
   73  H   0.89139
   74  H   0.89827
   75  H   0.87618
   76  H   0.87193
   77  H   0.89120
   78  H   0.88887
   79  H   0.89093
   80  H   0.87193
   81  H   0.86410
   82  H   0.92346
   83  H   0.92198
   84  H   0.93448
   85  H   0.93193
   86  H   0.93623
   87  H   0.93791
   88  H   0.93782
   89  H   0.93642
   90  H   0.93955
   91  H   0.94040
   92  H   0.94173
   93  H   0.94345
   94  H   0.94228
   95  H   0.85994
   96  H   0.87450
   97  H   0.75565
 ******************** TDHF POLARIZABILITIES ********************



          MOLECULAR WEIGHT =  753.05



          ROTATIONAL CONSTANTS IN CM(-1)

          A =    0.00172458   B =    0.00051629   C =    0.00045859



           PRINCIPAL MOMENTS OF INERTIA IN UNITS OF 10**(-40)*GRAM-CM**2

          A =    16231.6601   B =    54218.8971   C =    61041.6032


 ROTATION MATRIX FOR ORIENTATION OF MOLECULE:

         0.220770    0.974953   -0.026951
        -0.653786    0.127426   -0.745873
        -0.723757    0.182286    0.665543


          CARTESIAN COORDINATES 

    NO.       ATOM         X         Y         Z

     1         C        3.0600   -6.9679    4.8279
     2         C        3.3956   -5.4859    4.7870
     3         C        2.5818   -4.7765    3.7076
     4         C        2.9182   -3.2877    3.6657
     5         C        2.1046   -2.5815    2.5839
     6         C        2.4416   -1.0903    2.5454
     7         C        1.6415   -0.4195    1.4938
     8         C        0.2187   -0.2594    1.6109
     9         C       -0.3151    0.3710    0.5252
    10         S        0.8777    0.7781   -0.6407
    11         C        2.1196    0.0977    0.3265
    12         C        3.4991    0.1246   -0.1076
    13         C        3.8941   -0.6490   -1.2090
    14         C        5.2063   -0.6571   -1.6528
    15         C        6.1208    0.1279   -0.9557
    16         C        5.7254    0.9274    0.1517
    17         C        4.4093    0.9216    0.5801
    18         C        6.8973    1.6297    0.6106
    19         C        7.1103    2.5300    1.6418
    20         C        8.3927    3.0234    1.8312
    21         C        9.4517    2.6188    1.0119
    22         C        9.2677    1.7190   -0.0266
    23         C        7.9769    1.2385   -0.2267
    24         N        7.4971    0.3200   -1.1827
    25         C        8.2653   -0.2988   -2.1976
    26         C        9.0774    0.4855   -3.0214
    27         C        9.8322   -0.1334   -4.0088
    28         C        9.7703   -1.5107   -4.1844
    29         C        8.9543   -2.2807   -3.3641
    30         C        8.2012   -1.6853   -2.3610
    31         C       -1.6915    0.6881    0.3128
    32         S       -2.9139   -0.4937    0.5432
    33         C       -4.1406    0.6242    0.1060
    34         C       -3.6327    1.8556   -0.2001
    35         C       -2.2024    1.8900   -0.0823
    36         C       -4.4066    3.0448   -0.6269
    37         C       -4.3500    4.1227    0.4567
    38         C       -5.1469    5.3534    0.0309
    39         C       -5.0882    6.4331    1.1089
    40         C       -5.8869    7.6639    0.6871
    41         C       -5.8268    8.7386    1.7603
    42         C       -5.5194    0.2519    0.1063
    43         C       -6.5185    0.9004    0.7889
    44         C       -7.7830    0.2882    0.5722
    45         C       -7.6968   -0.8043   -0.2665
    46         S       -6.0991   -1.0716   -0.7875
    47         C       -8.8406   -1.5831   -0.6278
    48         C       -8.8353   -2.7000   -1.3867
    49         C      -10.1051   -3.3819   -1.6659
    50         O      -11.2160   -3.0442   -1.2804
    51         O       -9.9774   -4.4865   -2.4287
    52         C       -7.6649   -3.2717   -1.9409
    53         N       -6.7260   -3.7613   -2.4068
    54         H       -9.8022   -1.2118   -0.2336
    55         H        3.2756   -7.4708    3.8742
    56         H        3.6370   -7.4970    5.6002
    57         H        1.9982   -7.1492    5.0488
    58         H        3.2111   -5.0246    5.7802
    59         H        4.4830   -5.3450    4.6104
    60         H        2.7681   -5.2432    2.7173
    61         H        1.4957   -4.9234    3.8872
    62         H        2.7307   -2.8215    4.6561
    63         H        4.0049   -3.1427    3.4880
    64         H        2.2960   -3.0397    1.5908
    65         H        1.0178   -2.7286    2.7573
    66         H        2.2403   -0.6130    3.5290
    67         H        3.5292   -0.9391    2.3759
    68         H       -0.3412   -0.5995    2.4789
    69         H        3.1495   -1.2617   -1.7276
    70         H        5.5035   -1.2471   -2.5223
    71         H        4.1003    1.5321    1.4325
    72         H        6.2821    2.8365    2.2853
    73         H        8.5836    3.7378    2.6367
    74         H       10.4524    3.0217    1.1978
    75         H       10.1037    1.3938   -0.6490
    76         H        9.1122    1.5733   -2.9042
    77         H       10.4743    0.4712   -4.6568
    78         H       10.3642   -1.9890   -4.9685
    79         H        8.9080   -3.3653   -3.5033
    80         H        7.5792   -2.3003   -1.7028
    81         H       -1.6162    2.7825   -0.2889
    82         H       -3.9956    3.4282   -1.5864
    83         H       -5.4588    2.7771   -0.8616
    84         H       -4.7372    3.7204    1.4166
    85         H       -3.2964    4.3983    0.6734
    86         H       -4.7610    5.7484   -0.9327
    87         H       -6.2015    5.0770   -0.1812
    88         H       -5.4716    6.0386    2.0736
    89         H       -4.0343    6.7131    1.3194
    90         H       -5.5059    8.0639   -0.2764
    91         H       -6.9429    7.3904    0.4786
    92         H       -4.7979    9.0711    1.9604
    93         H       -6.3971    9.6344    1.4747
    94         H       -6.2407    8.3944    2.7191
    95         H       -6.3725    1.7703    1.4251
    96         H       -8.7017    0.6528    1.0284
    97         H      -10.8378   -4.9016   -2.5861


 ENERGY OF "REORIENTED" SYSTEM WITHOUT FIELD:       65.7991840530


  NFREQ=  3  IWFLB=  0  IBET=  1  IGAM=  1
  ATOL= 0.10000D-02  BTOL= 0.10000D-02    MAXITU=  500    MAXITA=  150


 *****************************************************************
 CALCULATION OF STATIC FIELD QUANTITIES
 *****************************************************************

 +++++ ALPHA AT       0.00000 EV.

                           COMPONENTS OF ALPHA

                     *X           *Y           *Z
           *=X:     759.9480      74.0047     -36.6764
           *=Y:      74.0256     465.0889      97.9706
           *=Z:     -36.6743      97.9726     382.4071

  ISOTROPIC AVERAGE ALPHA =     535.81466 A.U. =     79.39954 ANG.**3

 +++++ BETA (SECOND HARMONIC GENERATION) AT       0.00000 EV.

                              COMPONENTS OF BETA
            *XX         *XY         *YY         *XZ         *YZ         *ZZ
   *=X  5481.02592  1769.21568   625.03431   591.61802    14.90794  -269.82759
   *=Y  1769.48718   625.19184   447.58979    15.04023   131.14560    32.98233
   *=Z   591.58890    14.99753   131.18021  -269.71844    33.02376   151.93975


 AVERAGE BETAX(SHG) VALUE AT   0.00000 EV =       3501.8463 a.u. =  0.302539E-28 ESU
 AVERAGE BETAY(SHG) VALUE AT   0.00000 EV =       1349.9436 a.u. =  0.116627E-28 ESU
 AVERAGE BETAZ(SHG) VALUE AT   0.00000 EV =        524.8231 a.u. =  0.453417E-29 ESU



 AVERAGE BETA (SHG) VALUE AT   0.00000 EV =       3789.5533 a.u. =  0.327395E-28 ESU
   (1 a.u. = 8.639418X10-33 esu)



 +++++ ALPHA AT       0.00000 EV.

                           COMPONENTS OF ALPHA

                     *X           *Y           *Z
           *=X:     759.9480      74.0047     -36.6764
           *=Y:      74.0256     465.0889      97.9706
           *=Z:     -36.6743      97.9726     382.4071

  ISOTROPIC AVERAGE ALPHA =     535.81466 A.U. =     79.39954 ANG.**3


 GAMMA (THIRD HARMONIC GENERATION) AT    0.00000 EV.


 GAMMA(X,X,X,X) =       1845099.17646
 GAMMA(Y,Y,Y,Y) =         94567.34694
 GAMMA(Z,Z,Z,Z) =         49857.28256
 GAMMA(X,X,Y,Y) =        172260.51091
 GAMMA(X,X,Z,Z) =         70040.46715
 GAMMA(Y,Y,X,X) =        172260.44696
 GAMMA(Y,Y,Z,Z) =         27543.28257
 GAMMA(Z,Z,X,X) =         70040.27143
 GAMMA(Z,Z,Y,Y) =         27543.26410


 AVERAGE GAMMA VALUE AT    0.00000 =        505842.40982 a.u. =       254777.77705 ESU (X10-39)




 **********************************************************************
 CALCULATION FOR A FREQUENCY OF    0.25000 EV  =       0.00919 A.U. 
                  WAVELENGTH OF    4959.37 NM  =    2016.38525 CM(-1)
 **********************************************************************

 +++++ ALPHA AT       0.25000 EV.

                           COMPONENTS OF ALPHA

                     *X           *Y           *Z
           *=X:     762.8079      74.6223     -36.6156
           *=Y:      74.6435     466.1091      98.3029
           *=Z:     -36.6121      98.3069     383.0981

  ISOTROPIC AVERAGE ALPHA =     537.33839 A.U. =     79.62533 ANG.**3

 +++++ BETA (SECOND HARMONIC GENERATION) AT       0.25000 EV.

                              COMPONENTS OF BETA
            *XX         *XY         *YY         *XZ         *YZ         *ZZ
   *=X  5701.76769  1846.45887   655.95457   622.59585    19.09412  -278.43594
   *=Y  1841.26289   658.13103   473.10450    22.35986   140.51000    37.65649
   *=Z   612.44885    21.92097   140.43973  -273.43728    38.61688   160.68653


 AVERAGE BETAX(SHG) VALUE AT   0.25000 EV =       3650.4418 a.u. =  0.315377E-28 ESU
 AVERAGE BETAY(SHG) VALUE AT   0.25000 EV =       1413.6769 a.u. =  0.122133E-28 ESU
 AVERAGE BETAZ(SHG) VALUE AT   0.25000 EV =        552.2320 a.u. =  0.477096E-29 ESU



 AVERAGE BETA (SHG) VALUE AT   0.25000 EV =       3953.3743 a.u. =  0.341549E-28 ESU
   (1 a.u. = 8.639418X10-33 esu)



 +++++ ALPHA AT       0.75000 EV.

                           COMPONENTS OF ALPHA

                     *X           *Y           *Z
           *=X:     787.0582      79.9518     -36.0341
           *=Y:      79.9722     474.6143     101.1172
           *=Z:     -36.0261     101.1234     388.8230

  ISOTROPIC AVERAGE ALPHA =     550.16515 A.U. =     81.52606 ANG.**3


 GAMMA (THIRD HARMONIC GENERATION) AT    0.25000 EV.


 GAMMA(X,X,X,X) =       2022072.05520
 GAMMA(Y,Y,Y,Y) =        101240.64806
 GAMMA(Z,Z,Z,Z) =         52871.19128
 GAMMA(X,X,Y,Y) =        188632.87524
 GAMMA(X,X,Z,Z) =         75713.87545
 GAMMA(Y,Y,X,X) =        190760.28508
 GAMMA(Y,Y,Z,Z) =         29331.15681
 GAMMA(Z,Z,X,X) =         76691.51652
 GAMMA(Z,Z,Y,Y) =         29411.60422


 AVERAGE GAMMA VALUE AT    0.25000 =        553345.04157 a.u. =       278703.43985 ESU (X10-39)




 **********************************************************************
 CALCULATION FOR A FREQUENCY OF    0.50000 EV  =       0.01837 A.U. 
                  WAVELENGTH OF    2479.68 NM  =    4032.77050 CM(-1)
 **********************************************************************

 +++++ ALPHA AT       0.50000 EV.

                           COMPONENTS OF ALPHA

                     *X           *Y           *Z
           *=X:     771.5805      76.5325     -36.4160
           *=Y:      76.5507     469.2231      99.3286
           *=Z:     -36.4120      99.3320     385.2069

  ISOTROPIC AVERAGE ALPHA =     542.00349 A.U. =     80.31663 ANG.**3

 +++++ BETA (SECOND HARMONIC GENERATION) AT       0.50000 EV.

                              COMPONENTS OF BETA
            *XX         *XY         *YY         *XZ         *YZ         *ZZ
   *=X  6468.32873  2118.13884   766.21852   732.95166    35.10518  -307.03022
   *=Y  2092.17234   774.50924   561.84854    50.01265   173.15503    54.09403
   *=Z   685.09306    47.72632   173.04033  -284.04751    58.23138   190.51617


 AVERAGE BETAX(SHG) VALUE AT   0.50000 EV =       4169.0196 a.u. =  0.360179E-28 ESU
 AVERAGE BETAY(SHG) VALUE AT   0.50000 EV =       1636.9105 a.u. =  0.141420E-28 ESU
 AVERAGE BETAZ(SHG) VALUE AT   0.50000 EV =        648.3791 a.u. =  0.560162E-29 ESU



 AVERAGE BETA (SHG) VALUE AT   0.50000 EV =       4525.5492 a.u. =  0.390981E-28 ESU
   (1 a.u. = 8.639418X10-33 esu)



 +++++ ALPHA AT       1.50000 EV.

                           COMPONENTS OF ALPHA

                     *X           *Y           *Z
           *=X:     897.2068     106.2682     -32.1656
           *=Y:     106.2960     509.6690     113.2479
           *=Z:     -32.1353     113.2626     411.2251

  ISOTROPIC AVERAGE ALPHA =     606.03367 A.U. =     89.80492 ANG.**3


 GAMMA (THIRD HARMONIC GENERATION) AT    0.50000 EV.


 GAMMA(X,X,X,X) =       2788860.72776
 GAMMA(Y,Y,Y,Y) =        129102.41826
 GAMMA(Z,Z,Z,Z) =         64279.26277
 GAMMA(X,X,Y,Y) =        261337.49792
 GAMMA(X,X,Z,Z) =         99498.41919
 GAMMA(Y,Y,X,X) =        271844.00218
 GAMMA(Y,Y,Z,Z) =         36325.76071
 GAMMA(Z,Z,X,X) =        104285.92322
 GAMMA(Z,Z,Y,Y) =         36780.60984


 AVERAGE GAMMA VALUE AT    0.50000 =        758462.92437 a.u. =       382015.21679 ESU (X10-39)



 **********************
 *                    *
 * JOB ENDED NORMALLY *
 *                    *
 **********************



 TOTAL JOB TIME:           636.82 SECONDS

 == MOPAC DONE ==
