 *******************************************************************************
 ** Site#: 4824         For non-commercial use only    Version 21.013L 64BITS **
 *******************************************************************************
 ** Cite this program as: MOPAC2016, Version: 21.013L, James J. P. Stewart,   **
 ** Stewart Computational Chemistry, web: HTTP://OpenMOPAC.net. Days left:  88**
 *******************************************************************************
 **                                                                           **
 **                                MOPAC2016                                  **
 **                                                                           **
 *******************************************************************************

                              RM1 CALCULATION RESULTS

 *******************************************************************************
 *  CALCULATION DONE:                                Sun Oct 17 20:58:53 2021  *
 *  RM1        - The RM1 Hamiltonian to be used
 *  POLAR      - CALCULATE FIRST, SECOND AND THIRD-ORDER POLARIZABILITIES
 *  PRECISE    - TIGHTER CRITERIA TO BE USED
 *  T=         - A TIME OF 172800.0 SECONDS REQUESTED
 *  DUMP=N     - RESTART FILE WRITTEN EVERY 7200.0 SECONDS REQUESTED
 *  GNORM      - EXIT WHEN GRADIENT NORM DROPS BELOW 0.100
 *******************************************************************************
RM1 PRECISE POLAR GNORM=0.1


  ATOM    CHEMICAL      BOND LENGTH      BOND ANGLE     TWIST ANGLE 
 NUMBER    SYMBOL       (ANGSTROMS)      (DEGREES)       (DEGREES) 
   (I)                     NA:I           NB:NA:I       NC:NB:NA:I       NA    NB    NC 
     1       C          0.00000000       0.0000000       0.0000000        0     0     0
     2       C          1.54750000  *    0.0000000       0.0000000        1     0     0
     3       C          1.55110000  *  111.4269000  *    0.0000000        2     1     0
     4       C          1.55400000  *  111.2744000  *  179.5185000  *     3     2     1
     5       C          1.56330000  *  112.3835000  * -179.9309000  *     4     3     2
     6       C          1.56250000  *  109.5061000  * -137.2594000  *     5     4     3
     7       N          1.45560000  *  113.0556000  *  169.0075000  *     6     5     4
     8       C          1.43130000  *  124.3118000  *  -54.2816000  *     7     6     5
     9       C          1.48040000  *  134.8258000  *  -36.2858000  *     8     7     6
    10       C          1.34240000  *  128.7963000  *   11.3218000  *     9     8     7
    11       C          1.47600000  *  119.1102000  * -179.7527000  *    10     9     8
    12       C          1.35250000  *  121.6415000  *    0.4350000  *    11    10     9
    13       C          1.48000000  *  119.2110000  *    0.0000000  *    12    11    10
    14       C          1.33890000  *  118.5084000  *   -0.3382000  *    13    12    11
    15       S          1.82710000  *  129.0257000  *  179.2883000  *    14    13    12
    16       C          1.34490000  *  109.4112000  *  154.2431000  *     8     7     6
    17       C          1.43750000  *  107.9397000  *    1.7046000  *    16     8     7
    18       C          1.34600000  *  108.3402000  *    0.0908000  *    17    16     8
    19       C          1.48280000  *  114.6699000  *  170.6432000  *    18    17    16
    20       C          1.34330000  *  128.9828000  * -176.8458000  *    19    18    17
    21       C          1.47580000  *  119.2126000  *  178.8354000  *    20    19    18
    22       C          1.35200000  *  121.5593000  *   -0.8740000  *    21    20    19
    23       C          1.47810000  *  119.4445000  *   -0.1015000  *    22    21    20
    24       C          1.33950000  *  118.3149000  *    0.3702000  *    23    22    21
    25       S          1.81260000  *  137.5874000  *  167.1523000  *    17    16     8
    26       C          1.47680000  *  120.5954000  * -178.9512000  *    22    21    20
    27       C          1.35370000  *  120.3469000  *  132.6462000  *    26    22    21
    28       C          1.47500000  *  121.1935000  * -179.2306000  *    27    26    22
    29       C          1.33930000  *  117.6391000  *    0.1814000  *    28    27    26
    30       C          1.45790000  *  121.9221000  *   -0.3135000  *    29    28    27
    31       C          1.34200000  *  120.9788000  *   -0.0309000  *    30    29    28
    32       N          1.41980000  *  107.6480000  * -179.7376000  *    30    29    28
    33       C          1.45320000  *  125.4411000  *   17.2168000  *    32    30    31
    34       C          1.54590000  *  110.5320000  * -101.9665000  *    33    32    30
    35       C          1.42860000  *  106.7119000  *  179.2397000  *    32    30    31
    36       C          1.34700000  *  111.3143000  *    1.1520000  *    35    32    30
    37       C          1.46240000  *  121.7485000  * -179.5209000  *    36    35    32
    38       C          1.34700000  *  118.1623000  *   -0.1974000  *    37    36    35
    39       C          1.47780000  *  120.5478000  *    0.0835000  *    38    37    36
    40       C          1.34710000  *  120.7616000  *   -0.0522000  *    39    38    37
    41       C          1.47090000  *  121.6414000  *  179.2790000  *    12    11    10
    42       C          1.34970000  *  128.1574000  *   18.2517000  *    41    12    11
    43       C          1.48710000  *  116.0157000  *  179.4617000  *    42    41    12
    44       C          1.34940000  *  116.3279000  *   -0.4076000  *    43    42    41
    45       S          1.82050000  *  106.4255000  *    0.4629000  *    44    43    42
    46       C          1.46980000  *  124.4101000  * -179.8419000  *    44    43    42
    47       C          1.34990000  *  126.4008000  *  175.4194000  *    46    44    43
    48       C          1.47660000  *  120.4662000  * -179.5644000  *    47    46    44
    49       O          1.23220000  *  121.2948000  *   -0.5005000  *    48    47    46
    50       O          1.35550000  *  119.8663000  *  179.3102000  *    48    47    46
    51       C          1.42910000  *  122.7926000  *   -0.1364000  *    47    46    44
    52       N          1.15820000  *  179.0555000  *  179.7003000  *    51    47    46
    53       C          1.56150000  *  112.5460000  *  100.0259000  *     5     4     3
    54       C          1.54800000  *  114.0696000  *  175.0487000  *    53     5     6
    55       H          1.05410000  *  116.0089000  *   -4.0233000  *    46    44    43
    56       H          1.09110000  *  110.0459000  *   60.2139000  *     1     2     3
    57       H          1.09100000  *  109.4677000  *  179.9427000  *     1     2     3
    58       H          1.09100000  *  110.0737000  *  -60.3287000  *     1     2     3
    59       H          1.09230000  *  108.8130000  *  -59.2813000  *     2     1    57
    60       H          1.09230000  *  108.8623000  *  178.8800000  *     2     1    58
    61       H          1.09290000  *  109.0066000  *  179.3485000  *     3     2    59
    62       H          1.09070000  *  109.0145000  *  178.6571000  *     3     2    60
    63       H          1.09230000  *  109.7178000  * -177.6197000  *     4     3    61
    64       H          1.09310000  *  107.4770000  * -179.7285000  *     4     3    62
    65       H          1.09300000  *  108.5126000  * -142.1639000  *     5     4    63
    66       H          1.08860000  *  108.5321000  *   55.9976000  *     6     5    53
    67       H          1.09180000  *  109.6980000  *  -68.9949000  *     6     5    65
    68       H          1.04870000  *  121.3348000  *  179.5633000  *    10     9    14
    69       H          1.05110000  *  118.0470000  *  179.5552000  *    11    10     9
    70       H          1.04980000  *  121.2974000  *  179.7076000  *    13    12    11
    71       H          1.04770000  *  121.4306000  * -177.7528000  *    20    19    24
    72       H          1.05220000  *  118.4423000  * -179.7740000  *    21    20    19
    73       H          1.05040000  *  121.1710000  * -178.7583000  *    23    22    21
    74       H          1.05180000  *  120.1685000  *   -0.3869000  *    27    26    22
    75       H          1.04980000  *  120.8462000  *  179.6479000  *    28    27    26
    76       H          1.04990000  *  120.8237000  *    0.6091000  *    31    30    32
    77       H          1.09160000  *  110.0665000  *   18.7905000  *    33    32    30
    78       H          1.09140000  *  109.8218000  *  137.5292000  *    33    32    30
    79       H          1.09090000  *  110.0390000  *  -59.9510000  *    34    33    77
    80       H          1.09080000  *  109.4920000  *  -57.9303000  *    34    33    78
    81       H          1.09090000  *  109.9264000  *   61.8257000  *    34    33    78
    82       H          1.05000000  *  121.0112000  *  179.6821000  *    37    36    35
    83       H          1.05130000  *  119.8603000  *  179.9883000  *    38    37    36
    84       H          1.05130000  *  119.4774000  *  179.8996000  *    39    38    37
    85       H          1.05010000  *  120.4284000  * -179.8970000  *    40    39    38
    86       H          1.04850000  *  122.8632000  *    0.3132000  *    42    41    12
    87       H          1.04930000  *  121.3685000  *  179.8877000  *    43    42    41
    88       H          0.94080000  *  121.0731000  *    0.1623000  *    50    48    49
    89       H          1.09280000  *  109.5689000  *  179.6788000  *    53     5    65
    90       H          1.09230000  *  108.8921000  *  -62.2612000  *    53     5    65
    91       H          1.09080000  *  110.1119000  * -176.3285000  *    54    53    89
    92       H          1.08990000  *  110.4581000  * -171.8557000  *    54    53    90
    93       H          1.09150000  *  109.2688000  *  -52.5296000  *    54    53    90
 


          CARTESIAN COORDINATES 

    NO.       ATOM           X           Y           Z

     1         C          0.0000      0.0000      0.0000
     2         C          1.5475      0.0000      0.0000
     3         C          2.1141      1.4439      0.0000
     4         C          3.6681      1.4398      0.0122
     5         C          4.2672      2.8837      0.0142
     6         C          5.4741      2.9492     -0.9761
     7         N          5.9306      4.3079     -1.2294
     8         C          5.0868      5.3710     -1.6839
     9         C          3.9356      5.4666     -2.6096
    10         C          3.2126      4.4772     -3.1576
    11         C          2.1009      4.8187     -4.0666
    12         C          1.7989      6.1023     -4.3671
    13         C          2.6027      7.1922     -3.7701
    14         C          3.6037      6.8682     -2.9420
    15         S          4.7757      7.9650     -2.0694
    16         C          5.6052      6.5499     -1.2962
    17         C          6.8371      6.2858     -0.6041
    18         C          7.0380      4.9550     -0.5899
    19         C          8.3744      4.5359     -0.1029
    20         C          8.8960      3.3006     -0.0242
    21         C         10.2738      3.1310      0.4768
    22         C         11.0294      4.1910      0.8420
    23         C         10.4679      5.5543      0.7369
    24         C          9.2142      5.6920      0.2857
    25         S          8.2719      7.2266     -0.0194
    26         C         12.4138      3.9986      1.3188
    27         C         13.4179      4.7640      0.8306
    28         C         14.8098      4.5764      1.2812
    29         C         15.0458      3.6195      2.1879
    30         C         13.9766      2.7877      2.7269
    31         C         12.7054      2.9536      2.3298
    32         N         14.5589      1.8881      3.6582
    33         C         13.9354      0.6760      4.1620
    34         C         13.3762      0.9050      5.5849
    35         C         15.9626      2.1537      3.6633
    36         C         16.2732      3.1617      2.8256
    37         C         17.6516      3.6159      2.6458
    38         C         18.6210      2.9991      3.3489
    39         C         18.2914      1.8938      4.2727
    40         C         17.0179      1.4835      4.4296
    41         C          0.7010      6.4421     -5.2851
    42         C         -0.3318      5.6650     -5.6736
    43         C         -1.3028      6.2908     -6.6101
    44         C         -1.0537      7.5688     -6.9647
    45         S          0.4804      8.0502     -6.1110
    46         C         -1.8964      8.3576     -7.8746
    47         C         -1.7348      9.6605     -8.1887
    48         C         -2.6697     10.3285     -9.1161
    49         O         -3.6079      9.7169     -9.6300
    50         O         -2.5044     11.6409     -9.4121
    51         C         -0.6823     10.4621     -7.6485
    52         N          0.1644     11.1267     -7.2208
    53         C          4.7175      3.3431      1.4370
    54         C          3.5647      3.4302      2.4665
    55         H         -2.7080      7.8469     -8.3124
    56         H         -0.3740      0.5092     -0.8896
    57         H         -0.3636     -1.0286     -0.0010
    58         H         -0.3745      0.5073      0.8904
    59         H          1.8997     -0.5291      0.8883
    60         H          1.9006     -0.5291     -0.8879
    61         H          1.7669      1.9625     -0.8971
    62         H          1.7382      1.9732      0.8764
    63         H          4.0283      0.8872      0.8828
    64         H          4.0020      0.9062     -0.8815
    65         H          3.5017      3.5776     -0.3425
    66         H          6.2856      2.3458     -0.5730
    67         H          5.1871      2.5136     -1.9353
    68         H          3.4217      3.4704     -2.9517
    69         H          1.5504      4.0307     -4.4919
    70         H          2.3999      8.1997     -3.9843
    71         H          8.3503      2.4571     -0.3217
    72         H         10.6715      2.1583      0.5300
    73         H         11.0375      6.3983      0.9948
    74         H         13.2181      5.4970      0.1032
    75         H         15.5852      5.1694      0.8948
    76         H         11.9352      2.3636      2.7309
    77         H         13.1223      0.3705      3.5008
    78         H         14.6679     -0.1326      4.1907
    79         H         12.6136      1.6848      5.5658
    80         H         12.9312     -0.0199      5.9542
    81         H         14.1813      1.2055      6.2568
    82         H         17.8813      4.3996      1.9858
    83         H         19.6212      3.3040      3.2401
    84         H         19.0614      1.4232      4.8120
    85         H         16.7894      0.6986      5.0887
    86         H         -0.4634      4.6818     -5.3339
    87         H         -2.1359      5.7621     -6.9671
    88         H         -3.0928     12.0847     -9.9969
    89         H          5.4804      2.6597      1.8179
    90         H          5.1599      4.3391      1.3636
    91         H          2.7611      4.0570      2.0777
    92         H          3.1774      2.4362      2.6897
    93         H          3.9403      3.8718      3.3913

  H: (RM1): G.B. ROCHA, R.O. FREIRE, A.M.SIMAS, J.J.P. STEWART, J. COMP. CHEM. 27, 1101 (2006)
  C: (RM1): G.B. ROCHA, R.O. FREIRE, A.M.SIMAS, J.J.P. STEWART, J. COMP. CHEM. 27, 1101 (2006)
  N: (RM1): G.B. ROCHA, R.O. FREIRE, A.M.SIMAS, J.J.P. STEWART, J. COMP. CHEM. 27, 1101 (2006)
  O: (RM1): G.B. ROCHA, R.O. FREIRE, A.M.SIMAS, J.J.P. STEWART, J. COMP. CHEM. 27, 1101 (2006)
  S: (RM1): G.B. ROCHA, R.O. FREIRE, A.M.SIMAS, J.J.P. STEWART, J. COMP. CHEM. 27, 1101 (2006)

           Empirical Formula: C46 H39 N3 O2 S3  =    93 atoms



      MOLECULAR POINT GROUP   :   C1  


      RHF CALCULATION, NO. OF DOUBLY OCCUPIED LEVELS = 134


          Geometry optimization using L-BFGS
 CYCLE:     1 TIME:   0.367 TIME LEFT:  2.00D  GRAD.:   828.911 HEAT:  187.2064
 CYCLE:     2 TIME:   0.219 TIME LEFT:  2.00D  GRAD.:   628.639 HEAT:  181.2089
 CYCLE:     3 TIME:   0.242 TIME LEFT:  2.00D  GRAD.:   494.790 HEAT:  168.6693
 CYCLE:     4 TIME:   0.273 TIME LEFT:  2.00D  GRAD.:   629.870 HEAT:  181.2085
 CYCLE:     5 TIME:   0.242 TIME LEFT:  2.00D  GRAD.:   496.464 HEAT:  168.6722
 CYCLE:     6 TIME:   0.219 TIME LEFT:  2.00D  GRAD.:   398.112 HEAT:  163.6272
 CYCLE:     7 TIME:   0.242 TIME LEFT:  2.00D  GRAD.:   445.534 HEAT:  149.7467
 CYCLE:     8 TIME:   0.250 TIME LEFT:  2.00D  GRAD.:   421.597 HEAT:  135.8393
 CYCLE:     9 TIME:   0.234 TIME LEFT:  2.00D  GRAD.:   466.825 HEAT:  118.7853
 CYCLE:    10 TIME:   0.250 TIME LEFT:  2.00D  GRAD.:   701.843 HEAT:  123.2478
 CYCLE:    11 TIME:   0.273 TIME LEFT:  2.00D  GRAD.:   153.461 HEAT:  111.3264
 CYCLE:    12 TIME:   0.242 TIME LEFT:  2.00D  GRAD.:   100.993 HEAT:  110.3483
 CYCLE:    13 TIME:   0.227 TIME LEFT:  2.00D  GRAD.:   111.818 HEAT:  108.9974
 CYCLE:    14 TIME:   0.234 TIME LEFT:  2.00D  GRAD.:   105.568 HEAT:  107.4632
 CYCLE:    15 TIME:   0.242 TIME LEFT:  2.00D  GRAD.:   163.833 HEAT:  106.0325
 CYCLE:    16 TIME:   0.234 TIME LEFT:  2.00D  GRAD.:    71.626 HEAT:  105.0650
 CYCLE:    17 TIME:   0.234 TIME LEFT:  2.00D  GRAD.:    65.363 HEAT:  104.6204
 CYCLE:    18 TIME:   0.219 TIME LEFT:  2.00D  GRAD.:    82.698 HEAT:  103.8954
 CYCLE:    19 TIME:   0.219 TIME LEFT:  2.00D  GRAD.:   414.168 HEAT:  105.3435
 CYCLE:    20 TIME:   0.234 TIME LEFT:  2.00D  GRAD.:    70.862 HEAT:  103.3114
 CYCLE:    21 TIME:   0.203 TIME LEFT:  2.00D  GRAD.:    43.132 HEAT:  103.1766
 CYCLE:    22 TIME:   0.211 TIME LEFT:  2.00D  GRAD.:    44.443 HEAT:  102.9919
 CYCLE:    23 TIME:   0.227 TIME LEFT:  2.00D  GRAD.:    53.003 HEAT:  102.7774
 CYCLE:    24 TIME:   0.234 TIME LEFT:  2.00D  GRAD.:    95.976 HEAT:  102.3320
 CYCLE:    25 TIME:   0.312 TIME LEFT:  2.00D  GRAD.:    93.079 HEAT:  102.2027
 CYCLE:    26 TIME:   0.227 TIME LEFT:  2.00D  GRAD.:    31.695 HEAT:  101.9213
 CYCLE:    27 TIME:   0.211 TIME LEFT:  2.00D  GRAD.:    29.357 HEAT:  101.8184
 CYCLE:    28 TIME:   0.219 TIME LEFT:  2.00D  GRAD.:    42.876 HEAT:  101.6160
 CYCLE:    29 TIME:   0.203 TIME LEFT:  2.00D  GRAD.:    45.204 HEAT:  101.4098
 CYCLE:    30 TIME:   0.234 TIME LEFT:  2.00D  GRAD.:    98.452 HEAT:  101.4378
 CYCLE:    31 TIME:   0.219 TIME LEFT:  2.00D  GRAD.:    21.237 HEAT:  101.2228
 CYCLE:    32 TIME:   0.211 TIME LEFT:  2.00D  GRAD.:    18.274 HEAT:  101.1931
 CYCLE:    33 TIME:   0.242 TIME LEFT:  2.00D  GRAD.:    40.861 HEAT:  101.1276
 CYCLE:    34 TIME:   0.242 TIME LEFT:  2.00D  GRAD.:    34.702 HEAT:  101.0656
 CYCLE:    35 TIME:   0.242 TIME LEFT:  2.00D  GRAD.:    25.334 HEAT:  101.0047
 CYCLE:    36 TIME:   0.242 TIME LEFT:  2.00D  GRAD.:    15.833 HEAT:  100.9469
 CYCLE:    37 TIME:   0.227 TIME LEFT:  2.00D  GRAD.:    16.331 HEAT:  100.9033
 CYCLE:    38 TIME:   0.242 TIME LEFT:  2.00D  GRAD.:    50.320 HEAT:  100.8433
 CYCLE:    39 TIME:   0.219 TIME LEFT:  2.00D  GRAD.:    26.107 HEAT:  100.7678
 CYCLE:    40 TIME:   0.234 TIME LEFT:  2.00D  GRAD.:    17.099 HEAT:  100.7142
 CYCLE:    41 TIME:   0.250 TIME LEFT:  2.00D  GRAD.:    21.412 HEAT:  100.6667
 CYCLE:    42 TIME:   0.242 TIME LEFT:  2.00D  GRAD.:    40.009 HEAT:  100.6042
 CYCLE:    43 TIME:   0.234 TIME LEFT:  2.00D  GRAD.:    27.439 HEAT:  100.5195
 CYCLE:    44 TIME:   0.250 TIME LEFT:  2.00D  GRAD.:    18.393 HEAT:  100.4000
 CYCLE:    45 TIME:   0.234 TIME LEFT:  2.00D  GRAD.:    19.447 HEAT:  100.3066
 CYCLE:    46 TIME:   0.258 TIME LEFT:  2.00D  GRAD.:    29.426 HEAT:  100.1827
 CYCLE:    47 TIME:   0.211 TIME LEFT:  2.00D  GRAD.:    96.613 HEAT:  100.1824
 CYCLE:    48 TIME:   0.211 TIME LEFT:  2.00D  GRAD.:   105.341 HEAT:  100.1676
 CYCLE:    49 TIME:   0.211 TIME LEFT:  2.00D  GRAD.:    21.401 HEAT:  100.0470
 CYCLE:    50 TIME:   0.383 TIME LEFT:  2.00D  GRAD.:    17.515 HEAT:  100.0321
 CYCLE:    51 TIME:   0.211 TIME LEFT:  2.00D  GRAD.:    22.703 HEAT:  100.0026
 CYCLE:    52 TIME:   0.211 TIME LEFT:  2.00D  GRAD.:    22.205 HEAT:  99.92500
 CYCLE:    53 TIME:   0.289 TIME LEFT:  2.00D  GRAD.:    54.730 HEAT:  99.86089
 CYCLE:    54 TIME:   0.227 TIME LEFT:  2.00D  GRAD.:    23.683 HEAT:  99.76456
 CYCLE:    55 TIME:   0.203 TIME LEFT:  2.00D  GRAD.:    12.233 HEAT:  99.74258
 CYCLE:    56 TIME:   0.219 TIME LEFT:  2.00D  GRAD.:    16.124 HEAT:  99.72199
 CYCLE:    57 TIME:   0.234 TIME LEFT:  2.00D  GRAD.:    15.697 HEAT:  99.68640
 CYCLE:    58 TIME:   0.234 TIME LEFT:  2.00D  GRAD.:    45.635 HEAT:  99.64914
 CYCLE:    59 TIME:   0.219 TIME LEFT:  2.00D  GRAD.:    15.289 HEAT:  99.58968
 CYCLE:    60 TIME:   0.195 TIME LEFT:  2.00D  GRAD.:    11.960 HEAT:  99.57245
 CYCLE:    61 TIME:   0.234 TIME LEFT:  2.00D  GRAD.:    16.578 HEAT:  99.53212
 CYCLE:    62 TIME:   0.188 TIME LEFT:  2.00D  GRAD.:    58.431 HEAT:  99.51221
 CYCLE:    63 TIME:   0.188 TIME LEFT:  2.00D  GRAD.:    19.014 HEAT:  99.46899
 CYCLE:    64 TIME:   0.289 TIME LEFT:  2.00D  GRAD.:    14.654 HEAT:  99.45383
 CYCLE:    65 TIME:   0.281 TIME LEFT:  2.00D  GRAD.:    14.739 HEAT:  99.43992
 CYCLE:    66 TIME:   0.227 TIME LEFT:  2.00D  GRAD.:    20.247 HEAT:  99.40059
 CYCLE:    67 TIME:   0.227 TIME LEFT:  2.00D  GRAD.:    38.596 HEAT:  99.35687
 CYCLE:    68 TIME:   0.242 TIME LEFT:  2.00D  GRAD.:    19.991 HEAT:  99.31141
 CYCLE:    69 TIME:   0.273 TIME LEFT:  2.00D  GRAD.:    11.034 HEAT:  99.28418
 CYCLE:    70 TIME:   0.219 TIME LEFT:  2.00D  GRAD.:    12.909 HEAT:  99.27027
 CYCLE:    71 TIME:   0.203 TIME LEFT:  2.00D  GRAD.:    22.283 HEAT:  99.23537
 CYCLE:    72 TIME:   0.211 TIME LEFT:  2.00D  GRAD.:    23.491 HEAT:  99.20642
 CYCLE:    73 TIME:   0.203 TIME LEFT:  2.00D  GRAD.:    12.913 HEAT:  99.17758
 CYCLE:    74 TIME:   0.195 TIME LEFT:  2.00D  GRAD.:    13.652 HEAT:  99.15141
 CYCLE:    75 TIME:   0.195 TIME LEFT:  2.00D  GRAD.:    16.628 HEAT:  99.13168
 CYCLE:    76 TIME:   0.203 TIME LEFT:  2.00D  GRAD.:    33.641 HEAT:  99.09864
 CYCLE:    77 TIME:   0.211 TIME LEFT:  2.00D  GRAD.:    33.424 HEAT:  99.07878
 CYCLE:    78 TIME:   0.219 TIME LEFT:  2.00D  GRAD.:    15.001 HEAT:  99.05747
 CYCLE:    79 TIME:   0.203 TIME LEFT:  2.00D  GRAD.:    14.202 HEAT:  99.04205
 CYCLE:    80 TIME:   0.203 TIME LEFT:  2.00D  GRAD.:    13.997 HEAT:  99.02465
 CYCLE:    81 TIME:   0.203 TIME LEFT:  2.00D  GRAD.:    17.868 HEAT:  98.97376
 CYCLE:    82 TIME:   0.219 TIME LEFT:  2.00D  GRAD.:    29.319 HEAT:  98.95617
 CYCLE:    83 TIME:   0.211 TIME LEFT:  2.00D  GRAD.:    14.564 HEAT:  98.91875
 CYCLE:    84 TIME:   0.203 TIME LEFT:  2.00D  GRAD.:     9.321 HEAT:  98.87912
 CYCLE:    85 TIME:   0.195 TIME LEFT:  2.00D  GRAD.:    12.140 HEAT:  98.84818
 CYCLE:    86 TIME:   0.234 TIME LEFT:  2.00D  GRAD.:    38.236 HEAT:  98.83912
 CYCLE:    87 TIME:   0.211 TIME LEFT:  2.00D  GRAD.:    10.027 HEAT:  98.80522
 CYCLE:    88 TIME:   0.203 TIME LEFT:  2.00D  GRAD.:     8.619 HEAT:  98.79310
 CYCLE:    89 TIME:   0.273 TIME LEFT:  2.00D  GRAD.:    13.833 HEAT:  98.76769
 CYCLE:    90 TIME:   0.242 TIME LEFT:  2.00D  GRAD.:    23.850 HEAT:  98.74510
 CYCLE:    91 TIME:   0.211 TIME LEFT:  2.00D  GRAD.:    30.160 HEAT:  98.72608
 CYCLE:    92 TIME:   0.188 TIME LEFT:  2.00D  GRAD.:    11.666 HEAT:  98.70835
 CYCLE:    93 TIME:   0.211 TIME LEFT:  2.00D  GRAD.:    13.610 HEAT:  98.69702
 CYCLE:    94 TIME:   0.203 TIME LEFT:  2.00D  GRAD.:    13.359 HEAT:  98.68822
 CYCLE:    95 TIME:   0.250 TIME LEFT:  2.00D  GRAD.:    28.788 HEAT:  98.65194
 CYCLE:    96 TIME:   0.250 TIME LEFT:  2.00D  GRAD.:    28.803 HEAT:  98.62696
 CYCLE:    97 TIME:   0.242 TIME LEFT:  2.00D  GRAD.:     9.697 HEAT:  98.60468
 CYCLE:    98 TIME:   0.227 TIME LEFT:  2.00D  GRAD.:    11.785 HEAT:  98.59045
 CYCLE:    99 TIME:   0.219 TIME LEFT:  2.00D  GRAD.:    10.508 HEAT:  98.57423
 CYCLE:   100 TIME:   0.211 TIME LEFT:  2.00D  GRAD.:    11.588 HEAT:  98.54464
 CYCLE:   101 TIME:   0.227 TIME LEFT:  2.00D  GRAD.:    22.168 HEAT:  98.52862
 CYCLE:   102 TIME:   0.219 TIME LEFT:  2.00D  GRAD.:    17.198 HEAT:  98.52041
 CYCLE:   103 TIME:   0.203 TIME LEFT:  2.00D  GRAD.:    10.363 HEAT:  98.50532
 CYCLE:   104 TIME:   0.219 TIME LEFT:  2.00D  GRAD.:    26.848 HEAT:  98.50439
 CYCLE:   105 TIME:   0.227 TIME LEFT:  2.00D  GRAD.:     8.494 HEAT:  98.48570
 CYCLE:   106 TIME:   0.211 TIME LEFT:  2.00D  GRAD.:    10.398 HEAT:  98.47866
 CYCLE:   107 TIME:   0.195 TIME LEFT:  2.00D  GRAD.:    11.606 HEAT:  98.47005
 CYCLE:   108 TIME:   0.195 TIME LEFT:  2.00D  GRAD.:     8.887 HEAT:  98.46289
 CYCLE:   109 TIME:   0.258 TIME LEFT:  2.00D  GRAD.:     9.315 HEAT:  98.45123
 CYCLE:   110 TIME:   0.281 TIME LEFT:  2.00D  GRAD.:     8.820 HEAT:  98.44372
 CYCLE:   111 TIME:   0.273 TIME LEFT:  2.00D  GRAD.:     8.354 HEAT:  98.42773
 CYCLE:   112 TIME:   0.195 TIME LEFT:  2.00D  GRAD.:    21.596 HEAT:  98.42480
 CYCLE:   113 TIME:   0.203 TIME LEFT:  2.00D  GRAD.:     6.913 HEAT:  98.41450
 CYCLE:   114 TIME:   0.195 TIME LEFT:  2.00D  GRAD.:     6.458 HEAT:  98.40880
 CYCLE:   115 TIME:   0.211 TIME LEFT:  2.00D  GRAD.:     6.281 HEAT:  98.40157
 CYCLE:   116 TIME:   0.219 TIME LEFT:  2.00D  GRAD.:     6.974 HEAT:  98.39107
 CYCLE:   117 TIME:   0.234 TIME LEFT:  2.00D  GRAD.:    29.243 HEAT:  98.39741
 CYCLE:   118 TIME:   0.227 TIME LEFT:  2.00D  GRAD.:    90.475 HEAT:  98.58742
 CYCLE:   119 TIME:   0.195 TIME LEFT:  2.00D  GRAD.:    44.426 HEAT:  98.42548
 CYCLE:   120 TIME:   0.211 TIME LEFT:  2.00D  GRAD.:     5.700 HEAT:  98.38345
 CYCLE:   121 TIME:   0.250 TIME LEFT:  2.00D  GRAD.:     5.159 HEAT:  98.37069
 CYCLE:   122 TIME:   0.289 TIME LEFT:  2.00D  GRAD.:    37.931 HEAT:  98.38612
 CYCLE:   123 TIME:   0.227 TIME LEFT:  2.00D  GRAD.:    10.961 HEAT:  98.36374
 CYCLE:   124 TIME:   0.203 TIME LEFT:  2.00D  GRAD.:     4.890 HEAT:  98.35982
 CYCLE:   125 TIME:   0.188 TIME LEFT:  2.00D  GRAD.:     3.967 HEAT:  98.35748
 CYCLE:   126 TIME:   0.219 TIME LEFT:  2.00D  GRAD.:    17.905 HEAT:  98.36354
 CYCLE:   127 TIME:   0.203 TIME LEFT:  2.00D  GRAD.:    17.290 HEAT:  98.35484
 CYCLE:   128 TIME:   0.195 TIME LEFT:  2.00D  GRAD.:     7.508 HEAT:  98.35044
 CYCLE:   129 TIME:   0.211 TIME LEFT:  2.00D  GRAD.:     5.770 HEAT:  98.34892
 CYCLE:   130 TIME:   0.242 TIME LEFT:  2.00D  GRAD.:     3.885 HEAT:  98.34729
 CYCLE:   131 TIME:   0.227 TIME LEFT:  2.00D  GRAD.:     5.846 HEAT:  98.34331
 CYCLE:   132 TIME:   0.195 TIME LEFT:  2.00D  GRAD.:     6.899 HEAT:  98.33966
 CYCLE:   133 TIME:   0.188 TIME LEFT:  2.00D  GRAD.:     9.078 HEAT:  98.33565
 CYCLE:   134 TIME:   0.211 TIME LEFT:  2.00D  GRAD.:     5.415 HEAT:  98.32998
 CYCLE:   135 TIME:   0.195 TIME LEFT:  2.00D  GRAD.:     3.721 HEAT:  98.32772
 CYCLE:   136 TIME:   0.188 TIME LEFT:  2.00D  GRAD.:     7.827 HEAT:  98.32600
 CYCLE:   137 TIME:   0.219 TIME LEFT:  2.00D  GRAD.:     5.118 HEAT:  98.32448
 CYCLE:   138 TIME:   0.195 TIME LEFT:  2.00D  GRAD.:     3.499 HEAT:  98.32239
 CYCLE:   139 TIME:   0.203 TIME LEFT:  2.00D  GRAD.:     4.942 HEAT:  98.31933
 CYCLE:   140 TIME:   0.195 TIME LEFT:  2.00D  GRAD.:     8.439 HEAT:  98.31814
 CYCLE:   141 TIME:   0.180 TIME LEFT:  2.00D  GRAD.:     4.994 HEAT:  98.31629
 CYCLE:   142 TIME:   0.234 TIME LEFT:  2.00D  GRAD.:     3.503 HEAT:  98.31417
 CYCLE:   143 TIME:   0.195 TIME LEFT:  2.00D  GRAD.:     3.499 HEAT:  98.31275
 CYCLE:   144 TIME:   0.195 TIME LEFT:  2.00D  GRAD.:    11.255 HEAT:  98.31243
 CYCLE:   145 TIME:   0.188 TIME LEFT:  2.00D  GRAD.:     3.336 HEAT:  98.31034
 CYCLE:   146 TIME:   0.203 TIME LEFT:  2.00D  GRAD.:     2.883 HEAT:  98.30954
 CYCLE:   147 TIME:   0.195 TIME LEFT:  2.00D  GRAD.:     6.133 HEAT:  98.30831
 CYCLE:   148 TIME:   0.188 TIME LEFT:  2.00D  GRAD.:     5.335 HEAT:  98.30712
 CYCLE:   149 TIME:   0.195 TIME LEFT:  2.00D  GRAD.:     6.136 HEAT:  98.30485
 CYCLE:   150 TIME:   0.195 TIME LEFT:  2.00D  GRAD.:    10.011 HEAT:  98.30373
 CYCLE:   151 TIME:   0.188 TIME LEFT:  2.00D  GRAD.:     3.750 HEAT:  98.30166
 CYCLE:   152 TIME:   0.195 TIME LEFT:  2.00D  GRAD.:     3.216 HEAT:  98.30050
 CYCLE:   153 TIME:   0.188 TIME LEFT:  2.00D  GRAD.:     3.971 HEAT:  98.29856
 CYCLE:   154 TIME:   0.203 TIME LEFT:  2.00D  GRAD.:     5.414 HEAT:  98.29660
 CYCLE:   155 TIME:   0.195 TIME LEFT:  2.00D  GRAD.:     7.205 HEAT:  98.29476
 CYCLE:   156 TIME:   0.203 TIME LEFT:  2.00D  GRAD.:     6.011 HEAT:  98.29260
 CYCLE:   157 TIME:   0.188 TIME LEFT:  2.00D  GRAD.:     4.612 HEAT:  98.28994
 CYCLE:   158 TIME:   0.188 TIME LEFT:  2.00D  GRAD.:     5.118 HEAT:  98.28794
 CYCLE:   159 TIME:   0.188 TIME LEFT:  2.00D  GRAD.:     5.267 HEAT:  98.28615
 CYCLE:   160 TIME:   0.195 TIME LEFT:  2.00D  GRAD.:     6.114 HEAT:  98.28319
 CYCLE:   161 TIME:   0.203 TIME LEFT:  2.00D  GRAD.:     8.144 HEAT:  98.28113
 CYCLE:   162 TIME:   0.227 TIME LEFT:  2.00D  GRAD.:     3.549 HEAT:  98.27952
 CYCLE:   163 TIME:   0.180 TIME LEFT:  2.00D  GRAD.:     3.341 HEAT:  98.27857
 CYCLE:   164 TIME:   0.195 TIME LEFT:  2.00D  GRAD.:     3.817 HEAT:  98.27694
 CYCLE:   165 TIME:   0.242 TIME LEFT:  2.00D  GRAD.:     4.036 HEAT:  98.27477
 CYCLE:   166 TIME:   0.266 TIME LEFT:  2.00D  GRAD.:     8.418 HEAT:  98.27120
 CYCLE:   167 TIME:   0.211 TIME LEFT:  2.00D  GRAD.:     5.733 HEAT:  98.26706
 CYCLE:   168 TIME:   0.266 TIME LEFT:  2.00D  GRAD.:     3.335 HEAT:  98.26472
 CYCLE:   169 TIME:   0.305 TIME LEFT:  2.00D  GRAD.:     6.786 HEAT:  98.26216
 CYCLE:   170 TIME:   0.297 TIME LEFT:  2.00D  GRAD.:     4.603 HEAT:  98.26015
 CYCLE:   171 TIME:   0.320 TIME LEFT:  2.00D  GRAD.:     4.420 HEAT:  98.25745
 CYCLE:   172 TIME:   0.273 TIME LEFT:  2.00D  GRAD.:     5.302 HEAT:  98.25470
 CYCLE:   173 TIME:   0.242 TIME LEFT:  2.00D  GRAD.:    10.486 HEAT:  98.25200
 CYCLE:   174 TIME:   0.281 TIME LEFT:  2.00D  GRAD.:     3.431 HEAT:  98.24933
 CYCLE:   175 TIME:   0.250 TIME LEFT:  2.00D  GRAD.:     3.212 HEAT:  98.24840
 CYCLE:   176 TIME:   0.219 TIME LEFT:  2.00D  GRAD.:     8.569 HEAT:  98.24626
 CYCLE:   177 TIME:   0.195 TIME LEFT:  2.00D  GRAD.:     6.434 HEAT:  98.24351
 CYCLE:   178 TIME:   0.203 TIME LEFT:  2.00D  GRAD.:     3.883 HEAT:  98.24096
 CYCLE:   179 TIME:   0.195 TIME LEFT:  2.00D  GRAD.:     5.136 HEAT:  98.23835
 CYCLE:   180 TIME:   0.188 TIME LEFT:  2.00D  GRAD.:    17.086 HEAT:  98.23833
 CYCLE:   181 TIME:   0.203 TIME LEFT:  2.00D  GRAD.:     5.991 HEAT:  98.23435
 CYCLE:   182 TIME:   0.242 TIME LEFT:  2.00D  GRAD.:     3.077 HEAT:  98.23253
 CYCLE:   183 TIME:   0.227 TIME LEFT:  2.00D  GRAD.:     5.023 HEAT:  98.23036
 CYCLE:   184 TIME:   0.219 TIME LEFT:  2.00D  GRAD.:     4.761 HEAT:  98.22794
 CYCLE:   185 TIME:   0.219 TIME LEFT:  2.00D  GRAD.:    14.878 HEAT:  98.22452
 CYCLE:   186 TIME:   0.203 TIME LEFT:  2.00D  GRAD.:     5.218 HEAT:  98.21907
 CYCLE:   187 TIME:   0.203 TIME LEFT:  2.00D  GRAD.:     3.630 HEAT:  98.21745
 CYCLE:   188 TIME:   0.219 TIME LEFT:  2.00D  GRAD.:     7.047 HEAT:  98.21579
 CYCLE:   189 TIME:   0.234 TIME LEFT:  2.00D  GRAD.:     3.790 HEAT:  98.21414
 CYCLE:   190 TIME:   0.188 TIME LEFT:  2.00D  GRAD.:     5.838 HEAT:  98.21223
 CYCLE:   191 TIME:   0.195 TIME LEFT:  2.00D  GRAD.:     8.916 HEAT:  98.20886
 CYCLE:   192 TIME:   0.227 TIME LEFT:  2.00D  GRAD.:     6.919 HEAT:  98.20564
 CYCLE:   193 TIME:   0.227 TIME LEFT:  2.00D  GRAD.:    11.104 HEAT:  98.20444
 CYCLE:   194 TIME:   0.227 TIME LEFT:  2.00D  GRAD.:     4.238 HEAT:  98.20199
 CYCLE:   195 TIME:   0.188 TIME LEFT:  2.00D  GRAD.:     3.881 HEAT:  98.20104
 CYCLE:   196 TIME:   0.211 TIME LEFT:  2.00D  GRAD.:     6.173 HEAT:  98.19860
 CYCLE:   197 TIME:   0.211 TIME LEFT:  2.00D  GRAD.:     6.026 HEAT:  98.19684
 CYCLE:   198 TIME:   0.195 TIME LEFT:  2.00D  GRAD.:     3.839 HEAT:  98.19399
 CYCLE:   199 TIME:   0.195 TIME LEFT:  2.00D  GRAD.:     4.584 HEAT:  98.19204
 CYCLE:   200 TIME:   0.195 TIME LEFT:  2.00D  GRAD.:     6.914 HEAT:  98.18883
 CYCLE:   201 TIME:   0.188 TIME LEFT:  2.00D  GRAD.:     6.471 HEAT:  98.18613
 CYCLE:   202 TIME:   0.258 TIME LEFT:  2.00D  GRAD.:     5.092 HEAT:  98.18364
 CYCLE:   203 TIME:   0.250 TIME LEFT:  2.00D  GRAD.:     4.869 HEAT:  98.18121
 CYCLE:   204 TIME:   0.188 TIME LEFT:  2.00D  GRAD.:     5.038 HEAT:  98.17941
 CYCLE:   205 TIME:   0.188 TIME LEFT:  2.00D  GRAD.:     6.827 HEAT:  98.17700
 CYCLE:   206 TIME:   0.188 TIME LEFT:  2.00D  GRAD.:     9.562 HEAT:  98.17458
 CYCLE:   207 TIME:   0.219 TIME LEFT:  2.00D  GRAD.:     5.234 HEAT:  98.17114
 CYCLE:   208 TIME:   0.234 TIME LEFT:  2.00D  GRAD.:     4.555 HEAT:  98.16744
 CYCLE:   209 TIME:   0.195 TIME LEFT:  2.00D  GRAD.:     4.217 HEAT:  98.16461
 CYCLE:   210 TIME:   0.234 TIME LEFT:  2.00D  GRAD.:     5.158 HEAT:  98.16059
 CYCLE:   211 TIME:   0.242 TIME LEFT:  2.00D  GRAD.:    15.309 HEAT:  98.16153
 CYCLE:   212 TIME:   0.258 TIME LEFT:  2.00D  GRAD.:     3.842 HEAT:  98.15539
 CYCLE:   213 TIME:   0.258 TIME LEFT:  2.00D  GRAD.:     3.414 HEAT:  98.15372
 CYCLE:   214 TIME:   0.234 TIME LEFT:  2.00D  GRAD.:    10.790 HEAT:  98.15098
 CYCLE:   215 TIME:   0.219 TIME LEFT:  2.00D  GRAD.:     6.157 HEAT:  98.14743
 CYCLE:   216 TIME:   0.258 TIME LEFT:  2.00D  GRAD.:     3.391 HEAT:  98.14492
 CYCLE:   217 TIME:   0.273 TIME LEFT:  2.00D  GRAD.:     4.906 HEAT:  98.14295
 CYCLE:   218 TIME:   0.258 TIME LEFT:  2.00D  GRAD.:     4.927 HEAT:  98.14119
 CYCLE:   219 TIME:   0.250 TIME LEFT:  2.00D  GRAD.:     6.498 HEAT:  98.13834
 CYCLE:   220 TIME:   0.203 TIME LEFT:  2.00D  GRAD.:    11.628 HEAT:  98.13677
 CYCLE:   221 TIME:   0.234 TIME LEFT:  2.00D  GRAD.:     4.230 HEAT:  98.13408
 CYCLE:   222 TIME:   0.227 TIME LEFT:  2.00D  GRAD.:     3.171 HEAT:  98.13275
 CYCLE:   223 TIME:   0.219 TIME LEFT:  2.00D  GRAD.:     3.112 HEAT:  98.13036
 CYCLE:   224 TIME:   0.203 TIME LEFT:  2.00D  GRAD.:     4.436 HEAT:  98.12763
 CYCLE:   225 TIME:   0.211 TIME LEFT:  2.00D  GRAD.:     8.488 HEAT:  98.12617
 CYCLE:   226 TIME:   0.211 TIME LEFT:  2.00D  GRAD.:     3.706 HEAT:  98.12372
 CYCLE:   227 TIME:   0.227 TIME LEFT:  2.00D  GRAD.:     2.997 HEAT:  98.12206
 CYCLE:   228 TIME:   0.227 TIME LEFT:  2.00D  GRAD.:     3.733 HEAT:  98.12040
 CYCLE:   229 TIME:   0.211 TIME LEFT:  2.00D  GRAD.:    10.783 HEAT:  98.11876
 CYCLE:   230 TIME:   0.195 TIME LEFT:  2.00D  GRAD.:     8.454 HEAT:  98.11627
 CYCLE:   231 TIME:   0.219 TIME LEFT:  2.00D  GRAD.:     4.001 HEAT:  98.11476
 CYCLE:   232 TIME:   0.234 TIME LEFT:  2.00D  GRAD.:     3.124 HEAT:  98.11332
 CYCLE:   233 TIME:   0.234 TIME LEFT:  2.00D  GRAD.:     3.055 HEAT:  98.11248
 CYCLE:   234 TIME:   0.219 TIME LEFT:  2.00D  GRAD.:     5.058 HEAT:  98.11084
 CYCLE:   235 TIME:   0.188 TIME LEFT:  2.00D  GRAD.:     4.039 HEAT:  98.10895
 CYCLE:   236 TIME:   0.211 TIME LEFT:  2.00D  GRAD.:     3.746 HEAT:  98.10734
 CYCLE:   237 TIME:   0.203 TIME LEFT:  2.00D  GRAD.:     4.989 HEAT:  98.10403
 CYCLE:   238 TIME:   0.195 TIME LEFT:  2.00D  GRAD.:    10.081 HEAT:  98.10246
 CYCLE:   239 TIME:   0.188 TIME LEFT:  2.00D  GRAD.:     3.585 HEAT:  98.09976
 CYCLE:   240 TIME:   0.250 TIME LEFT:  2.00D  GRAD.:     3.818 HEAT:  98.09832
 CYCLE:   241 TIME:   0.234 TIME LEFT:  2.00D  GRAD.:     3.838 HEAT:  98.09673
 CYCLE:   242 TIME:   0.242 TIME LEFT:  2.00D  GRAD.:     4.185 HEAT:  98.09463
 CYCLE:   243 TIME:   0.195 TIME LEFT:  2.00D  GRAD.:     3.942 HEAT:  98.09309
 CYCLE:   244 TIME:   0.203 TIME LEFT:  2.00D  GRAD.:     3.833 HEAT:  98.09158
 CYCLE:   245 TIME:   0.203 TIME LEFT:  2.00D  GRAD.:    10.551 HEAT:  98.09115
 CYCLE:   246 TIME:   0.172 TIME LEFT:  2.00D  GRAD.:     3.198 HEAT:  98.08981
 CYCLE:   247 TIME:   0.219 TIME LEFT:  2.00D  GRAD.:     2.593 HEAT:  98.08941
 CYCLE:   248 TIME:   0.188 TIME LEFT:  2.00D  GRAD.:     7.283 HEAT:  98.08808
 CYCLE:   249 TIME:   0.188 TIME LEFT:  2.00D  GRAD.:     4.711 HEAT:  98.08701
 CYCLE:   250 TIME:   0.188 TIME LEFT:  2.00D  GRAD.:     2.654 HEAT:  98.08553
 CYCLE:   251 TIME:   0.195 TIME LEFT:  2.00D  GRAD.:     2.666 HEAT:  98.08471
 CYCLE:   252 TIME:   0.195 TIME LEFT:  2.00D  GRAD.:     3.160 HEAT:  98.08282
 CYCLE:   253 TIME:   0.188 TIME LEFT:  2.00D  GRAD.:     3.810 HEAT:  98.08105
 CYCLE:   254 TIME:   0.211 TIME LEFT:  2.00D  GRAD.:     6.555 HEAT:  98.08006
 CYCLE:   255 TIME:   0.203 TIME LEFT:  2.00D  GRAD.:     2.161 HEAT:  98.07911
 CYCLE:   256 TIME:   0.188 TIME LEFT:  2.00D  GRAD.:     2.574 HEAT:  98.07880
 CYCLE:   257 TIME:   0.188 TIME LEFT:  2.00D  GRAD.:     4.198 HEAT:  98.07784
 CYCLE:   258 TIME:   0.195 TIME LEFT:  2.00D  GRAD.:     3.898 HEAT:  98.07674
 CYCLE:   259 TIME:   0.203 TIME LEFT:  2.00D  GRAD.:    12.480 HEAT:  98.07772
 CYCLE:   260 TIME:   0.180 TIME LEFT:  2.00D  GRAD.:     3.708 HEAT:  98.07586
 CYCLE:   261 TIME:   0.234 TIME LEFT:  2.00D  GRAD.:     1.910 HEAT:  98.07528
 CYCLE:   262 TIME:   0.211 TIME LEFT:  2.00D  GRAD.:     2.815 HEAT:  98.07496
 CYCLE:   263 TIME:   0.219 TIME LEFT:  2.00D  GRAD.:     3.745 HEAT:  98.07415
 CYCLE:   264 TIME:   0.219 TIME LEFT:  2.00D  GRAD.:    13.329 HEAT:  98.07515
 CYCLE:   265 TIME:   0.188 TIME LEFT:  2.00D  GRAD.:     2.679 HEAT:  98.07336
 CYCLE:   266 TIME:   0.188 TIME LEFT:  2.00D  GRAD.:     1.951 HEAT:  98.07317
 CYCLE:   267 TIME:   0.250 TIME LEFT:  2.00D  GRAD.:     3.706 HEAT:  98.07271
 CYCLE:   268 TIME:   0.227 TIME LEFT:  2.00D  GRAD.:     4.308 HEAT:  98.07225
 CYCLE:   269 TIME:   0.211 TIME LEFT:  2.00D  GRAD.:     4.852 HEAT:  98.07164
 CYCLE:   270 TIME:   0.203 TIME LEFT:  2.00D  GRAD.:     1.642 HEAT:  98.07102
 CYCLE:   271 TIME:   0.188 TIME LEFT:  2.00D  GRAD.:     1.521 HEAT:  98.07084
 CYCLE:   272 TIME:   0.219 TIME LEFT:  2.00D  GRAD.:     3.325 HEAT:  98.07017
 CYCLE:   273 TIME:   0.188 TIME LEFT:  2.00D  GRAD.:     2.881 HEAT:  98.06954
 CYCLE:   274 TIME:   0.195 TIME LEFT:  2.00D  GRAD.:     2.858 HEAT:  98.06861
 CYCLE:   275 TIME:   0.203 TIME LEFT:  2.00D  GRAD.:     2.142 HEAT:  98.06807
 CYCLE:   276 TIME:   0.188 TIME LEFT:  2.00D  GRAD.:     1.724 HEAT:  98.06769
 CYCLE:   277 TIME:   0.219 TIME LEFT:  2.00D  GRAD.:     1.750 HEAT:  98.06691
 CYCLE:   278 TIME:   0.211 TIME LEFT:  2.00D  GRAD.:     5.821 HEAT:  98.06626
 CYCLE:   279 TIME:   0.188 TIME LEFT:  2.00D  GRAD.:     2.995 HEAT:  98.06562
 CYCLE:   280 TIME:   0.180 TIME LEFT:  2.00D  GRAD.:     1.736 HEAT:  98.06526
 CYCLE:   281 TIME:   0.203 TIME LEFT:  2.00D  GRAD.:     5.557 HEAT:  98.06518
 CYCLE:   282 TIME:   0.195 TIME LEFT:  2.00D  GRAD.:     1.614 HEAT:  98.06452
 CYCLE:   283 TIME:   0.188 TIME LEFT:  2.00D  GRAD.:     1.294 HEAT:  98.06434
 CYCLE:   284 TIME:   0.203 TIME LEFT:  2.00D  GRAD.:     1.935 HEAT:  98.06388
 CYCLE:   285 TIME:   0.219 TIME LEFT:  2.00D  GRAD.:     2.979 HEAT:  98.06334
 CYCLE:   286 TIME:   0.188 TIME LEFT:  2.00D  GRAD.:     1.833 HEAT:  98.06267
 CYCLE:   287 TIME:   0.203 TIME LEFT:  2.00D  GRAD.:     2.576 HEAT:  98.06221
 CYCLE:   288 TIME:   0.203 TIME LEFT:  2.00D  GRAD.:     1.645 HEAT:  98.06188
 CYCLE:   289 TIME:   0.203 TIME LEFT:  2.00D  GRAD.:     1.636 HEAT:  98.06155
 CYCLE:   290 TIME:   0.242 TIME LEFT:  2.00D  GRAD.:     1.865 HEAT:  98.06110
 CYCLE:   291 TIME:   0.203 TIME LEFT:  2.00D  GRAD.:     2.794 HEAT:  98.06060
 CYCLE:   292 TIME:   0.195 TIME LEFT:  2.00D  GRAD.:     1.513 HEAT:  98.06004
 CYCLE:   293 TIME:   0.211 TIME LEFT:  2.00D  GRAD.:     1.227 HEAT:  98.05972
 CYCLE:   294 TIME:   0.203 TIME LEFT:  2.00D  GRAD.:     1.530 HEAT:  98.05943
 CYCLE:   295 TIME:   0.195 TIME LEFT:  2.00D  GRAD.:     1.482 HEAT:  98.05899
 CYCLE:   296 TIME:   0.219 TIME LEFT:  2.00D  GRAD.:     7.506 HEAT:  98.05924
 CYCLE:   297 TIME:   0.234 TIME LEFT:  2.00D  GRAD.:     1.512 HEAT:  98.05841
 CYCLE:   298 TIME:   0.188 TIME LEFT:  2.00D  GRAD.:     1.295 HEAT:  98.05828
 CYCLE:   299 TIME:   0.211 TIME LEFT:  2.00D  GRAD.:     1.560 HEAT:  98.05802
 CYCLE:   300 TIME:   0.195 TIME LEFT:  2.00D  GRAD.:     2.152 HEAT:  98.05767
 CYCLE:   301 TIME:   0.195 TIME LEFT:  2.00D  GRAD.:     3.914 HEAT:  98.05745
 CYCLE:   302 TIME:   0.180 TIME LEFT:  2.00D  GRAD.:     1.255 HEAT:  98.05717
 CYCLE:   303 TIME:   0.203 TIME LEFT:  2.00D  GRAD.:     1.121 HEAT:  98.05703
 CYCLE:   304 TIME:   0.211 TIME LEFT:  2.00D  GRAD.:     1.436 HEAT:  98.05677
 CYCLE:   305 TIME:   0.234 TIME LEFT:  2.00D  GRAD.:     2.143 HEAT:  98.05642
 CYCLE:   306 TIME:   0.203 TIME LEFT:  2.00D  GRAD.:     1.564 HEAT:  98.05611
 CYCLE:   307 TIME:   0.203 TIME LEFT:  2.00D  GRAD.:     1.103 HEAT:  98.05593
 CYCLE:   308 TIME:   0.195 TIME LEFT:  2.00D  GRAD.:     2.020 HEAT:  98.05566
 CYCLE:   309 TIME:   0.211 TIME LEFT:  2.00D  GRAD.:     1.818 HEAT:  98.05543
 CYCLE:   310 TIME:   0.227 TIME LEFT:  2.00D  GRAD.:     1.391 HEAT:  98.05518
 CYCLE:   311 TIME:   0.234 TIME LEFT:  2.00D  GRAD.:     1.475 HEAT:  98.05476
 CYCLE:   312 TIME:   0.219 TIME LEFT:  2.00D  GRAD.:     8.208 HEAT:  98.05507
 CYCLE:   313 TIME:   0.211 TIME LEFT:  2.00D  GRAD.:     2.074 HEAT:  98.05441
 CYCLE:   314 TIME:   0.219 TIME LEFT:  2.00D  GRAD.:     1.354 HEAT:  98.05426
 CYCLE:   315 TIME:   0.195 TIME LEFT:  2.00D  GRAD.:     1.472 HEAT:  98.05397
 CYCLE:   316 TIME:   0.211 TIME LEFT:  2.00D  GRAD.:     3.063 HEAT:  98.05379
 CYCLE:   317 TIME:   0.180 TIME LEFT:  2.00D  GRAD.:     1.161 HEAT:  98.05355
 CYCLE:   318 TIME:   0.188 TIME LEFT:  2.00D  GRAD.:     1.143 HEAT:  98.05342
 CYCLE:   319 TIME:   0.195 TIME LEFT:  2.00D  GRAD.:     1.952 HEAT:  98.05311
 CYCLE:   320 TIME:   0.188 TIME LEFT:  2.00D  GRAD.:     1.571 HEAT:  98.05285
 CYCLE:   321 TIME:   0.219 TIME LEFT:  2.00D  GRAD.:     2.187 HEAT:  98.05247
 CYCLE:   322 TIME:   0.203 TIME LEFT:  2.00D  GRAD.:     1.817 HEAT:  98.05224
 CYCLE:   323 TIME:   0.219 TIME LEFT:  2.00D  GRAD.:     1.282 HEAT:  98.05213
 CYCLE:   324 TIME:   0.227 TIME LEFT:  2.00D  GRAD.:     1.942 HEAT:  98.05189
 CYCLE:   325 TIME:   0.195 TIME LEFT:  2.00D  GRAD.:     1.480 HEAT:  98.05175
 CYCLE:   326 TIME:   0.195 TIME LEFT:  2.00D  GRAD.:     1.179 HEAT:  98.05157
 CYCLE:   327 TIME:   0.195 TIME LEFT:  2.00D  GRAD.:     1.689 HEAT:  98.05138
 CYCLE:   328 TIME:   0.219 TIME LEFT:  2.00D  GRAD.:     2.060 HEAT:  98.05127
 CYCLE:   329 TIME:   0.195 TIME LEFT:  2.00D  GRAD.:     0.769 HEAT:  98.05118
 CYCLE:   330 TIME:   0.203 TIME LEFT:  2.00D  GRAD.:     0.782 HEAT:  98.05114
 CYCLE:   331 TIME:   0.219 TIME LEFT:  2.00D  GRAD.:     1.038 HEAT:  98.05102
 CYCLE:   332 TIME:   0.203 TIME LEFT:  2.00D  GRAD.:     0.893 HEAT:  98.05091
 CYCLE:   333 TIME:   0.203 TIME LEFT:  2.00D  GRAD.:     1.795 HEAT:  98.05080
 CYCLE:   334 TIME:   0.188 TIME LEFT:  2.00D  GRAD.:     0.915 HEAT:  98.05070
 CYCLE:   335 TIME:   0.180 TIME LEFT:  2.00D  GRAD.:     0.856 HEAT:  98.05065
 CYCLE:   336 TIME:   0.195 TIME LEFT:  2.00D  GRAD.:     0.801 HEAT:  98.05052
 CYCLE:   337 TIME:   0.211 TIME LEFT:  2.00D  GRAD.:     1.074 HEAT:  98.05046
 CYCLE:   338 TIME:   0.195 TIME LEFT:  2.00D  GRAD.:     0.815 HEAT:  98.05036
 CYCLE:   339 TIME:   0.188 TIME LEFT:  2.00D  GRAD.:     0.637 HEAT:  98.05029
 CYCLE:   340 TIME:   0.211 TIME LEFT:  2.00D  GRAD.:     0.736 HEAT:  98.05024
 CYCLE:   341 TIME:   0.242 TIME LEFT:  2.00D  GRAD.:     0.592 HEAT:  98.05020
 CYCLE:   342 TIME:   0.211 TIME LEFT:  2.00D  GRAD.:     0.553 HEAT:  98.05015
 CYCLE:   343 TIME:   0.258 TIME LEFT:  2.00D  GRAD.:     1.340 HEAT:  98.05011
 CYCLE:   344 TIME:   0.195 TIME LEFT:  2.00D  GRAD.:     0.648 HEAT:  98.05007
 CYCLE:   345 TIME:   0.211 TIME LEFT:  2.00D  GRAD.:     0.700 HEAT:  98.05002
 CYCLE:   346 TIME:   0.281 TIME LEFT:  2.00D  GRAD.:     0.615 HEAT:  98.04998
 CYCLE:   347 TIME:   0.227 TIME LEFT:  2.00D  GRAD.:     0.817 HEAT:  98.04988
 CYCLE:   348 TIME:   0.234 TIME LEFT:  2.00D  GRAD.:     3.851 HEAT:  98.05005
 CYCLE:   349 TIME:   0.203 TIME LEFT:  2.00D  GRAD.:     0.607 HEAT:  98.04979
 CYCLE:   350 TIME:   0.273 TIME LEFT:  2.00D  GRAD.:     0.515 HEAT:  98.04975
 CYCLE:   351 TIME:   0.266 TIME LEFT:  2.00D  GRAD.:     0.452 HEAT:  98.04968
 CYCLE:   352 TIME:   0.273 TIME LEFT:  2.00D  GRAD.:     0.645 HEAT:  98.04957
 CYCLE:   353 TIME:   0.273 TIME LEFT:  2.00D  GRAD.:     1.142 HEAT:  98.04951
 CYCLE:   354 TIME:   0.258 TIME LEFT:  2.00D  GRAD.:     1.410 HEAT:  98.04948
 CYCLE:   355 TIME:   0.242 TIME LEFT:  2.00D  GRAD.:     0.779 HEAT:  98.04942
 CYCLE:   356 TIME:   0.203 TIME LEFT:  2.00D  GRAD.:     1.208 HEAT:  98.04941
 CYCLE:   357 TIME:   0.203 TIME LEFT:  2.00D  GRAD.:     0.629 HEAT:  98.04935
 CYCLE:   358 TIME:   0.188 TIME LEFT:  2.00D  GRAD.:     0.581 HEAT:  98.04932
 CYCLE:   359 TIME:   0.211 TIME LEFT:  2.00D  GRAD.:     1.089 HEAT:  98.04925
 CYCLE:   360 TIME:   0.203 TIME LEFT:  2.00D  GRAD.:     2.577 HEAT:  98.04927
 CYCLE:   361 TIME:   0.188 TIME LEFT:  2.00D  GRAD.:     0.651 HEAT:  98.04920
 CYCLE:   362 TIME:   0.188 TIME LEFT:  2.00D  GRAD.:     0.484 HEAT:  98.04918
 CYCLE:   363 TIME:   0.188 TIME LEFT:  2.00D  GRAD.:     0.578 HEAT:  98.04914
 CYCLE:   364 TIME:   0.203 TIME LEFT:  2.00D  GRAD.:     0.709 HEAT:  98.04908
 CYCLE:   365 TIME:   0.227 TIME LEFT:  2.00D  GRAD.:     1.833 HEAT:  98.04908
 CYCLE:   366 TIME:   0.250 TIME LEFT:  2.00D  GRAD.:     0.528 HEAT:  98.04904
 CYCLE:   367 TIME:   0.281 TIME LEFT:  2.00D  GRAD.:     0.488 HEAT:  98.04902
 CYCLE:   368 TIME:   0.266 TIME LEFT:  2.00D  GRAD.:     0.386 HEAT:  98.04900
 CYCLE:   369 TIME:   0.273 TIME LEFT:  2.00D  GRAD.:     0.435 HEAT:  98.04894
 CYCLE:   370 TIME:   0.297 TIME LEFT:  2.00D  GRAD.:     2.123 HEAT:  98.04898
 CYCLE:   371 TIME:   0.227 TIME LEFT:  2.00D  GRAD.:     0.441 HEAT:  98.04890
 CYCLE:   372 TIME:   0.281 TIME LEFT:  2.00D  GRAD.:     0.392 HEAT:  98.04888
 CYCLE:   373 TIME:   0.242 TIME LEFT:  2.00D  GRAD.:     0.438 HEAT:  98.04885
 CYCLE:   374 TIME:   0.242 TIME LEFT:  2.00D  GRAD.:     0.413 HEAT:  98.04879
 CYCLE:   375 TIME:   0.195 TIME LEFT:  2.00D  GRAD.:     0.842 HEAT:  98.04875
 CYCLE:   376 TIME:   0.195 TIME LEFT:  2.00D  GRAD.:     0.746 HEAT:  98.04871
 CYCLE:   377 TIME:   0.180 TIME LEFT:  2.00D  GRAD.:     0.590 HEAT:  98.04869
 CYCLE:   378 TIME:   0.195 TIME LEFT:  2.00D  GRAD.:     0.333 HEAT:  98.04863
 CYCLE:   379 TIME:   0.219 TIME LEFT:  2.00D  GRAD.:     0.481 HEAT:  98.04861
 CYCLE:   380 TIME:   0.203 TIME LEFT:  2.00D  GRAD.:     0.554 HEAT:  98.04858
 CYCLE:   381 TIME:   0.219 TIME LEFT:  2.00D  GRAD.:     1.093 HEAT:  98.04856
 CYCLE:   382 TIME:   0.227 TIME LEFT:  2.00D  GRAD.:     0.371 HEAT:  98.04854
 CYCLE:   383 TIME:   0.180 TIME LEFT:  2.00D  GRAD.:     0.356 HEAT:  98.04853
 CYCLE:   384 TIME:   0.203 TIME LEFT:  2.00D  GRAD.:     0.463 HEAT:  98.04851
 CYCLE:   385 TIME:   0.180 TIME LEFT:  2.00D  GRAD.:     0.464 HEAT:  98.04849
 CYCLE:   386 TIME:   0.188 TIME LEFT:  2.00D  GRAD.:     0.387 HEAT:  98.04847
 CYCLE:   387 TIME:   0.234 TIME LEFT:  2.00D  GRAD.:     0.724 HEAT:  98.04844
 CYCLE:   388 TIME:   0.188 TIME LEFT:  2.00D  GRAD.:     0.812 HEAT:  98.04844
 CYCLE:   389 TIME:   0.188 TIME LEFT:  2.00D  GRAD.:     0.413 HEAT:  98.04841
 CYCLE:   390 TIME:   0.180 TIME LEFT:  2.00D  GRAD.:     0.353 HEAT:  98.04841
 CYCLE:   391 TIME:   0.219 TIME LEFT:  2.00D  GRAD.:     0.519 HEAT:  98.04839
 CYCLE:   392 TIME:   0.195 TIME LEFT:  2.00D  GRAD.:     0.415 HEAT:  98.04837
 CYCLE:   393 TIME:   0.227 TIME LEFT:  2.00D  GRAD.:     0.569 HEAT:  98.04835
 CYCLE:   394 TIME:   0.203 TIME LEFT:  2.00D  GRAD.:     0.303 HEAT:  98.04834
 CYCLE:   395 TIME:   0.211 TIME LEFT:  2.00D  GRAD.:     0.258 HEAT:  98.04833
 CYCLE:   396 TIME:   0.250 TIME LEFT:  2.00D  GRAD.:     0.463 HEAT:  98.04831
 CYCLE:   397 TIME:   0.203 TIME LEFT:  2.00D  GRAD.:     0.545 HEAT:  98.04829
 CYCLE:   398 TIME:   0.211 TIME LEFT:  2.00D  GRAD.:     0.582 HEAT:  98.04828
 CYCLE:   399 TIME:   0.195 TIME LEFT:  2.00D  GRAD.:     0.698 HEAT:  98.04826
 CYCLE:   400 TIME:   0.188 TIME LEFT:  2.00D  GRAD.:     0.329 HEAT:  98.04825
 CYCLE:   401 TIME:   0.195 TIME LEFT:  2.00D  GRAD.:     0.316 HEAT:  98.04825
 CYCLE:   402 TIME:   0.203 TIME LEFT:  2.00D  GRAD.:     0.931 HEAT:  98.04824
 CYCLE:   403 TIME:   0.203 TIME LEFT:  2.00D  GRAD.:     0.484 HEAT:  98.04822
 CYCLE:   404 TIME:   0.188 TIME LEFT:  2.00D  GRAD.:     0.291 HEAT:  98.04821
 CYCLE:   405 TIME:   0.172 TIME LEFT:  2.00D  GRAD.:     0.222 HEAT:  98.04820
 CYCLE:   406 TIME:   0.188 TIME LEFT:  2.00D  GRAD.:     0.243 HEAT:  98.04818
 CYCLE:   407 TIME:   0.211 TIME LEFT:  2.00D  GRAD.:     0.742 HEAT:  98.04816
 CYCLE:   408 TIME:   0.188 TIME LEFT:  2.00D  GRAD.:     0.317 HEAT:  98.04814
 CYCLE:   409 TIME:   0.242 TIME LEFT:  2.00D  GRAD.:     0.282 HEAT:  98.04814
 CYCLE:   410 TIME:   0.250 TIME LEFT:  2.00D  GRAD.:     0.293 HEAT:  98.04812
 CYCLE:   411 TIME:   0.273 TIME LEFT:  2.00D  GRAD.:     0.368 HEAT:  98.04811
 CYCLE:   412 TIME:   0.258 TIME LEFT:  2.00D  GRAD.:     0.405 HEAT:  98.04810
 CYCLE:   413 TIME:   0.242 TIME LEFT:  2.00D  GRAD.:     0.371 HEAT:  98.04808
 CYCLE:   414 TIME:   0.250 TIME LEFT:  2.00D  GRAD.:     0.433 HEAT:  98.04807
 CYCLE:   415 TIME:   0.180 TIME LEFT:  2.00D  GRAD.:     0.299 HEAT:  98.04806
 CYCLE:   416 TIME:   0.188 TIME LEFT:  2.00D  GRAD.:     0.214 HEAT:  98.04805
 CYCLE:   417 TIME:   0.188 TIME LEFT:  2.00D  GRAD.:     0.277 HEAT:  98.04804
 CYCLE:   418 TIME:   0.195 TIME LEFT:  2.00D  GRAD.:     0.773 HEAT:  98.04803
 CYCLE:   419 TIME:   0.203 TIME LEFT:  2.00D  GRAD.:     0.300 HEAT:  98.04802
 CYCLE:   420 TIME:   0.188 TIME LEFT:  2.00D  GRAD.:     0.857 HEAT:  98.04802
 CYCLE:   421 TIME:   0.211 TIME LEFT:  2.00D  GRAD.:     0.365 HEAT:  98.04801
 CYCLE:   422 TIME:   0.188 TIME LEFT:  2.00D  GRAD.:     0.264 HEAT:  98.04800
 CYCLE:   423 TIME:   0.227 TIME LEFT:  2.00D  GRAD.:     0.188 HEAT:  98.04800
 CYCLE:   424 TIME:   0.250 TIME LEFT:  2.00D  GRAD.:     0.367 HEAT:  98.04799
 CYCLE:   425 TIME:   0.250 TIME LEFT:  2.00D  GRAD.:     0.368 HEAT:  98.04799
 CYCLE:   426 TIME:   0.211 TIME LEFT:  2.00D  GRAD.:     0.213 HEAT:  98.04798
 CYCLE:   427 TIME:   0.219 TIME LEFT:  2.00D  GRAD.:     0.219 HEAT:  98.04797
 CYCLE:   428 TIME:   0.258 TIME LEFT:  2.00D  GRAD.:     0.425 HEAT:  98.04797
 CYCLE:   429 TIME:   0.281 TIME LEFT:  2.00D  GRAD.:     0.224 HEAT:  98.04796
 CYCLE:   430 TIME:   0.211 TIME LEFT:  2.00D  GRAD.:     0.344 HEAT:  98.04795
 CYCLE:   431 TIME:   0.188 TIME LEFT:  2.00D  GRAD.:     0.338 HEAT:  98.04794
 CYCLE:   432 TIME:   0.180 TIME LEFT:  2.00D  GRAD.:     0.292 HEAT:  98.04793
 CYCLE:   433 TIME:   0.211 TIME LEFT:  2.00D  GRAD.:     0.288 HEAT:  98.04792
 CYCLE:   434 TIME:   0.195 TIME LEFT:  2.00D  GRAD.:     0.278 HEAT:  98.04791
 CYCLE:   435 TIME:   0.188 TIME LEFT:  2.00D  GRAD.:     0.303 HEAT:  98.04790
 CYCLE:   436 TIME:   0.180 TIME LEFT:  2.00D  GRAD.:     0.340 HEAT:  98.04789
 CYCLE:   437 TIME:   0.195 TIME LEFT:  2.00D  GRAD.:     0.298 HEAT:  98.04788
 CYCLE:   438 TIME:   0.172 TIME LEFT:  2.00D  GRAD.:     0.235 HEAT:  98.04788
 CYCLE:   439 TIME:   0.195 TIME LEFT:  2.00D  GRAD.:     0.229 HEAT:  98.04787
 CYCLE:   440 TIME:   0.219 TIME LEFT:  2.00D  GRAD.:     0.373 HEAT:  98.04786
 CYCLE:   441 TIME:   0.211 TIME LEFT:  2.00D  GRAD.:     0.208 HEAT:  98.04785
 CYCLE:   442 TIME:   0.250 TIME LEFT:  2.00D  GRAD.:     0.233 HEAT:  98.04784
 CYCLE:   443 TIME:   0.195 TIME LEFT:  2.00D  GRAD.:     0.588 HEAT:  98.04784
 CYCLE:   444 TIME:   0.203 TIME LEFT:  2.00D  GRAD.:     0.803 HEAT:  98.04783
 CYCLE:   445 TIME:   0.203 TIME LEFT:  2.00D  GRAD.:     0.484 HEAT:  98.04782
 CYCLE:   446 TIME:   0.188 TIME LEFT:  2.00D  GRAD.:     0.191 HEAT:  98.04781
 CYCLE:   447 TIME:   0.180 TIME LEFT:  2.00D  GRAD.:     0.157 HEAT:  98.04781
 CYCLE:   448 TIME:   0.250 TIME LEFT:  2.00D  GRAD.:     0.188 HEAT:  98.04780
 CYCLE:   449 TIME:   0.266 TIME LEFT:  2.00D  GRAD.:     0.232 HEAT:  98.04779
 CYCLE:   450 TIME:   0.273 TIME LEFT:  2.00D  GRAD.:     0.743 HEAT:  98.04779
 CYCLE:   451 TIME:   0.234 TIME LEFT:  2.00D  GRAD.:     0.262 HEAT:  98.04778
 CYCLE:   452 TIME:   0.266 TIME LEFT:  2.00D  GRAD.:     0.203 HEAT:  98.04777
 CYCLE:   453 TIME:   0.273 TIME LEFT:  2.00D  GRAD.:     0.261 HEAT:  98.04777
 CYCLE:   454 TIME:   0.258 TIME LEFT:  2.00D  GRAD.:     0.214 HEAT:  98.04777
 CYCLE:   455 TIME:   0.227 TIME LEFT:  2.00D  GRAD.:     0.444 HEAT:  98.04776
 CYCLE:   456 TIME:   0.242 TIME LEFT:  2.00D  GRAD.:     0.152 HEAT:  98.04776
 CYCLE:   457 TIME:   0.219 TIME LEFT:  2.00D  GRAD.:     0.145 HEAT:  98.04776
 CYCLE:   458 TIME:   0.195 TIME LEFT:  2.00D  GRAD.:     0.156 HEAT:  98.04776
 CYCLE:   459 TIME:   0.172 TIME LEFT:  2.00D  GRAD.:     0.198 HEAT:  98.04775
 CYCLE:   460 TIME:   0.188 TIME LEFT:  2.00D  GRAD.:     0.344 HEAT:  98.04775
 CYCLE:   461 TIME:   0.188 TIME LEFT:  2.00D  GRAD.:     0.208 HEAT:  98.04774
 CYCLE:   462 TIME:   0.188 TIME LEFT:  2.00D  GRAD.:     0.212 HEAT:  98.04774
 CYCLE:   463 TIME:   0.250 TIME LEFT:  2.00D  GRAD.:     0.570 HEAT:  98.04774
 CYCLE:   464 TIME:   0.219 TIME LEFT:  2.00D  GRAD.:     0.202 HEAT:  98.04774
 CYCLE:   465 TIME:   0.234 TIME LEFT:  2.00D  GRAD.:     0.147 HEAT:  98.04774
 CYCLE:   466 TIME:   0.227 TIME LEFT:  2.00D  GRAD.:     0.136 HEAT:  98.04773
 CYCLE:   467 TIME:   0.242 TIME LEFT:  2.00D  GRAD.:     0.239 HEAT:  98.04773
 CYCLE:   468 TIME:   0.188 TIME LEFT:  2.00D  GRAD.:     0.145 HEAT:  98.04773
 CYCLE:   469 TIME:   0.188 TIME LEFT:  2.00D  GRAD.:     0.155 HEAT:  98.04772
 CYCLE:   470 TIME:   0.188 TIME LEFT:  2.00D  GRAD.:     0.182 HEAT:  98.04772
 CYCLE:   471 TIME:   0.188 TIME LEFT:  2.00D  GRAD.:     0.239 HEAT:  98.04772
 CYCLE:   472 TIME:   0.188 TIME LEFT:  2.00D  GRAD.:     0.219 HEAT:  98.04772
 CYCLE:   473 TIME:   0.180 TIME LEFT:  2.00D  GRAD.:     0.128 HEAT:  98.04772
 CYCLE:   474 TIME:   0.195 TIME LEFT:  2.00D  GRAD.:     0.102 HEAT:  98.04771
 CYCLE:   475 TIME:   0.219 TIME LEFT:  2.00D  GRAD.:     0.181 HEAT:  98.04771
 CYCLE:   476 TIME:   0.219 TIME LEFT:  2.00D  GRAD.:     0.321 HEAT:  98.04771
 CYCLE:   477 TIME:   0.211 TIME LEFT:  2.00D  GRAD.:     0.170 HEAT:  98.04771
 CYCLE:   478 TIME:   0.227 TIME LEFT:  2.00D  GRAD.:     0.141 HEAT:  98.04770
 CYCLE:   479 TIME:   0.250 TIME LEFT:  2.00D  GRAD.:     0.201 HEAT:  98.04770
 CYCLE:   480 TIME:   0.195 TIME LEFT:  2.00D  GRAD.:     0.223 HEAT:  98.04770
 CYCLE:   481 TIME:   0.180 TIME LEFT:  2.00D  GRAD.:     0.253 HEAT:  98.04769
 CYCLE:   482 TIME:   0.188 TIME LEFT:  2.00D  GRAD.:     0.245 HEAT:  98.04769
 CYCLE:   483 TIME:   0.172 TIME LEFT:  2.00D  GRAD.:     0.184 HEAT:  98.04769
 CYCLE:   484 TIME:   0.172 TIME LEFT:  2.00D  GRAD.:     0.145 HEAT:  98.04769
 CYCLE:   485 TIME:   0.266 TIME LEFT:  2.00D  GRAD.:     0.192 HEAT:  98.04769
 CYCLE:   486 TIME:   0.250 TIME LEFT:  2.00D  GRAD.:     0.112 HEAT:  98.04768
 CYCLE:   487 TIME:   0.195 TIME LEFT:  2.00D  GRAD.:     0.149 HEAT:  98.04768
 CYCLE:   488 TIME:   0.172 TIME LEFT:  2.00D  GRAD.:     0.130 HEAT:  98.04768
 CYCLE:   489 TIME:   0.203 TIME LEFT:  2.00D  GRAD.:     0.217 HEAT:  98.04767
 CYCLE:   490 TIME:   0.172 TIME LEFT:  2.00D  GRAD.:     0.158 HEAT:  98.04767
 CYCLE:   491 TIME:   0.195 TIME LEFT:  2.00D  GRAD.:     0.199 HEAT:  98.04767
 CYCLE:   492 TIME:   0.211 TIME LEFT:  2.00D  GRAD.:     0.194 HEAT:  98.04767
 CYCLE:   493 TIME:   0.188 TIME LEFT:  2.00D  GRAD.:     0.140 HEAT:  98.04767
 CYCLE:   494 TIME:   0.180 TIME LEFT:  2.00D  GRAD.:     0.148 HEAT:  98.04766
 CYCLE:   495 TIME:   0.164 TIME LEFT:  2.00D  GRAD.:     0.114 HEAT:  98.04766
 CYCLE:   496 TIME:   0.195 TIME LEFT:  2.00D  GRAD.:     0.140 HEAT:  98.04766
 CYCLE:   497 TIME:   0.203 TIME LEFT:  2.00D  GRAD.:     0.427 HEAT:  98.04766
 CYCLE:   498 TIME:   0.211 TIME LEFT:  2.00D  GRAD.:     0.182 HEAT:  98.04766
 CYCLE:   499 TIME:   0.211 TIME LEFT:  2.00D  GRAD.:     0.265 HEAT:  98.04766
 CYCLE:   500 TIME:   0.195 TIME LEFT:  2.00D  GRAD.:     0.148 HEAT:  98.04765
 CYCLE:   501 TIME:   0.188 TIME LEFT:  2.00D  GRAD.:     0.137 HEAT:  98.04765
 CYCLE:   502 TIME:   0.195 TIME LEFT:  2.00D  GRAD.:     0.161 HEAT:  98.04765
 CYCLE:   503 TIME:   0.180 TIME LEFT:  2.00D  GRAD.:     0.123 HEAT:  98.04765
 CYCLE:   504 TIME:   0.211 TIME LEFT:  2.00D  GRAD.:     0.159 HEAT:  98.04764
 CYCLE:   505 TIME:   0.188 TIME LEFT:  2.00D  GRAD.:     0.173 HEAT:  98.04764
 CYCLE:   506 TIME:   0.211 TIME LEFT:  2.00D  GRAD.:     0.113 HEAT:  98.04764
 CYCLE:   507 TIME:   0.195 TIME LEFT:  2.00D  GRAD.:     0.127 HEAT:  98.04764
 CYCLE:   508 TIME:   0.195 TIME LEFT:  2.00D  GRAD.:     0.198 HEAT:  98.04764
 CYCLE:   509 TIME:   0.219 TIME LEFT:  2.00D  GRAD.:     0.310 HEAT:  98.04763
 CYCLE:   510 TIME:   0.188 TIME LEFT:  2.00D  GRAD.:     0.307 HEAT:  98.04763
 CYCLE:   511 TIME:   0.172 TIME LEFT:  2.00D  GRAD.:     0.141 HEAT:  98.04763
 CYCLE:   512 TIME:   0.180 TIME LEFT:  2.00D  GRAD.:     0.106 HEAT:  98.04763
 CYCLE:   513 TIME:   0.188 TIME LEFT:  2.00D  GRAD.:     0.110 HEAT:  98.04763
 CYCLE:   514 TIME:   0.188 TIME LEFT:  2.00D  GRAD.:     0.266 HEAT:  98.04763
 CYCLE:   515 TIME:   0.188 TIME LEFT:  2.00D  GRAD.:     0.134 HEAT:  98.04762
 CYCLE:   516 TIME:   0.172 TIME LEFT:  2.00D  GRAD.:     0.238 HEAT:  98.04762
 CYCLE:   517 TIME:   0.188 TIME LEFT:  2.00D  GRAD.:     0.180 HEAT:  98.04762
 CYCLE:   518 TIME:   0.180 TIME LEFT:  2.00D  GRAD.:     0.164 HEAT:  98.04762
 CYCLE:   519 TIME:   0.172 TIME LEFT:  2.00D  GRAD.:     0.138 HEAT:  98.04762
 CYCLE:   520 TIME:   0.172 TIME LEFT:  2.00D  GRAD.:     0.190 HEAT:  98.04762
 CYCLE:   521 TIME:   0.180 TIME LEFT:  2.00D  GRAD.:     0.284 HEAT:  98.04761
 CYCLE:   522 TIME:   0.188 TIME LEFT:  2.00D  GRAD.:     0.134 HEAT:  98.04761
 CYCLE:   523 TIME:   0.320 TIME LEFT:  2.00D  GRAD.:     0.134 HEAT:  98.04761
 CYCLE:   524 TIME:   0.195 TIME LEFT:  2.00D  GRAD.:     0.138 HEAT:  98.04761
 CYCLE:   525 TIME:   0.172 TIME LEFT:  2.00D  GRAD.:     0.144 HEAT:  98.04761
 CYCLE:   526 TIME:   0.180 TIME LEFT:  2.00D  GRAD.:     0.227 HEAT:  98.04761
 CYCLE:   527 TIME:   0.195 TIME LEFT:  2.00D  GRAD.:     0.137 HEAT:  98.04760
 CYCLE:   528 TIME:   0.250 TIME LEFT:  2.00D  GRAD.:     0.191 HEAT:  98.04760
 CYCLE:   529 TIME:   0.250 TIME LEFT:  2.00D  GRAD.:     0.218 HEAT:  98.04760
 CYCLE:   530 TIME:   0.211 TIME LEFT:  2.00D  GRAD.:     0.226 HEAT:  98.04760
 CYCLE:   531 TIME:   0.172 TIME LEFT:  2.00D  GRAD.:     0.334 HEAT:  98.04759
 CYCLE:   532 TIME:   0.172 TIME LEFT:  2.00D  GRAD.:     0.285 HEAT:  98.04759
 CYCLE:   533 TIME:   0.180 TIME LEFT:  2.00D  GRAD.:     0.140 HEAT:  98.04759
 CYCLE:   534 TIME:   0.188 TIME LEFT:  2.00D  GRAD.:     0.114 HEAT:  98.04759
 CYCLE:   535 TIME:   0.180 TIME LEFT:  2.00D  GRAD.:     0.185 HEAT:  98.04759
 CYCLE:   536 TIME:   0.180 TIME LEFT:  2.00D  GRAD.:     0.174 HEAT:  98.04759
 CYCLE:   537 TIME:   0.242 TIME LEFT:  2.00D  GRAD.:     0.366 HEAT:  98.04758
 CYCLE:   538 TIME:   0.234 TIME LEFT:  2.00D  GRAD.:     0.216 HEAT:  98.04758
 CYCLE:   539 TIME:   0.211 TIME LEFT:  2.00D  GRAD.:     0.117 HEAT:  98.04758
 CYCLE:   540 TIME:   0.227 TIME LEFT:  2.00D  GRAD.:     0.118 HEAT:  98.04758
 CYCLE:   541 TIME:   0.203 TIME LEFT:  2.00D  GRAD.:     0.168 HEAT:  98.04757
 CYCLE:   542 TIME:   0.227 TIME LEFT:  2.00D  GRAD.:     0.100 HEAT:  98.04757

 -------------------------------------------------------------------------------
 RM1 PRECISE POLAR GNORM=0.1




     HERBERTS TEST WAS SATISFIED IN BFGS                      
     SCF FIELD WAS ACHIEVED                                   


                              RM1 CALCULATION
                                                       MOPAC2016 (Version: 21.013L)
                                                       Sun Oct 17 21:00:49 2021
                                                       No. of days remaining =  88




          FINAL HEAT OF FORMATION =         98.04757 KCAL/MOL =     410.23104 KJ/MOL


          TOTAL ENERGY            =      -8137.11644 EV
          ELECTRONIC ENERGY       =     -86844.93124 EV  POINT GROUP:     C1  
          CORE-CORE REPULSION     =      78707.81479 EV
          COSMO AREA              =        738.10 SQUARE ANGSTROMS
          COSMO VOLUME            =        882.60 CUBIC ANGSTROMS

          GRADIENT NORM           =          0.09956 = 0.01032 PER ATOM
          IONIZATION POTENTIAL    =          7.954125 EV
          HOMO LUMO ENERGIES (EV) =         -7.954 -1.394
          NO. OF FILLED LEVELS    =        134
          MOLECULAR WEIGHT        =        762.0130

          MOLECULAR DIMENSIONS (Angstroms)

            Atom       Atom       Distance
                88    H    84    28.11939
            H    82    H    57    13.31728
            H    80    H    60     5.45185


          SCF CALCULATIONS        =        543
 
          WALL-CLOCK TIME         =  1 MINUTE AND 56.711 SECONDS
          COMPUTATION TIME        = 23 MINUTES AND 15.993 SECONDS




  ATOM    CHEMICAL      BOND LENGTH      BOND ANGLE     TWIST ANGLE 
 NUMBER    SYMBOL       (ANGSTROMS)      (DEGREES)       (DEGREES) 
   (I)                     NA:I           NB:NA:I       NC:NB:NA:I       NA    NB    NC 
     1       C          0.00000000       0.0000000       0.0000000        0     0     0
     2       C          1.52000558  *    0.0000000       0.0000000        1     0     0
     3       C          1.52710082  *  110.6962196  *    0.0000000        2     1     0
     4       C          1.52840753  *  110.8091507  * -178.9373784  *     3     2     1
     5       C          1.53780463  *  111.6499456  * -176.7431198  *     4     3     2
     6       C          1.54588076  *  108.7875081  * -131.1079886  *     5     4     3
     7       N          1.46191636  *  112.0524546  *  171.1823111  *     6     5     4
     8       C          1.38995893  *  127.3526177  *  -70.0767333  *     7     6     5
     9       C          1.43331001  *  137.5744232  *   -7.2301356  *     8     7     6
    10       C          1.38983904  *  130.7616919  *    1.0211304  *     9     8     7
    11       C          1.38566783  *  119.0146970  *  179.9815644  *    10     9     8
    12       C          1.40050231  *  120.6843066  *    0.2040892  *    11    10     9
    13       C          1.39286642  *  120.7160093  *    0.2398025  *    12    11    10
    14       C          1.38382049  *  118.6212964  *   -0.2193521  *    13    12    11
    15       S          1.73868022  *  124.9466609  *  179.4551575  *    14    13    12
    16       C          1.41896224  *  109.5473136  *  175.1404187  *     8     7     6
    17       C          1.39297192  *  107.2318208  *   -0.5031356  *    16     8     7
    18       C          1.41586334  *  106.8448962  *   -0.1015475  *    17    16     8
    19       C          1.43269762  *  113.2053379  *  179.0316605  *    18    17    16
    20       C          1.38856722  *  130.0925776  * -179.0890558  *    19    18    17
    21       C          1.38580198  *  118.7562143  *  179.9579520  *    20    19    18
    22       C          1.39903785  *  120.4981521  *   -0.2036643  *    21    20    19
    23       C          1.39181487  *  121.0360212  *   -0.1110371  *    22    21    20
    24       C          1.38439336  *  118.5794485  *    0.2161902  *    23    22    21
    25       S          1.70150434  *  140.4285481  *  179.3786795  *    17    16     8
    26       C          1.46223255  *  119.4331859  * -179.9664768  *    22    21    20
    27       C          1.40043902  *  119.0496587  *  128.7262093  *    26    22    21
    28       C          1.38709298  *  120.7973383  *  179.8211165  *    27    26    22
    29       C          1.38446534  *  118.5077904  *   -0.2634845  *    28    27    26
    30       C          1.42158918  *  120.3092703  *    0.6535038  *    29    28    27
    31       C          1.39093052  *  121.4038525  *   -0.6652784  *    30    29    28
    32       N          1.41439152  *  109.1709724  *  176.4164013  *    30    29    28
    33       C          1.46161495  *  123.8966785  *  -23.1304302  *    32    30    31
    34       C          1.52713672  *  112.2515175  *  -77.8200552  *    33    32    30
    35       C          1.41474752  *  107.0855476  * -177.1438158  *    32    30    31
    36       C          1.42077701  *  109.2237233  *   -6.1049085  *    35    32    30
    37       C          1.38475779  *  120.2940479  * -176.3427759  *    36    35    32
    38       C          1.38749343  *  118.3180231  *   -0.6010495  *    37    36    35
    39       C          1.39782205  *  121.0666950  *    0.0657096  *    38    37    36
    40       C          1.38702287  *  121.7254751  *    0.2443113  *    39    38    37
    41       C          1.44483343  *  118.9297372  * -179.3845068  *    12    11    10
    42       C          1.37301886  *  125.0497346  *   41.6733817  *    41    12    11
    43       C          1.42124898  *  111.5819969  * -179.3180463  *    42    41    12
    44       C          1.38018029  *  112.1239553  *   -0.2021328  *    43    42    41
    45       S          1.70059609  *  111.6136648  *    0.3455761  *    44    43    42
    46       C          1.43035937  *  122.3772558  *  179.8768443  *    44    43    42
    47       C          1.35014830  *  125.9989812  *  172.0091539  *    46    44    43
    48       C          1.46821288  *  119.2193969  *  179.8377383  *    47    46    44
    49       O          1.22334966  *  126.6449967  *   -0.1799928  *    48    47    46
    50       O          1.34838943  *  113.9517629  *  179.8349842  *    48    47    46
    51       C          1.41560760  *  123.7863426  *   -0.5045364  *    47    46    44
    52       N          1.15690332  *  178.5508786  * -179.4509350  *    51    47    46
    53       C          1.53208508  *  111.4458732  *  107.6889605  *     5     4     3
    54       C          1.51953425  *  111.8036654  *  174.8650196  *    53     5     6
    55       H          1.10350503  *  115.0754793  *   -7.7719059  *    46    44    43
    56       H          1.09956589  *  112.3264161  *   60.4650556  *     1     2     3
    57       H          1.09969111  *  111.8178959  * -179.7139077  *     1     2     3
    58       H          1.09958799  *  112.3006306  *  -59.8922602  *     1     2     3
    59       H          1.11066422  *  110.0949510  *  -57.1906195  *     2     1    57
    60       H          1.11062843  *  110.1105087  *  177.4716361  *     2     1    58
    61       H          1.11115534  *  110.1046463  * -178.9415374  *     3     2    59
    62       H          1.11043287  *  110.1530200  * -179.4575683  *     3     2    60
    63       H          1.11061906  *  110.3021659  * -174.9878150  *     4     3    61
    64       H          1.11204518  *  108.9323499  * -177.9972857  *     4     3    62
    65       H          1.12133946  *  110.2969529  * -136.0302331  *     5     4    63
    66       H          1.11875918  *  110.7788486  *   54.9849197  *     6     5    53
    67       H          1.11540369  *  111.3200223  *  -69.6633283  *     6     5    65
    68       H          1.09255554  *  120.9538325  *  178.9974758  *    10     9    14
    69       H          1.09454246  *  119.5516097  *  179.5542449  *    11    10     9
    70       H          1.09432092  *  121.1042116  * -179.8206381  *    13    12    11
    71       H          1.09590744  *  119.8913507  * -179.2940707  *    20    19    24
    72       H          1.09446381  *  119.7870049  * -179.4605239  *    21    20    19
    73       H          1.09409118  *  120.8216471  *  179.7370032  *    23    22    21
    74       H          1.09382274  *  119.5883029  *   -0.8674340  *    27    26    22
    75       H          1.09293718  *  121.2131340  *  179.7435388  *    28    27    26
    76       H          1.09148571  *  121.9121899  *    4.4748246  *    31    30    32
    77       H          1.11443291  *  108.8836084  *   45.4068750  *    33    32    30
    78       H          1.11496308  *  108.5260182  *  159.2800803  *    33    32    30
    79       H          1.09960775  *  112.2901164  *  -61.6428810  *    34    33    77
    80       H          1.09935572  *  111.2519011  *  -58.1526181  *    34    33    78
    81       H          1.09980042  *  112.2033818  *   61.6748936  *    34    33    78
    82       H          1.09274851  *  120.3257188  *  179.4468254  *    37    36    35
    83       H          1.09344255  *  119.6491184  * -179.8905447  *    38    37    36
    84       H          1.09464400  *  119.0953591  * -179.7314567  *    39    38    37
    85       H          1.09121170  *  120.9029230  *  179.9322742  *    40    39    38
    86       H          1.08721403  *  125.0813313  *    1.4649907  *    42    41    12
    87       H          1.08857408  *  122.9569733  * -179.8831964  *    43    42    41
    88       H          0.96821415  *  111.0389597  *    0.0371329  *    50    48    49
    89       H          1.11131137  *  110.8170586  * -179.7002514  *    53     5    65
    90       H          1.11172914  *  110.3235931  *  -64.7031122  *    53     5    65
    91       H          1.09977534  *  112.4053274  * -178.4551671  *    54    53    89
    92       H          1.09911730  *  113.0729307  * -171.2279748  *    54    53    90
    93       H          1.10051111  *  111.4110021  *  -51.7699565  *    54    53    90

                             CARTESIAN COORDINATES

   1    C        0.000000000     0.000000000     0.000000000
   2    C        1.520005576     0.000000000     0.000000000
   3    C        2.059703044     1.428552956     0.000000000
   4    C        3.587877756     1.431652310    -0.026495648
   5    C        4.153818794     2.859248999     0.054260214
   6    C        5.212367499     3.038823195    -1.057933597
   7    N        5.648940247     4.428597558    -1.180941306
   8    C        4.912562930     5.504325494    -1.663169143
   9    C        3.644313891     5.719894354    -2.295191309
  10    C        2.640861576     4.824161291    -2.645045972
  11    C        1.494014612     5.304865299    -3.256389599
  12    C        1.345816060     6.671632140    -3.523582974
  13    C        2.349881927     7.575695317    -3.185059173
  14    C        3.495535693     7.096082482    -2.574806652
  15    S        4.852263224     8.072388216    -2.096135137
  16    C        5.662614765     6.699248579    -1.511396621
  17    C        6.873701797     6.353491161    -0.916341345
  18    C        6.844907172     4.952877187    -0.711108874
  19    C        8.046529159     4.444188915    -0.119531894
  20    C        8.397720044     3.142786234     0.213837182
  21    C        9.639964923     2.912541750     0.783277493
  22    C       10.523340367     3.972852531     1.012833108
  23    C       10.180187429     5.278710855     0.675003678
  24    C        8.938879867     5.511707687     0.108070714
  25    S        8.326340493     7.065373438    -0.388912250
  26    C       11.828598238     3.703290337     1.614299766
  27    C       12.980166090     4.199881698     0.990987681
  28    C       14.236317017     3.968913802     1.532065870
  29    C       14.326377412     3.240633808     2.706051244
  30    C       13.152733432     2.733329793     3.327435371
  31    C       11.890856817     2.962012595     2.788863829
  32    N       13.520257565     1.962826307     4.455155980
  33    C       12.611681137     1.641441347     5.554027609
  34    C       12.424197253     2.816085092     6.511737604
  35    C       14.918065349     2.106751626     4.619257921
  36    C       15.444277761     2.843199956     3.524108774
  37    C       16.808640036     3.053176009     3.414656598
  38    C       17.635133823     2.538795789     4.403321874
  39    C       17.109188707     1.824791574     5.483824626
  40    C       15.747359430     1.595514775     5.612997434
  41    C        0.128588763     7.133301255    -4.150291025
  42    C       -1.134548119     6.695396425    -3.837392678
  43    C       -2.121336682     7.328778224    -4.640526840
  44    C       -1.568853156     8.227621059    -5.530325210
  45    S        0.124966725     8.286648618    -5.390621935
  46    C       -2.363993910     8.985855351    -6.446163546
  47    C       -1.924689476     9.987606088    -7.237622654
  48    C       -2.874131445    10.665865095    -8.128786907
  49    O       -4.066624008    10.420312248    -8.248158886
  50    O       -2.323733010    11.650275349    -8.867807932
  51    C       -0.584147624    10.441830962    -7.261543160
  52    N        0.503915136    10.832948613    -7.301188019
  53    C        4.786460824     3.134477056     1.422214260
  54    C        3.756677432     3.093419862     2.538836311
  55    H       -3.430396736     8.704593661    -6.483583048
  56    H       -0.417706042     0.501401841    -0.884964973
  57    H       -0.408708805    -1.020907278     0.005097690
  58    H       -0.417256633     0.510328285     0.880088461
  59    H        1.901604187    -0.560788951     0.879473281
  60    H        1.901875092    -0.562445524    -0.878251797
  61    H        1.658488312     1.988421213    -0.871917696
  62    H        1.681114329     1.980548766     0.886020528
  63    H        3.988774812     0.797605104     0.792491770
  64    H        3.933931334     0.904009770    -0.942183776
  65    H        3.338474455     3.610887489    -0.112038817
  66    H        6.107633816     2.397448153    -0.861062114
  67    H        4.818049711     2.713763238    -2.049384499
  68    H        2.749093278     3.754674937    -2.449693864
  69    H        0.701357566     4.606306505    -3.542280506
  70    H        2.239539473     8.645308351    -3.388260510
  71    H        7.698150686     2.321704477     0.020341522
  72    H        9.937657612     1.892247537     1.044485847
  73    H       10.872033340     6.105850085     0.860004852
  74    H       12.888572945     4.767163337     0.060261928
  75    H       15.139788556     4.349711500     1.049112480
  76    H       10.983270417     2.588900974     3.266792378
  77    H       11.634622338     1.313528598     5.130011050
  78    H       13.008442609     0.749300118     6.092364897
  79    H       12.000329601     3.698702556     6.011277987
  80    H       11.742496462     2.555110349     7.333783357
  81    H       13.372207283     3.134701776     6.969254101
  82    H       17.214726251     3.611793034     2.567815231
  83    H       18.715718805     2.693325886     4.339500644
  84    H       17.790492632     1.437077915     6.247859032
  85    H       15.351364843     1.035339729     6.461605222
  86    H       -1.369929694     5.966383471    -3.065920078
  87    H       -3.185453533     7.119752243    -4.545885472
  88    H       -2.985219981    12.068010746    -9.438220732
  89    H        5.607183263     2.414531212     1.629833167
  90    H        5.285635909     4.127836446     1.423954899
  91    H        2.912664016     3.774372453     2.355940951
  92    H        3.331625928     2.092106896     2.696197049
  93    H        4.196152225     3.394228079     3.501904860


           Empirical Formula: C46 H39 N3 O2 S3  =    93 atoms



      MOLECULAR POINT GROUP   :   C1  


                  EIGENVALUES  
 -40.07213 -39.68692 -39.11183 -37.55767 -37.25411 -36.91452 -36.74429 -36.03243
 -35.72966 -35.45846 -35.29909 -34.08032 -33.48874 -32.93124 -32.44694 -31.95711
 -30.88981 -30.30087 -30.10813 -30.03258 -29.79521 -29.57238 -28.61423 -27.98242
 -27.83266 -27.44643 -26.27573 -24.98234 -24.69550 -24.56624 -24.08475 -23.63885
 -23.38800 -23.24922 -22.91123 -22.49723 -22.22536 -22.08361 -21.65523 -21.46926
 -20.99200 -20.80646 -20.67215 -20.35148 -20.04190 -19.91333 -19.57574 -18.87884
 -18.18448 -17.99956 -17.82963 -17.73886 -17.38127 -17.19876 -16.96490 -16.91556
 -16.58938 -16.51707 -16.29975 -16.23693 -16.21513 -16.00882 -15.94198 -15.75570
 -15.57346 -15.40680 -15.33729 -15.20535 -15.12913 -15.03484 -14.91764 -14.82022
 -14.77286 -14.68691 -14.66565 -14.61802 -14.58954 -14.54792 -14.46957 -14.36295
 -14.31632 -14.17533 -14.10736 -13.95133 -13.88217 -13.79927 -13.75777 -13.70769
 -13.54537 -13.53029 -13.45752 -13.33146 -13.28871 -13.25077 -13.10257 -13.06110
 -12.82061 -12.78513 -12.70563 -12.62419 -12.58262 -12.46998 -12.43722 -12.39663
 -12.36038 -12.26755 -12.17207 -12.02445 -11.94814 -11.87874 -11.84286 -11.72579
 -11.64424 -11.59196 -11.56120 -11.49311 -11.43598 -11.33967 -11.26951 -11.20870
 -11.11034 -11.05380 -10.49895 -10.32521 -10.02360  -9.82364  -9.67334  -9.61329
  -9.24204  -8.85965  -8.47102  -8.19976  -7.98371  -7.95412  -1.39438  -0.59290
  -0.15078   0.17999   0.22118   0.37385   0.42374   0.44627   0.79960   0.98283
   1.05689   1.14534   1.20645   1.26848   1.30051   1.38797   1.46867   1.58674
   1.64622   1.70926   1.86455   1.96926   2.03481   2.23874   2.46968   2.73471
   2.79197   2.99592   3.03468   3.13833   3.28101   3.41986   3.49269   3.50473
   3.64548   3.68575   3.74515   3.75748   3.81094   3.82074   3.83500   3.90719
   3.92319   3.97911   4.01408   4.06478   4.07891   4.09149   4.10664   4.14199
   4.14846   4.16380   4.17412   4.22759   4.27214   4.34675   4.34702   4.36445
   4.38120   4.43430   4.44003   4.46046   4.46955   4.49961   4.53609   4.54616
   4.58952   4.60337   4.62641   4.66067   4.68049   4.69826   4.70966   4.74268
   4.74812   4.77345   4.79554   4.83478   4.87215   4.92487   4.92949   4.95502
   4.95931   4.98928   5.01784   5.05641   5.07210   5.07881   5.08894   5.10158
   5.14133   5.16999   5.20873   5.24084   5.24807   5.25273   5.33373   5.34133
   5.37282   5.40061   5.47213   5.48168   5.49192   5.58170   5.61443   5.67115
   5.74011   5.76933   5.89756   5.95676   5.97000   5.98490   6.02562   6.11339
   6.15626   6.22908   6.23504   6.35907   6.50341   6.57012   6.60408


              NET ATOMIC CHARGES AND DIPOLE CONTRIBUTIONS

  ATOM NO.   TYPE          CHARGE      No. of ELECS.   s-Pop       p-Pop
   49          O          -0.381612        6.3816     1.91042     4.47119
   48          C           0.407225        3.5928     1.17935     2.41342
   59          H           0.061649        0.9384     0.93835
   88          H           0.244614        0.7554     0.75539
   51          C           0.048187        3.9518     1.19524     2.75657
   52          N          -0.146206        5.1462     1.84844     3.29776
    1          C          -0.177728        4.1777     1.15567     3.02205
    2          C          -0.113592        4.1136     1.16699     2.94661
    3          C          -0.123102        4.1231     1.17206     2.95104
    4          C          -0.129401        4.1294     1.17379     2.95561
    5          C          -0.092786        4.0928     1.19089     2.90190
    6          C           0.042230        3.9578     1.16862     2.78915
    7          N          -0.163460        5.1635     1.48538     3.67808
    8          C           0.002238        3.9978     1.14941     2.84835
    9          C           0.027234        3.9728     1.14826     2.82451
   10          C          -0.106720        4.1067     1.17253     2.93419
   11          C          -0.082060        4.0821     1.17818     2.90388
   12          C          -0.010814        4.0108     1.14939     2.86142
   13          C          -0.043397        4.0434     1.16953     2.87387
   14          C          -0.271320        4.2713     1.21772     3.05360
   15          S           0.430751        5.5692     1.88829     3.68096
   16          C          -0.282261        4.2823     1.20223     3.08003
   17          C          -0.286732        4.2867     1.20139     3.08534
   18          C           0.012703        3.9873     1.15052     2.83678
   19          C           0.006304        3.9937     1.14784     2.84586
   20          C          -0.104283        4.1043     1.17241     2.93188
   21          C          -0.087594        4.0876     1.17785     2.90974
[...]
   33          C           0.073180        3.9268     1.15327     2.77355
   34          C          -0.228257        4.2283     1.16457     3.06369
   35          C           0.111832        3.8882     1.15416     2.73401
   36          C          -0.090612        4.0906     1.15949     2.93113
   37          C          -0.036319        4.0363     1.16952     2.86680
   38          C          -0.157349        4.1573     1.17803     2.97932
   39          C          -0.055126        4.0551     1.17636     2.87876
   40          C          -0.167229        4.1672     1.17055     2.99668
   41          C          -0.285989        4.2860     1.22173     3.06425
   42          C          -0.140942        4.1409     1.18202     2.95892
   43          C          -0.020286        4.0203     1.18499     2.83530
   44          C          -0.453246        4.4532     1.21935     3.23390
   45          S           0.593628        5.4064     1.88183     3.52454
   46          C           0.158506        3.8415     1.17077     2.67072
   47          C          -0.170987        4.1710     1.14102     3.02997
   50          O          -0.311836        6.3118     1.83997     4.47186
   53          C          -0.119716        4.1197     1.16984     2.94988
   54          C          -0.176658        4.1767     1.15541     3.02125
   55          H           0.130635        0.8694     0.86936
   56          H           0.057481        0.9425     0.94252
   57          H           0.058346        0.9417     0.94165
   58          H           0.059314        0.9407     0.94069
   60          H           0.059897        0.9401     0.94010
   61          H           0.059975        0.9400     0.94003
   62          H           0.069725        0.9303     0.93027
   63          H           0.072508        0.9275     0.92749
   64          H           0.059397        0.9406     0.94060
   65          H           0.093735        0.9063     0.90626
   66          H           0.088760        0.9112     0.91124
   67          H           0.081958        0.9180     0.91804
   68          H           0.113781        0.8862     0.88622
   69          H           0.112406        0.8876     0.88759
   70          H           0.120715        0.8793     0.87928
   71          H           0.108868        0.8911     0.89113
   72          H           0.113925        0.8861     0.88608
   73          H           0.120622        0.8794     0.87938
   74          H           0.115477        0.8845     0.88452
   75          H           0.109341        0.8907     0.89066
   76          H           0.122012        0.8780     0.87799
   77          H           0.075302        0.9247     0.92470
   78          H           0.075681        0.9243     0.92432
   79          H           0.078872        0.9211     0.92113
   80          H           0.070669        0.9293     0.92933
   81          H           0.078496        0.9215     0.92150
   82          H           0.107556        0.8924     0.89244
   83          H           0.107916        0.8921     0.89208
   84          H           0.100447        0.8996     0.89955
   85          H           0.116131        0.8839     0.88387
   86          H           0.136041        0.8640     0.86396
   87          H           0.125384        0.8746     0.87462
   89          H           0.061156        0.9388     0.93884
   90          H           0.078976        0.9210     0.92102
   91          H           0.061583        0.9384     0.93842
   92          H           0.059298        0.9407     0.94070
   93          H           0.059440        0.9406     0.94056
 DIPOLE           X         Y         Z       TOTAL
 POINT-CHG.     1.806    -1.694     3.704     4.456
 HYBRID        -3.378    -4.188     0.768     5.435
 SUM           -1.572    -5.882     4.473     7.555


          ATOMIC ORBITAL ELECTRON POPULATIONS

     Atom    s        px        py        pz   
    1  C   1.15567   0.96222   1.03030   1.02954
    2  C   1.16699   0.95544   0.96396   1.02720
    3  C   1.17206   0.94544   0.97352   1.03208
    4  C   1.17379   0.96540   0.95464   1.03557
    5  C   1.19089   0.97580   0.98028   0.94581
    6  C   1.16862   1.00040   0.78661   1.00213
    7  N   1.48538   1.13795   1.07520   1.46493
    8  C   1.14941   0.93697   0.84500   1.06638
    9  C   1.14826   0.91859   0.92403   0.98189
   10  C   1.17253   0.94385   0.98593   1.00440
   11  C   1.17818   0.97484   0.94724   0.98181
   12  C   1.14939   0.91863   0.93761   1.00518
   13  C   1.16953   0.91986   0.98442   0.96958
   14  C   1.21772   1.01432   0.97486   1.06442
   15  S   1.88829   1.04356   0.98096   1.65643
   16  C   1.20223   0.98612   0.97760   1.11630
   17  C   1.20139   1.00466   0.95971   1.12097
   18  C   1.15052   0.87718   0.90756   1.05204
   19  C   1.14784   0.91113   0.93393   1.00080
   20  C   1.17241   0.97321   0.95172   1.00695
   21  C   1.17785   0.93801   0.98388   0.98785
   22  C   1.16409   0.94151   0.93612   0.99305
   23  C   1.16966   0.94357   0.96222   0.96998
   24  C   1.21738   0.99393   0.98590   1.06499
   25  S   1.88860   1.03619   0.98170   1.67707
   26  C   1.15892   0.92116   0.96359   0.93734
   27  C   1.17777   0.92834   1.03573   1.01173
   28  C   1.16949   0.96885   0.95799   0.94083
   29  C   1.15983   0.92177   1.03013   0.97604
   30  C   1.15377   0.93988   0.91278   0.88161
   31  C   1.16968   0.95830   1.04977   0.98643
   32  N   1.53079   1.05529   1.52859   1.17211
   33  C   1.15327   0.93587   0.96546   0.87221
   34  C   1.16457   1.04862   1.00353   1.01154
   35  C   1.15416   0.81705   0.96124   0.95571
   36  C   1.15949   0.93461   1.03031   0.96621
   37  C   1.16952   0.92182   0.97122   0.97375
   38  C   1.17803   0.99306   1.02070   0.96556
   39  C   1.17636   0.94320   0.96700   0.96857
   40  C   1.17055   0.94343   1.05403   0.99921
   41  C   1.22173   0.98315   1.04398   1.03712
   42  C   1.18202   0.91335   1.02620   1.01937
   43  C   1.18499   0.99084   0.92108   0.92337
   44  C   1.21935   1.03242   1.10784   1.09364
   45  S   1.88183   0.92217   1.33430   1.26807
   46  C   1.17077   0.98285   0.85140   0.83647
   47  C   1.14102   0.90134   1.05128   1.07735
   48  C   1.17935   0.85610   0.77648   0.78085
   49  O   1.91042   1.15125   1.66949   1.65045
   50  O   1.83997   1.45032   1.48149   1.54005
   51  C   1.19524   0.91359   0.92134   0.92164
   52  N   1.84844   1.11643   1.08799   1.09334
   53  C   1.16984   0.97888   1.03842   0.93258
   54  C   1.15541   1.00128   1.03003   0.98994
   55  H   0.86936
   56  H   0.94252
   57  H   0.94165
   58  H   0.94069
   59  H   0.93835
   60  H   0.94010
   61  H   0.94003
   62  H   0.93027
   63  H   0.92749
   64  H   0.94060
   65  H   0.90626
   66  H   0.91124
   67  H   0.91804
   68  H   0.88622
   69  H   0.88759
   70  H   0.87928
   71  H   0.89113
   72  H   0.88608
   73  H   0.87938
   74  H   0.88452
   75  H   0.89066
   76  H   0.87799
   77  H   0.92470
   78  H   0.92432
   79  H   0.92113
   80  H   0.92933
   81  H   0.92150
   82  H   0.89244
   83  H   0.89208
   84  H   0.89955
   85  H   0.88387
   86  H   0.86396
   87  H   0.87462
   88  H   0.75539
   89  H   0.93884
   90  H   0.92102
   91  H   0.93842
   92  H   0.94070
   93  H   0.94056
 ******************** TDHF POLARIZABILITIES ********************



          MOLECULAR WEIGHT =  762.01



          ROTATIONAL CONSTANTS IN CM(-1)

          A =    0.00344074   B =    0.00040557   C =    0.00037013



           PRINCIPAL MOMENTS OF INERTIA IN UNITS OF 10**(-40)*GRAM-CM**2

          A =     8135.6935   B =    69020.2395   C =    75630.2163


 ROTATION MATRIX FOR ORIENTATION OF MOLECULE:

         0.799962    0.532146   -0.277275
        -0.314673    0.765486    0.561260
         0.510922   -0.361735    0.779812


          CARTESIAN COORDINATES 

    NO.       ATOM         X         Y         Z

     1         C       -2.6693   -7.5122   -0.5721
     2         C       -1.4533   -6.7033   -0.9935
     3         C       -1.4711   -5.3226   -0.3414
     4         C       -0.2632   -4.4974   -0.7840
     5         C       -0.2184   -3.1327   -0.0767
     6         C        0.0037   -2.0296   -1.1368
     7         N       -0.1473   -0.6889   -0.5737
     8         C       -1.3212   -0.0829   -0.1418
     9         C       -2.7265   -0.3641   -0.1620
    10         C       -3.4261   -1.4572   -0.6594
    11         C       -4.8072   -1.4784   -0.5483
    12         C       -5.4923   -0.4144    0.0515
    13         C       -4.8007    0.6895    0.5445
    14         C       -3.4215    0.7113    0.4336
    15         S       -2.3988    2.0075    0.9786
    16         C       -1.0197    1.1760    0.4392
    17         C        0.3620    1.3406    0.3734
    18         C        0.8845    0.1789   -0.2447
    19         C        2.3081    0.2149   -0.4020
    20         C        3.1689   -0.7150   -0.9699
    21         C        4.5260   -0.4362   -0.9995
    22         C        5.0163    0.7625   -0.4703
    23         C        4.1583    1.7017    0.0943
    24         C        2.8023    1.4246    0.1272
    25         S        1.5695    2.4678    0.7815
    26         C        6.4526    1.0332   -0.5145
    27         C        6.8991    2.2516   -1.0411
    28         C        8.2531    2.5475   -1.0971
    29         C        9.1541    1.6133   -0.6154
    30         C        8.6924    0.3756   -0.0901
    31         C        7.3358    0.0740   -0.0319
    32         N        9.8050   -0.4265    0.2549
    33         C        9.7407   -1.5535    1.1834
    34         C        9.7104   -1.1006    2.6415
    35         C       10.9617    0.3681    0.0761
    36         C       10.5914    1.6080   -0.5105
    37         C       11.5609    2.5344   -0.8563
    38         C       12.8890    2.2228   -0.6032
    39         C       13.2450    1.0055   -0.0155
    40         C       12.2937    0.0586    0.3342
    41         C       -6.9316   -0.4820    0.1595
    42         C       -7.6443   -1.6026    0.5079
    43         C       -9.0434   -1.3523    0.5107
    44         C       -9.3389   -0.0484    0.1681
    45         S       -7.9311    0.8476   -0.1594
    46         C      -10.6815    0.4402    0.1000
    47         C      -11.0497    1.7271   -0.0768
    48         C      -12.4779    2.0634   -0.1278
    49         O      -13.4156    1.2840   -0.0280
    50         O      -12.7250    3.3772   -0.3042
    51         C      -10.1324    2.7968   -0.2122
    52         N       -9.4053    3.6895   -0.3253
    53         C        0.9000   -3.0802    0.9691
    54         C        0.6596   -4.0635    2.1023
    55         H      -11.4652   -0.3291    0.2086
    56         H       -3.6134   -7.0305   -0.8649
    57         H       -2.6724   -8.5130   -1.0278
    58         H       -2.7140   -7.6619    0.5163
    59         H       -0.5223   -7.2477   -0.7283
    60         H       -1.4196   -6.6130   -2.1000
    61         H       -2.4137   -4.7921   -0.5958
    62         H       -1.4950   -5.4220    0.7643
    63         H        0.6755   -5.0657   -0.6124
    64         H       -0.2881   -4.3859   -1.8902
    65         H       -1.1921   -2.9310    0.4415
    66         H        1.0222   -2.1154   -1.5914
    67         H       -0.7161   -2.1296   -1.9830
    68         H       -2.9032   -2.2890   -1.1373
    69         H       -5.3675   -2.3315   -0.9435
    70         H       -5.3293    1.5231    1.0170
    71         H        2.7688   -1.6458   -1.3876
    72         H        5.2187   -1.1533   -1.4510
    73         H        4.5460    2.6362    0.5110
    74         H        6.1718    2.9738   -1.4231
    75         H        8.6093    3.4945   -1.5105
    76         H        6.9713   -0.8674    0.3831
    77         H        8.8457   -2.1711    0.9396
    78         H       10.6139   -2.2201    0.9925
    79         H        8.8379   -0.4695    2.8641
    80         H        9.6672   -1.9605    3.3251
    81         H       10.6023   -0.5177    2.9142
    82         H       11.2773    3.4844   -1.3157
    83         H       13.6722    2.9392   -0.8658
    84         H       14.3024    0.7949    0.1738
    85         H       12.5868   -0.8879    0.7913
    86         H       -7.2091   -2.5650    0.7656
    87         H       -9.7805   -2.1128    0.7623
    88         H      -13.6770    3.5513   -0.3311
    89         H        1.8892   -3.2696    0.4993
    90         H        0.9876   -2.0548    1.3896
    91         H       -0.3233   -3.9252    2.5759
    92         H        0.7151   -5.1131    1.7809
    93         H        1.4086   -3.9478    2.9003


 ENERGY OF "REORIENTED" SYSTEM WITHOUT FIELD:       98.0475759095


  NFREQ=  3  IWFLB=  0  IBET=  1  IGAM=  1
  ATOL= 0.10000D-02  BTOL= 0.10000D-02    MAXITU=  500    MAXITA=  150


 *****************************************************************
 CALCULATION OF STATIC FIELD QUANTITIES
 *****************************************************************

 +++++ ALPHA AT       0.00000 EV.

                           COMPONENTS OF ALPHA

                     *X           *Y           *Z
           *=X:    1028.3005       2.0933     -11.1997
           *=Y:       2.0663     508.5292      -0.3106
           *=Z:     -11.2067      -0.3093     202.5991

  ISOTROPIC AVERAGE ALPHA =     579.80959 A.U. =     85.91892 ANG.**3

 +++++ BETA (SECOND HARMONIC GENERATION) AT       0.00000 EV.

                              COMPONENTS OF BETA
            *XX         *XY         *YY         *XZ         *YZ         *ZZ
   *=X  8485.70600 -1016.17847   271.32968   754.51776   -78.09706     3.72274
   *=Y -1016.98952   271.52512   577.76167   -78.16452   252.65074   196.38774
   *=Z   754.40123   -78.18063   252.77952     3.80518   196.45800    75.37891


 AVERAGE BETAX(SHG) VALUE AT   0.00000 EV =       5256.5662 a.u. =  0.454137E-28 ESU
 AVERAGE BETAY(SHG) VALUE AT   0.00000 EV =       -145.3515 a.u. = -0.125575E-29 ESU
 AVERAGE BETAZ(SHG) VALUE AT   0.00000 EV =        649.5309 a.u. =  0.561157E-29 ESU



 AVERAGE BETA (SHG) VALUE AT   0.00000 EV =       5298.5381 a.u. =  0.457763E-28 ESU
   (1 a.u. = 8.639418X10-33 esu)



 +++++ ALPHA AT       0.00000 EV.

                           COMPONENTS OF ALPHA

                     *X           *Y           *Z
           *=X:    1028.3005       2.0933     -11.1997
           *=Y:       2.0663     508.5292      -0.3106
           *=Z:     -11.2067      -0.3093     202.5991

  ISOTROPIC AVERAGE ALPHA =     579.80959 A.U. =     85.91892 ANG.**3


 GAMMA (THIRD HARMONIC GENERATION) AT    0.00000 EV.


 GAMMA(X,X,X,X) =       5633554.05206
 GAMMA(Y,Y,Y,Y) =         43248.11500
 GAMMA(Z,Z,Z,Z) =         12192.93345
 GAMMA(X,X,Y,Y) =         51066.96138
 GAMMA(X,X,Z,Z) =          6645.22995
 GAMMA(Y,Y,X,X) =         51067.44650
 GAMMA(Y,Y,Z,Z) =          8654.36096
 GAMMA(Z,Z,X,X) =          6645.22405
 GAMMA(Z,Z,Y,Y) =          8654.43339


 AVERAGE GAMMA VALUE AT    0.00000 =       1164345.75135 a.u. =       586446.32497 ESU (X10-39)




 **********************************************************************
 CALCULATION FOR A FREQUENCY OF    0.25000 EV  =       0.00919 A.U. 
                  WAVELENGTH OF    4959.37 NM  =    2016.38525 CM(-1)
 **********************************************************************

 +++++ ALPHA AT       0.25000 EV.

                           COMPONENTS OF ALPHA

                     *X           *Y           *Z
           *=X:    1033.1025       1.8796     -11.2226
           *=Y:       1.8561     509.4257      -0.3145
           *=Z:     -11.2287      -0.3137     202.8421

  ISOTROPIC AVERAGE ALPHA =     581.79012 A.U. =     86.21240 ANG.**3

 +++++ BETA (SECOND HARMONIC GENERATION) AT       0.25000 EV.

                              COMPONENTS OF BETA
            *XX         *XY         *YY         *XZ         *YZ         *ZZ
   *=X  8942.92103 -1063.12980   283.39868   778.31371   -80.91727     3.75703
   *=Y -1070.42669   288.96634   587.25396   -81.29241   261.13068   201.00526
   *=Z   770.45123   -80.37723   261.49985     4.66536   200.35896    77.48270


 AVERAGE BETAX(SHG) VALUE AT   0.25000 EV =       5540.6364 a.u. =  0.478679E-28 ESU
 AVERAGE BETAY(SHG) VALUE AT   0.25000 EV =       -166.6402 a.u. = -0.143967E-29 ESU
 AVERAGE BETAZ(SHG) VALUE AT   0.25000 EV =        668.6576 a.u. =  0.577681E-29 ESU



 AVERAGE BETA (SHG) VALUE AT   0.25000 EV =       5583.3255 a.u. =  0.482367E-28 ESU
   (1 a.u. = 8.639418X10-33 esu)



 +++++ ALPHA AT       0.75000 EV.

                           COMPONENTS OF ALPHA

                     *X           *Y           *Z
           *=X:    1074.4798       0.0162     -11.4084
           *=Y:      -0.0089     516.8309      -0.3481
           *=Z:     -11.4148      -0.3480     204.8199

  ISOTROPIC AVERAGE ALPHA =     598.71021 A.U. =     88.71970 ANG.**3


 GAMMA (THIRD HARMONIC GENERATION) AT    0.25000 EV.


 GAMMA(X,X,X,X) =       6292290.65589
 GAMMA(Y,Y,Y,Y) =         45551.29121
 GAMMA(Z,Z,Z,Z) =         12584.02575
 GAMMA(X,X,Y,Y) =         52895.41344
 GAMMA(X,X,Z,Z) =          6082.40432
 GAMMA(Y,Y,X,X) =         60511.91449
 GAMMA(Y,Y,Z,Z) =          9191.20281
 GAMMA(Z,Z,X,X) =          7434.34392
 GAMMA(Z,Z,Y,Y) =          9091.49631


 AVERAGE GAMMA VALUE AT    0.25000 =       1299126.54963 a.u. =       654331.40441 ESU (X10-39)




 **********************************************************************
 CALCULATION FOR A FREQUENCY OF    0.50000 EV  =       0.01837 A.U. 
                  WAVELENGTH OF    2479.68 NM  =    4032.77050 CM(-1)
 **********************************************************************

 +++++ ALPHA AT       0.50000 EV.

                           COMPONENTS OF ALPHA

                     *X           *Y           *Z
           *=X:    1047.9721       1.2176     -11.2901
           *=Y:       1.1966     512.1517      -0.3273
           *=Z:     -11.2963      -0.3268     203.5740

  ISOTROPIC AVERAGE ALPHA =     587.89928 A.U. =     87.11768 ANG.**3

 +++++ BETA (SECOND HARMONIC GENERATION) AT       0.50000 EV.

                              COMPONENTS OF BETA
            *XX         *XY         *YY         *XZ         *YZ         *ZZ
   *=X 10592.61033 -1229.62809   325.95800   860.34775   -90.46179     3.94326
   *=Y -1261.84237   349.66271   618.05272   -92.01262   289.26079   216.25203
   *=Z   823.20679   -87.52811   290.70168     7.72984   213.22881    84.50558


 AVERAGE BETAX(SHG) VALUE AT   0.50000 EV =       6564.5035 a.u. =  0.567135E-28 ESU
 AVERAGE BETAY(SHG) VALUE AT   0.50000 EV =       -244.8461 a.u. = -0.211533E-29 ESU
 AVERAGE BETAZ(SHG) VALUE AT   0.50000 EV =        733.3285 a.u. =  0.633553E-29 ESU



 AVERAGE BETA (SHG) VALUE AT   0.50000 EV =       6609.8734 a.u. =  0.571055E-28 ESU
   (1 a.u. = 8.639418X10-33 esu)



 +++++ ALPHA AT       1.50000 EV.

                           COMPONENTS OF ALPHA

                     *X           *Y           *Z
           *=X:    1274.2964      -9.9819     -12.2238
           *=Y:     -10.0345     545.8502      -0.4315
           *=Z:     -12.2432      -0.4319     212.2026

  ISOTROPIC AVERAGE ALPHA =     677.44974 A.U. =    100.38769 ANG.**3


 GAMMA (THIRD HARMONIC GENERATION) AT    0.50000 EV.


 GAMMA(X,X,X,X) =       9387136.19822
 GAMMA(Y,Y,Y,Y) =         54378.92662
 GAMMA(Z,Z,Z,Z) =         13996.64798
 GAMMA(X,X,Y,Y) =         57040.68878
 GAMMA(X,X,Z,Z) =          1986.64005
 GAMMA(Y,Y,X,X) =        101947.17844
 GAMMA(Y,Y,Z,Z) =         11253.78558
 GAMMA(Z,Z,X,X) =         10888.86456
 GAMMA(Z,Z,Y,Y) =         10802.45092


 AVERAGE GAMMA VALUE AT    0.50000 =       1929886.27623 a.u. =       972026.31864 ESU (X10-39)



 **********************
 *                    *
 * JOB ENDED NORMALLY *
 *                    *
 **********************



 TOTAL JOB TIME:           347.73 SECONDS

 == MOPAC DONE ==
