 *******************************************************************************
 ** Site#: 4824         For non-commercial use only    Version 21.013L 64BITS **
 *******************************************************************************
 ** Cite this program as: MOPAC2016, Version: 21.013L, James J. P. Stewart,   **
 ** Stewart Computational Chemistry, web: HTTP://OpenMOPAC.net. Days left:  88**
 *******************************************************************************
 **                                                                           **
 **                                MOPAC2016                                  **
 **                                                                           **
 *******************************************************************************

                              RM1 CALCULATION RESULTS

 *******************************************************************************
 *  CALCULATION DONE:                                Sun Oct 17 20:56:23 2021  *
 *  RM1        - The RM1 Hamiltonian to be used
 *  POLAR      - CALCULATE FIRST, SECOND AND THIRD-ORDER POLARIZABILITIES
 *  PRECISE    - TIGHTER CRITERIA TO BE USED
 *  T=         - A TIME OF 172800.0 SECONDS REQUESTED
 *  DUMP=N     - RESTART FILE WRITTEN EVERY 7200.0 SECONDS REQUESTED
 *  GNORM      - EXIT WHEN GRADIENT NORM DROPS BELOW 0.100
 *******************************************************************************
RM1 PRECISE POLAR GNORM=0.1


  ATOM    CHEMICAL      BOND LENGTH      BOND ANGLE     TWIST ANGLE 
 NUMBER    SYMBOL       (ANGSTROMS)      (DEGREES)       (DEGREES) 
   (I)                     NA:I           NB:NA:I       NC:NB:NA:I       NA    NB    NC 
     1       C          0.00000000       0.0000000       0.0000000        0     0     0
     2       C          1.53440000  *    0.0000000       0.0000000        1     0     0
     3       C          1.53860000  *  111.7783000  *    0.0000000        2     1     0
     4       C          1.53540000  *  111.6245000  * -178.6718000  *     3     2     1
     5       C          1.54370000  *  116.2371000  * -171.0429000  *     4     3     2
     6       C          1.55030000  *  110.5474000  *  172.5695000  *     5     4     3
     7       N          1.44820000  *  114.7628000  *   65.3175000  *     6     5     4
     8       C          1.35830000  *  127.8101000  *  -82.4208000  *     7     6     5
     9       C          1.33720000  *  134.7423000  *  -10.2535000  *     8     7     6
    10       C          1.36540000  *  122.0221000  * -178.8632000  *     9     8     7
    11       C          1.36130000  *  116.8706000  *  174.0680000  *    10     9     8
    12       C          1.34240000  *  129.0513000  * -157.9554000  *    11    10     9
    13       C          1.33540000  *  111.9421000  *  178.1828000  *    12    11    10
    14       C          1.33930000  *  111.7520000  *   -0.3814000  *    13    12    11
    15       S          1.47140000  *  105.6461000  *   -4.7336000  *    14    13    12
    16       C          1.35720000  *  128.5651000  * -179.0400000  *    14    13    12
    17       C          1.34770000  *  119.8759000  *  165.1197000  *    16    14    13
    18       C          1.33860000  *  122.8523000  * -175.4231000  *    17    16    14
    19       C          1.34690000  *  123.3741000  *   -0.6966000  *    18    17    16
    20       C          1.35810000  *  114.3159000  *   -0.5898000  *    19    18    17
    21       C          1.35190000  *  122.1993000  *   -0.5375000  *    20    19    18
    22       N          1.26420000  *  117.3131000  * -177.2251000  *    21    20    19
    23       C          1.26750000  *  126.0273000  *   -2.1066000  *    22    21    20
    24       C          1.35710000  *  113.8930000  * -172.5128000  *    23    22    21
    25       C          1.35020000  *  122.8316000  *  151.9583000  *    24    23    22
    26       C          1.34250000  *  122.8059000  * -178.4254000  *    25    24    23
    27       C          1.33930000  *  120.1591000  *    0.7290000  *    26    25    24
    28       C          1.33930000  *  118.7071000  *    0.7769000  *    27    26    25
    29       C          1.34250000  *  120.1722000  *   -0.5904000  *    28    27    26
    30       C          1.35420000  *  116.7412000  *    5.2000000  *    23    22    21
    31       N          1.26640000  *  121.2098000  * -178.5761000  *    20    19    18
    32       C          1.35820000  *  128.9085000  *  169.0044000  *    30    23    22
    33       C          1.35020000  *  121.8908000  *  -22.1670000  *    32    30    31
    34       C          1.34240000  *  123.1552000  *  178.5490000  *    33    32    30
    35       C          1.33900000  *  120.1119000  *   -1.2707000  *    34    33    32
    36       C          1.33900000  *  118.5618000  *   -0.8035000  *    35    34    33
    37       C          1.34270000  *  120.1951000  *    0.9481000  *    36    35    34
    38       C          1.35840000  *  118.4523000  * -179.4069000  *    19    18    17
    39       C          1.34610000  *  127.4619000  *   -1.5695000  *    38    19    18
    40       C          1.33650000  *  112.2786000  *  179.8826000  *    39    38    19
    41       C          1.33730000  *  109.9206000  *   -0.0398000  *    40    39    38
    42       S          1.46880000  *  108.1863000  *    0.0000000  *    41    40    39
    43       C          1.34870000  *  130.4763000  * -179.9982000  *    41    40    39
    44       C          1.34940000  *  129.6737000  *   -0.0265000  *    43    41    40
    45       C          1.36430000  *  118.2208000  *  179.9825000  *    44    43    41
    46       O          1.20960000  *  118.2476000  *  179.9950000  *    45    44    43
    47       O          1.33510000  *  124.5861000  *    0.0000000  *    45    44    43
    48       C          1.31910000  *  123.0495000  *    0.0000000  *    44    43    41
    49       N          1.15920000  *  179.7139000  *   -1.2599000  *    48    44    43
    50       C          1.37120000  *  118.1449000  *   -2.7630000  *    10     9     8
    51       C          1.35160000  *  121.1618000  * -171.6541000  *    50    10    11
    52       C          1.32280000  *  115.0395000  *   -3.3052000  *    51    50    10
    53       C          1.31460000  *  123.6970000  *  179.4958000  *    52    51    50
    54       C          1.32440000  *  108.2681000  *  179.8706000  *    53    52    51
    55       C          1.33800000  *  115.2113000  *  177.0557000  *    54    53    52
    56       C          1.36180000  *  121.0980000  *    0.9982000  *    55    54    53
    57       C          1.35930000  *  116.4636000  * -175.2304000  *    56    55    54
    58       C          1.34830000  *  122.6899000  *  143.8928000  *    57    56    55
    59       C          1.34180000  *  122.6061000  * -179.0230000  *    58    57    56
    60       C          1.34290000  *  122.4968000  *    0.1815000  *    59    58    57
    61       C          1.34490000  *  115.3822000  *    1.7317000  *    60    59    58
    62       C          1.34320000  *  122.0105000  *   -1.5257000  *    61    60    59
    63       O          1.36920000  *  118.5441000  *  179.5123000  *    60    59    58
    64       C          1.40910000  *  119.6702000  * -172.0435000  *    63    60    59
    65       C          1.54420000  *  108.7933000  *  177.6682000  *    64    63    60
    66       C          1.54560000  *  109.8627000  * -175.9665000  *    65    64    63
    67       C          1.53900000  *  113.8344000  *  140.2828000  *    66    65    64
    68       C          1.53740000  *  111.9460000  *  177.8489000  *    67    66    65
    69       C          1.53450000  *  111.8314000  *  179.6353000  *    68    67    66
    70       C          1.54480000  *  109.7927000  *   59.2735000  *    65    64    63
    71       C          1.53370000  *  114.8830000  * -177.3543000  *    70    65    64
    72       C          1.36820000  *  119.3541000  *    2.1449000  *    56    55    54
    73       C          1.32280000  *  123.1362000  *   -0.4021000  *    53    52    51
    74       C          1.35330000  *  115.4949000  *    2.8283000  *    73    53    52
    75       C          1.35480000  *  129.8957000  *  178.9357000  *    51    50    10
    76       C          1.34530000  *  113.8282000  * -176.0755000  *    75    51    52
    77       C          1.34120000  *  120.2933000  *    2.5493000  *    76    75    51
    78       C          1.34280000  *  121.6585000  *   -2.2917000  *    77    76    75
    79       C          1.34600000  *  113.6389000  *  176.4228000  *    74    73    53
    80       C          1.34220000  *  120.6372000  *   -1.9921000  *    79    74    73
    81       C          1.34290000  *  121.7385000  *    1.8651000  *    80    79    74
    82       C          1.54310000  *  113.5991000  *  -61.0068000  *     5     4     3
    83       C          1.53640000  *  114.7129000  *   90.5151000  *    82     5     4
    84       H          1.10590000  *  115.1722000  *  179.9723000  *    43    41    40
    85       H          1.11470000  *  111.0223000  * -179.7791000  *     1     2     3
    86       H          1.11430000  *  111.1260000  *  -59.9111000  *     1     2     3
    87       H          1.11430000  *  111.1603000  *   60.3709000  *     1     2     3
    88       H          1.11640000  *  109.0874000  *   61.6626000  *     2     1    86
    89       H          1.11650000  *  109.2555000  *  -61.1266000  *     2     1    87
    90       H          1.11450000  *  108.2327000  * -179.1907000  *     3     2    88
    91       H          1.11560000  *  109.2379000  *  -61.3026000  *     3     2    88
    92       H          1.11500000  *  107.1618000  * -170.1071000  *     4     3    90
    93       H          1.11420000  *  107.9345000  *  -54.4532000  *     4     3    90
    94       H          1.11740000  *  107.2443000  *  -62.7623000  *     5     4    92
    95       H          1.11470000  *  109.6425000  *   60.7343000  *     6     5    82
    96       H          1.11470000  *  109.8788000  *   58.4243000  *     6     5    94
    97       H          1.09980000  *  113.7123000  *  175.9226000  *     9     8    52
    98       H          1.09950000  *  128.3913000  *    1.1808000  *    12    11    10
    99       H          1.09690000  *  120.8037000  * -177.9378000  *    13    12    11
   100       H          1.10370000  *  122.5177000  * -179.3731000  *    17    16    21
   101       H          1.10030000  *  114.0608000  *  179.0638000  *    18    17    16
   102       H          1.10210000  *  121.3846000  *  172.8606000  *    25    24    29
   103       H          1.10420000  *  120.1903000  *  178.9327000  *    26    25    24
   104       H          1.10380000  *  120.6491000  *  179.7266000  *    27    26    25
   105       H          1.10420000  *  119.6521000  * -179.9681000  *    28    27    26
   106       H          1.10180000  *  115.7402000  * -177.3230000  *    29    28    27
   107       H          1.09870000  *  121.2511000  *  179.3222000  *    33    32    37
   108       H          1.10430000  *  120.2035000  *  178.3079000  *    34    33    32
   109       H          1.10380000  *  120.6928000  * -179.4293000  *    35    34    33
   110       H          1.10420000  *  119.5599000  * -177.0561000  *    36    35    34
   111       H          1.10140000  *  115.2333000  * -174.2202000  *    37    36    35
   112       H          1.10150000  *  128.0570000  *   -0.2335000  *    39    38    19
   113       H          1.09970000  *  122.3199000  *  179.9465000  *    40    39    38
   114       H          0.97180000  *  106.7671000  *    0.0000000  *    47    45    46
   115       H          1.10020000  *  115.5014000  * -174.2252000  *    55    54    53
   116       H          1.10240000  *  121.5615000  *  173.0510000  *    58    57    62
   117       H          1.10410000  *  119.0490000  *  178.7816000  *    59    58    57
   118       H          1.10230000  *  120.6356000  *  179.1561000  *    61    60    59
   119       H          1.10310000  *  115.4128000  * -177.5513000  *    62    61    60
   120       H          1.11540000  *  108.9310000  *  -62.7585000  *    64    63    60
   121       H          1.11610000  *  107.7924000  *   58.2483000  *    64    63    60
   122       H          1.11710000  *  106.9168000  * -177.2508000  *    65    64   120
   123       H          1.11470000  *  109.8024000  *  -95.0575000  *    66    65    64
   124       H          1.11510000  *  109.8124000  *  -95.9058000  *    66    65   122
   125       H          1.11600000  *  109.2737000  *  174.6816000  *    67    66   123
   126       H          1.11340000  *  110.5414000  *  -67.9317000  *    67    66   123
   127       H          1.11630000  *  109.5250000  *  179.6847000  *    68    67   125
   128       H          1.11620000  *  109.6690000  * -179.1177000  *    68    67   126
   129       H          1.11470000  *  111.0258000  *   58.6140000  *    69    68   127
   130       H          1.11430000  *  111.1483000  *   61.3850000  *    69    68   128
   131       H          1.11440000  *  111.1592000  * -178.3161000  *    69    68   128
   132       H          1.11590000  *  109.1261000  *   59.8685000  *    70    65   122
   133       H          1.11590000  *  109.5154000  *  176.1353000  *    70    65   122
   134       H          1.11480000  *  110.8500000  *   52.0578000  *    71    70   132
   135       H          1.11340000  *  111.7193000  *   55.7934000  *    71    70   133
   136       H          1.11420000  *  111.1932000  *  177.4888000  *    71    70   133
   137       H          1.10100000  *  122.8490000  *  179.1457000  *    76    75    51
   138       H          1.10490000  *  118.9486000  *  175.5617000  *    77    76    75
   139       H          1.09680000  *  114.4400000  *  174.2804000  *    78    77    76
   140       H          1.10100000  *  122.6659000  * -179.3080000  *    79    74    73
   141       H          1.10470000  *  119.0349000  * -176.4933000  *    80    79    74
   142       H          1.10070000  *  115.5823000  * -175.6061000  *    81    80    79
   143       H          1.11320000  *  109.3098000  *   89.7563000  *    82     5    94
   144       H          1.11520000  *  110.0734000  * -153.7017000  *    82     5    94
   145       H          1.11490000  *  110.7592000  *   58.4180000  *    83    82   143
   146       H          1.11110000  *  112.9742000  *  178.3168000  *    83    82   143
   147       H          1.11450000  *  111.1273000  *  -60.7976000  *    83    82   143
 


          CARTESIAN COORDINATES 

    NO.       ATOM           X           Y           Z

     1         C          0.0000      0.0000      0.0000
     2         C          1.5344      0.0000      0.0000
     3         C          2.1052      1.4288      0.0000
     4         C          3.6403      1.4248     -0.0331
     5         C          4.3310      2.7889      0.1794
     6         C          5.8654      2.6078      0.3072
     7         N          6.5205      2.1215     -0.8892
     8         C          6.6270      0.8365     -1.3165
     9         C          6.3671     -0.3593     -0.7775
    10         C          6.5985     -1.5234     -1.4524
    11         C          6.4142     -2.6820     -0.7619
    12         C          6.9238     -3.9004     -1.0029
    13         C          6.5472     -4.7900     -0.0810
    14         C          5.7634     -4.2356      0.8528
    15         S          5.7247     -2.7991      0.5366
    16         C          5.2081     -4.8177      1.9459
    17         C          4.6993     -4.0500      2.9298
    18         C          4.2193     -4.5570      4.0719
    19         C          4.1862     -5.8764      4.3406
    20         C          4.6722     -6.6622      3.3452
    21         C          5.1361     -6.1491      2.1837
    22         N          5.5174     -6.9678      1.2991
    23         C          5.5411     -8.2300      1.4122
    24         C          6.1443     -8.8636      0.3746
    25         C          6.7614    -10.0574      0.5049
    26         C          7.3845    -10.6692     -0.5148
    27         C          7.4261    -10.0911     -1.7222
    28         C          6.8504     -8.8924     -1.8816
    29         C          6.2358     -8.2962     -0.8476
    30         C          5.0174     -8.7501      2.5476
    31         N          4.6781     -7.9244      3.4492
    32         C          4.7307    -10.0451      2.8396
    33         C          4.5554    -10.4680      4.1098
    34         C          4.2437    -11.7350      4.4254
    35         C          4.0666    -12.6441      3.4584
    36         C          4.1913    -12.2549      2.1833
    37         C          4.5066    -10.9823      1.8934
    38         C          3.6655     -6.2822      5.5278
    39         C          3.1862     -5.5079      6.5191
    40         C          2.7437     -6.2271      7.5550
    41         C          2.9053     -7.5311      7.3065
    42         S          3.5132     -7.6726      5.9769
    43         C          2.6048     -8.6095      8.0587
    44         C          2.0509     -8.6756      9.2874
    45         C          1.8471     -9.9072      9.8379
    46         O          1.3507     -9.9669     10.9393
    47         O          2.1579    -11.0627      9.2457
    48         C          1.6992     -7.6071      9.9764
    49         N          1.3921     -6.6647     10.5775
    50         C          7.0590     -1.4431     -2.7415
    51         C          7.3724     -0.2526     -3.2994
    52         C          7.1355      0.8024     -2.5374
    53         C          7.3852      2.0393     -2.9061
    54         C          7.0315      2.8466     -1.9176
    55         C          7.2848      4.1443     -2.1232
    56         C          7.8477      4.5754     -3.2858
    57         C          8.1560      5.8975     -3.3558
    58         C          9.2490      6.3574     -3.9974
    59         C          9.5619      7.6612     -4.0492
    60         C          8.8111      8.6072     -3.4621
    61         C          7.7401      8.1557     -2.7855
    62         C          7.4307      6.8497     -2.7316
    63         O          9.2117      9.9130     -3.5575
    64         C          8.5409     10.9045     -2.8140
    65         C          9.2299     12.2639     -3.0625
    66         C          8.5773     13.3524     -2.1803
    67         C          9.5825     14.3499     -1.5778
    68         C          8.8834     15.4428     -0.7531
    69         C          9.8886     16.4307     -0.1462
    70         C          9.1870     12.6046     -4.5687
    71         C          9.8982     13.9070     -4.9562
    72         C          8.1180      3.6708     -4.2761
    73         C          7.9083      2.3522     -4.0801
    74         C          8.1216      1.3117     -4.9187
    75         C          7.8541      0.0286     -4.5340
    76         C          8.0074     -1.0544     -5.3172
    77         C          7.6450     -2.2670     -4.8734
    78         C          7.1654     -2.4490     -3.6325
    79         C          8.5827      1.6795     -6.1286
    80         C          8.7538      2.9761     -6.4302
    81         C          8.5105      3.9476     -5.5356
    82         C          3.9689      3.8383     -0.8924
    83         C          2.7482      4.7077     -0.5535
    84         H          2.8489     -9.5858      7.6000
    85         H         -0.3999     -1.0405      0.0040
    86         H         -0.4016      0.5211      0.8993
    87         H         -0.4022      0.5137     -0.9033
    88         H          1.8995     -0.5524      0.8988
    89         H          1.9026     -0.5507     -0.8987
    90         H          1.7138      1.9607     -0.8978
    91         H          1.7508      1.9662      0.9111
    92         H          3.9849      0.7354      0.7726
    93         H          3.9613      0.9913     -1.0080
    94         H          3.9870      3.1842      1.1663
    95         H          6.3330      3.5741      0.6076
    96         H          6.0963      1.9121      1.1470
    97         H          6.0123     -0.3080      0.2623
    98         H          7.6126     -4.2063     -1.8034
    99         H          6.9083     -5.8251     -0.1186
   100         H          4.6793     -2.9480      2.8723
   101         H          3.8545     -3.7989      4.7810
   102         H          6.8501    -10.5538      1.4849
   103         H          7.8907    -11.6375     -0.3555
   104         H          7.9400    -10.5848     -2.5651
   105         H          6.8750     -8.4017     -2.8705
   106         H          5.7478     -7.3339     -1.0712
   107         H          4.7203     -9.7950      4.9625
   108         H          4.1389    -12.0343      5.4832
   109         H          3.8009    -13.6862      3.7066
   110         H          4.0009    -12.9789      1.3716
   111         H          4.4908    -10.7270      0.8221
   112         H          3.1299     -4.4084      6.5550
   113         H          2.3183     -5.7609      8.4556
   114         H          1.9050    -11.7704      9.8620
   115         H          7.0851      4.8071     -1.2681
   116         H          9.9843      5.6714     -4.4491
   117         H         10.4826      7.9711     -4.5739
   118         H          7.0719      8.8566     -2.2589
   119         H          6.5062      6.6045     -2.1820
   120         H          7.4790     10.9534     -3.1516
   121         H          8.6129     10.6287     -1.7349
   122         H         10.2980     12.1477     -2.7567
   123         H          7.7918     13.8888     -2.7616
   124         H          8.0464     12.8761     -1.3232
   125         H         10.3000     13.7999     -0.9234
   126         H         10.1826     14.8333     -2.3815
   127         H          8.1681     16.0009     -1.4035
   128         H          8.2901     14.9728      0.0673
   129         H          9.3678     17.2169      0.4480
   130         H         10.6033     15.9109      0.5325
   131         H         10.4792     16.9425     -0.9407
   132         H          9.6660     11.7773     -5.1444
   133         H          8.1256     12.6556     -4.9093
   134         H          9.9251     14.0299     -6.0639
   135         H          9.3730     14.8002     -4.5487
   136         H         10.9515     13.9143     -4.5930
   137         H          8.3755     -0.9950     -6.3532
   138         H          7.7112     -3.1298     -5.5605
   139         H          6.8142     -3.4675     -3.4265
   140         H          8.7963      0.9540     -6.9288
   141         H          9.0779      3.2512     -7.4499
   142         H          8.6116      4.9768     -5.9123
   143         H          4.8130      4.5551     -1.0057
   144         H          3.8398      3.3442     -1.8837
   145         H          2.5624      5.4582     -1.3567
   146         H          1.8136      4.1176     -0.4402
   147         H          2.9063      5.2695      0.3959

  H: (RM1): G.B. ROCHA, R.O. FREIRE, A.M.SIMAS, J.J.P. STEWART, J. COMP. CHEM. 27, 1101 (2006)
  C: (RM1): G.B. ROCHA, R.O. FREIRE, A.M.SIMAS, J.J.P. STEWART, J. COMP. CHEM. 27, 1101 (2006)
  N: (RM1): G.B. ROCHA, R.O. FREIRE, A.M.SIMAS, J.J.P. STEWART, J. COMP. CHEM. 27, 1101 (2006)
  O: (RM1): G.B. ROCHA, R.O. FREIRE, A.M.SIMAS, J.J.P. STEWART, J. COMP. CHEM. 27, 1101 (2006)
  S: (RM1): G.B. ROCHA, R.O. FREIRE, A.M.SIMAS, J.J.P. STEWART, J. COMP. CHEM. 27, 1101 (2006)

           Empirical Formula: C74 H64 N4 O3 S2  =   147 atoms



      MOLECULAR POINT GROUP   :   C1  


      RHF CALCULATION, NO. OF DOUBLY OCCUPIED LEVELS = 205


          Geometry optimization using L-BFGS
 CYCLE:     1 TIME:   2.438 TIME LEFT:  2.00D  GRAD.:  2424.888 HEAT:  545.6950
 CYCLE:     2 TIME:   0.953 TIME LEFT:  2.00D  GRAD.:  1763.583 HEAT:  497.7846
 CYCLE:     3 TIME:   1.055 TIME LEFT:  2.00D  GRAD.:  1077.129 HEAT:  400.2941
 CYCLE:     4 TIME:   0.984 TIME LEFT:  2.00D  GRAD.:  1763.823 HEAT:  497.7830
 CYCLE:     5 TIME:   0.945 TIME LEFT:  2.00D  GRAD.:  1077.210 HEAT:  400.2876
 CYCLE:     6 TIME:   0.953 TIME LEFT:  2.00D  GRAD.:   899.060 HEAT:  335.7951
 CYCLE:     7 TIME:   1.055 TIME LEFT:  2.00D  GRAD.:  1271.742 HEAT:  271.9203
 CYCLE:     8 TIME:   0.961 TIME LEFT:  2.00D  GRAD.:   801.984 HEAT:  221.5786
 CYCLE:     9 TIME:   0.875 TIME LEFT:  2.00D  GRAD.:   506.430 HEAT:  202.9520
 CYCLE:    10 TIME:   0.820 TIME LEFT:  2.00D  GRAD.:   557.435 HEAT:  188.4301
 CYCLE:    11 TIME:   0.914 TIME LEFT:  2.00D  GRAD.:   322.933 HEAT:  181.7959
 CYCLE:    12 TIME:   0.789 TIME LEFT:  2.00D  GRAD.:   177.506 HEAT:  176.8893
 CYCLE:    13 TIME:   0.883 TIME LEFT:  2.00D  GRAD.:   212.880 HEAT:  174.8292
 CYCLE:    14 TIME:   0.688 TIME LEFT:  2.00D  GRAD.:   232.423 HEAT:  171.5762
 CYCLE:    15 TIME:   0.836 TIME LEFT:  2.00D  GRAD.:   245.241 HEAT:  166.4396
 CYCLE:    16 TIME:   1.070 TIME LEFT:  2.00D  GRAD.:   227.460 HEAT:  162.8854
 CYCLE:    17 TIME:   1.094 TIME LEFT:  2.00D  GRAD.:   146.148 HEAT:  161.0504
 CYCLE:    18 TIME:   0.906 TIME LEFT:  2.00D  GRAD.:    93.911 HEAT:  160.0970
 CYCLE:    19 TIME:   0.781 TIME LEFT:  2.00D  GRAD.:   101.231 HEAT:  159.1740
 CYCLE:    20 TIME:   0.828 TIME LEFT:  2.00D  GRAD.:   152.630 HEAT:  157.6871
 CYCLE:    21 TIME:   0.758 TIME LEFT:  2.00D  GRAD.:   130.735 HEAT:  156.2295
 CYCLE:    22 TIME:   0.719 TIME LEFT:  2.00D  GRAD.:   101.207 HEAT:  155.1633
 CYCLE:    23 TIME:   0.797 TIME LEFT:  2.00D  GRAD.:   172.937 HEAT:  154.1146
 CYCLE:    24 TIME:   0.930 TIME LEFT:  2.00D  GRAD.:   137.077 HEAT:  153.3209
 CYCLE:    25 TIME:   0.984 TIME LEFT:  2.00D  GRAD.:   125.076 HEAT:  152.6700
 CYCLE:    26 TIME:   0.805 TIME LEFT:  2.00D  GRAD.:   366.621 HEAT:  152.5071
 CYCLE:    27 TIME:   0.906 TIME LEFT:  2.00D  GRAD.:    77.517 HEAT:  151.5510
 CYCLE:    28 TIME:   0.656 TIME LEFT:  2.00D  GRAD.:    65.826 HEAT:  151.4328
 CYCLE:    29 TIME:   0.805 TIME LEFT:  2.00D  GRAD.:    70.157 HEAT:  150.5679
 CYCLE:    30 TIME:   0.906 TIME LEFT:  2.00D  GRAD.:   106.808 HEAT:  149.8951
 CYCLE:    31 TIME:   0.883 TIME LEFT:  2.00D  GRAD.:    70.579 HEAT:  149.4457
 CYCLE:    32 TIME:   0.914 TIME LEFT:  2.00D  GRAD.:    49.692 HEAT:  149.2009
 CYCLE:    33 TIME:   1.102 TIME LEFT:  2.00D  GRAD.:    52.076 HEAT:  148.7211
 CYCLE:    34 TIME:   1.008 TIME LEFT:  2.00D  GRAD.:    70.249 HEAT:  148.4342
 CYCLE:    35 TIME:   1.156 TIME LEFT:  2.00D  GRAD.:    49.951 HEAT:  148.1203
 CYCLE:    36 TIME:   1.141 TIME LEFT:  2.00D  GRAD.:    65.336 HEAT:  147.8331
 CYCLE:    37 TIME:   1.031 TIME LEFT:  2.00D  GRAD.:    93.754 HEAT:  147.6223
 CYCLE:    38 TIME:   1.039 TIME LEFT:  2.00D  GRAD.:    60.654 HEAT:  147.3845
 CYCLE:    39 TIME:   1.148 TIME LEFT:  2.00D  GRAD.:    46.086 HEAT:  147.1783
 CYCLE:    40 TIME:   1.133 TIME LEFT:  2.00D  GRAD.:    50.702 HEAT:  146.9238
 CYCLE:    41 TIME:   1.258 TIME LEFT:  2.00D  GRAD.:   279.612 HEAT:  147.2184
 CYCLE:    42 TIME:   1.203 TIME LEFT:  2.00D  GRAD.:    43.013 HEAT:  146.6647
 CYCLE:    43 TIME:   1.289 TIME LEFT:  2.00D  GRAD.:    44.809 HEAT:  146.5799
 CYCLE:    44 TIME:   1.336 TIME LEFT:  2.00D  GRAD.:    52.476 HEAT:  146.0622
 CYCLE:    45 TIME:   1.094 TIME LEFT:  2.00D  GRAD.:   106.620 HEAT:  145.8383
 CYCLE:    46 TIME:   0.992 TIME LEFT:  2.00D  GRAD.:    42.444 HEAT:  145.5303
 CYCLE:    47 TIME:   0.969 TIME LEFT:  2.00D  GRAD.:    42.874 HEAT:  145.3994
 CYCLE:    48 TIME:   0.984 TIME LEFT:  2.00D  GRAD.:    94.094 HEAT:  144.9733
 CYCLE:    49 TIME:   1.109 TIME LEFT:  2.00D  GRAD.:    72.338 HEAT:  144.6195
 CYCLE:    50 TIME:   1.023 TIME LEFT:  2.00D  GRAD.:    45.513 HEAT:  144.3538
 CYCLE:    51 TIME:   0.930 TIME LEFT:  2.00D  GRAD.:    48.880 HEAT:  143.9706
 CYCLE:    52 TIME:   1.039 TIME LEFT:  2.00D  GRAD.:   230.486 HEAT:  144.2141
 CYCLE:    53 TIME:   1.211 TIME LEFT:  2.00D  GRAD.:    51.251 HEAT:  143.7451
 CYCLE:    54 TIME:   0.984 TIME LEFT:  2.00D  GRAD.:    34.056 HEAT:  143.6575
 CYCLE:    55 TIME:   1.273 TIME LEFT:  2.00D  GRAD.:    47.243 HEAT:  143.4388
 CYCLE:    56 TIME:   1.242 TIME LEFT:  2.00D  GRAD.:    56.138 HEAT:  143.2704
 CYCLE:    57 TIME:   1.227 TIME LEFT:  2.00D  GRAD.:   288.623 HEAT:  143.7391
 CYCLE:    58 TIME:   1.281 TIME LEFT:  2.00D  GRAD.:    39.917 HEAT:  143.0299
 CYCLE:    59 TIME:   1.117 TIME LEFT:  2.00D  GRAD.:    36.298 HEAT:  142.9912
 CYCLE:    60 TIME:   1.258 TIME LEFT:  2.00D  GRAD.:    43.997 HEAT:  142.7988
 CYCLE:    61 TIME:   1.422 TIME LEFT:  2.00D  GRAD.:    51.173 HEAT:  142.5816
 CYCLE:    62 TIME:   1.320 TIME LEFT:  2.00D  GRAD.:   175.155 HEAT:  142.8456
 CYCLE:    63 TIME:   1.133 TIME LEFT:  2.00D  GRAD.:    34.401 HEAT:  142.2692
 CYCLE:    64 TIME:   1.086 TIME LEFT:  2.00D  GRAD.:    27.492 HEAT:  142.2080
 CYCLE:    65 TIME:   1.188 TIME LEFT:  2.00D  GRAD.:    34.202 HEAT:  142.0658
 CYCLE:    66 TIME:   1.336 TIME LEFT:  2.00D  GRAD.:    46.306 HEAT:  141.8435
 CYCLE:    67 TIME:   1.320 TIME LEFT:  2.00D  GRAD.:   179.491 HEAT:  141.9996
 CYCLE:    68 TIME:   1.102 TIME LEFT:  2.00D  GRAD.:    41.967 HEAT:  141.6164
 CYCLE:    69 TIME:   1.141 TIME LEFT:  2.00D  GRAD.:    25.801 HEAT:  141.5653
 CYCLE:    70 TIME:   1.141 TIME LEFT:  2.00D  GRAD.:    25.527 HEAT:  141.4909
 CYCLE:    71 TIME:   1.266 TIME LEFT:  2.00D  GRAD.:    81.095 HEAT:  141.4209
 CYCLE:    72 TIME:   1.297 TIME LEFT:  2.00D  GRAD.:    36.353 HEAT:  141.3424
 CYCLE:    73 TIME:   1.398 TIME LEFT:  2.00D  GRAD.:    23.264 HEAT:  141.2871
 CYCLE:    74 TIME:   1.055 TIME LEFT:  2.00D  GRAD.:    26.785 HEAT:  141.2342
 CYCLE:    75 TIME:   1.258 TIME LEFT:  2.00D  GRAD.:    26.758 HEAT:  141.1733
 CYCLE:    76 TIME:   1.242 TIME LEFT:  2.00D  GRAD.:    75.038 HEAT:  141.1444
 CYCLE:    77 TIME:   1.570 TIME LEFT:  2.00D  GRAD.:    23.471 HEAT:  141.0425
 CYCLE:    78 TIME:   1.055 TIME LEFT:  2.00D  GRAD.:    19.696 HEAT:  141.0060
 CYCLE:    79 TIME:   1.344 TIME LEFT:  2.00D  GRAD.:    28.779 HEAT:  140.9397
 CYCLE:    80 TIME:   1.375 TIME LEFT:  2.00D  GRAD.:    38.489 HEAT:  140.8669
 CYCLE:    81 TIME:   1.328 TIME LEFT:  2.00D  GRAD.:    29.273 HEAT:  140.7885
 CYCLE:    82 TIME:   1.297 TIME LEFT:  2.00D  GRAD.:    22.391 HEAT:  140.7307
 CYCLE:    83 TIME:   1.078 TIME LEFT:  2.00D  GRAD.:    29.528 HEAT:  140.6741
 CYCLE:    84 TIME:   1.117 TIME LEFT:  2.00D  GRAD.:    66.829 HEAT:  140.6560
 CYCLE:    85 TIME:   1.094 TIME LEFT:  2.00D  GRAD.:    20.629 HEAT:  140.6206
 CYCLE:    86 TIME:   0.828 TIME LEFT:  2.00D  GRAD.:    20.986 HEAT:  140.6032
 CYCLE:    87 TIME:   1.234 TIME LEFT:  2.00D  GRAD.:    30.209 HEAT:  140.5792
 CYCLE:    88 TIME:   0.945 TIME LEFT:  2.00D  GRAD.:    31.474 HEAT:  140.5496
 CYCLE:    89 TIME:   1.250 TIME LEFT:  2.00D  GRAD.:    74.032 HEAT:  140.5401
 CYCLE:    90 TIME:   1.367 TIME LEFT:  2.00D  GRAD.:    27.450 HEAT:  140.4477
 CYCLE:    91 TIME:   1.117 TIME LEFT:  2.00D  GRAD.:    17.102 HEAT:  140.4220
 CYCLE:    92 TIME:   1.125 TIME LEFT:  2.00D  GRAD.:    21.909 HEAT:  140.3921
 CYCLE:    93 TIME:   1.156 TIME LEFT:  2.00D  GRAD.:    23.124 HEAT:  140.3569
 CYCLE:    94 TIME:   1.320 TIME LEFT:  2.00D  GRAD.:    26.745 HEAT:  140.3232
 CYCLE:    95 TIME:   1.375 TIME LEFT:  2.00D  GRAD.:    21.148 HEAT:  140.2781
 CYCLE:    96 TIME:   1.297 TIME LEFT:  2.00D  GRAD.:    24.029 HEAT:  140.2442
 CYCLE:    97 TIME:   1.305 TIME LEFT:  2.00D  GRAD.:    29.858 HEAT:  140.2026
 CYCLE:    98 TIME:   1.148 TIME LEFT:  2.00D  GRAD.:    35.204 HEAT:  140.1682
 CYCLE:    99 TIME:   1.016 TIME LEFT:  2.00D  GRAD.:    17.423 HEAT:  140.1417
 CYCLE:   100 TIME:   1.211 TIME LEFT:  2.00D  GRAD.:    21.857 HEAT:  140.1146
 CYCLE:   101 TIME:   1.023 TIME LEFT:  2.00D  GRAD.:    26.397 HEAT:  140.0950
 CYCLE:   102 TIME:   1.227 TIME LEFT:  2.00D  GRAD.:    27.940 HEAT:  140.0739
 CYCLE:   103 TIME:   0.992 TIME LEFT:  2.00D  GRAD.:    17.838 HEAT:  140.0564
 CYCLE:   104 TIME:   0.977 TIME LEFT:  2.00D  GRAD.:    13.042 HEAT:  140.0458
 CYCLE:   105 TIME:   1.328 TIME LEFT:  2.00D  GRAD.:    23.415 HEAT:  140.0130
 CYCLE:   106 TIME:   1.078 TIME LEFT:  2.00D  GRAD.:    16.386 HEAT:  139.9945
 CYCLE:   107 TIME:   1.359 TIME LEFT:  2.00D  GRAD.:    12.184 HEAT:  139.9747
 CYCLE:   108 TIME:   1.172 TIME LEFT:  2.00D  GRAD.:    15.821 HEAT:  139.9597
 CYCLE:   109 TIME:   1.031 TIME LEFT:  2.00D  GRAD.:    14.561 HEAT:  139.9382
 CYCLE:   110 TIME:   1.273 TIME LEFT:  2.00D  GRAD.:    17.360 HEAT:  139.9073
 CYCLE:   111 TIME:   1.164 TIME LEFT:  2.00D  GRAD.:    65.289 HEAT:  139.9523
 CYCLE:   112 TIME:   1.031 TIME LEFT:  2.00D  GRAD.:    11.437 HEAT:  139.8848
 CYCLE:   113 TIME:   1.273 TIME LEFT:  2.00D  GRAD.:     9.683 HEAT:  139.8772
 CYCLE:   114 TIME:   1.156 TIME LEFT:  2.00D  GRAD.:    14.340 HEAT:  139.8547
 CYCLE:   115 TIME:   1.070 TIME LEFT:  2.00D  GRAD.:    21.768 HEAT:  139.8336
 CYCLE:   116 TIME:   1.195 TIME LEFT:  2.00D  GRAD.:    58.582 HEAT:  139.8490
 CYCLE:   117 TIME:   1.516 TIME LEFT:  2.00D  GRAD.:     9.482 HEAT:  139.8208
 CYCLE:   118 TIME:   1.227 TIME LEFT:  2.00D  GRAD.:     9.712 HEAT:  139.8172
 CYCLE:   119 TIME:   0.969 TIME LEFT:  2.00D  GRAD.:    10.267 HEAT:  139.8055
 CYCLE:   120 TIME:   0.977 TIME LEFT:  2.00D  GRAD.:    24.410 HEAT:  139.7971
 CYCLE:   121 TIME:   1.016 TIME LEFT:  2.00D  GRAD.:     9.394 HEAT:  139.7850
 CYCLE:   122 TIME:   1.062 TIME LEFT:  2.00D  GRAD.:     8.869 HEAT:  139.7807
 CYCLE:   123 TIME:   1.312 TIME LEFT:  2.00D  GRAD.:    10.318 HEAT:  139.7614
 CYCLE:   124 TIME:   1.133 TIME LEFT:  2.00D  GRAD.:    16.909 HEAT:  139.7427
 CYCLE:   125 TIME:   1.031 TIME LEFT:  2.00D  GRAD.:     9.160 HEAT:  139.7289
 CYCLE:   126 TIME:   1.148 TIME LEFT:  2.00D  GRAD.:     8.174 HEAT:  139.7224
 CYCLE:   127 TIME:   1.008 TIME LEFT:  2.00D  GRAD.:    10.806 HEAT:  139.7079
 CYCLE:   128 TIME:   0.938 TIME LEFT:  2.00D  GRAD.:    28.958 HEAT:  139.7034
 CYCLE:   129 TIME:   1.219 TIME LEFT:  2.00D  GRAD.:    10.588 HEAT:  139.6904
 CYCLE:   130 TIME:   1.219 TIME LEFT:  2.00D  GRAD.:     7.409 HEAT:  139.6838
 CYCLE:   131 TIME:   1.008 TIME LEFT:  2.00D  GRAD.:    10.496 HEAT:  139.6753
 CYCLE:   132 TIME:   1.133 TIME LEFT:  2.00D  GRAD.:    16.457 HEAT:  139.6637
 CYCLE:   133 TIME:   1.359 TIME LEFT:  2.00D  GRAD.:    72.636 HEAT:  139.6893
 CYCLE:   134 TIME:   1.273 TIME LEFT:  2.00D  GRAD.:    10.048 HEAT:  139.6525
 CYCLE:   135 TIME:   1.031 TIME LEFT:  2.00D  GRAD.:     7.927 HEAT:  139.6493
 CYCLE:   136 TIME:   1.422 TIME LEFT:  2.00D  GRAD.:    12.121 HEAT:  139.6406
 CYCLE:   137 TIME:   0.977 TIME LEFT:  2.00D  GRAD.:    10.827 HEAT:  139.6312
 CYCLE:   138 TIME:   1.242 TIME LEFT:  2.00D  GRAD.:     7.856 HEAT:  139.6254
 CYCLE:   139 TIME:   1.117 TIME LEFT:  2.00D  GRAD.:     7.973 HEAT:  139.6173
 CYCLE:   140 TIME:   1.117 TIME LEFT:  2.00D  GRAD.:    16.571 HEAT:  139.6090
 CYCLE:   141 TIME:   1.188 TIME LEFT:  2.00D  GRAD.:    10.342 HEAT:  139.5987
 CYCLE:   142 TIME:   1.141 TIME LEFT:  2.00D  GRAD.:     8.449 HEAT:  139.5888
 CYCLE:   143 TIME:   1.203 TIME LEFT:  2.00D  GRAD.:     8.901 HEAT:  139.5789
 CYCLE:   144 TIME:   1.109 TIME LEFT:  2.00D  GRAD.:    12.825 HEAT:  139.5713
 CYCLE:   145 TIME:   1.203 TIME LEFT:  2.00D  GRAD.:     8.659 HEAT:  139.5623
 CYCLE:   146 TIME:   1.039 TIME LEFT:  2.00D  GRAD.:     8.167 HEAT:  139.5549
 CYCLE:   147 TIME:   1.047 TIME LEFT:  2.00D  GRAD.:    14.073 HEAT:  139.5467
 CYCLE:   148 TIME:   1.133 TIME LEFT:  2.00D  GRAD.:    24.814 HEAT:  139.5441
 CYCLE:   149 TIME:   1.156 TIME LEFT:  2.00D  GRAD.:     8.563 HEAT:  139.5395
 CYCLE:   150 TIME:   1.094 TIME LEFT:  2.00D  GRAD.:     9.584 HEAT:  139.5366
 CYCLE:   151 TIME:   1.070 TIME LEFT:  2.00D  GRAD.:     9.246 HEAT:  139.5333
 CYCLE:   152 TIME:   0.953 TIME LEFT:  2.00D  GRAD.:     8.261 HEAT:  139.5220
 CYCLE:   153 TIME:   1.359 TIME LEFT:  2.00D  GRAD.:     7.228 HEAT:  139.5134
 CYCLE:   154 TIME:   1.164 TIME LEFT:  2.00D  GRAD.:    14.742 HEAT:  139.5074
 CYCLE:   155 TIME:   1.242 TIME LEFT:  2.00D  GRAD.:     7.240 HEAT:  139.4988
 CYCLE:   156 TIME:   1.203 TIME LEFT:  2.00D  GRAD.:    10.397 HEAT:  139.4904
 CYCLE:   157 TIME:   1.102 TIME LEFT:  2.00D  GRAD.:    10.758 HEAT:  139.4811
 CYCLE:   158 TIME:   1.117 TIME LEFT:  2.00D  GRAD.:    18.946 HEAT:  139.4712
 CYCLE:   159 TIME:   0.992 TIME LEFT:  2.00D  GRAD.:    18.275 HEAT:  139.4622
 CYCLE:   160 TIME:   1.125 TIME LEFT:  2.00D  GRAD.:     7.471 HEAT:  139.4568
 CYCLE:   161 TIME:   1.219 TIME LEFT:  2.00D  GRAD.:    12.867 HEAT:  139.4523
 CYCLE:   162 TIME:   0.828 TIME LEFT:  2.00D  GRAD.:    11.211 HEAT:  139.4458
 CYCLE:   163 TIME:   1.039 TIME LEFT:  2.00D  GRAD.:    21.009 HEAT:  139.4325
 CYCLE:   164 TIME:   1.117 TIME LEFT:  2.00D  GRAD.:    27.830 HEAT:  139.4277
 CYCLE:   165 TIME:   0.953 TIME LEFT:  2.00D  GRAD.:     9.121 HEAT:  139.4227
 CYCLE:   166 TIME:   1.031 TIME LEFT:  2.00D  GRAD.:    12.497 HEAT:  139.4189
 CYCLE:   167 TIME:   0.781 TIME LEFT:  2.00D  GRAD.:     7.918 HEAT:  139.4164
 CYCLE:   168 TIME:   0.805 TIME LEFT:  2.00D  GRAD.:    11.047 HEAT:  139.4103
 CYCLE:   169 TIME:   1.133 TIME LEFT:  2.00D  GRAD.:    13.637 HEAT:  139.4047
 CYCLE:   170 TIME:   1.109 TIME LEFT:  2.00D  GRAD.:    16.682 HEAT:  139.3946
 CYCLE:   171 TIME:   1.125 TIME LEFT:  2.00D  GRAD.:    28.010 HEAT:  139.3936
 CYCLE:   172 TIME:   1.000 TIME LEFT:  2.00D  GRAD.:     8.909 HEAT:  139.3793
 CYCLE:   173 TIME:   1.297 TIME LEFT:  2.00D  GRAD.:     8.158 HEAT:  139.3735
 CYCLE:   174 TIME:   0.992 TIME LEFT:  2.00D  GRAD.:     9.031 HEAT:  139.3652
 CYCLE:   175 TIME:   1.227 TIME LEFT:  2.00D  GRAD.:    14.019 HEAT:  139.3548
 CYCLE:   176 TIME:   1.125 TIME LEFT:  2.00D  GRAD.:    14.972 HEAT:  139.3487
 CYCLE:   177 TIME:   0.875 TIME LEFT:  2.00D  GRAD.:     7.125 HEAT:  139.3441
 CYCLE:   178 TIME:   1.219 TIME LEFT:  2.00D  GRAD.:    10.573 HEAT:  139.3388
 CYCLE:   179 TIME:   0.836 TIME LEFT:  2.00D  GRAD.:     8.599 HEAT:  139.3348
 CYCLE:   180 TIME:   1.273 TIME LEFT:  2.00D  GRAD.:     9.218 HEAT:  139.3244
 CYCLE:   181 TIME:   1.094 TIME LEFT:  2.00D  GRAD.:    20.496 HEAT:  139.3175
 CYCLE:   182 TIME:   1.062 TIME LEFT:  2.00D  GRAD.:     7.281 HEAT:  139.3118
 CYCLE:   183 TIME:   0.938 TIME LEFT:  2.00D  GRAD.:     7.175 HEAT:  139.3089
 CYCLE:   184 TIME:   1.102 TIME LEFT:  2.00D  GRAD.:    11.273 HEAT:  139.3052
 CYCLE:   185 TIME:   1.336 TIME LEFT:  2.00D  GRAD.:     8.872 HEAT:  139.2972
 CYCLE:   186 TIME:   1.352 TIME LEFT:  2.00D  GRAD.:    29.471 HEAT:  139.3014
 CYCLE:   187 TIME:   1.312 TIME LEFT:  2.00D  GRAD.:     6.322 HEAT:  139.2841
 CYCLE:   188 TIME:   0.961 TIME LEFT:  2.00D  GRAD.:     5.219 HEAT:  139.2814
 CYCLE:   189 TIME:   1.438 TIME LEFT:  2.00D  GRAD.:     6.978 HEAT:  139.2752
 CYCLE:   190 TIME:   1.242 TIME LEFT:  2.00D  GRAD.:    10.157 HEAT:  139.2657
 CYCLE:   191 TIME:   1.219 TIME LEFT:  2.00D  GRAD.:    20.417 HEAT:  139.2636
 CYCLE:   192 TIME:   0.875 TIME LEFT:  2.00D  GRAD.:     8.388 HEAT:  139.2562
 CYCLE:   193 TIME:   1.188 TIME LEFT:  2.00D  GRAD.:     6.297 HEAT:  139.2503
 CYCLE:   194 TIME:   1.008 TIME LEFT:  2.00D  GRAD.:    10.507 HEAT:  139.2444
 CYCLE:   195 TIME:   1.219 TIME LEFT:  2.00D  GRAD.:    24.542 HEAT:  139.2403
 CYCLE:   196 TIME:   1.031 TIME LEFT:  2.00D  GRAD.:     7.647 HEAT:  139.2337
 CYCLE:   197 TIME:   1.250 TIME LEFT:  2.00D  GRAD.:     8.758 HEAT:  139.2304
 CYCLE:   198 TIME:   0.828 TIME LEFT:  2.00D  GRAD.:     7.263 HEAT:  139.2271
 CYCLE:   199 TIME:   1.172 TIME LEFT:  2.00D  GRAD.:     7.717 HEAT:  139.2129
 CYCLE:   200 TIME:   1.070 TIME LEFT:  2.00D  GRAD.:    17.012 HEAT:  139.2074
 CYCLE:   201 TIME:   0.898 TIME LEFT:  2.00D  GRAD.:     8.838 HEAT:  139.2012
 CYCLE:   202 TIME:   1.156 TIME LEFT:  2.00D  GRAD.:     5.970 HEAT:  139.1942
 CYCLE:   203 TIME:   1.141 TIME LEFT:  2.00D  GRAD.:    10.959 HEAT:  139.1886
 CYCLE:   204 TIME:   0.992 TIME LEFT:  2.00D  GRAD.:    10.407 HEAT:  139.1806
 CYCLE:   205 TIME:   1.172 TIME LEFT:  2.00D  GRAD.:    11.656 HEAT:  139.1671
 CYCLE:   206 TIME:   0.930 TIME LEFT:  2.00D  GRAD.:    30.517 HEAT:  139.1690
 CYCLE:   207 TIME:   1.227 TIME LEFT:  2.00D  GRAD.:     9.463 HEAT:  139.1542
 CYCLE:   208 TIME:   1.289 TIME LEFT:  2.00D  GRAD.:     9.922 HEAT:  139.1467
 CYCLE:   209 TIME:   1.203 TIME LEFT:  2.00D  GRAD.:    24.705 HEAT:  139.1397
 CYCLE:   210 TIME:   1.164 TIME LEFT:  2.00D  GRAD.:    11.806 HEAT:  139.1302
 CYCLE:   211 TIME:   1.086 TIME LEFT:  2.00D  GRAD.:     8.379 HEAT:  139.1246
 CYCLE:   212 TIME:   0.992 TIME LEFT:  2.00D  GRAD.:     8.588 HEAT:  139.1189
 CYCLE:   213 TIME:   1.039 TIME LEFT:  2.00D  GRAD.:    13.633 HEAT:  139.1037
 CYCLE:   214 TIME:   1.492 TIME LEFT:  2.00D  GRAD.:    15.360 HEAT:  139.0939
 CYCLE:   215 TIME:   1.289 TIME LEFT:  2.00D  GRAD.:    12.655 HEAT:  139.0859
 CYCLE:   216 TIME:   1.242 TIME LEFT:  2.00D  GRAD.:     8.235 HEAT:  139.0725
 CYCLE:   217 TIME:   0.977 TIME LEFT:  2.00D  GRAD.:     9.221 HEAT:  139.0613
 CYCLE:   218 TIME:   1.164 TIME LEFT:  2.00D  GRAD.:    10.630 HEAT:  139.0535
 CYCLE:   219 TIME:   1.156 TIME LEFT:  2.00D  GRAD.:    12.729 HEAT:  139.0439
 CYCLE:   220 TIME:   1.047 TIME LEFT:  2.00D  GRAD.:    19.583 HEAT:  139.0347
 CYCLE:   221 TIME:   1.094 TIME LEFT:  2.00D  GRAD.:     9.122 HEAT:  139.0217
 CYCLE:   222 TIME:   1.406 TIME LEFT:  2.00D  GRAD.:     8.026 HEAT:  139.0133
 CYCLE:   223 TIME:   1.406 TIME LEFT:  2.00D  GRAD.:    38.821 HEAT:  139.0128
 CYCLE:   224 TIME:   1.141 TIME LEFT:  2.00D  GRAD.:     9.227 HEAT:  139.0036
 CYCLE:   225 TIME:   1.266 TIME LEFT:  2.00D  GRAD.:    10.532 HEAT:  139.0009
 CYCLE:   226 TIME:   0.883 TIME LEFT:  2.00D  GRAD.:     7.954 HEAT:  138.9955
 CYCLE:   227 TIME:   1.273 TIME LEFT:  2.00D  GRAD.:    16.224 HEAT:  138.9789
 CYCLE:   228 TIME:   1.031 TIME LEFT:  2.00D  GRAD.:    16.957 HEAT:  138.9716
 CYCLE:   229 TIME:   1.305 TIME LEFT:  2.00D  GRAD.:     7.629 HEAT:  138.9652
 CYCLE:   230 TIME:   1.219 TIME LEFT:  2.00D  GRAD.:     6.966 HEAT:  138.9613
 CYCLE:   231 TIME:   1.242 TIME LEFT:  2.00D  GRAD.:     9.421 HEAT:  138.9537
 CYCLE:   232 TIME:   0.969 TIME LEFT:  2.00D  GRAD.:    12.030 HEAT:  138.9443
 CYCLE:   233 TIME:   0.945 TIME LEFT:  2.00D  GRAD.:    10.651 HEAT:  138.9346
 CYCLE:   234 TIME:   0.984 TIME LEFT:  2.00D  GRAD.:     6.144 HEAT:  138.9291
 CYCLE:   235 TIME:   1.094 TIME LEFT:  2.00D  GRAD.:     7.438 HEAT:  138.9215
 CYCLE:   236 TIME:   1.031 TIME LEFT:  2.00D  GRAD.:    14.360 HEAT:  138.9156
 CYCLE:   237 TIME:   1.133 TIME LEFT:  2.00D  GRAD.:    16.075 HEAT:  138.9119
 CYCLE:   238 TIME:   1.180 TIME LEFT:  2.00D  GRAD.:     7.439 HEAT:  138.9079
 CYCLE:   239 TIME:   1.258 TIME LEFT:  2.00D  GRAD.:    14.721 HEAT:  138.9070
 CYCLE:   240 TIME:   1.086 TIME LEFT:  2.00D  GRAD.:     7.588 HEAT:  138.9027
 CYCLE:   241 TIME:   1.312 TIME LEFT:  2.00D  GRAD.:     6.087 HEAT:  138.8976
 CYCLE:   242 TIME:   1.023 TIME LEFT:  2.00D  GRAD.:     6.479 HEAT:  138.8929
 CYCLE:   243 TIME:   0.820 TIME LEFT:  2.00D  GRAD.:    25.193 HEAT:  138.8921
 CYCLE:   244 TIME:   1.055 TIME LEFT:  2.00D  GRAD.:     6.360 HEAT:  138.8816
 CYCLE:   245 TIME:   0.992 TIME LEFT:  2.00D  GRAD.:     5.191 HEAT:  138.8782
 CYCLE:   246 TIME:   1.016 TIME LEFT:  2.00D  GRAD.:    10.443 HEAT:  138.8731
 CYCLE:   247 TIME:   1.297 TIME LEFT:  2.00D  GRAD.:    10.686 HEAT:  138.8700
 CYCLE:   248 TIME:   1.109 TIME LEFT:  2.00D  GRAD.:     5.647 HEAT:  138.8649
 CYCLE:   249 TIME:   1.492 TIME LEFT:  2.00D  GRAD.:     9.072 HEAT:  138.8597
 CYCLE:   250 TIME:   1.320 TIME LEFT:  2.00D  GRAD.:     9.002 HEAT:  138.8568
 CYCLE:   251 TIME:   1.133 TIME LEFT:  2.00D  GRAD.:     7.606 HEAT:  138.8539
 CYCLE:   252 TIME:   1.188 TIME LEFT:  2.00D  GRAD.:     6.894 HEAT:  138.8503
 CYCLE:   253 TIME:   1.039 TIME LEFT:  2.00D  GRAD.:     5.731 HEAT:  138.8484
 CYCLE:   254 TIME:   0.945 TIME LEFT:  2.00D  GRAD.:     8.500 HEAT:  138.8453
 CYCLE:   255 TIME:   1.211 TIME LEFT:  2.00D  GRAD.:     7.303 HEAT:  138.8403
 CYCLE:   256 TIME:   1.414 TIME LEFT:  2.00D  GRAD.:     4.888 HEAT:  138.8360
 CYCLE:   257 TIME:   1.031 TIME LEFT:  2.00D  GRAD.:     5.706 HEAT:  138.8321
 CYCLE:   258 TIME:   1.023 TIME LEFT:  2.00D  GRAD.:     6.616 HEAT:  138.8291
 CYCLE:   259 TIME:   0.875 TIME LEFT:  2.00D  GRAD.:     6.747 HEAT:  138.8265
 CYCLE:   260 TIME:   0.914 TIME LEFT:  2.00D  GRAD.:     5.736 HEAT:  138.8241
 CYCLE:   261 TIME:   1.016 TIME LEFT:  2.00D  GRAD.:     6.336 HEAT:  138.8201
 CYCLE:   262 TIME:   1.164 TIME LEFT:  2.00D  GRAD.:     8.069 HEAT:  138.8175
 CYCLE:   263 TIME:   1.055 TIME LEFT:  2.00D  GRAD.:     4.771 HEAT:  138.8151
 CYCLE:   264 TIME:   0.906 TIME LEFT:  2.00D  GRAD.:    11.150 HEAT:  138.8126
 CYCLE:   265 TIME:   0.945 TIME LEFT:  2.00D  GRAD.:     8.549 HEAT:  138.8111
 CYCLE:   266 TIME:   1.117 TIME LEFT:  2.00D  GRAD.:     3.817 HEAT:  138.8098
 CYCLE:   267 TIME:   0.875 TIME LEFT:  2.00D  GRAD.:     3.323 HEAT:  138.8089
 CYCLE:   268 TIME:   1.047 TIME LEFT:  2.00D  GRAD.:     6.583 HEAT:  138.8074
 CYCLE:   269 TIME:   0.914 TIME LEFT:  2.00D  GRAD.:     5.565 HEAT:  138.8052
 CYCLE:   270 TIME:   0.969 TIME LEFT:  2.00D  GRAD.:     4.292 HEAT:  138.8024
 CYCLE:   271 TIME:   1.016 TIME LEFT:  2.00D  GRAD.:     8.883 HEAT:  138.8018
 CYCLE:   272 TIME:   0.906 TIME LEFT:  2.00D  GRAD.:     3.762 HEAT:  138.7997
 CYCLE:   273 TIME:   0.906 TIME LEFT:  2.00D  GRAD.:     2.839 HEAT:  138.7983
 CYCLE:   274 TIME:   1.023 TIME LEFT:  2.00D  GRAD.:     3.907 HEAT:  138.7961
 CYCLE:   275 TIME:   1.070 TIME LEFT:  2.00D  GRAD.:    16.328 HEAT:  138.7959
 CYCLE:   276 TIME:   0.984 TIME LEFT:  2.00D  GRAD.:     6.068 HEAT:  138.7933
 CYCLE:   277 TIME:   0.938 TIME LEFT:  2.00D  GRAD.:     3.001 HEAT:  138.7921
 CYCLE:   278 TIME:   1.211 TIME LEFT:  2.00D  GRAD.:     6.474 HEAT:  138.7908
 CYCLE:   279 TIME:   0.977 TIME LEFT:  2.00D  GRAD.:     5.659 HEAT:  138.7898
 CYCLE:   280 TIME:   1.094 TIME LEFT:  2.00D  GRAD.:     6.836 HEAT:  138.7881
 CYCLE:   281 TIME:   0.961 TIME LEFT:  2.00D  GRAD.:     8.123 HEAT:  138.7873
 CYCLE:   282 TIME:   1.008 TIME LEFT:  2.00D  GRAD.:     4.740 HEAT:  138.7856
 CYCLE:   283 TIME:   1.000 TIME LEFT:  2.00D  GRAD.:     2.765 HEAT:  138.7844
 CYCLE:   284 TIME:   0.891 TIME LEFT:  2.00D  GRAD.:     3.449 HEAT:  138.7831
 CYCLE:   285 TIME:   1.211 TIME LEFT:  2.00D  GRAD.:     4.864 HEAT:  138.7818
 CYCLE:   286 TIME:   1.289 TIME LEFT:  2.00D  GRAD.:     8.510 HEAT:  138.7807
 CYCLE:   287 TIME:   1.125 TIME LEFT:  2.00D  GRAD.:     3.757 HEAT:  138.7791
 CYCLE:   288 TIME:   1.258 TIME LEFT:  2.00D  GRAD.:     5.201 HEAT:  138.7774
 CYCLE:   289 TIME:   1.070 TIME LEFT:  2.00D  GRAD.:     3.007 HEAT:  138.7767
 CYCLE:   290 TIME:   1.070 TIME LEFT:  2.00D  GRAD.:     3.479 HEAT:  138.7756
 CYCLE:   291 TIME:   1.031 TIME LEFT:  2.00D  GRAD.:     3.452 HEAT:  138.7747
 CYCLE:   292 TIME:   0.984 TIME LEFT:  2.00D  GRAD.:     7.159 HEAT:  138.7738
 CYCLE:   293 TIME:   1.141 TIME LEFT:  2.00D  GRAD.:     3.074 HEAT:  138.7729
 CYCLE:   294 TIME:   0.812 TIME LEFT:  2.00D  GRAD.:     4.437 HEAT:  138.7720
 CYCLE:   295 TIME:   1.266 TIME LEFT:  2.00D  GRAD.:     7.762 HEAT:  138.7711
 CYCLE:   296 TIME:   0.953 TIME LEFT:  2.00D  GRAD.:     6.373 HEAT:  138.7704
 CYCLE:   297 TIME:   0.922 TIME LEFT:  2.00D  GRAD.:     6.226 HEAT:  138.7694
 CYCLE:   298 TIME:   0.961 TIME LEFT:  2.00D  GRAD.:    12.566 HEAT:  138.7702
 CYCLE:   299 TIME:   0.820 TIME LEFT:  2.00D  GRAD.:     2.864 HEAT:  138.7680
 CYCLE:   300 TIME:   1.078 TIME LEFT:  2.00D  GRAD.:     2.404 HEAT:  138.7678
 CYCLE:   301 TIME:   0.914 TIME LEFT:  2.00D  GRAD.:     2.642 HEAT:  138.7661
 CYCLE:   302 TIME:   0.906 TIME LEFT:  2.00D  GRAD.:     5.308 HEAT:  138.7650
 CYCLE:   303 TIME:   1.039 TIME LEFT:  2.00D  GRAD.:     5.373 HEAT:  138.7641
 CYCLE:   304 TIME:   0.938 TIME LEFT:  2.00D  GRAD.:     3.509 HEAT:  138.7633
 CYCLE:   305 TIME:   1.000 TIME LEFT:  2.00D  GRAD.:     2.716 HEAT:  138.7629
 CYCLE:   306 TIME:   1.016 TIME LEFT:  2.00D  GRAD.:     2.644 HEAT:  138.7621
 CYCLE:   307 TIME:   1.133 TIME LEFT:  2.00D  GRAD.:     6.451 HEAT:  138.7613
 CYCLE:   308 TIME:   0.820 TIME LEFT:  2.00D  GRAD.:     6.277 HEAT:  138.7604
 CYCLE:   309 TIME:   0.836 TIME LEFT:  2.00D  GRAD.:     3.976 HEAT:  138.7602
 CYCLE:   310 TIME:   0.977 TIME LEFT:  2.00D  GRAD.:     8.528 HEAT:  138.7591
 CYCLE:   311 TIME:   0.984 TIME LEFT:  2.00D  GRAD.:     3.683 HEAT:  138.7579
 CYCLE:   312 TIME:   1.078 TIME LEFT:  2.00D  GRAD.:     1.752 HEAT:  138.7571
 CYCLE:   313 TIME:   1.422 TIME LEFT:  2.00D  GRAD.:     4.302 HEAT:  138.7558
 CYCLE:   314 TIME:   1.062 TIME LEFT:  2.00D  GRAD.:     4.128 HEAT:  138.7551
 CYCLE:   315 TIME:   1.281 TIME LEFT:  2.00D  GRAD.:     6.197 HEAT:  138.7537
 CYCLE:   316 TIME:   0.875 TIME LEFT:  2.00D  GRAD.:     3.207 HEAT:  138.7521
 CYCLE:   317 TIME:   1.016 TIME LEFT:  2.00D  GRAD.:     2.855 HEAT:  138.7520
 CYCLE:   318 TIME:   1.047 TIME LEFT:  2.00D  GRAD.:     5.675 HEAT:  138.7507
 CYCLE:   319 TIME:   0.961 TIME LEFT:  2.00D  GRAD.:     3.517 HEAT:  138.7497
 CYCLE:   320 TIME:   0.992 TIME LEFT:  2.00D  GRAD.:     1.885 HEAT:  138.7494
 CYCLE:   321 TIME:   1.109 TIME LEFT:  2.00D  GRAD.:     5.809 HEAT:  138.7488
 CYCLE:   322 TIME:   0.961 TIME LEFT:  2.00D  GRAD.:     3.265 HEAT:  138.7480
 CYCLE:   323 TIME:   0.984 TIME LEFT:  2.00D  GRAD.:     3.801 HEAT:  138.7469
 CYCLE:   324 TIME:   0.938 TIME LEFT:  2.00D  GRAD.:     4.032 HEAT:  138.7460
 CYCLE:   325 TIME:   1.156 TIME LEFT:  2.00D  GRAD.:     6.113 HEAT:  138.7438
 CYCLE:   326 TIME:   1.406 TIME LEFT:  2.00D  GRAD.:    16.606 HEAT:  138.7429
 CYCLE:   327 TIME:   1.250 TIME LEFT:  2.00D  GRAD.:     5.803 HEAT:  138.7405
 CYCLE:   328 TIME:   1.305 TIME LEFT:  2.00D  GRAD.:     3.095 HEAT:  138.7397
 CYCLE:   329 TIME:   1.172 TIME LEFT:  2.00D  GRAD.:     6.395 HEAT:  138.7381
 CYCLE:   330 TIME:   1.008 TIME LEFT:  2.00D  GRAD.:     3.580 HEAT:  138.7363
 CYCLE:   331 TIME:   1.055 TIME LEFT:  2.00D  GRAD.:     3.897 HEAT:  138.7346
 CYCLE:   332 TIME:   1.156 TIME LEFT:  2.00D  GRAD.:     5.565 HEAT:  138.7329
 CYCLE:   333 TIME:   1.227 TIME LEFT:  2.00D  GRAD.:     8.685 HEAT:  138.7308
 CYCLE:   334 TIME:   0.992 TIME LEFT:  2.00D  GRAD.:     6.245 HEAT:  138.7275
 CYCLE:   335 TIME:   1.281 TIME LEFT:  2.00D  GRAD.:     5.991 HEAT:  138.7234
 CYCLE:   336 TIME:   1.047 TIME LEFT:  2.00D  GRAD.:     8.099 HEAT:  138.7196
 CYCLE:   337 TIME:   1.117 TIME LEFT:  2.00D  GRAD.:    10.243 HEAT:  138.7145
 CYCLE:   338 TIME:   1.164 TIME LEFT:  2.00D  GRAD.:     8.390 HEAT:  138.7068
 CYCLE:   339 TIME:   0.836 TIME LEFT:  2.00D  GRAD.:    13.122 HEAT:  138.6985
 CYCLE:   340 TIME:   0.922 TIME LEFT:  2.00D  GRAD.:    25.540 HEAT:  138.6922
 CYCLE:   341 TIME:   0.828 TIME LEFT:  2.00D  GRAD.:     9.039 HEAT:  138.6865
 CYCLE:   342 TIME:   0.812 TIME LEFT:  2.00D  GRAD.:    15.714 HEAT:  138.6836
 CYCLE:   343 TIME:   0.797 TIME LEFT:  2.00D  GRAD.:     7.390 HEAT:  138.6784
 CYCLE:   344 TIME:   0.891 TIME LEFT:  2.00D  GRAD.:     8.231 HEAT:  138.6695
 CYCLE:   345 TIME:   0.852 TIME LEFT:  2.00D  GRAD.:    10.779 HEAT:  138.6590
 CYCLE:   346 TIME:   0.953 TIME LEFT:  2.00D  GRAD.:    11.798 HEAT:  138.6389
 CYCLE:   347 TIME:   0.922 TIME LEFT:  2.00D  GRAD.:    21.394 HEAT:  138.6201
 CYCLE:   348 TIME:   0.867 TIME LEFT:  2.00D  GRAD.:    23.012 HEAT:  138.6014
 CYCLE:   349 TIME:   1.125 TIME LEFT:  2.00D  GRAD.:    24.896 HEAT:  138.5861
 CYCLE:   350 TIME:   0.898 TIME LEFT:  2.00D  GRAD.:    46.906 HEAT:  138.5724
 CYCLE:   351 TIME:   0.953 TIME LEFT:  2.00D  GRAD.:    31.940 HEAT:  138.5481
 CYCLE:   352 TIME:   1.016 TIME LEFT:  2.00D  GRAD.:    28.464 HEAT:  138.5197
 CYCLE:   353 TIME:   0.984 TIME LEFT:  2.00D  GRAD.:   128.516 HEAT:  138.7853
 CYCLE:   354 TIME:   1.000 TIME LEFT:  2.00D  GRAD.:    28.719 HEAT:  138.4805
 CYCLE:   355 TIME:   0.773 TIME LEFT:  2.00D  GRAD.:    37.927 HEAT:  138.4823
 CYCLE:   356 TIME:   0.766 TIME LEFT:  2.00D  GRAD.:    12.106 HEAT:  138.4559
 CYCLE:   357 TIME:   0.828 TIME LEFT:  2.00D  GRAD.:    11.262 HEAT:  138.4448
 CYCLE:   358 TIME:   1.203 TIME LEFT:  2.00D  GRAD.:    25.613 HEAT:  138.4209
 CYCLE:   359 TIME:   0.898 TIME LEFT:  2.00D  GRAD.:    52.604 HEAT:  138.4121
 CYCLE:   360 TIME:   1.227 TIME LEFT:  2.00D  GRAD.:    19.236 HEAT:  138.3940
 CYCLE:   361 TIME:   1.336 TIME LEFT:  2.00D  GRAD.:    12.371 HEAT:  138.3842
 CYCLE:   362 TIME:   1.555 TIME LEFT:  2.00D  GRAD.:    17.316 HEAT:  138.3723
 CYCLE:   363 TIME:   1.422 TIME LEFT:  2.00D  GRAD.:    24.911 HEAT:  138.3574
 CYCLE:   364 TIME:   1.539 TIME LEFT:  2.00D  GRAD.:    30.775 HEAT:  138.3317
 CYCLE:   365 TIME:   1.359 TIME LEFT:  2.00D  GRAD.:    13.056 HEAT:  138.3003
 CYCLE:   366 TIME:   1.094 TIME LEFT:  2.00D  GRAD.:    13.368 HEAT:  138.2869
 CYCLE:   367 TIME:   1.281 TIME LEFT:  2.00D  GRAD.:    18.058 HEAT:  138.2774
 CYCLE:   368 TIME:   1.195 TIME LEFT:  2.00D  GRAD.:    21.961 HEAT:  138.2553
 CYCLE:   369 TIME:   1.484 TIME LEFT:  2.00D  GRAD.:    15.957 HEAT:  138.2166
 CYCLE:   370 TIME:   1.375 TIME LEFT:  2.00D  GRAD.:    21.225 HEAT:  138.1943
 CYCLE:   371 TIME:   1.461 TIME LEFT:  2.00D  GRAD.:    12.081 HEAT:  138.1746
 CYCLE:   372 TIME:   1.891 TIME LEFT:  2.00D  GRAD.:    11.101 HEAT:  138.1632
 CYCLE:   373 TIME:   1.070 TIME LEFT:  2.00D  GRAD.:    24.595 HEAT:  138.1388
 CYCLE:   374 TIME:   1.359 TIME LEFT:  2.00D  GRAD.:    66.323 HEAT:  138.1512
 CYCLE:   375 TIME:   1.172 TIME LEFT:  2.00D  GRAD.:    12.691 HEAT:  138.1203
 CYCLE:   376 TIME:   1.227 TIME LEFT:  2.00D  GRAD.:     9.752 HEAT:  138.1164
 CYCLE:   377 TIME:   1.055 TIME LEFT:  2.00D  GRAD.:    10.505 HEAT:  138.1079
 CYCLE:   378 TIME:   0.891 TIME LEFT:  2.00D  GRAD.:    11.292 HEAT:  138.0942
 CYCLE:   379 TIME:   1.266 TIME LEFT:  2.00D  GRAD.:    35.586 HEAT:  138.0837
 CYCLE:   380 TIME:   0.945 TIME LEFT:  2.00D  GRAD.:    16.931 HEAT:  138.0686
 CYCLE:   381 TIME:   1.102 TIME LEFT:  2.00D  GRAD.:     7.123 HEAT:  138.0613
 CYCLE:   382 TIME:   0.930 TIME LEFT:  2.00D  GRAD.:     7.516 HEAT:  138.0559
 CYCLE:   383 TIME:   1.414 TIME LEFT:  2.00D  GRAD.:    11.231 HEAT:  138.0436
 CYCLE:   384 TIME:   1.164 TIME LEFT:  2.00D  GRAD.:    16.343 HEAT:  138.0303
 CYCLE:   385 TIME:   1.305 TIME LEFT:  2.00D  GRAD.:     9.606 HEAT:  138.0149
 CYCLE:   386 TIME:   1.141 TIME LEFT:  2.00D  GRAD.:     8.076 HEAT:  138.0055
 CYCLE:   387 TIME:   0.906 TIME LEFT:  2.00D  GRAD.:    15.814 HEAT:  137.9941
 CYCLE:   388 TIME:   1.508 TIME LEFT:  2.00D  GRAD.:    12.894 HEAT:  137.9826
 CYCLE:   389 TIME:   1.180 TIME LEFT:  2.00D  GRAD.:    16.838 HEAT:  137.9732
 CYCLE:   390 TIME:   1.008 TIME LEFT:  2.00D  GRAD.:    10.255 HEAT:  137.9618
 CYCLE:   391 TIME:   0.828 TIME LEFT:  2.00D  GRAD.:     9.033 HEAT:  137.9556
 CYCLE:   392 TIME:   1.148 TIME LEFT:  2.00D  GRAD.:    11.779 HEAT:  137.9422
 CYCLE:   393 TIME:   0.914 TIME LEFT:  1.99D  GRAD.:    14.697 HEAT:  137.9323
 CYCLE:   394 TIME:   1.203 TIME LEFT:  1.99D  GRAD.:     9.696 HEAT:  137.9226
 CYCLE:   395 TIME:   1.344 TIME LEFT:  1.99D  GRAD.:     8.739 HEAT:  137.9158
 CYCLE:   396 TIME:   1.055 TIME LEFT:  1.99D  GRAD.:     7.742 HEAT:  137.9095
 CYCLE:   397 TIME:   0.984 TIME LEFT:  1.99D  GRAD.:     6.718 HEAT:  137.9043
 CYCLE:   398 TIME:   1.367 TIME LEFT:  1.99D  GRAD.:    11.005 HEAT:  137.8949
 CYCLE:   399 TIME:   1.062 TIME LEFT:  1.99D  GRAD.:     8.257 HEAT:  137.8856
 CYCLE:   400 TIME:   0.977 TIME LEFT:  1.99D  GRAD.:     6.852 HEAT:  137.8801
 CYCLE:   401 TIME:   1.266 TIME LEFT:  1.99D  GRAD.:    18.015 HEAT:  137.8691
 CYCLE:   402 TIME:   1.594 TIME LEFT:  1.99D  GRAD.:     9.016 HEAT:  137.8592
 CYCLE:   403 TIME:   1.078 TIME LEFT:  1.99D  GRAD.:     9.803 HEAT:  137.8529
 CYCLE:   404 TIME:   0.906 TIME LEFT:  1.99D  GRAD.:    12.633 HEAT:  137.8478
 CYCLE:   405 TIME:   1.172 TIME LEFT:  1.99D  GRAD.:     7.180 HEAT:  137.8436
 CYCLE:   406 TIME:   1.094 TIME LEFT:  1.99D  GRAD.:     5.949 HEAT:  137.8398
 CYCLE:   407 TIME:   0.961 TIME LEFT:  1.99D  GRAD.:    10.006 HEAT:  137.8346
 CYCLE:   408 TIME:   1.055 TIME LEFT:  1.99D  GRAD.:     9.034 HEAT:  137.8285
 CYCLE:   409 TIME:   1.039 TIME LEFT:  1.99D  GRAD.:     6.165 HEAT:  137.8231
 CYCLE:   410 TIME:   0.742 TIME LEFT:  1.99D  GRAD.:     5.247 HEAT:  137.8182
 CYCLE:   411 TIME:   1.047 TIME LEFT:  1.99D  GRAD.:     6.709 HEAT:  137.8134
 CYCLE:   412 TIME:   1.180 TIME LEFT:  1.99D  GRAD.:     9.801 HEAT:  137.8090
 CYCLE:   413 TIME:   0.891 TIME LEFT:  1.99D  GRAD.:     6.033 HEAT:  137.8049
 CYCLE:   414 TIME:   0.914 TIME LEFT:  1.99D  GRAD.:     5.539 HEAT:  137.8009
 CYCLE:   415 TIME:   0.883 TIME LEFT:  1.99D  GRAD.:     6.820 HEAT:  137.7965
 CYCLE:   416 TIME:   0.914 TIME LEFT:  1.99D  GRAD.:    15.620 HEAT:  137.7929
 CYCLE:   417 TIME:   0.953 TIME LEFT:  1.99D  GRAD.:     5.423 HEAT:  137.7879
 CYCLE:   418 TIME:   0.758 TIME LEFT:  1.99D  GRAD.:     5.298 HEAT:  137.7856
 CYCLE:   419 TIME:   0.766 TIME LEFT:  1.99D  GRAD.:    11.366 HEAT:  137.7838
 CYCLE:   420 TIME:   0.773 TIME LEFT:  1.99D  GRAD.:    14.245 HEAT:  137.7821
 CYCLE:   421 TIME:   0.961 TIME LEFT:  1.99D  GRAD.:     7.925 HEAT:  137.7803
 CYCLE:   422 TIME:   0.727 TIME LEFT:  1.99D  GRAD.:     7.286 HEAT:  137.7785
 CYCLE:   423 TIME:   0.836 TIME LEFT:  1.99D  GRAD.:    12.179 HEAT:  137.7753
 CYCLE:   424 TIME:   0.789 TIME LEFT:  1.99D  GRAD.:     7.056 HEAT:  137.7721
 CYCLE:   425 TIME:   0.781 TIME LEFT:  1.99D  GRAD.:     4.851 HEAT:  137.7691
 CYCLE:   426 TIME:   0.992 TIME LEFT:  1.99D  GRAD.:     6.215 HEAT:  137.7669
 CYCLE:   427 TIME:   0.938 TIME LEFT:  1.99D  GRAD.:     7.708 HEAT:  137.7635
 CYCLE:   428 TIME:   0.805 TIME LEFT:  1.99D  GRAD.:     5.198 HEAT:  137.7609
 CYCLE:   429 TIME:   0.750 TIME LEFT:  1.99D  GRAD.:     3.556 HEAT:  137.7590
 CYCLE:   430 TIME:   0.984 TIME LEFT:  1.99D  GRAD.:     7.238 HEAT:  137.7566
 CYCLE:   431 TIME:   0.688 TIME LEFT:  1.99D  GRAD.:     5.688 HEAT:  137.7550
 CYCLE:   432 TIME:   0.805 TIME LEFT:  1.99D  GRAD.:     4.709 HEAT:  137.7511
 CYCLE:   433 TIME:   0.852 TIME LEFT:  1.99D  GRAD.:     4.431 HEAT:  137.7487
 CYCLE:   434 TIME:   0.828 TIME LEFT:  1.99D  GRAD.:     7.271 HEAT:  137.7475
 CYCLE:   435 TIME:   1.219 TIME LEFT:  1.99D  GRAD.:     4.723 HEAT:  137.7463
 CYCLE:   436 TIME:   0.875 TIME LEFT:  1.99D  GRAD.:     2.817 HEAT:  137.7459
 CYCLE:   437 TIME:   0.805 TIME LEFT:  1.99D  GRAD.:     5.757 HEAT:  137.7453
 CYCLE:   438 TIME:   0.945 TIME LEFT:  1.99D  GRAD.:     3.608 HEAT:  137.7444
 CYCLE:   439 TIME:   0.766 TIME LEFT:  1.99D  GRAD.:     4.324 HEAT:  137.7428
 CYCLE:   440 TIME:   0.961 TIME LEFT:  1.99D  GRAD.:     6.388 HEAT:  137.7422
 CYCLE:   441 TIME:   0.781 TIME LEFT:  1.99D  GRAD.:     2.956 HEAT:  137.7413
 CYCLE:   442 TIME:   0.703 TIME LEFT:  1.99D  GRAD.:     2.275 HEAT:  137.7406
 CYCLE:   443 TIME:   1.062 TIME LEFT:  1.99D  GRAD.:     4.512 HEAT:  137.7394
 CYCLE:   444 TIME:   0.789 TIME LEFT:  1.99D  GRAD.:     5.650 HEAT:  137.7388
 CYCLE:   445 TIME:   0.742 TIME LEFT:  1.99D  GRAD.:     3.248 HEAT:  137.7381
 CYCLE:   446 TIME:   0.828 TIME LEFT:  1.99D  GRAD.:     5.515 HEAT:  137.7373
 CYCLE:   447 TIME:   0.875 TIME LEFT:  1.99D  GRAD.:     2.919 HEAT:  137.7367
 CYCLE:   448 TIME:   1.000 TIME LEFT:  1.99D  GRAD.:     2.900 HEAT:  137.7360
 CYCLE:   449 TIME:   0.859 TIME LEFT:  1.99D  GRAD.:     3.223 HEAT:  137.7355
 CYCLE:   450 TIME:   0.844 TIME LEFT:  1.99D  GRAD.:     4.089 HEAT:  137.7345
 CYCLE:   451 TIME:   0.773 TIME LEFT:  1.99D  GRAD.:     4.040 HEAT:  137.7333
 CYCLE:   452 TIME:   0.711 TIME LEFT:  1.99D  GRAD.:     6.444 HEAT:  137.7326
 CYCLE:   453 TIME:   0.992 TIME LEFT:  1.99D  GRAD.:     3.168 HEAT:  137.7321
 CYCLE:   454 TIME:   0.852 TIME LEFT:  1.99D  GRAD.:     3.040 HEAT:  137.7317
 CYCLE:   455 TIME:   0.828 TIME LEFT:  1.99D  GRAD.:     3.226 HEAT:  137.7309
 CYCLE:   456 TIME:   0.992 TIME LEFT:  1.99D  GRAD.:     4.038 HEAT:  137.7298
 CYCLE:   457 TIME:   0.867 TIME LEFT:  1.99D  GRAD.:     7.456 HEAT:  137.7291
 CYCLE:   458 TIME:   0.883 TIME LEFT:  1.99D  GRAD.:     4.596 HEAT:  137.7286
 CYCLE:   459 TIME:   0.898 TIME LEFT:  1.99D  GRAD.:     3.079 HEAT:  137.7282
 CYCLE:   460 TIME:   0.953 TIME LEFT:  1.99D  GRAD.:     2.893 HEAT:  137.7278
 CYCLE:   461 TIME:   0.727 TIME LEFT:  1.99D  GRAD.:     3.299 HEAT:  137.7269
 CYCLE:   462 TIME:   0.953 TIME LEFT:  1.99D  GRAD.:     3.191 HEAT:  137.7261
 CYCLE:   463 TIME:   0.766 TIME LEFT:  1.99D  GRAD.:     4.215 HEAT:  137.7257
 CYCLE:   464 TIME:   0.992 TIME LEFT:  1.99D  GRAD.:     1.991 HEAT:  137.7252
 CYCLE:   465 TIME:   0.922 TIME LEFT:  1.99D  GRAD.:     2.024 HEAT:  137.7246
 CYCLE:   466 TIME:   1.008 TIME LEFT:  1.99D  GRAD.:     2.851 HEAT:  137.7239
 CYCLE:   467 TIME:   0.938 TIME LEFT:  1.99D  GRAD.:    10.551 HEAT:  137.7237
 CYCLE:   468 TIME:   0.711 TIME LEFT:  1.99D  GRAD.:     2.643 HEAT:  137.7228
 CYCLE:   469 TIME:   0.844 TIME LEFT:  1.99D  GRAD.:     2.265 HEAT:  137.7223
 CYCLE:   470 TIME:   0.867 TIME LEFT:  1.99D  GRAD.:     3.512 HEAT:  137.7217
 CYCLE:   471 TIME:   0.852 TIME LEFT:  1.99D  GRAD.:     4.309 HEAT:  137.7211
 CYCLE:   472 TIME:   1.000 TIME LEFT:  1.99D  GRAD.:    19.891 HEAT:  137.7247
 CYCLE:   473 TIME:   0.812 TIME LEFT:  1.99D  GRAD.:     3.119 HEAT:  137.7202
 CYCLE:   474 TIME:   1.070 TIME LEFT:  1.99D  GRAD.:     2.514 HEAT:  137.7198
 CYCLE:   475 TIME:   0.797 TIME LEFT:  1.99D  GRAD.:     2.875 HEAT:  137.7190
 CYCLE:   476 TIME:   0.969 TIME LEFT:  1.99D  GRAD.:     4.272 HEAT:  137.7186
 CYCLE:   477 TIME:   0.719 TIME LEFT:  1.99D  GRAD.:     1.932 HEAT:  137.7182
 CYCLE:   478 TIME:   0.820 TIME LEFT:  1.99D  GRAD.:     2.130 HEAT:  137.7180
 CYCLE:   479 TIME:   0.961 TIME LEFT:  1.99D  GRAD.:     3.506 HEAT:  137.7172
 CYCLE:   480 TIME:   0.719 TIME LEFT:  1.99D  GRAD.:     3.688 HEAT:  137.7166
 CYCLE:   481 TIME:   0.852 TIME LEFT:  1.99D  GRAD.:     4.571 HEAT:  137.7162
 CYCLE:   482 TIME:   0.711 TIME LEFT:  1.99D  GRAD.:     1.678 HEAT:  137.7156
 CYCLE:   483 TIME:   0.703 TIME LEFT:  1.99D  GRAD.:     1.778 HEAT:  137.7154
 CYCLE:   484 TIME:   1.078 TIME LEFT:  1.99D  GRAD.:     4.689 HEAT:  137.7153
 CYCLE:   485 TIME:   0.758 TIME LEFT:  1.99D  GRAD.:     2.790 HEAT:  137.7150
 CYCLE:   486 TIME:   0.664 TIME LEFT:  1.99D  GRAD.:     1.600 HEAT:  137.7148
 CYCLE:   487 TIME:   0.734 TIME LEFT:  1.99D  GRAD.:     1.224 HEAT:  137.7147
 CYCLE:   488 TIME:   0.969 TIME LEFT:  1.99D  GRAD.:     3.236 HEAT:  137.7144
 CYCLE:   489 TIME:   0.922 TIME LEFT:  1.99D  GRAD.:     2.085 HEAT:  137.7142
 CYCLE:   490 TIME:   0.742 TIME LEFT:  1.99D  GRAD.:     1.353 HEAT:  137.7140
 CYCLE:   491 TIME:   0.922 TIME LEFT:  1.99D  GRAD.:     2.571 HEAT:  137.7137
 CYCLE:   492 TIME:   0.648 TIME LEFT:  1.99D  GRAD.:     2.219 HEAT:  137.7135
 CYCLE:   493 TIME:   0.695 TIME LEFT:  1.99D  GRAD.:     1.764 HEAT:  137.7132
 CYCLE:   494 TIME:   0.742 TIME LEFT:  1.99D  GRAD.:     1.895 HEAT:  137.7129
 CYCLE:   495 TIME:   0.898 TIME LEFT:  1.99D  GRAD.:     1.753 HEAT:  137.7126
 CYCLE:   496 TIME:   0.773 TIME LEFT:  1.99D  GRAD.:     3.287 HEAT:  137.7124
 CYCLE:   497 TIME:   0.891 TIME LEFT:  1.99D  GRAD.:     1.911 HEAT:  137.7121
 CYCLE:   498 TIME:   0.898 TIME LEFT:  1.99D  GRAD.:     1.658 HEAT:  137.7117
 CYCLE:   499 TIME:   0.820 TIME LEFT:  1.99D  GRAD.:     1.328 HEAT:  137.7116
 CYCLE:   500 TIME:   0.781 TIME LEFT:  1.99D  GRAD.:     4.087 HEAT:  137.7114
 CYCLE:   501 TIME:   0.672 TIME LEFT:  1.99D  GRAD.:     1.453 HEAT:  137.7111
 CYCLE:   502 TIME:   0.883 TIME LEFT:  1.99D  GRAD.:     1.307 HEAT:  137.7111
 CYCLE:   503 TIME:   0.891 TIME LEFT:  1.99D  GRAD.:     1.643 HEAT:  137.7109
 CYCLE:   504 TIME:   0.906 TIME LEFT:  1.99D  GRAD.:     2.042 HEAT:  137.7106
 CYCLE:   505 TIME:   1.500 TIME LEFT:  1.99D  GRAD.:     2.399 HEAT:  137.7104
 CYCLE:   506 TIME:   0.844 TIME LEFT:  1.99D  GRAD.:     1.429 HEAT:  137.7103
 CYCLE:   507 TIME:   0.891 TIME LEFT:  1.99D  GRAD.:     1.004 HEAT:  137.7101
 CYCLE:   508 TIME:   0.852 TIME LEFT:  1.99D  GRAD.:     2.031 HEAT:  137.7099
 CYCLE:   509 TIME:   0.836 TIME LEFT:  1.99D  GRAD.:     1.327 HEAT:  137.7098
 CYCLE:   510 TIME:   0.727 TIME LEFT:  1.99D  GRAD.:     1.293 HEAT:  137.7096
 CYCLE:   511 TIME:   0.656 TIME LEFT:  1.99D  GRAD.:     1.397 HEAT:  137.7094
 CYCLE:   512 TIME:   0.703 TIME LEFT:  1.99D  GRAD.:     1.551 HEAT:  137.7092
 CYCLE:   513 TIME:   1.055 TIME LEFT:  1.99D  GRAD.:     1.821 HEAT:  137.7090
 CYCLE:   514 TIME:   0.984 TIME LEFT:  1.99D  GRAD.:     1.260 HEAT:  137.7089
 CYCLE:   515 TIME:   0.641 TIME LEFT:  1.99D  GRAD.:     1.167 HEAT:  137.7088
 CYCLE:   516 TIME:   0.898 TIME LEFT:  1.99D  GRAD.:     2.211 HEAT:  137.7086
 CYCLE:   517 TIME:   0.711 TIME LEFT:  1.99D  GRAD.:     1.958 HEAT:  137.7085
 CYCLE:   518 TIME:   0.672 TIME LEFT:  1.99D  GRAD.:     0.948 HEAT:  137.7085
 CYCLE:   519 TIME:   0.930 TIME LEFT:  1.99D  GRAD.:     1.375 HEAT:  137.7084
 CYCLE:   520 TIME:   0.609 TIME LEFT:  1.99D  GRAD.:     1.310 HEAT:  137.7083
 CYCLE:   521 TIME:   0.625 TIME LEFT:  1.99D  GRAD.:     1.074 HEAT:  137.7082
 CYCLE:   522 TIME:   0.703 TIME LEFT:  1.99D  GRAD.:     1.139 HEAT:  137.7082
 CYCLE:   523 TIME:   0.820 TIME LEFT:  1.99D  GRAD.:     1.906 HEAT:  137.7080
 CYCLE:   524 TIME:   0.812 TIME LEFT:  1.99D  GRAD.:     1.195 HEAT:  137.7079
 CYCLE:   525 TIME:   0.859 TIME LEFT:  1.99D  GRAD.:     0.878 HEAT:  137.7078
 CYCLE:   526 TIME:   0.703 TIME LEFT:  1.99D  GRAD.:     1.068 HEAT:  137.7078
 CYCLE:   527 TIME:   0.719 TIME LEFT:  1.99D  GRAD.:     0.914 HEAT:  137.7077
 CYCLE:   528 TIME:   0.828 TIME LEFT:  1.99D  GRAD.:     0.977 HEAT:  137.7076
 CYCLE:   529 TIME:   0.914 TIME LEFT:  1.99D  GRAD.:     1.717 HEAT:  137.7075
 CYCLE:   530 TIME:   0.781 TIME LEFT:  1.99D  GRAD.:     0.932 HEAT:  137.7075
 CYCLE:   531 TIME:   0.789 TIME LEFT:  1.99D  GRAD.:     0.635 HEAT:  137.7075
 CYCLE:   532 TIME:   0.695 TIME LEFT:  1.99D  GRAD.:     0.721 HEAT:  137.7074
 CYCLE:   533 TIME:   0.703 TIME LEFT:  1.99D  GRAD.:     1.929 HEAT:  137.7074
 CYCLE:   534 TIME:   0.734 TIME LEFT:  1.99D  GRAD.:     0.810 HEAT:  137.7073
 CYCLE:   535 TIME:   0.695 TIME LEFT:  1.99D  GRAD.:     0.878 HEAT:  137.7073
 CYCLE:   536 TIME:   0.906 TIME LEFT:  1.99D  GRAD.:     1.153 HEAT:  137.7072
 CYCLE:   537 TIME:   0.836 TIME LEFT:  1.99D  GRAD.:     1.022 HEAT:  137.7072
 CYCLE:   538 TIME:   0.750 TIME LEFT:  1.99D  GRAD.:     0.670 HEAT:  137.7071
 CYCLE:   539 TIME:   0.875 TIME LEFT:  1.99D  GRAD.:     1.200 HEAT:  137.7070
 CYCLE:   540 TIME:   0.641 TIME LEFT:  1.99D  GRAD.:     1.128 HEAT:  137.7070
 CYCLE:   541 TIME:   0.875 TIME LEFT:  1.99D  GRAD.:     0.779 HEAT:  137.7069
 CYCLE:   542 TIME:   0.648 TIME LEFT:  1.99D  GRAD.:     0.639 HEAT:  137.7069
 CYCLE:   543 TIME:   1.125 TIME LEFT:  1.99D  GRAD.:     1.422 HEAT:  137.7068
 CYCLE:   544 TIME:   0.734 TIME LEFT:  1.99D  GRAD.:     1.065 HEAT:  137.7068
 CYCLE:   545 TIME:   0.789 TIME LEFT:  1.99D  GRAD.:     0.894 HEAT:  137.7067
 CYCLE:   546 TIME:   0.805 TIME LEFT:  1.99D  GRAD.:     1.116 HEAT:  137.7067
 CYCLE:   547 TIME:   0.820 TIME LEFT:  1.99D  GRAD.:     0.714 HEAT:  137.7066
 CYCLE:   548 TIME:   0.703 TIME LEFT:  1.99D  GRAD.:     0.945 HEAT:  137.7066
 CYCLE:   549 TIME:   0.891 TIME LEFT:  1.99D  GRAD.:     0.852 HEAT:  137.7066
 CYCLE:   550 TIME:   0.711 TIME LEFT:  1.99D  GRAD.:     1.858 HEAT:  137.7065
 CYCLE:   551 TIME:   0.859 TIME LEFT:  1.99D  GRAD.:     0.969 HEAT:  137.7065
 CYCLE:   552 TIME:   0.703 TIME LEFT:  1.99D  GRAD.:     0.502 HEAT:  137.7065
 CYCLE:   553 TIME:   0.742 TIME LEFT:  1.99D  GRAD.:     0.707 HEAT:  137.7064
 CYCLE:   554 TIME:   0.820 TIME LEFT:  1.99D  GRAD.:     0.635 HEAT:  137.7064
 CYCLE:   555 TIME:   1.062 TIME LEFT:  1.99D  GRAD.:     1.100 HEAT:  137.7063
 CYCLE:   556 TIME:   0.859 TIME LEFT:  1.99D  GRAD.:     2.251 HEAT:  137.7063
 CYCLE:   557 TIME:   0.758 TIME LEFT:  1.99D  GRAD.:     0.650 HEAT:  137.7063
 CYCLE:   558 TIME:   0.836 TIME LEFT:  1.99D  GRAD.:     0.647 HEAT:  137.7062
 CYCLE:   559 TIME:   0.797 TIME LEFT:  1.99D  GRAD.:     1.219 HEAT:  137.7062
 CYCLE:   560 TIME:   0.797 TIME LEFT:  1.99D  GRAD.:     0.586 HEAT:  137.7061
 CYCLE:   561 TIME:   0.977 TIME LEFT:  1.99D  GRAD.:     0.577 HEAT:  137.7061
 CYCLE:   562 TIME:   0.906 TIME LEFT:  1.99D  GRAD.:     1.010 HEAT:  137.7060
 CYCLE:   563 TIME:   1.031 TIME LEFT:  1.99D  GRAD.:     0.837 HEAT:  137.7060
 CYCLE:   564 TIME:   0.664 TIME LEFT:  1.99D  GRAD.:     0.731 HEAT:  137.7059
 CYCLE:   565 TIME:   1.016 TIME LEFT:  1.99D  GRAD.:     2.767 HEAT:  137.7060
 CYCLE:   566 TIME:   0.836 TIME LEFT:  1.99D  GRAD.:     1.065 HEAT:  137.7059
 CYCLE:   567 TIME:   0.805 TIME LEFT:  1.99D  GRAD.:     0.635 HEAT:  137.7059
 CYCLE:   568 TIME:   0.859 TIME LEFT:  1.99D  GRAD.:     0.567 HEAT:  137.7059
 CYCLE:   569 TIME:   0.664 TIME LEFT:  1.99D  GRAD.:     0.611 HEAT:  137.7058
 CYCLE:   570 TIME:   0.680 TIME LEFT:  1.99D  GRAD.:     0.398 HEAT:  137.7058
 CYCLE:   571 TIME:   0.852 TIME LEFT:  1.99D  GRAD.:     0.505 HEAT:  137.7058
 CYCLE:   572 TIME:   0.648 TIME LEFT:  1.99D  GRAD.:     0.662 HEAT:  137.7057
 CYCLE:   573 TIME:   0.836 TIME LEFT:  1.99D  GRAD.:     0.852 HEAT:  137.7057
 CYCLE:   574 TIME:   0.891 TIME LEFT:  1.99D  GRAD.:     1.833 HEAT:  137.7057
 CYCLE:   575 TIME:   0.844 TIME LEFT:  1.99D  GRAD.:     0.533 HEAT:  137.7056
 CYCLE:   576 TIME:   0.781 TIME LEFT:  1.99D  GRAD.:     0.533 HEAT:  137.7056
 CYCLE:   577 TIME:   0.750 TIME LEFT:  1.99D  GRAD.:     0.534 HEAT:  137.7056
 CYCLE:   578 TIME:   0.859 TIME LEFT:  1.99D  GRAD.:     0.796 HEAT:  137.7055
 CYCLE:   579 TIME:   1.703 TIME LEFT:  1.99D  GRAD.:     2.483 HEAT:  137.7055
 CYCLE:   580 TIME:   0.891 TIME LEFT:  1.99D  GRAD.:     0.652 HEAT:  137.7055
 CYCLE:   581 TIME:   0.680 TIME LEFT:  1.99D  GRAD.:     0.488 HEAT:  137.7055
 CYCLE:   582 TIME:   0.617 TIME LEFT:  1.99D  GRAD.:     0.445 HEAT:  137.7055
 CYCLE:   583 TIME:   0.820 TIME LEFT:  1.99D  GRAD.:     0.752 HEAT:  137.7054
 CYCLE:   584 TIME:   0.734 TIME LEFT:  1.99D  GRAD.:     0.523 HEAT:  137.7054
 CYCLE:   585 TIME:   0.805 TIME LEFT:  1.99D  GRAD.:     0.491 HEAT:  137.7054
 CYCLE:   586 TIME:   0.719 TIME LEFT:  1.99D  GRAD.:     0.575 HEAT:  137.7054
 CYCLE:   587 TIME:   0.750 TIME LEFT:  1.99D  GRAD.:     1.119 HEAT:  137.7053
 CYCLE:   588 TIME:   0.758 TIME LEFT:  1.99D  GRAD.:     0.432 HEAT:  137.7053
 CYCLE:   589 TIME:   0.641 TIME LEFT:  1.99D  GRAD.:     0.431 HEAT:  137.7053
 CYCLE:   590 TIME:   0.844 TIME LEFT:  1.99D  GRAD.:     0.462 HEAT:  137.7052
 CYCLE:   591 TIME:   0.758 TIME LEFT:  1.99D  GRAD.:     0.669 HEAT:  137.7052
 CYCLE:   592 TIME:   0.812 TIME LEFT:  1.99D  GRAD.:     1.775 HEAT:  137.7052
 CYCLE:   593 TIME:   0.656 TIME LEFT:  1.99D  GRAD.:     1.391 HEAT:  137.7051
 CYCLE:   594 TIME:   0.703 TIME LEFT:  1.99D  GRAD.:     1.178 HEAT:  137.7051
 CYCLE:   595 TIME:   0.656 TIME LEFT:  1.99D  GRAD.:     2.762 HEAT:  137.7051
 CYCLE:   596 TIME:   0.789 TIME LEFT:  1.99D  GRAD.:     0.732 HEAT:  137.7051
 CYCLE:   597 TIME:   0.797 TIME LEFT:  1.99D  GRAD.:     0.651 HEAT:  137.7051
 CYCLE:   598 TIME:   0.734 TIME LEFT:  1.99D  GRAD.:     1.194 HEAT:  137.7051
 CYCLE:   599 TIME:   0.680 TIME LEFT:  1.99D  GRAD.:     0.694 HEAT:  137.7050
 CYCLE:   600 TIME:   0.875 TIME LEFT:  1.99D  GRAD.:     0.632 HEAT:  137.7050
 CYCLE:   601 TIME:   0.719 TIME LEFT:  1.99D  GRAD.:     0.588 HEAT:  137.7050
 CYCLE:   602 TIME:   0.875 TIME LEFT:  1.99D  GRAD.:     0.616 HEAT:  137.7050
 CYCLE:   603 TIME:   0.750 TIME LEFT:  1.99D  GRAD.:     0.906 HEAT:  137.7050
 CYCLE:   604 TIME:   0.742 TIME LEFT:  1.99D  GRAD.:     0.505 HEAT:  137.7049
 CYCLE:   605 TIME:   0.672 TIME LEFT:  1.99D  GRAD.:     0.382 HEAT:  137.7049
 CYCLE:   606 TIME:   0.734 TIME LEFT:  1.99D  GRAD.:     0.401 HEAT:  137.7049
 CYCLE:   607 TIME:   0.656 TIME LEFT:  1.99D  GRAD.:     1.230 HEAT:  137.7049
 CYCLE:   608 TIME:   0.812 TIME LEFT:  1.99D  GRAD.:     0.509 HEAT:  137.7048
 CYCLE:   609 TIME:   0.734 TIME LEFT:  1.99D  GRAD.:     0.620 HEAT:  137.7048
 CYCLE:   610 TIME:   0.695 TIME LEFT:  1.99D  GRAD.:     0.514 HEAT:  137.7048
 CYCLE:   611 TIME:   0.609 TIME LEFT:  1.99D  GRAD.:     0.990 HEAT:  137.7048
 CYCLE:   612 TIME:   0.562 TIME LEFT:  1.99D  GRAD.:     0.600 HEAT:  137.7048
 CYCLE:   613 TIME:   0.648 TIME LEFT:  1.99D  GRAD.:     0.372 HEAT:  137.7048
 CYCLE:   614 TIME:   0.664 TIME LEFT:  1.99D  GRAD.:     0.415 HEAT:  137.7048
 CYCLE:   615 TIME:   0.672 TIME LEFT:  1.99D  GRAD.:     0.501 HEAT:  137.7047
 CYCLE:   616 TIME:   0.836 TIME LEFT:  1.99D  GRAD.:     0.527 HEAT:  137.7047
 CYCLE:   617 TIME:   0.906 TIME LEFT:  1.99D  GRAD.:     0.744 HEAT:  137.7047
 CYCLE:   618 TIME:   0.734 TIME LEFT:  1.99D  GRAD.:     1.716 HEAT:  137.7047
 CYCLE:   619 TIME:   1.367 TIME LEFT:  1.99D  GRAD.:     0.596 HEAT:  137.7046
 CYCLE:   620 TIME:   1.961 TIME LEFT:  1.99D  GRAD.:     0.504 HEAT:  137.7046
 CYCLE:   621 TIME:   0.633 TIME LEFT:  1.99D  GRAD.:     1.326 HEAT:  137.7046
 CYCLE:   622 TIME:   0.664 TIME LEFT:  1.99D  GRAD.:     0.665 HEAT:  137.7046
 CYCLE:   623 TIME:   0.852 TIME LEFT:  1.99D  GRAD.:     0.632 HEAT:  137.7046
 CYCLE:   624 TIME:   0.680 TIME LEFT:  1.99D  GRAD.:     0.385 HEAT:  137.7045
 CYCLE:   625 TIME:   0.773 TIME LEFT:  1.99D  GRAD.:     0.351 HEAT:  137.7045
 CYCLE:   626 TIME:   0.711 TIME LEFT:  1.99D  GRAD.:     0.747 HEAT:  137.7045
 CYCLE:   627 TIME:   0.648 TIME LEFT:  1.99D  GRAD.:     0.469 HEAT:  137.7044
 CYCLE:   628 TIME:   0.828 TIME LEFT:  1.99D  GRAD.:     0.392 HEAT:  137.7044
 CYCLE:   629 TIME:   0.719 TIME LEFT:  1.99D  GRAD.:     0.514 HEAT:  137.7044
 CYCLE:   630 TIME:   0.844 TIME LEFT:  1.99D  GRAD.:     1.177 HEAT:  137.7044
 CYCLE:   631 TIME:   0.781 TIME LEFT:  1.99D  GRAD.:     0.559 HEAT:  137.7043
 CYCLE:   632 TIME:   0.789 TIME LEFT:  1.99D  GRAD.:     1.104 HEAT:  137.7044
 CYCLE:   633 TIME:   0.680 TIME LEFT:  1.99D  GRAD.:     0.412 HEAT:  137.7043
 CYCLE:   634 TIME:   0.617 TIME LEFT:  1.99D  GRAD.:     0.445 HEAT:  137.7043
 CYCLE:   635 TIME:   0.781 TIME LEFT:  1.99D  GRAD.:     0.536 HEAT:  137.7043
 CYCLE:   636 TIME:   0.797 TIME LEFT:  1.99D  GRAD.:     0.490 HEAT:  137.7043
 CYCLE:   637 TIME:   0.750 TIME LEFT:  1.99D  GRAD.:     0.366 HEAT:  137.7043
 CYCLE:   638 TIME:   0.695 TIME LEFT:  1.99D  GRAD.:     0.576 HEAT:  137.7042
 CYCLE:   639 TIME:   0.812 TIME LEFT:  1.99D  GRAD.:     0.494 HEAT:  137.7042
 CYCLE:   640 TIME:   0.719 TIME LEFT:  1.99D  GRAD.:     0.369 HEAT:  137.7042
 CYCLE:   641 TIME:   0.773 TIME LEFT:  1.99D  GRAD.:     0.617 HEAT:  137.7042
 CYCLE:   642 TIME:   0.695 TIME LEFT:  1.99D  GRAD.:     1.938 HEAT:  137.7042
 CYCLE:   643 TIME:   0.672 TIME LEFT:  1.99D  GRAD.:     0.488 HEAT:  137.7041
 CYCLE:   644 TIME:   0.797 TIME LEFT:  1.99D  GRAD.:     0.511 HEAT:  137.7041
 CYCLE:   645 TIME:   0.633 TIME LEFT:  1.99D  GRAD.:     0.271 HEAT:  137.7041
 CYCLE:   646 TIME:   0.680 TIME LEFT:  1.99D  GRAD.:     0.334 HEAT:  137.7041
 CYCLE:   647 TIME:   0.711 TIME LEFT:  1.99D  GRAD.:     1.254 HEAT:  137.7041
 CYCLE:   648 TIME:   0.648 TIME LEFT:  1.99D  GRAD.:     0.533 HEAT:  137.7040
 CYCLE:   649 TIME:   0.641 TIME LEFT:  1.99D  GRAD.:     0.519 HEAT:  137.7040
 CYCLE:   650 TIME:   0.695 TIME LEFT:  1.99D  GRAD.:     1.219 HEAT:  137.7040
 CYCLE:   651 TIME:   0.656 TIME LEFT:  1.99D  GRAD.:     0.447 HEAT:  137.7040
 CYCLE:   652 TIME:   0.680 TIME LEFT:  1.99D  GRAD.:     0.425 HEAT:  137.7040
 CYCLE:   653 TIME:   0.672 TIME LEFT:  1.99D  GRAD.:     0.435 HEAT:  137.7040
 CYCLE:   654 TIME:   0.789 TIME LEFT:  1.99D  GRAD.:     0.577 HEAT:  137.7040
 CYCLE:   655 TIME:   0.656 TIME LEFT:  1.99D  GRAD.:     1.479 HEAT:  137.7040
 CYCLE:   656 TIME:   0.695 TIME LEFT:  1.99D  GRAD.:     0.583 HEAT:  137.7039
 CYCLE:   657 TIME:   0.609 TIME LEFT:  1.99D  GRAD.:     0.370 HEAT:  137.7039
 CYCLE:   658 TIME:   1.711 TIME LEFT:  1.99D  GRAD.:     0.476 HEAT:  137.7039
 CYCLE:   659 TIME:   0.719 TIME LEFT:  1.99D  GRAD.:     0.361 HEAT:  137.7039
 CYCLE:   660 TIME:   0.633 TIME LEFT:  1.99D  GRAD.:     0.337 HEAT:  137.7039
 CYCLE:   661 TIME:   0.781 TIME LEFT:  1.99D  GRAD.:     1.170 HEAT:  137.7038
 CYCLE:   662 TIME:   0.594 TIME LEFT:  1.99D  GRAD.:     0.403 HEAT:  137.7038
 CYCLE:   663 TIME:   0.688 TIME LEFT:  1.99D  GRAD.:     0.423 HEAT:  137.7038
 CYCLE:   664 TIME:   0.633 TIME LEFT:  1.99D  GRAD.:     0.539 HEAT:  137.7038
 CYCLE:   665 TIME:   0.625 TIME LEFT:  1.99D  GRAD.:     0.506 HEAT:  137.7038
 CYCLE:   666 TIME:   0.633 TIME LEFT:  1.99D  GRAD.:     0.680 HEAT:  137.7037
 CYCLE:   667 TIME:   0.844 TIME LEFT:  1.99D  GRAD.:     3.369 HEAT:  137.7039
 CYCLE:   668 TIME:   0.648 TIME LEFT:  1.99D  GRAD.:     1.435 HEAT:  137.7037
 CYCLE:   669 TIME:   0.695 TIME LEFT:  1.99D  GRAD.:     0.610 HEAT:  137.7037
 CYCLE:   670 TIME:   0.711 TIME LEFT:  1.99D  GRAD.:     0.602 HEAT:  137.7037
 CYCLE:   671 TIME:   0.680 TIME LEFT:  1.99D  GRAD.:     0.426 HEAT:  137.7037
 CYCLE:   672 TIME:   0.656 TIME LEFT:  1.99D  GRAD.:     0.596 HEAT:  137.7037
 CYCLE:   673 TIME:   0.711 TIME LEFT:  1.99D  GRAD.:     0.917 HEAT:  137.7036
 CYCLE:   674 TIME:   0.703 TIME LEFT:  1.99D  GRAD.:     0.567 HEAT:  137.7036
 CYCLE:   675 TIME:   0.594 TIME LEFT:  1.99D  GRAD.:     0.321 HEAT:  137.7036
 CYCLE:   676 TIME:   0.688 TIME LEFT:  1.99D  GRAD.:     0.446 HEAT:  137.7036
 CYCLE:   677 TIME:   0.609 TIME LEFT:  1.99D  GRAD.:     1.072 HEAT:  137.7036
 CYCLE:   678 TIME:   0.602 TIME LEFT:  1.99D  GRAD.:     0.471 HEAT:  137.7035
 CYCLE:   679 TIME:   0.742 TIME LEFT:  1.99D  GRAD.:     1.213 HEAT:  137.7035
 CYCLE:   680 TIME:   0.711 TIME LEFT:  1.99D  GRAD.:     0.712 HEAT:  137.7035
 CYCLE:   681 TIME:   0.742 TIME LEFT:  1.99D  GRAD.:     0.312 HEAT:  137.7035
 CYCLE:   682 TIME:   0.734 TIME LEFT:  1.99D  GRAD.:     0.310 HEAT:  137.7035
 CYCLE:   683 TIME:   0.773 TIME LEFT:  1.99D  GRAD.:     0.704 HEAT:  137.7035
 CYCLE:   684 TIME:   0.805 TIME LEFT:  1.99D  GRAD.:     1.136 HEAT:  137.7035
 CYCLE:   685 TIME:   0.641 TIME LEFT:  1.99D  GRAD.:     0.328 HEAT:  137.7034
 CYCLE:   686 TIME:   0.656 TIME LEFT:  1.99D  GRAD.:     0.365 HEAT:  137.7034
 CYCLE:   687 TIME:   0.812 TIME LEFT:  1.99D  GRAD.:     0.595 HEAT:  137.7034
 CYCLE:   688 TIME:   0.688 TIME LEFT:  1.99D  GRAD.:     0.595 HEAT:  137.7034
 CYCLE:   689 TIME:   0.680 TIME LEFT:  1.99D  GRAD.:     0.370 HEAT:  137.7034
 CYCLE:   690 TIME:   0.867 TIME LEFT:  1.99D  GRAD.:     0.384 HEAT:  137.7033
 CYCLE:   691 TIME:   0.727 TIME LEFT:  1.99D  GRAD.:     0.426 HEAT:  137.7033
 CYCLE:   692 TIME:   0.703 TIME LEFT:  1.99D  GRAD.:     0.413 HEAT:  137.7033
 CYCLE:   693 TIME:   0.633 TIME LEFT:  1.99D  GRAD.:     0.929 HEAT:  137.7033
 CYCLE:   694 TIME:   0.609 TIME LEFT:  1.99D  GRAD.:     0.335 HEAT:  137.7032
 CYCLE:   695 TIME:   0.742 TIME LEFT:  1.99D  GRAD.:     0.603 HEAT:  137.7032
 CYCLE:   696 TIME:   0.734 TIME LEFT:  1.99D  GRAD.:     0.825 HEAT:  137.7032
 CYCLE:   697 TIME:   0.633 TIME LEFT:  1.99D  GRAD.:     1.005 HEAT:  137.7032
 CYCLE:   698 TIME:   0.836 TIME LEFT:  1.99D  GRAD.:     1.028 HEAT:  137.7031
 CYCLE:   699 TIME:   1.328 TIME LEFT:  1.99D  GRAD.:     0.487 HEAT:  137.7031
 CYCLE:   700 TIME:   1.109 TIME LEFT:  1.99D  GRAD.:     0.410 HEAT:  137.7031
 CYCLE:   701 TIME:   0.656 TIME LEFT:  1.99D  GRAD.:     0.513 HEAT:  137.7031
 CYCLE:   702 TIME:   0.703 TIME LEFT:  1.99D  GRAD.:     0.749 HEAT:  137.7030
[...]
   15  S   1.88647   1.00980   1.04420   1.62927
   16  C   1.14665   0.93472   0.89484   0.94696
   17  C   1.18162   0.95768   0.99869   0.97867
   18  C   1.18135   0.98850   0.92623   0.98543
   19  C   1.14564   0.93339   0.91980   0.96328
   20  C   1.16293   0.95748   0.88518   0.97067
   21  C   1.16337   0.91805   0.93946   0.95439
   22  N   1.75745   1.17095   1.18309   1.10795
   23  C   1.17582   0.93523   0.88369   0.92969
   24  C   1.15747   0.94803   0.98053   0.96125
   25  C   1.17859   0.94692   0.96114   0.98961
   26  C   1.17920   0.97765   0.99684   0.96078
   27  C   1.17986   0.98265   0.95419   0.96659
   28  C   1.18007   0.96042   0.98191   0.99719
   29  C   1.17941   0.97091   0.97159   0.93956
   30  C   1.17536   0.89503   0.94148   0.90108
   31  N   1.75568   1.18768   1.18223   1.11922
   32  C   1.15766   1.04202   0.90522   0.94377
   33  C   1.17900   0.96951   0.92462   0.99133
   34  C   1.18001   1.00806   0.97062   0.96122
   35  C   1.17995   0.97840   0.98378   0.94114
   36  C   1.17944   1.00552   0.93588   0.99284
   37  C   1.17883   0.97657   0.97496   0.94381
   38  C   1.21657   1.05032   1.03251   1.00329
   39  C   1.18308   0.99545   0.99605   0.95523
   40  C   1.18239   0.95565   0.91950   0.96631
   41  C   1.22129   1.12788   1.06278   1.05561
   42  S   1.88078   1.32168   1.12779   1.03606
   43  C   1.16947   0.88150   0.92030   0.87643
   44  C   1.14243   0.97979   0.93069   1.09349
   45  C   1.18064   0.84958   0.83384   0.73553
   46  O   1.90973   1.15096   1.83687   1.45534
   47  O   1.84001   1.45782   1.22591   1.81108
   48  C   1.19638   0.91827   0.91827   0.91891
   49  N   1.84808   1.08881   1.10522   1.10508
   50  C   1.15761   1.00533   0.93643   0.94347
   51  C   1.14770   0.95733   0.92229   0.93469
   52  C   1.14846   1.04214   0.94823   0.96815
   53  C   1.14830   1.04958   0.94339   0.97714
   54  C   1.14280   0.97493   0.91398   0.87626
   55  C   1.17158   1.03772   0.92669   0.99000
   56  C   1.16091   0.96318   0.91401   0.93177
   57  C   1.16232   0.94311   0.93358   1.05792
   58  C   1.17701   0.96025   0.94991   0.95596
   59  C   1.17792   0.98655   0.93807   1.06653
   60  C   1.17013   0.92534   0.82427   0.93456
   61  C   1.17707   0.96034   0.97854   1.10624
   62  C   1.17521   0.97717   0.92486   0.95732
   63  O   1.85917   1.38323   1.15913   1.84140
   64  C   1.18529   0.90359   0.89462   0.99012
   65  C   1.18608   0.96617   0.92199   0.99679
   66  C   1.17375   0.98283   0.95542   1.01749
   67  C   1.17195   0.99807   0.94808   1.00495
   68  C   1.16700   0.99116   0.95188   1.00313
   69  C   1.15571   1.02638   0.98360   1.01162
   70  C   1.16909   0.98999   0.98539   0.96971
   71  C   1.15569   1.00712   0.98861   1.02568
   72  C   1.15777   1.01132   0.92549   0.95484
   73  C   1.14754   0.95259   0.92508   0.93185
   74  C   1.15887   0.99315   0.90947   0.95168
   75  C   1.15879   0.98840   0.91537   0.94606
   76  C   1.17832   0.99189   0.92896   0.98983
   77  C   1.17935   1.00615   0.96611   0.97171
   78  C   1.17872   0.97033   0.98165   0.94609
   79  C   1.17830   0.98223   0.95808   0.96722
   80  C   1.17954   1.01555   0.93469   0.99631
   81  C   1.17861   0.96861   0.98948   0.93834
   82  C   1.16861   0.99786   0.97686   0.97550
   83  C   1.15728   0.99871   0.99913   1.02485
   84  H   0.87308
   85  H   0.94323
   86  H   0.94273
   87  H   0.94114
   88  H   0.94253
   89  H   0.93687
   90  H   0.93132
   91  H   0.93902
   92  H   0.94245
   93  H   0.91986
   94  H   0.92204
   95  H   0.92237
   96  H   0.92441
   97  H   0.88020
   98  H   0.86682
   99  H   0.86395
  100  H   0.87537
  101  H   0.87638
  102  H   0.88354
  103  H   0.88974
  104  H   0.89309
  105  H   0.88920
  106  H   0.87683
  107  H   0.87903
  108  H   0.88924
  109  H   0.89266
  110  H   0.88883
  111  H   0.88193
  112  H   0.86689
  113  H   0.86653
  114  H   0.75512
  115  H   0.88049
  116  H   0.88451
  117  H   0.86998
  118  H   0.87885
  119  H   0.89177
  120  H   0.94017
  121  H   0.94457
  122  H   0.90876
  123  H   0.93059
  124  H   0.94111
  125  H   0.93701
  126  H   0.93279
  127  H   0.94002
  128  H   0.94101
  129  H   0.94378
  130  H   0.94187
  131  H   0.94171
  132  H   0.92455
  133  H   0.94100
  134  H   0.94456
  135  H   0.94109
  136  H   0.94062
  137  H   0.89351
  138  H   0.89729
  139  H   0.88441
  140  H   0.89379
  141  H   0.89614
  142  H   0.88613
  143  H   0.93278
  144  H   0.92351
  145  H   0.94161
  146  H   0.93878
  147  H   0.94522
 ******************** TDHF POLARIZABILITIES ********************



          MOLECULAR WEIGHT = 1121.46



          ROTATIONAL CONSTANTS IN CM(-1)

          A =    0.00144214   B =    0.00019012   C =    0.00017114



           PRINCIPAL MOMENTS OF INERTIA IN UNITS OF 10**(-40)*GRAM-CM**2

          A =    19410.5796   B =   147236.3457   C =   163568.7054


 ROTATION MATRIX FOR ORIENTATION OF MOLECULE:

         0.243779   -0.799630    0.548783
         0.946243    0.320147    0.046147
        -0.212592    0.508033    0.834690


          CARTESIAN COORDINATES 

    NO.       ATOM         X         Y         Z

     1         C        0.0711    5.8407   -1.6748
     2         C        0.4416    4.6252   -0.8406
     3         C        1.9259    4.6505   -0.4779
     4         C        2.3021    3.4087    0.3272
     5         C        3.7412    3.4706    0.8459
     6         C        4.0112    2.2924    1.8123
     7         N        4.0006    0.9780    1.1825
     8         C        2.8542    0.1846    0.9206
     9         C        1.4626    0.2341    1.1848
    10         C        0.6835   -0.8304    0.7737
    11         C       -0.7356   -0.7963    1.0611
    12         C       -1.4112   -1.6725    1.8560
    13         C       -2.8115   -1.3640    1.9332
    14         C       -3.1317   -0.2646    1.1939
    15         S       -1.7644    0.4022    0.3935
    16         C       -4.4441    0.3150    1.0469
    17         C       -4.6382    1.6671    1.1850
    18         C       -5.9205    2.2397    1.0532
    19         C       -7.0197    1.4646    0.7749
    20         C       -6.8468    0.0603    0.6021
    21         C       -5.5650   -0.5178    0.7554
    22         N       -5.3742   -1.8844    0.6245
    23         C       -6.4453   -2.6121    0.3321
    24         C       -6.2626   -4.0623    0.2311
    25         C       -7.1229   -4.9125    0.9217
    26         C       -6.9383   -6.2863    0.8375
    27         C       -5.9020   -6.8067    0.0699
    28         C       -5.0419   -5.9532   -0.6097
    29         C       -5.2152   -4.5764   -0.5285
    30         C       -7.7477   -2.0160    0.1347
    31         N       -7.9503   -0.7113    0.2735
    32         C       -8.8972   -2.8374   -0.2528
    33         C      -10.1016   -2.7122    0.4340
    34         C      -11.1896   -3.4884    0.0524
    35         C      -11.0762   -4.3746   -1.0117
    36         C       -9.8734   -4.4868   -1.7008
    37         C       -8.7788   -3.7194   -1.3242
    38         C       -8.3242    2.0756    0.6735
    39         C       -8.7586    3.1023    1.4780
    40         C      -10.0640    3.5409    1.1173
    41         C      -10.5589    2.8268    0.0525
    42         S       -9.4816    1.6249   -0.4765
    43         C      -11.8438    2.9951   -0.5613
    44         C      -12.4213    4.1986   -0.7398
    45         C      -13.7454    4.3727   -1.3522
    46         O      -14.2195    5.3954   -1.8177
    47         O      -14.4838    3.2388   -1.3724
    48         C      -11.7823    5.4154   -0.3878
    49         N      -11.2722    6.4151   -0.1093
    50         C        1.1879   -2.0017    0.1003
    51         C        2.5628   -2.0707   -0.1419
    52         C        3.2967   -0.9689    0.2774
    53         C        4.6855   -0.9110    0.1495
    54         C        5.1408    0.2800    0.7086
    55         C        6.5495    0.4479    0.7128
    56         C        7.3239   -0.5515    0.1603
    57         C        8.7755   -0.3800    0.1921
    58         C        9.5709   -1.3106    0.8629
    59         C       10.9437   -1.1486    0.9072
    60         C       11.5199   -0.0380    0.2717
    61         C       10.7360    0.9021   -0.3914
    62         C        9.3568    0.7207   -0.4236
    63         O       12.8741    0.0227    0.4129
    64         C       13.5708    0.9298   -0.4175
    65         C       15.0646    0.5966   -0.2192
    66         C       15.9089    1.6792   -0.9120
    67         C       17.0145    2.2042    0.0032
    68         C       17.8907    3.2175   -0.7301
    69         C       18.9761    3.7543    0.1888
    70         C       15.3619   -0.7961   -0.7858
    71         C       16.7944   -1.2241   -0.5143
    72         C        6.8047   -1.7609   -0.4266
    73         C        5.4197   -1.9497   -0.4081
    74         C        4.7190   -3.0917   -0.8896
    75         C        3.2569   -3.1556   -0.7496
    76         C        2.4650   -4.2088   -1.1523
    77         C        1.0679   -4.1660   -0.9509
    78         C        0.4313   -3.1060   -0.3441
    79         C        5.5080   -4.0711   -1.4529
    80         C        6.9081   -3.9025   -1.5253
    81         C        7.5544   -2.7897   -1.0335
    82         C        4.7621    3.5058   -0.2970
    83         C        5.3554    4.8949   -0.4871
    84         H      -12.3432    2.0740   -0.8963
    85         H       -0.9971    5.8471   -1.9362
    86         H        0.2721    6.7850   -1.1486
    87         H        0.6266    5.8815   -2.6229
    88         H       -0.1850    4.5874    0.0756
    89         H        0.1915    3.6931   -1.3903
    90         H        2.5347    4.7216   -1.4032
    91         H        2.1623    5.5740    0.0919
    92         H        1.6022    3.3041    1.1849
    93         H        2.1428    2.4956   -0.2847
    94         H        3.8472    4.3979    1.4709
    95         H        4.9998    2.4333    2.3105
    96         H        3.2600    2.2933    2.6378
    97         H        1.0249    1.0802    1.7183
    98         H       -0.9615   -2.5105    2.3837
    99         H       -3.5101   -1.9545    2.5222
   100         H       -3.7931    2.3271    1.4093
   101         H       -6.0194    3.3245    1.1715
   102         H       -7.9322   -4.5066    1.5368
   103         H       -7.6095   -6.9599    1.3782
   104         H       -5.7620   -7.8899    0.0046
   105         H       -4.2227   -6.3636   -1.2073
   106         H       -4.5293   -3.9034   -1.0530
   107         H      -10.1937   -2.0068    1.2659
   108         H      -12.1377   -3.3980    0.5905
   109         H      -11.9349   -4.9834   -1.3102
   110         H       -9.7881   -5.1807   -2.5422
   111         H       -7.8363   -3.8035   -1.8746
   112         H       -8.1961    3.5365    2.3009
   113         H      -10.5908    4.3275    1.6536
   114         H      -15.3480    3.3944   -1.7793
   115         H        7.0107    1.3303    1.1623
   116         H        9.1047   -2.1670    1.3615
   117         H       11.5746   -1.8711    1.4332
   118         H       11.1597    1.7804   -0.8819
   119         H        8.7276    1.4505   -0.9436
   120         H       13.2757    0.8361   -1.4869
   121         H       13.3493    1.9762   -0.1058
   122         H       15.2756    0.5860    0.8818
   123         H       16.3413    1.2994   -1.8618
   124         H       15.2824    2.5346   -1.2472
   125         H       16.5740    2.6671    0.9120
   126         H       17.6364    1.3684    0.3875
   127         H       18.3475    2.7575   -1.6320
   128         H       17.2752    4.0540   -1.1235
   129         H       19.6199    4.4850   -0.3219
   130         H       18.5619    4.2627    1.0714
   131         H       19.6372    2.9591    0.5623
   132         H       14.6675   -1.5443   -0.3464
   133         H       15.1498   -0.8311   -1.8757
   134         H       16.9703   -2.2644   -0.8271
   135         H       17.5347   -0.6144   -1.0511
   136         H       17.0515   -1.1722    0.5537
   137         H        2.8931   -5.0929   -1.6322
   138         H        0.4744   -5.0196   -1.2945
   139         H       -0.6546   -3.1183   -0.2128
   140         H        5.0747   -4.9905   -1.8559
   141         H        7.4964   -4.6976   -1.9952
   142         H        8.6406   -2.7008   -1.1263
   143         H        5.5952    2.7925   -0.1223
   144         H        4.3150    3.1447   -1.2474
   145         H        6.0400    4.9284   -1.3475
   146         H        4.5946    5.6678   -0.6645
   147         H        5.9369    5.2223    0.3874


 ENERGY OF "REORIENTED" SYSTEM WITHOUT FIELD:      137.6788487509


  NFREQ=  3  IWFLB=  0  IBET=  1  IGAM=  1
  ATOL= 0.10000D-02  BTOL= 0.10000D-02    MAXITU=  500    MAXITA=  150


 *****************************************************************
 CALCULATION OF STATIC FIELD QUANTITIES
 *****************************************************************

 +++++ ALPHA AT       0.00000 EV.

                           COMPONENTS OF ALPHA

                     *X           *Y           *Z
           *=X:    1298.2239     -30.8735      -4.5132
           *=Y:     -30.9020     877.2863      91.8289
           *=Z:      -4.5418      91.8261     393.2039

  ISOTROPIC AVERAGE ALPHA =     856.23804 A.U. =    126.88138 ANG.**3

 +++++ BETA (SECOND HARMONIC GENERATION) AT       0.00000 EV.

                              COMPONENTS OF BETA
            *XX         *XY         *YY         *XZ         *YZ         *ZZ
   *=X  7215.51768 -1643.82648   238.19041   399.97325  -391.27571   169.07507
   *=Y -1644.02271   238.23932   -90.36820  -391.36374   128.92831   -66.60817
   *=Z   399.89400  -391.03664   128.87069   169.24944   -66.62584   -22.80239


 AVERAGE BETAX(SHG) VALUE AT   0.00000 EV =       4573.7592 a.u. =  0.395146E-28 ESU
 AVERAGE BETAY(SHG) VALUE AT   0.00000 EV =      -1080.5280 a.u. = -0.933513E-29 ESU
 AVERAGE BETAZ(SHG) VALUE AT   0.00000 EV =        303.6321 a.u. =  0.262320E-29 ESU



 AVERAGE BETA (SHG) VALUE AT   0.00000 EV =       4709.4593 a.u. =  0.406870E-28 ESU
   (1 a.u. = 8.639418X10-33 esu)



 +++++ ALPHA AT       0.00000 EV.

                           COMPONENTS OF ALPHA

                     *X           *Y           *Z
           *=X:    1298.2239     -30.8735      -4.5132
           *=Y:     -30.9020     877.2863      91.8289
           *=Z:      -4.5418      91.8261     393.2039

  ISOTROPIC AVERAGE ALPHA =     856.23804 A.U. =    126.88138 ANG.**3


 GAMMA (THIRD HARMONIC GENERATION) AT    0.00000 EV.


 GAMMA(X,X,X,X) =       4608575.72129
 GAMMA(Y,Y,Y,Y) =        308317.97103
 GAMMA(Z,Z,Z,Z) =         12374.52600
 GAMMA(X,X,Y,Y) =        307440.17326
 GAMMA(X,X,Z,Z) =         50589.05653
 GAMMA(Y,Y,X,X) =        307440.01683
 GAMMA(Y,Y,Z,Z) =         26689.31267
 GAMMA(Z,Z,X,X) =         50589.71878
 GAMMA(Z,Z,Y,Y) =         26689.31664


 AVERAGE GAMMA VALUE AT    0.00000 =       1139741.16260 a.u. =       574053.72541 ESU (X10-39)




 **********************************************************************
 CALCULATION FOR A FREQUENCY OF    0.25000 EV  =       0.00919 A.U. 
                  WAVELENGTH OF    4959.37 NM  =    2016.38525 CM(-1)
 **********************************************************************

 +++++ ALPHA AT       0.25000 EV.

                           COMPONENTS OF ALPHA

                     *X           *Y           *Z
           *=X:    1304.1444     -31.4722      -4.4780
           *=Y:     -31.4983     879.2339      91.9633
           *=Z:      -4.5048      91.9608     393.7576

  ISOTROPIC AVERAGE ALPHA =     859.04532 A.U. =    127.29738 ANG.**3

 +++++ BETA (SECOND HARMONIC GENERATION) AT       0.25000 EV.

                              COMPONENTS OF BETA
            *XX         *XY         *YY         *XZ         *YZ         *ZZ
   *=X  7572.13381 -1747.63217   246.08414   415.84682  -409.45171   178.69996
   *=Y -1733.84684   264.54413   -99.00414  -415.15569   140.05825   -72.00696
   *=Z   407.81482  -400.56823   132.08656   177.38752   -70.56379   -21.59944


 AVERAGE BETAX(SHG) VALUE AT   0.25000 EV =       4805.0098 a.u. =  0.415125E-28 ESU
 AVERAGE BETAY(SHG) VALUE AT   0.25000 EV =      -1147.8516 a.u. = -0.991677E-29 ESU
 AVERAGE BETAZ(SHG) VALUE AT   0.25000 EV =        317.3826 a.u. =  0.274200E-29 ESU



 AVERAGE BETA (SHG) VALUE AT   0.25000 EV =       4950.3953 a.u. =  0.427685E-28 ESU
   (1 a.u. = 8.639418X10-33 esu)



 +++++ ALPHA AT       0.75000 EV.

                           COMPONENTS OF ALPHA

                     *X           *Y           *Z
           *=X:    1355.5296     -36.7517      -4.1711
           *=Y:     -36.7782     895.4477      93.0280
           *=Z:      -4.1976      93.0261     398.3110

  ISOTROPIC AVERAGE ALPHA =     883.09611 A.U. =    130.86134 ANG.**3


 GAMMA (THIRD HARMONIC GENERATION) AT    0.25000 EV.


 GAMMA(X,X,X,X) =       5154093.77634
 GAMMA(Y,Y,Y,Y) =        329884.15960
 GAMMA(Z,Z,Z,Z) =         12842.72646
 GAMMA(X,X,Y,Y) =        339765.00563
 GAMMA(X,X,Z,Z) =         55593.96468
 GAMMA(Y,Y,X,X) =        345795.61839
 GAMMA(Y,Y,Z,Z) =         28773.64106
 GAMMA(Z,Z,X,X) =         55840.64981
 GAMMA(Z,Z,Y,Y) =         28493.31336


 AVERAGE GAMMA VALUE AT    0.25000 =       1270216.57107 a.u. =       639770.30805 ESU (X10-39)




 **********************************************************************
 CALCULATION FOR A FREQUENCY OF    0.50000 EV  =       0.01837 A.U. 
                  WAVELENGTH OF    2479.68 NM  =    4032.77050 CM(-1)
 **********************************************************************

 +++++ ALPHA AT       0.50000 EV.

                           COMPONENTS OF ALPHA

                     *X           *Y           *Z
           *=X:    1322.5177     -33.3418      -4.3655
           *=Y:     -33.3668     885.1771      92.3658
           *=Z:      -4.3909      92.3636     395.4382

  ISOTROPIC AVERAGE ALPHA =     867.71100 A.U. =    128.58150 ANG.**3

 +++++ BETA (SECOND HARMONIC GENERATION) AT       0.50000 EV.

                              COMPONENTS OF BETA
            *XX         *XY         *YY         *XZ         *YZ         *ZZ
   *=X  8861.58556 -2127.72704   271.29855   469.24786  -473.92310   213.29342
   *=Y -2053.54996   359.60122  -129.89367  -499.46175   179.72127   -91.29022
   *=Z   434.21857  -431.22366   142.14589   205.68205   -84.26226   -17.36291


 AVERAGE BETAX(SHG) VALUE AT   0.50000 EV =       5639.9830 a.u. =  0.487262E-28 ESU
 AVERAGE BETAY(SHG) VALUE AT   0.50000 EV =      -1391.7000 a.u. = -0.120235E-28 ESU
 AVERAGE BETAZ(SHG) VALUE AT   0.50000 EV =        364.4428 a.u. =  0.314857E-29 ESU



 AVERAGE BETA (SHG) VALUE AT   0.50000 EV =       5820.5718 a.u. =  0.502864E-28 ESU
   (1 a.u. = 8.639418X10-33 esu)



 +++++ ALPHA AT       1.50000 EV.

                           COMPONENTS OF ALPHA

                     *X           *Y           *Z
           *=X:    1618.5099     -65.1890      -3.3725
           *=Y:     -65.2584     961.2458      96.1047
           *=Z:      -3.4253      96.1050     415.7546

  ISOTROPIC AVERAGE ALPHA =     998.50344 A.U. =    147.96294 ANG.**3


 GAMMA (THIRD HARMONIC GENERATION) AT    0.50000 EV.


 GAMMA(X,X,X,X) =       7823619.20346
 GAMMA(Y,Y,Y,Y) =        414402.56098
 GAMMA(Z,Z,Z,Z) =         14544.23730
 GAMMA(X,X,Y,Y) =        485548.41047
 GAMMA(X,X,Z,Z) =         78531.48652
 GAMMA(Y,Y,X,X) =        519633.20079
 GAMMA(Y,Y,Z,Z) =         37430.91952
 GAMMA(Z,Z,X,X) =         78499.86179
 GAMMA(Z,Z,Y,Y) =         35553.33022


 AVERAGE GAMMA VALUE AT    0.50000 =       1897552.64221 a.u. =       955740.82885 ESU (X10-39)



 **********************
 *                    *
 * JOB ENDED NORMALLY *
 *                    *
 **********************



 TOTAL JOB TIME:          2530.65 SECONDS

 == MOPAC DONE ==
